/*--------------------------------*- C++ -*----------------------------------*\
| =========                 |                                                 |
| \\      /  F ield         | OpenFOAM: The Open Source CFD Toolbox           |
|  \\    /   O peration     | Version:  2312                                  |
|   \\  /    A nd           | Website:  www.openfoam.com                      |
|    \\/     M anipulation  |                                                 |
\*---------------------------------------------------------------------------*/
FoamFile
{
    version     2.0;
    format      ascii;
    arch        "LSB;label=64;scalar=64";
    class       volScalarField;
    location    "150";
    object      p;
}
// * * * * * * * * * * * * * * * * * * * * * * * * * * * * * * * * * * * * * //

dimensions      [0 2 -2 0 0 0 0];

internalField   nonuniform List<scalar> 
404911
(
0.0606663
0.0606545
0.0606869
0.060668
0.0606417
0.0606492
0.060664
0.0606699
0.0606688
0.0606685
0.0613428
0.0609721
0.0608076
0.0607513
0.0607018
0.0606843
0.0615644
0.0613428
0.0611041
0.0609718
0.0619085
0.0617166
0.0614215
0.0624019
0.0621475
0.061717
0.0628316
0.0626466
0.0624965
0.0634273
0.0632535
0.0630479
0.0627983
0.062712
0.0635369
0.0634124
0.0632005
0.0641937
0.0639714
0.0637523
0.0635176
0.064425
0.0643124
0.0641594
0.063979
0.0636862
0.0645613
0.0644436
0.0642894
0.0641714
0.0648862
0.0647428
0.0645457
0.0644604
0.0649261
0.0648846
0.0673173
0.0603973
0.0604508
0.0604405
0.0610944
0.0608296
0.061562
0.0613334
0.0611384
0.0619543
0.0617059
0.061437
0.062444
0.0620588
0.0628435
0.0625428
0.0624862
0.0632441
0.0630337
0.0627028
0.0625745
0.063494
0.0633586
0.0640345
0.063741
0.0643301
0.0641191
0.0640453
0.0646076
0.0644711
0.06496
0.0646863
0.0645114
0.0649891
0.0649598
0.0671759
0.0673053
0.0671446
0.0679157
0.0676499
0.0674976
0.0682736
0.0680226
0.0677466
0.0686018
0.0685267
0.0683115
0.0685665
0.0245122
0.0242635
0.0240358
0.0258605
0.0256238
0.0250896
0.0250152
0.0246827
0.0244466
0.0242568
0.0239026
0.0266303
0.0263445
0.0257044
0.0253377
0.0250254
0.0248362
0.0245736
0.0243635
0.0232696
0.0275251
0.027235
0.0270193
0.0267624
0.026543
0.026368
0.0259645
0.0255378
0.0251811
0.0249761
0.0247548
0.0244733
0.0239893
0.0234518
0.0233209
0.0232159
0.0282467
0.0279246
0.0276322
0.0273397
0.0270868
0.0268563
0.0266408
0.0264299
0.0261496
0.0258006
0.0254808
0.0251519
0.0249341
0.0246399
0.0232934
0.029165
0.0287393
0.0283898
0.0280123
0.0276698
0.0274133
0.0271622
0.0269291
0.0267067
0.0264995
0.0261989
0.0259054
0.0256557
0.0253587
0.0251842
0.0296985
0.0294199
0.028953
0.028573
0.0282115
0.027801
0.0275209
0.0272313
0.0270132
0.0268261
0.0265882
0.0263583
0.0260562
0.0257835
0.0255234
0.0253554
0.030741
0.0302984
0.0298712
0.0295572
0.0290538
0.0287843
0.0284166
0.027912
0.0276031
0.0273224
0.0271318
0.0269185
0.0266873
0.0264432
0.0261769
0.0259108
0.0256767
0.0320529
0.0316877
0.0313545
0.0309254
0.0304884
0.0301
0.0297678
0.0293572
0.028994
0.0285884
0.0280553
0.0277599
0.0274824
0.027275
0.0270579
0.0267964
0.0265656
0.0263169
0.0327254
0.0323894
0.031905
0.0315399
0.0311275
0.0306974
0.0303542
0.0299384
0.0295559
0.0291478
0.0287642
0.0282864
0.0278794
0.0276424
0.027434
0.0271703
0.0269522
0.0266985
0.0336123
0.0333065
0.0329926
0.032631
0.0321917
0.0317719
0.0313679
0.030934
0.030546
0.0301341
0.0297513
0.029361
0.0289718
0.0285152
0.028083
0.0277994
0.0275947
0.0273623
0.0341814
0.0338653
0.0335289
0.0332247
0.0328581
0.0324324
0.0320382
0.0316147
0.0311871
0.0308025
0.0303877
0.0299909
0.0295563
0.0291637
0.0288415
0.0283655
0.0279179
0.0349779
0.0346813
0.0343102
0.0340682
0.0337744
0.0334437
0.0330669
0.0326742
0.0322721
0.031851
0.0314365
0.0310134
0.0306104
0.0302224
0.0297777
0.0293643
0.0290677
0.0357472
0.0354248
0.035109
0.0349595
0.0346558
0.0343462
0.0340047
0.0336962
0.0333397
0.032965
0.0325521
0.0320753
0.0316337
0.0312027
0.0308576
0.0304121
0.029982
0.029619
0.0367944
0.0364681
0.0359811
0.0356081
0.0352853
0.0351654
0.0348596
0.0345634
0.0342278
0.0339335
0.0336593
0.0332378
0.0327739
0.0323023
0.0318172
0.03135
0.0310719
0.0307599
0.037451
0.0372481
0.0370339
0.0368341
0.0363485
0.0358731
0.035523
0.0353613
0.0351349
0.0348134
0.0344288
0.0341462
0.0339518
0.0335228
0.0329745
0.0324809
0.0320569
0.0315849
0.0378685
0.0376162
0.0373975
0.0371898
0.0369878
0.0366734
0.0362152
0.0358429
0.0355364
0.0353202
0.0349385
0.0345516
0.0343222
0.0341585
0.0337564
0.0331649
0.0326463
0.0322334
0.0385821
0.0383054
0.0379559
0.037753
0.0375397
0.0372732
0.0370652
0.0367983
0.0364996
0.0361474
0.0357956
0.0355568
0.0351607
0.0347387
0.0344492
0.0342878
0.0339266
0.0333765
0.0390795
0.038753
0.038474
0.0381854
0.0379023
0.0376595
0.037408
0.0371319
0.0368731
0.0366856
0.0364684
0.0361128
0.0357858
0.0354172
0.0349767
0.0346534
0.0344406
0.034167
0.0401719
0.0398581
0.039343
0.0389477
0.0386978
0.0383986
0.0381133
0.0378279
0.03758
0.0372518
0.03696
0.036807
0.0366404
0.0364409
0.0361393
0.0357471
0.0352706
0.0348668
0.0406857
0.0404475
0.0402114
0.0397596
0.0393234
0.0390006
0.0387117
0.0384406
0.0380854
0.0378099
0.0373976
0.0371331
0.0369453
0.0367632
0.0365512
0.0363081
0.0359444
0.0412829
0.04105
0.0408219
0.0406306
0.0404476
0.0400214
0.0396614
0.0392845
0.0389943
0.0386299
0.0382887
0.0380245
0.0376386
0.0373305
0.0371365
0.0369218
0.036703
0.0364421
0.0417144
0.0414592
0.0412349
0.0409867
0.040789
0.0405817
0.0402647
0.0399329
0.0396187
0.0393358
0.0389975
0.0385993
0.0382188
0.0378452
0.0375307
0.0373003
0.0370828
0.0368525
0.0421016
0.0418861
0.0416578
0.0414297
0.0411497
0.0408857
0.0406826
0.0404142
0.0401221
0.0398762
0.0396365
0.0393168
0.038851
0.0384753
0.0380851
0.0378722
0.03752
0.0372957
0.0427416
0.042491
0.0422756
0.0420688
0.0418578
0.0416696
0.0413508
0.04107
0.0407838
0.0404787
0.0402036
0.0400191
0.0398054
0.039576
0.0391543
0.0387233
0.0383484
0.0380182
0.0433282
0.0431139
0.0429017
0.0426785
0.0424731
0.0422559
0.0420346
0.0418219
0.0415887
0.0412736
0.0409536
0.0406424
0.0403118
0.0401302
0.0399124
0.0396657
0.0392856
0.0389683
0.043738
0.0434903
0.0432773
0.043067
0.0428499
0.0426585
0.0424773
0.0422431
0.0420135
0.0417337
0.041438
0.0411323
0.0408477
0.0405128
0.0402852
0.040064
0.0398255
0.039491
0.044336
0.0441037
0.0438815
0.0436574
0.0434198
0.0432196
0.0430237
0.0428402
0.042685
0.0425092
0.0422284
0.0419293
0.0416242
0.0413612
0.0410698
0.0407221
0.0403526
0.04026
0.0447173
0.0444923
0.0442629
0.0440393
0.0437998
0.0435743
0.0433714
0.0431767
0.0429981
0.0428454
0.0427121
0.0424458
0.0421562
0.0418303
0.0415073
0.0413052
0.0409814
0.0406842
0.0451396
0.0448831
0.0446271
0.0444035
0.0441838
0.043935
0.0437036
0.0435108
0.0433237
0.0431423
0.0429693
0.0427881
0.0425642
0.0422897
0.0419918
0.0417159
0.0414546
0.0411457
0.045635
0.0453457
0.0450522
0.0447626
0.0445888
0.0443655
0.0440974
0.0438027
0.0436359
0.0434632
0.0432822
0.0430961
0.0428945
0.0426629
0.0424059
0.0421473
0.0418675
0.0416465
0.046203
0.0460386
0.045866
0.0456086
0.0452989
0.0450162
0.0448117
0.0445938
0.0443172
0.0439759
0.0437839
0.0436163
0.0434336
0.0432347
0.043023
0.0427949
0.0425602
0.0422626
0.0466676
0.0464078
0.0461843
0.0459939
0.0457505
0.0454634
0.0452209
0.0450371
0.0448815
0.0446106
0.0442352
0.0439697
0.043796
0.0436067
0.0433874
0.0431792
0.0429619
0.0427318
0.0471006
0.0468561
0.0466009
0.0463691
0.0460852
0.0458083
0.04556
0.0453596
0.0451804
0.0450225
0.0448019
0.0445032
0.0442141
0.0439927
0.0437814
0.0435779
0.0433778
0.0431697
0.0474761
0.047266
0.0470397
0.0467761
0.046572
0.0462734
0.0459713
0.0456201
0.045467
0.0452975
0.045125
0.0449258
0.0446746
0.0444331
0.0441871
0.0439565
0.0437456
0.0482089
0.0479265
0.0476879
0.0474582
0.0472024
0.0469587
0.0467752
0.0464726
0.0461372
0.0457729
0.0455921
0.0454298
0.0452577
0.0450589
0.0448324
0.0446007
0.0443649
0.0441213
0.0486403
0.0483937
0.0481492
0.0479077
0.0476345
0.0473557
0.047085
0.0468876
0.0466686
0.0463815
0.0460347
0.0457044
0.0455822
0.0454088
0.0452146
0.0450034
0.0447749
0.0445698
0.0490094
0.0488065
0.0485873
0.04836
0.0481429
0.0478771
0.0476132
0.0472518
0.0470337
0.0468597
0.0466068
0.0462422
0.0459417
0.0457678
0.0455859
0.0453994
0.0452091
0.0449923
0.049611
0.0493819
0.0491867
0.0489902
0.048792
0.0486042
0.0484369
0.0481108
0.0478488
0.0475022
0.0471951
0.0470076
0.0468178
0.0465248
0.0462113
0.0459823
0.0457793
0.0455771
0.0499611
0.0497533
0.0495701
0.049373
0.0491813
0.048994
0.0488207
0.0486783
0.0484192
0.0481111
0.0477437
0.0474315
0.0471187
0.0470013
0.0467807
0.0464663
0.0462052
0.0459487
0.0503685
0.0501402
0.0499336
0.0497424
0.0495452
0.0493613
0.0491793
0.0490069
0.0488591
0.0486863
0.0482986
0.0480287
0.0476231
0.0473192
0.0471507
0.0469432
0.0466878
0.0464493
0.0507053
0.0505431
0.0503266
0.0501185
0.0499187
0.0497212
0.0495385
0.0493576
0.0491595
0.0489699
0.0488003
0.0485821
0.0482442
0.0478767
0.0475704
0.0473427
0.0471422
0.0468899
0.0511604
0.0509558
0.0507149
0.0505075
0.0502847
0.0500849
0.0498957
0.0497252
0.0495551
0.0493366
0.0491083
0.0488844
0.0486815
0.0484411
0.048092
0.0478214
0.0475629
0.051762
0.051529
0.0513312
0.0511076
0.0508697
0.0506659
0.050442
0.0502408
0.0500622
0.049905
0.0497726
0.049566
0.0493567
0.0490438
0.0488233
0.0486079
0.0483323
0.0480709
0.0521109
0.0519081
0.0517146
0.0515117
0.0512982
0.0510781
0.0508375
0.0505795
0.0503662
0.0502129
0.0500739
0.0499579
0.0498844
0.0495635
0.049275
0.0489876
0.0487784
0.048543
0.0525094
0.0522951
0.0520897
0.051898
0.0516829
0.0514932
0.0513105
0.0510721
0.0508342
0.0505203
0.0503505
0.0502288
0.0500967
0.0499618
0.0497553
0.0494686
0.0492048
0.0489722
0.0528842
0.0526736
0.0524739
0.0522614
0.0520607
0.0518514
0.0516726
0.0515186
0.0513749
0.0511769
0.0507843
0.0505445
0.0504002
0.0502444
0.0500761
0.049863
0.0496382
0.0494027
0.0533252
0.0530658
0.0528461
0.0526389
0.0524196
0.052206
0.0520002
0.0518207
0.0516594
0.0515138
0.0513044
0.0510383
0.0507827
0.0505928
0.0504087
0.0502118
0.0500133
0.0497818
0.0537599
0.0535059
0.0532553
0.0530201
0.0527899
0.0525629
0.0523413
0.052129
0.051941
0.0517746
0.0516112
0.0514248
0.0512077
0.0509813
0.0507775
0.0505775
0.0503812
0.0501643
0.0542313
0.0539548
0.0536672
0.0534154
0.0531642
0.0529303
0.0527029
0.052464
0.0522388
0.0520429
0.0518896
0.0517304
0.051561
0.0513632
0.0511571
0.0509607
0.0507553
0.0505283
0.0546524
0.0544326
0.054193
0.0538612
0.0535283
0.0532878
0.0530633
0.052866
0.0526365
0.0523436
0.0521133
0.0520007
0.0518727
0.051715
0.0515296
0.0513304
0.0511302
0.0509554
0.0552718
0.0550743
0.0548616
0.054683
0.0544865
0.054088
0.0537532
0.0535018
0.0531997
0.0530445
0.0527712
0.0526091
0.0523233
0.0521619
0.0520392
0.0518866
0.051702
0.0515177
0.0513146
0.0556457
0.0554756
0.0552887
0.0550889
0.0549099
0.0547786
0.0545096
0.0542121
0.0538119
0.0534625
0.0532869
0.0530788
0.0528581
0.0525797
0.052389
0.0522426
0.052071
0.0518908
0.0558371
0.055649
0.0554635
0.0552676
0.0551041
0.0549655
0.054801
0.0545313
0.0541679
0.0538603
0.0535149
0.0532892
0.053148
0.0529087
0.0526445
0.052444
0.0522595
0.0564194
0.0562278
0.0560411
0.0558387
0.0556405
0.0554434
0.0552678
0.0551245
0.0549862
0.0546931
0.054438
0.0540871
0.0537836
0.0535202
0.0533161
0.0531114
0.0528846
0.0526581
0.0568307
0.0565945
0.0564211
0.0562271
0.0560237
0.0558196
0.0556083
0.0554067
0.0552533
0.0551386
0.0549099
0.0546428
0.0543092
0.0539773
0.0537576
0.0535357
0.0533181
0.0530648
0.0571078
0.0569782
0.0567944
0.0565991
0.0564098
0.056221
0.0560292
0.0557916
0.0555354
0.0553372
0.0552588
0.0550856
0.0548479
0.0545292
0.0542172
0.0539746
0.0537573
0.0535525
0.0573195
0.0571354
0.0569567
0.0567717
0.0565911
0.0564156
0.0562582
0.0560505
0.0557607
0.0554831
0.0553648
0.0552554
0.0550234
0.0547164
0.054457
0.0542052
0.0539838
0.0578194
0.057497
0.057266
0.0571247
0.0569516
0.056765
0.0565891
0.0564491
0.0562762
0.056021
0.055693
0.0554997
0.0553653
0.0551547
0.0549088
0.0546692
0.0544308
0.0589068
0.0585335
0.0581506
0.0577733
0.0575253
0.0573316
0.0571426
0.056925
0.0567267
0.056584
0.0564686
0.0562141
0.0558878
0.0556875
0.0555166
0.0553197
0.0550828
0.0548516
0.0593418
0.0591038
0.0587855
0.0584115
0.057998
0.0577579
0.0575597
0.0573696
0.0571415
0.0569457
0.0567046
0.0566162
0.0563855
0.0560993
0.0558801
0.0556746
0.0555059
0.0596951
0.0595076
0.0592359
0.0589424
0.0586091
0.0582125
0.0579212
0.0577572
0.0576007
0.0573269
0.0571465
0.0569202
0.0567389
0.0565883
0.0563225
0.0560741
0.0558586
0.0603548
0.0601137
0.0599063
0.0596947
0.0594072
0.0591493
0.0588284
0.058442
0.0581566
0.0579449
0.0577559
0.0576118
0.0573672
0.0571258
0.0569244
0.0567405
0.0565119
0.0562809
0.0607734
0.0605268
0.060274
0.060097
0.0598999
0.0596972
0.0594474
0.0591128
0.0587735
0.058546
0.0581872
0.0580072
0.0577549
0.0575197
0.0573343
0.0571357
0.0569416
0.0567287
0.0612322
0.0609403
0.060762
0.0604636
0.0603387
0.060167
0.0601279
0.0599572
0.0596302
0.0591552
0.0588259
0.0585631
0.0583016
0.0579907
0.0576679
0.0574905
0.0573299
0.0571386
0.0618005
0.061523
0.061211
0.0609529
0.0607512
0.0605752
0.0604685
0.0602664
0.0600907
0.0599692
0.0595562
0.0592079
0.0589376
0.0586395
0.0583245
0.0579823
0.0577478
0.0575621
0.0624966
0.062264
0.0620112
0.0617322
0.061478
0.0612239
0.061031
0.0608921
0.0608841
0.060571
0.0603194
0.060083
0.059812
0.0595129
0.0592573
0.0590194
0.0586581
0.0582848
0.0580185
0.0628658
0.062667
0.0624617
0.0622421
0.0619887
0.0617196
0.0614921
0.0612842
0.0611718
0.0608681
0.0606395
0.0604178
0.060205
0.0599918
0.0597244
0.0594509
0.0592291
0.0589093
0.058606
0.063022
0.0628505
0.0626258
0.0624225
0.062187
0.0619522
0.0616423
0.0614147
0.0612285
0.0609613
0.0607535
0.0605445
0.0603447
0.0601247
0.0598705
0.0596324
0.0593881
0.0591438
0.0635498
0.0633112
0.063072
0.0628346
0.0626242
0.0624617
0.0621959
0.0618963
0.0615709
0.0613418
0.0610939
0.0608852
0.0607069
0.0604997
0.060272
0.0600392
0.0597945
0.0640325
0.0637851
0.0635509
0.0632985
0.0630506
0.0628285
0.0624828
0.0624442
0.0620899
0.0618012
0.0615057
0.061277
0.0610751
0.0608876
0.0606749
0.0604561
0.0601835
0.0645537
0.0642652
0.0640126
0.0637584
0.0634954
0.0631908
0.0629612
0.0626872
0.0625486
0.0623411
0.061998
0.0617251
0.0614978
0.061289
0.0610805
0.0608657
0.0606336
0.0652235
0.0649999
0.0647698
0.0644739
0.0642146
0.0639276
0.0636129
0.0633849
0.0632023
0.0629977
0.0627714
0.062522
0.0621977
0.061934
0.0617124
0.0614981
0.0612778
0.0610879
0.0657417
0.0654906
0.0652045
0.0649568
0.0646669
0.0643713
0.0641726
0.0640569
0.0636214
0.0634194
0.0632015
0.0629908
0.0627449
0.0624121
0.0621565
0.0619254
0.061703
0.0662227
0.065973
0.0656953
0.065413
0.0650904
0.0647722
0.0644097
0.0642092
0.0640536
0.063852
0.0636292
0.0634018
0.0631976
0.0629598
0.0626763
0.0623965
0.0621571
0.0666801
0.0664446
0.0662194
0.0659192
0.0655541
0.0651395
0.0648899
0.064717
0.064441
0.0642719
0.0640698
0.0638476
0.0635948
0.0633714
0.0631391
0.0628834
0.0626339
0.0672225
0.066937
0.0666637
0.0664043
0.0660642
0.0656685
0.0652991
0.065101
0.0647872
0.0646413
0.0644902
0.064287
0.0640636
0.0638329
0.0635784
0.0633568
0.0630987
0.0676745
0.0674665
0.0671889
0.0669025
0.0666238
0.0662946
0.065854
0.0651195
0.0651961
0.0650804
0.0649458
0.0647304
0.0644965
0.064271
0.0640327
0.0637847
0.0635543
0.0681317
0.0678891
0.0676728
0.0674737
0.0671835
0.0669949
0.0666777
0.0661804
0.065825
0.0655535
0.0653586
0.0651952
0.0649861
0.0647166
0.0644893
0.0642526
0.0639959
0.0683357
0.0680873
0.0678698
0.0676193
0.067393
0.0671338
0.0669665
0.0665863
0.0661636
0.0658426
0.0656087
0.0653993
0.0651726
0.0649295
0.0647261
0.0644598
0.0691142
0.0687081
0.0683479
0.0681201
0.0678733
0.0676513
0.0675086
0.0670811
0.0667505
0.0664087
0.0660703
0.0658017
0.0656059
0.0653662
0.065133
0.070135
0.0698891
0.0694883
0.069069
0.0686286
0.0684193
0.0681077
0.0677933
0.0676267
0.0672657
0.0669046
0.0665825
0.0663409
0.0660612
0.0658192
0.065592
0.0706189
0.0703985
0.0701748
0.0698081
0.0693958
0.0688938
0.0684824
0.0685289
0.06808
0.0678426
0.0675211
0.0671334
0.0666952
0.0665043
0.0662799
0.0660444
0.0711666
0.0709235
0.070675
0.0703472
0.0699988
0.0696281
0.0691966
0.0689884
0.068635
0.0683568
0.0681097
0.0678175
0.0674091
0.0670127
0.0667286
0.0665103
0.0719531
0.0716774
0.0714124
0.0711655
0.0709778
0.0706319
0.070289
0.0699881
0.0696933
0.0693834
0.0690412
0.0686443
0.0683045
0.0680463
0.0677329
0.0673778
0.0723922
0.0721198
0.0719113
0.0716967
0.0714327
0.0712041
0.0708541
0.0705192
0.0702117
0.0699988
0.0696856
0.0693534
0.0689606
0.0686138
0.0683615
0.0680797
0.0729614
0.0726222
0.0723127
0.0720945
0.0718998
0.0716363
0.0714075
0.0711245
0.0707704
0.0705376
0.0703331
0.070103
0.0697752
0.0693475
0.0689619
0.0685995
0.0736137
0.0732104
0.0727754
0.0724767
0.0722727
0.0720808
0.0718448
0.0715299
0.0712729
0.0710035
0.0707959
0.0706246
0.0704192
0.0701527
0.069701
0.069307
0.0742883
0.0738266
0.0734825
0.0731258
0.072752
0.0725304
0.0722844
0.072054
0.0717106
0.0714593
0.0712038
0.0709643
0.0708492
0.0706738
0.0703848
0.0700735
0.0748839
0.0745745
0.0742
0.0738575
0.0735119
0.0732154
0.0728783
0.0725819
0.0723461
0.0719604
0.0716417
0.0714292
0.071258
0.0710218
0.0708244
0.0754548
0.0752175
0.0748862
0.0745363
0.0741455
0.0738064
0.0735197
0.0732369
0.0729345
0.0726291
0.0723074
0.0718967
0.0716284
0.0714594
0.0712706
0.0710185
0.0759528
0.0757023
0.075477
0.0752359
0.0748488
0.0744403
0.0741147
0.0737787
0.07356
0.0732485
0.0729594
0.0726691
0.0722533
0.0719375
0.0717335
0.071518
0.0764178
0.0761998
0.0759344
0.0756869
0.0754124
0.0750676
0.0747536
0.0744491
0.0741263
0.0738469
0.0735673
0.0732955
0.0730457
0.0726655
0.0722819
0.0767421
0.0764101
0.0761913
0.0759809
0.0756821
0.075325
0.0749958
0.0747326
0.0744529
0.0741715
0.073833
0.0735841
0.0732707
0.0729641
0.0777324
0.077227
0.0768164
0.0765467
0.076244
0.0759302
0.0755866
0.0753082
0.0750088
0.0747637
0.0744808
0.0741202
0.0738464
0.0785342
0.0783048
0.0779607
0.0776199
0.0772409
0.0768685
0.0765333
0.0762305
0.0759069
0.0755967
0.0752724
0.0749692
0.0747101
0.0743512
0.0790106
0.0787351
0.0785176
0.0782188
0.077917
0.0775119
0.0772032
0.0767975
0.0764796
0.076168
0.0758227
0.0755172
0.0752378
0.0749648
0.0795509
0.0792711
0.0789769
0.0786637
0.0784593
0.0781484
0.0778191
0.0774491
0.0771112
0.0768098
0.0764028
0.076073
0.0757901
0.0755357
0.0800019
0.0798128
0.0795375
0.0792498
0.0789786
0.0786605
0.0784276
0.0780965
0.0777218
0.0773766
0.0770882
0.0766769
0.0763703
0.07609
0.0804494
0.0802414
0.0800538
0.0798483
0.079626
0.0793906
0.0789946
0.0786864
0.0783338
0.0779489
0.0776159
0.0773434
0.0770208
0.0766712
0.0808616
0.0806179
0.0804232
0.0803125
0.0801402
0.0798135
0.0795829
0.0793465
0.0790371
0.07864
0.0781629
0.0778453
0.0775952
0.0805459
0.0804625
0.0802211
0.0798332
0.0796428
0.0793841
0.078935
0.0783774
0.0780477
0.0807943
0.0807274
0.0804859
0.0801228
0.079874
0.0796557
0.0793168
0.0788169
0.0813254
0.0810323
0.0809613
0.0808727
0.0805227
0.0801205
0.0798725
0.0822058
0.0818468
0.0813944
0.0811978
0.081068
0.0807831
0.0804223
0.0822316
0.0818981
0.0815771
0.0813234
0.0810782
0.0834106
0.0829324
0.0822958
0.0822728
0.0819236
0.0816401
0.0859747
0.0857329
0.0844275
0.0838882
0.0824111
0.0860397
0.0857061
0.085418
0.0851062
0.0848797
0.0829598
0.0864998
0.0852602
0.0848405
0.0846658
0.0841753
0.0867743
0.0859933
0.0853233
0.00619513
0.00594184
0.00576872
0.00816654
0.00775093
0.00737193
0.00705295
0.00668087
0.00632073
0.0059924
0.00580051
0.00433362
0.00981196
0.00945296
0.00899281
0.00866019
0.0082629
0.00786958
0.00751379
0.00714874
0.00677177
0.00640686
0.00601112
0.00573314
0.00538058
0.0049086
0.00456292
0.0110711
0.0106882
0.0103482
0.00993297
0.00958264
0.00912398
0.00874377
0.00838805
0.00800186
0.00762128
0.00724599
0.00681334
0.00643629
0.00606168
0.0057051
0.00538913
0.00499554
0.00456249
0.00428148
0.00371812
0.00312611
0.00276493
0.0124205
0.0121085
0.0116565
0.0112463
0.0108009
0.0104324
0.0100612
0.00964651
0.00924012
0.00884086
0.00847627
0.00811598
0.00774734
0.00738269
0.00695536
0.0065551
0.00603305
0.00573657
0.00542307
0.00503982
0.00466871
0.00424883
0.00376524
0.0139672
0.0134904
0.0131462
0.0126635
0.0122785
0.0117609
0.0113251
0.0109128
0.0105568
0.0101764
0.0097505
0.00932028
0.00890157
0.00854829
0.00814954
0.00788312
0.00758079
0.00723666
0.00653016
0.0060749
0.00575873
0.00546927
0.0051009
0.00475473
0.00435937
0.0149345
0.0144286
0.0141414
0.0137301
0.0133252
0.0127585
0.0124078
0.0118728
0.0114048
0.0109994
0.01068
0.0103167
0.00991484
0.00936638
0.00891647
0.00859629
0.00826175
0.00798617
0.00770601
0.00728994
0.006607
0.0061655
0.00585429
0.0055415
0.00517882
0.0162368
0.015639
0.0150372
0.0146991
0.0142901
0.0138379
0.0135076
0.0132331
0.0127478
0.0121138
0.011529
0.0110937
0.0108226
0.0104852
0.0102411
0.00953092
0.00894526
0.00864185
0.00833195
0.00803597
0.00772298
0.00738777
0.00676595
0.00631966
0.00597212
0.0175375
0.0170222
0.0164227
0.0157597
0.0152223
0.0148974
0.0145138
0.014101
0.0136427
0.0134276
0.0130486
0.0124522
0.0118075
0.0112628
0.0109707
0.0107176
0.010453
0.00976894
0.00903124
0.00869121
0.00839772
0.00805897
0.00773445
0.00733895
0.00689021
0.0195587
0.0190884
0.0183587
0.0178158
0.0171773
0.0165096
0.0159289
0.0154432
0.0150831
0.0147381
0.0142444
0.0138171
0.01359
0.0133161
0.0128062
0.012238
0.0116092
0.0111021
0.0107942
0.0105409
0.00990947
0.00918859
0.00879117
0.00848188
0.00812694
0.00773619
0.0207672
0.0204115
0.0200652
0.0197198
0.0192714
0.0186423
0.0180377
0.0173349
0.0166512
0.0162275
0.0157317
0.0152756
0.0147935
0.0143075
0.0139481
0.0136849
0.0133989
0.0130206
0.0125576
0.0118975
0.0113517
0.0109332
0.0104224
0.00985046
0.00942522
0.00891371
0.00859047
0.0212786
0.0209497
0.0205899
0.0202559
0.0198369
0.0193862
0.0188236
0.0182612
0.0176804
0.0170636
0.0165131
0.0159567
0.0154379
0.0149153
0.0143635
0.0140909
0.0138122
0.013509
0.0131647
0.0128027
0.0123254
0.0116473
0.0111904
0.0106093
0.00994444
0.0232742
0.0228501
0.0222693
0.0216899
0.0212418
0.0207471
0.020452
0.0200696
0.0194776
0.0189971
0.0184753
0.0179171
0.0173619
0.0167217
0.0161888
0.0156739
0.0150643
0.0144961
0.0142266
0.0139558
0.0136481
0.0133642
0.0130598
0.0126481
0.012059
0.0238711
0.0234322
0.0230888
0.022632
0.0220778
0.0214676
0.0210529
0.0207077
0.0202124
0.0197356
0.0191589
0.0187108
0.0181766
0.0176196
0.0169474
0.0164015
0.015812
0.0152308
0.0146873
0.0143611
0.014091
0.0138266
0.0135492
0.0132506
0.0251076
0.0249147
0.0245629
0.0241152
0.0236323
0.0233216
0.0229658
0.0224597
0.0219779
0.0213876
0.0209877
0.0205201
0.0200231
0.019604
0.0190285
0.0184469
0.0178723
0.0172433
0.0166378
0.0160254
0.0154076
0.0148844
0.0145502
0.0142479
0.0139408
0.0258748
0.0255318
0.025254
0.0250483
0.0248244
0.0242948
0.0239599
0.0236633
0.0233134
0.0229098
0.0223047
0.0217529
0.0213326
0.0208285
0.020354
0.0198734
0.0193592
0.018789
0.0181925
0.0176072
0.0169323
0.0161672
0.015454
0.0150811
0.0146596
0.0265691
0.0262819
0.0260048
0.0256948
0.025387
0.0251228
0.0248846
0.0245296
0.0242482
0.023992
0.0236721
0.0232287
0.0226309
0.0221701
0.0215726
0.021143
0.0206859
0.020249
0.0197013
0.0191545
0.0186081
0.0179685
0.0173326
0.0165404
0.0157379
0.0275374
0.0272502
0.0269928
0.0267269
0.0264587
0.0261984
0.0258382
0.0255582
0.0251865
0.0249622
0.0246899
0.0244437
0.024205
0.0238475
0.0235113
0.0229966
0.0224464
0.0219179
0.0215342
0.021028
0.020562
0.0200407
0.0194748
0.01893
0.0183629
0.0177473
0.0283199
0.0280909
0.0277192
0.0274175
0.0271494
0.0268632
0.0266153
0.0263555
0.026057
0.0257148
0.025376
0.0250619
0.02483
0.0245904
0.0243762
0.0239973
0.0235185
0.0232217
0.0227684
0.0223489
0.0219581
0.0213899
0.0208854
0.0203465
0.0198398
0.0192851
0.0293082
0.028881
0.0284757
0.0281749
0.0278699
0.0275243
0.0272284
0.0269847
0.0267511
0.0265199
0.0261684
0.025838
0.0256166
0.0252307
0.0249816
0.0247363
0.0244386
0.0240233
0.0235265
0.0232634
0.0230108
0.0224881
0.0222019
0.0218638
0.0212486
0.0207026
0.0201893
0.0300542
0.0297793
0.0294174
0.0290349
0.0286393
0.0282662
0.0279282
0.0276227
0.027341
0.0270937
0.0268591
0.0266331
0.0264025
0.0260304
0.0256885
0.0254335
0.0251627
0.0249223
0.0245872
0.0240857
0.0235754
0.0232621
0.0229639
0.0226199
0.0223358
0.0220809
0.0217323
0.0306701
0.0302804
0.0299338
0.0295801
0.0291795
0.0287527
0.0283764
0.0280195
0.0276816
0.0274035
0.0271665
0.0269427
0.0267208
0.0264876
0.0262145
0.025907
0.0256249
0.0253752
0.0251573
0.0248921
0.0243292
0.0237508
0.0233525
0.023076
0.0227483
0.0224318
0.0316829
0.0312209
0.0308433
0.0304654
0.0300848
0.0297353
0.0292723
0.0289628
0.0286123
0.0282034
0.0278534
0.0275095
0.0272271
0.0270263
0.0268121
0.0265772
0.0263203
0.0260445
0.0257769
0.0255342
0.0253616
0.0250126
0.0244102
0.0239083
0.0235361
0.0232112
0.0325697
0.0322026
0.0318541
0.0314762
0.0310704
0.0306772
0.0303065
0.0298564
0.0294949
0.0291423
0.0287166
0.0283216
0.0278874
0.027641
0.027335
0.0271262
0.0269159
0.026684
0.0264302
0.026167
0.0259137
0.0256482
0.0253484
0.0249968
0.0246397
0.024162
0.033118
0.0328033
0.032447
0.032037
0.0316666
0.0311791
0.0309011
0.0305127
0.0300406
0.029675
0.0293186
0.0288831
0.0285091
0.0280618
0.0276958
0.0274786
0.0272615
0.027039
0.0268029
0.0265509
0.0262689
0.0260151
0.025745
0.0254498
0.0251425
0.0340283
0.0337162
0.0333857
0.0330655
0.0327121
0.0322951
0.0320023
0.0314943
0.0310405
0.030601
0.0302645
0.0299108
0.0294969
0.0290963
0.0287083
0.0282888
0.0279116
0.0276403
0.0274196
0.027186
0.0269453
0.0266812
0.026402
0.0261256
0.025879
0.0256061
0.0348997
0.034586
0.0342711
0.0339438
0.0336121
0.0332877
0.0329589
0.0324294
0.0321702
0.0317738
0.0313183
0.0308994
0.0304747
0.0300657
0.0297119
0.0293114
0.0288706
0.0284759
0.0282175
0.0278158
0.0276048
0.0273512
0.0270774
0.0268077
0.0265585
0.0262923
0.0357577
0.0354079
0.0350869
0.0347841
0.0344697
0.0341765
0.0338606
0.0335365
0.0331716
0.0327189
0.0323603
0.0320157
0.03155
0.0311278
0.0307105
0.030292
0.0298992
0.0295821
0.0291969
0.0286635
0.0283158
0.0280194
0.0278082
0.0275226
0.0272473
0.0269833
0.0267116
0.0362371
0.0359092
0.0355992
0.0352607
0.0349744
0.0346746
0.0343914
0.0340958
0.0337834
0.0334537
0.0330377
0.0326285
0.0322774
0.0317889
0.0313631
0.0309322
0.0305032
0.0301826
0.0297416
0.0294899
0.029008
0.0286429
0.0282874
0.0279976
0.0277122
0.0274467
0.0370602
0.0367838
0.0364878
0.0361175
0.0357648
0.0354289
0.035151
0.0349284
0.0346689
0.0343569
0.0340072
0.0336639
0.0333043
0.0329648
0.0325129
0.032046
0.031586
0.0310997
0.0305827
0.0305652
0.0300191
0.0295854
0.0292456
0.0288602
0.028462
0.0281866
0.0375059
0.0372622
0.0370182
0.0367425
0.0363602
0.036125
0.0357611
0.0354081
0.035121
0.0348686
0.0345973
0.0342409
0.0338909
0.0334629
0.0331626
0.03277
0.032224
0.0317608
0.0315009
0.031092
0.0306264
0.0301785
0.0298087
0.0294743
0.0290891
0.0382382
0.0379772
0.0377133
0.0374275
0.0372045
0.0369853
0.0366145
0.0361866
0.035973
0.0357058
0.0353731
0.0350093
0.0347679
0.0344777
0.0341219
0.0337807
0.0333941
0.0330256
0.0325911
0.0320139
0.0315806
0.031241
0.0308348
0.0304464
0.030012
0.0387401
0.0384342
0.0381614
0.0378795
0.0376078
0.0373808
0.0371561
0.0368231
0.0364039
0.0362153
0.0359868
0.0356526
0.0352776
0.0349636
0.0346378
0.0342928
0.0339918
0.0336124
0.0332692
0.0327193
0.0322234
0.0317928
0.0314049
0.0310325
0.0307101
0.0395802
0.0392611
0.0389379
0.0385934
0.0383077
0.0380208
0.0377527
0.0375066
0.0372915
0.0370214
0.0366131
0.036308
0.0360887
0.0359712
0.0355739
0.0351892
0.0348416
0.034454
0.0341953
0.0339899
0.0333948
0.032908
0.0324576
0.0320753
0.0316325
0.0401751
0.0398506
0.0394977
0.0391361
0.0387724
0.0384903
0.0382095
0.0379377
0.0376779
0.0372794
0.0372232
0.0368795
0.036588
0.0362955
0.0359899
0.035758
0.0354648
0.0350365
0.0346533
0.0344375
0.0340683
0.0335292
0.0331686
0.0327479
0.0323152
0.0408713
0.0406553
0.0403952
0.0401085
0.0397383
0.0395201
0.0392601
0.0388145
0.0384528
0.0381735
0.037896
0.0374849
0.0372865
0.037078
0.0367821
0.0365741
0.0363316
0.0359751
0.0356645
0.0353079
0.0348977
0.0345984
0.034238
0.0337981
0.0334089
0.0413293
0.0410981
0.0408672
0.0406316
0.0404033
0.040001
0.0395834
0.0394226
0.0390828
0.0387708
0.0383757
0.0380312
0.0376992
0.0374029
0.037181
0.0369441
0.0367269
0.036543
0.0362855
0.0359413
0.0355772
0.035184
0.0348337
0.0343717
0.041983
0.0417304
0.0415022
0.0412619
0.0410334
0.0408248
0.0405988
0.0402759
0.0398309
0.0396651
0.0393764
0.0390435
0.0387036
0.0383186
0.0379714
0.0376532
0.0373842
0.0371529
0.036912
0.0366928
0.0364142
0.0361134
0.035788
0.0354434
0.0351191
0.0423675
0.0421316
0.0419221
0.0416991
0.0414631
0.0412267
0.0410209
0.0407746
0.0404384
0.04016
0.0399318
0.0396834
0.0393515
0.0390018
0.0386126
0.0382546
0.0379274
0.0375507
0.0373094
0.0371008
0.0368454
0.0365666
0.0363083
0.0359888
0.0429918
0.0427578
0.0425423
0.0422997
0.0420869
0.0418836
0.0416536
0.0414272
0.0412182
0.0409917
0.040662
0.0403373
0.040107
0.0398415
0.0394515
0.0391358
0.0388352
0.0385592
0.0381331
0.0378205
0.0375618
0.0372956
0.037014
0.0367694
0.0364953
0.0433938
0.0431572
0.0429414
0.0427185
0.0424826
0.0422693
0.0420517
0.0418429
0.0415791
0.0412568
0.0411217
0.0408452
0.0405247
0.0403093
0.0400176
0.0397658
0.039444
0.0390487
0.0387286
0.0383747
0.0380594
0.0377714
0.0375128
0.0372358
0.0440264
0.0437951
0.0435619
0.0433088
0.0430965
0.0428977
0.0426712
0.0424718
0.0422491
0.0420336
0.0418088
0.0414113
0.0412183
0.040953
0.0407116
0.0404521
0.0401437
0.0399094
0.0396586
0.0393217
0.0389454
0.0386152
0.0382752
0.0380247
0.0377682
0.0444051
0.0441781
0.0439557
0.0437269
0.0434868
0.0432706
0.0430524
0.0428584
0.0426532
0.0424538
0.042177
0.0420528
0.0417484
0.0414263
0.0410902
0.0408994
0.0406253
0.0403171
0.0400579
0.0398117
0.0394771
0.0391173
0.0388395
0.0385265
0.0448035
0.0445879
0.044344
0.0440985
0.0438856
0.0436488
0.0434382
0.0432149
0.0430189
0.0428277
0.0426386
0.0423284
0.0421376
0.0418885
0.0416469
0.0413541
0.0409883
0.0407307
0.0404514
0.0402336
0.0399751
0.0396505
0.0393563
0.0390723
0.0454298
0.0452138
0.0449891
0.0447291
0.0444869
0.044262
0.0440238
0.043799
0.0435725
0.0433676
0.0431695
0.0429871
0.0428117