/*--------------------------------*- C++ -*----------------------------------*\
| =========                 |                                                 |
| \\      /  F ield         | OpenFOAM: The Open Source CFD Toolbox           |
|  \\    /   O peration     | Version:  2312                                  |
|   \\  /    A nd           | Website:  www.openfoam.com                      |
|    \\/     M anipulation  |                                                 |
\*---------------------------------------------------------------------------*/
FoamFile
{
    version     2.0;
    format      ascii;
    arch        "LSB;label=64;scalar=64";
    class       volScalarField;
    location    "150";
    object      omega;
}
// * * * * * * * * * * * * * * * * * * * * * * * * * * * * * * * * * * * * * //

dimensions      [0 0 -1 0 0 0 0];

internalField   nonuniform List<scalar> 
404911
(
277.603
212.403
3447.14
1536.59
189.279
203.424
169.256
604.78
341.614
282.011
229.702
309.629
189.343
274.571
422.722
1110.97
246.191
198.588
219.52
333.524
471.091
247.685
695.884
470.096
196.148
966.309
247.113
163.365
209.369
973.636
210.88
148.646
283.672
417.761
206.604
146.089
278.714
410.58
209.485
119.705
221.626
1004.69
201.398
106.312
115.769
376.827
315.969
110.911
115.829
670.394
380.089
303.045
166.453
1331.93
331.353
570.925
9402.46
146.731
313.426
210.208
235.013
138.056
172.446
92.4174
86.8475
193.398
182.46
300.601
158.673
94.3436
141.387
50.1345
144.836
88.3389
46.417
596.438
2269.53
227.971
88.3382
188.538
91.2074
193.596
50.5486
93.6644
134.925
75.3308
240.49
77.9046
1123.62
171.749
153.851
2959.34
139.785
210.309
138.947
89.3295
109.335
215.253
86.5876
216.121
628.996
123.653
107.033
473.697
1253.33
501.019
247.551
690.867
337.389
265.176
207.876
214.99
207.858
220.35
2284.51
531.767
230.172
4555.46
597.873
190.079
192.452
189.613
187.683
263.014
1323.62
324.783
220.44
211.88
191.895
540.767
477.688
512.618
184.233
171.657
180.34
170.021
221.655
240.042
179.699
281.271
1188.87
311.978
202.749
189.164
191.685
187.334
183.049
166.733
502.239
438.493
170.102
162.137
183.258
1783.96
288.537
994.225
255.83
178.017
168.762
177.805
176.632
180.859
178.665
169.727
160.543
157.02
161.319
165.158
182.166
257.469
399.175
589.112
449.325
417.098
416.07
414.675
501
172.863
173.15
161.937
162.625
164.82
177.514
193.652
201.933
202.465
289.562
706.572
459.555
389.553
380.751
252.317
326.861
511.074
434.492
161.239
164.181
161.627
173.341
184.669
194.093
227.913
1177.98
993.121
254.448
585.122
296.588
252.805
226.426
299.737
389.929
284.128
328.35
402.051
426.319
147.963
167.151
177.393
180.472
208.289
502.148
863.015
597.589
265.037
242.027
168.455
214.171
215.33
236.162
322.954
343.951
331.32
255.035
131.335
171.493
181.22
203.357
299.011
1218.16
1213.21
275.172
130.151
191.901
173.304
151.841
146.491
177.76
385.77
257.625
205.529
161.016
179.57
278.408
462.596
173.27
214.723
1117.16
454.407
159.745
111.63
244.967
165.923
149.336
140.411
163.133
159.134
160.709
152.406
176.772
226.181
371.058
452.408
527.92
421.854
474.084
207.026
153.038
391.862
192.667
148.733
158.172
138.005
145.799
170.56
154.958
163.28
313.391
336.392
422.469
469.772
1691.49
357.24
177.177
157.078
133.666
140.703
152.761
152.87
141.734
146.081
141.98
142.981
149.396
163.758
399.552
371.375
428.514
238.495
1029.87
981.536
887.971
297.92
237.409
117.937
105.588
167.081
138.859
146.406
146.76
153.535
152.559
139.375
151.149
203.39
338.564
180.01
539.078
1108.04
247.138
144.994
152.083
154.557
146.173
142.651
92.1771
155.289
127.155
153.092
119.872
116.126
142.372
146.708
191.668
473.656
260.09
467.02
158.67
117.108
117.561
113.389
204.643
126.67
133.518
83.7115
103.584
89.2888
96.5261
130.088
109.885
144.722
229.407
188.171
1011.25
1144.84
264.526
150.773
119.71
102.396
93.1582
115.977
114.057
102.105
93.674
84.3961
125.585
121.767
135.302
124.556
139.631
386.062
907.055
350.663
144.548
123.154
168.706
190.575
112.174
111.897
100.912
84.9124
78.0992
80.1082
104.365
134.785
139.484
164.946
142.338
287.662
728.865
1113.75
902.374
319.776
180.32
144.372
134.561
153.152
107.181
104.817
91.4873
85.0954
86.5517
93.0967
117.411
169.903
160.753
156.47
453.557
438.247
170.843
151.733
139.949
126.314
114.23
101.38
143.414
97.7994
133.662
109.519
100.591
100.191
123.789
121.789
145.421
290.121
979.386
189.332
125.174
152.488
107.055
106.608
109.191
97.9505
106.507
105.074
116.343
128.584
128.581
123.493
123.519
190.74
163.391
327.335
431.272
141.135
164.673
138.907
102.328
94.6212
108.151
93.5007
82.4849
105.837
141.727
126.301
121.647
143.197
142.302
191.812
183.698
1008.95
248.98
118.477
107.38
92.4197
92.4601
89.8471
96.7154
118.363
72.0993
69.6518
85.0468
115.698
147.689
157.721
208.68
170.522
291.662
1200.69
455.122
172.051
119.024
100.57
91.3248
85.7492
93.865
93.1256
76.6389
74.5793
73.3399
79.2298
87.8406
101.768
192.743
116.417
188.537
1019.78
1117.75
225.614
116.753
146.795
104.848
91.4507
86.4896
84.8184
81.8921
86.9773
70.9838
83.3693
107.795
104.07
109.009
117.946
157.45
301.419
421.21
143.507
112.712
95.5564
86.9543
82.9268
81.1761
87.335
97.7846
80.2387
78.3086
83.568
101.772
130.772
152.707
149.285
181.52
1012.79
1136.08
225.131
112.601
102.828
89.2545
82.4419
78.3376
76.3416
76.0002
82.7194
98.8896
96.2957
96.4218
97.4224
116.372
134.323
174.983
272.064
905.527
153.889
120.503
102.294
88.585
81.5884
75.8107
73.2175
72.1285
72.6841
74.5471
84.4985
89.831
95.6318
105.857
134.006
198.291
326.025
271.933
126.375
138.113
109.843
92.4372
82.7436
77.7152
71.2124
67.1929
68.6629
72.7152
79.5792
88.8131
95.5654
115.549
131.079
167.94
511.576
247.768
143.483
138.445
105.593
94.7071
83.6291
80.7072
74.4943
66.7915
65.1127
70.2374
78.3443
87.6011
107.074
113.368
131.025
252.181
1125.93
1169.18
185.017
115.091
118.987
104.529
92.7566
85.5911
81.0118
85.0415
77.8863
70.9355
71.9057
79.3721
88.3696
101.987
151.768
169.441
466.825
937.356
167.115
115.487
95.2183
88.0223
84.473
79.9801
75.1835
72.4031
78.7079
77.4375
76.9557
81.6416
91.1384
100.858
135.191
175.937
1075.24
289.096
141.759
122.1
99.6785
90.239
87.8648
82.2012
72.6162
66.0683
63.6273
67.4933
74.3185
83.4984
89.8993
121.47
117.141
182.78
1110.42
274.21
124.229
103.994
92.0731
84.6475
90.0305
93.6608
69.9159
62.5346
63.8598
69.587
76.539
85.3574
94.9839
107.038
127.318
270.151
1038.71
200.279
121.871
103.593
90.1637
84.2488
76.712
83.8371
83.0491
58.5135
58.209
66.7733
75.2222
84.1085
95.8057
120.637
150.781
449.375
435.903
150.892
144.889
135.025
97.0877
87.1316
79.9652
66.4816
78.2837
68.1826
52.6895
67.6134
78.4539
84.5039
95.774
120.045
169.342
1008.39
283.193
128.793
102.144
92.091
84.1531
85.234
92.7567
82.8497
73.4565
53.939
70.1886
70.5934
80.4166
87.1911
94.2156
130.615
216.419
1143.17
1059.31
186.293
120.007
105.726
90.098
83.1414
76.5205
86.596
87.3927
78.7088
71.2879
51.8252
71.2351
84.428
87.3619
107.061
116.832
243.317
1052.01
174.684
113.686
94.7222
84.6948
79.6461
75.5589
71.3632
83.5977
83.5178
78.1335
67.0666
64.0125
77.4199
90.3493
101.261
129.578
417.812
1033.93
171.725
113.682
92.0581
84.2317
78.2154
73.0754
70.1379
68.3328
68.12
61.5122
74.5617
67.6805
83.3688
101.109
125.701
144.094
901.155
1028.77
166.53
112.665
91.8361
82.8195
78.2416
72.2434
67.2628
67.768
71.3457
62.2746
60.0713
73.3309
88.8229
103.905
143.916
204.022
1128.5
276.895
146.199
116.682
95.3274
84.1319
76.5723
70.7034
65.5964
62.6269
65.4463
71.4673
70.3203
76.0171
89.0564
102.228
138.456
229.282
1159.49
255.011
125.486
104.214
93.6586
84.3882
76.8798
68.8034
63.0165
63.2391
61.4722
66.6327
81.693
87.6104
93.6608
96.679
137.571
225.749
1112.62
175.408
129.557
124.736
93.7343
85.1715
77.6297
72.1285
66.0503
60.2583
62.7534
65.125
69.7719
82.7552
96.2092
108.864
123.085
243.256
989.792
172.188
114.552
91.8308
84.4265
80.3904
75.9036
73.1393
75.1174
72.7721
65.9237
65.6273
70.9977
76.9987
85.6599
105.519
121.522
258.619
1055.4
171.624
113.417
91.4554
81.7619
77.6042
72.0735
67.252
64.2427
70.988
73.8208
67.8278
71.8125
78.2991
85.3364
106.12
127.831
276.967
1051.45
173.249
121.11
92.0674
80.8838
74.4385
67.7602
60.8968
57.2738
53.7238
56.5921
62.8785
72.217
79.1321
87.6128
103.598
138.837
425.865
981.218
162.68
115.742
91.7083
79.8118
71.7198
62.969
56.513
50.8592
50.7702
54.3122
63.0162
72.3948
80.337
88.3346
108.368
164.197
993.153
282.996
157.341
110.888
93.5602
81.412
69.9427
60.2372
52.7237
47.3405
45.1185
51.5539
62.0302
71.5201
80.0726
89.4774
108.507
165.643
1074.65
285.371
151.42
107.063
94.2492
86.4611
72.9251
61.158
52.14
45.4847
41.6602
48.2043
64.1216
73.3392
79.5884
91.3174
112.932
163.543
1039.18
1162.09
195.769
143.899
108.956
89.7863
90.0431
87.0291
60.0338
61.9746
45.3904
47.3133
46.708
62.6857
78.4389
82.5026
90.7124
125.011
176.414
1024.95
1044.78
158.009
109.646
149.93
100.729
82.0741
83.3659
79.2927
62.7057
52.2729
46.9972
45.1921
64.6279
87.9371
88.4532
94.4538
119.566
220.772
161.733
104.641
86.0712
80.5182
78.4163
75.2324
66.68
59.909
57.4993
56.9552
46.2135
64.5914
74.0219
86.083
109.51
113.473
232.648
974.091
159.22
101.935
81.4378
76.1253
76.0687
75.7928
70.8457
60.1924
64.8181
49.4309
43.8598
60.1108
80.2328
86.2332
117.282
121.825
276.04
1016.6
151.832
99.9457
80.0172
75.7363
75.0601
72.3068
73.9683
68.8653
52.9303
57.9728
53.953
70.1351
82.7859
84.0654
108.29
127.698
424.372
1119.61
152.746
104.254
83.3549
75.9805
73.5775
70.3582
67.3224
72.4442
66.2535
48.0039
63.9911
77.9813
79.9291
86.4336
98.7097
135.289
845.769
142.195
120.853
93.2103
78.2015
71.3628
70.0153
66.6864
64.1257
70.6391
59.6332
61.5718
66.9267
73.2677
85.8574
107.185
157.6
947.679
736.049
206.925
95.6993
76.1232
67.9235
65.0876
66.4364
63.2038
57.6924
61.6183
61.4384
69.9733
73.5843
83.779
113.801
162.758
1046.05
2162.49
306.188
151.8
108.052
71.8
61.6899
59.9232
58.9875
65.7745
63.1086
63.252
68.7373
73.7333
78.1869
88.479
112.749
181.451
1093.59
259.43
117.234
108.579
79.9036
58.6432
54.1773
52.4733
52.8147
58.026
67.6234
62.297
62.9465
75.2251
79.0548
99.4197
116.833
247.002
242.137
115.918
98.8352
73.4328
53.9659
48.1587
48.4512
51.0707
49.652
64.8785
59.9889
69.1748
82.6742
87.7058
98.0173
120.48
266.125
1168.74
210.177
108.587
99.9643
89.2122
74.5506
70.6333
55.6766
44.7555
49.5947
50.0114
53.8498
72.3343
87.604
100.377
118.316
140.682
841.014
943.079
158.931
117.146
91.7859
83.8652
74.3653
139.829
139.7
58.1996
40.7342
54.2266
67.008
79.0571
92.9347
114.84
141.205
154.027
976.43
818.192
122.336
203.761
134.198
91.412
61.2461
64.6062
90.5361
163.238
72.7669
47.3063
70.0894
93.1933
106.058
124.658
164.72
161.409
993.893
430.485
115.45
123.757
101.801
84.94
56.6877
74.4152
78.2517
81.8783
86.8104
67.2001
85.2069
99.0342
103.936
117.666
178.489
170.561
1037.57
1021.99
226.493
115.183
119.347
115.543
87.4036
52.9359
55.9401
89.7115
117.367
91.6639
82.8396
93.4993
97.442
93.6383
113.544
143.868
307.405
1049.82
915.763
142.255
157.075
114.09
108.118
99.8667
53.0552
27.891
37.0148
57.6255
68.4781
70.1862
78.0661
83.2457
90.529
99.0095
118.908
188.886
1083.22
216.4
131.592
109.741
105.903
94.8022
49.7733
29.2712
25.0533
32.4242
44.9235
65.6555
77.8697
83.5761
91.5043
109.041
121.171
243.746
1208
247.88
129.606
128.539
115.499
94.802
37.6346
45.473
45.1833
32.1233
40.5606
59.996
83.8959
86.856
93.3389
113.199
130.779
284.352
250.876
136.965
138.651
123.089
100.444
39.0461
29.1355
42.5693
43.299
47.7001
76.8234
90.327
91.2704
95.6456
118.633
137.227
438.018
221.525
217.83
154.732
125.259
99.1356
29.0165
21.6782
26.848
38.4444
52.628
79.2297
96.1046
95.2326
103.447
113.783
144.831
884.599
968.025
158.031
139.352
125.644
117.603
98.7242
39.6597
21.8806
26.0747
40.0185
69.58
95.9569
105.232
103.107
105.272
137.692
178.864
988.697
921.384
166.143
147.782
123.931
112.874
99.3845
33.0013
25.5146
28.584
43.6123
72.7626
97.3491
102.694
100.232
113.044
123.316
260.591
857.4
141.415
109.379
104.089
104.669
97.7102
52.3337
26.2143
30.988
47.9421
76.568
97.7412
90.3728
93.3139
110.072
131.813
298.483
868.683
137.865
109.032
101.68
100.17
92.5436
39.7052
32.9448
39.3174
54.3832
77.0486
94.0804
88.4256
90.1487
108.252
139.483
299.766
886.162
141.637
114.645
103.635
98.3617
84.3215
38.5988
33.783
38.9799
53.1341
73.2632
89.9072
84.4217
89.5956
105.412
145.81
875.706
903.418
146.549
131.917
120.877
106.191
74.2838
51.7259
36.0339
42.1996
54.4305
69.9665
88.0264
83.0563
92.6228
109.27
168.068
977.055
291.678
150.669
167.572
147.237
103.055
94.4985
137.575
120.47
63.1319
54.1545
66.6963
81.114
86.6219
93.2727
126.371
169.895
1049.03
349.011
336.533
158.481
126.99
63.1777
50.6855
77.3194
153.643
79.5073
72.2609
91.473
95.7674
113.665
124.263
210.055
1181.19
342.195
207.041
156.424
143.856
69.9129
46.026
60.1713
94.0416
112.902
114.745
122.301
103.501
117.956
118.479
255.106
312.231
213.891
176.309
157.46
140.625
89.3979
58.8791
85.0576
98.6443
119.737
119.134
102.285
111.996
116.376
123.785
282.198
333.575
148.494
142.861
156.409
157.915
121.888
71.8222
94.3553
128.047
140.678
127.678
131.263
122.6
167.345
152.768
849.048
333.192
154.836
151.212
156.441
158.91
165.336
101.432
118.454
127.374
130.003
131.609
141.967
155.923
206.276
177.357
1043.03
1196.18
299.18
175.305
128.928
164.635
180.652
152.686
150.375
122.304
154.261
146.712
135.511
124.183
173.221
231.009
476.457
1237.62
214.272
142.231
147.436
115.778
197.974
185.253
139.931
98.7552
126.908
143.649
137.828
145.387
165.909
269.638
243.493
991.976
200.857
154.543
120.42
96.9615
128.04
157.823
240.903
148.523
128.727
153.287
161.2
171.148
187.495
290.166
824.535
283.737
149.594
537.315
268.003
150.009
91.1509
120.712
98.807
99.8082
119.639
130.383
124.599
141.052
186.057
314.911
4123.39
292.649
535.619
242.698
163.153
141.704
107.971
100.712
139.691
127.018
121.226
140.539
153.466
155.564
196.995
309.28
821.257
1060.55
622.787
304.059
168.904
133.925
116.717
86.2047
98.2438
126.761
132.01
156.91
182.084
212.555
207.328
338.858
1184.46
194.735
437.062
223.597
143.557
103.382
85.5055
107.585
123.127
136.273
146.147
158.844
139.221
201.055
243.285
1446.28
1176.77
214.707
160.349
313.22
210.845
147.58
92.4268
80.5472
116.493
135.299
150.579
163.205
169.085
162.788
328.364
1267.51
569.101
204.367
166.846
476.537
305.343
165.619
113.634
109.669
118.988
133.615
149.967
222.926
141.109
176.335
337.144
1129.23
535.507
462.267
341.623
215.101
128.397
117.371
118.036
142.156
153.367
225.532
163.033
231.158
1157.99
710.296
510.058
428.885
350.318
208.407
249.367
125.141
116.078
141.441
210.079
139.814
175.429
318.574
1144.66
193.689
160.416
477.746
469.848
161.727
231.347
306.684
137.141
165.629
202.648
162.335
205.114
525.416
1190.62
195.028
164.245
482.077
421.382
225.739
201.751
310.31
269.664
276.893
326.187
171.232
220.467
1203.42
1111.51
189.023
516.254
468.711
462.479
315.538
198.661
203.305
213.386
295.851
474.263
176.2
229.409
1292.46
1191.49
196.081
529.425
458.44
464.146
431.857
202.339
203.88
186.229
262.99
491.918
184.642
316.881
1346.3
1160.83
219.244
175.094
492.211
436.672
469.724
304.47
183.519
206.112
323.543
176.243
202.311
325.192
1463.45
1455.93
1158.6
193.548
174.68
470.273
459.326
579.326
303.986
253.834
361.649
525.969
208.441
347.316
185.066
519.658
461.426
469.117
165.022
526.978
545.53
568.08
530.875
187.805
167.283
479.246
564.027
193.441
218.046
298.622
1205.78
6304.25
598.694
170.153
508.875
551.364
232.483
395.265
2802
2114.21
516.463
802.985
222.506
253.06
1200.45
487.555
794.11
228.196
244.752
605.626
812.054
586.055
271.669
223.589
270.54
1198.88
1175.34
285.947
1897.11
766.814
531.55
347.661
206.584
189.167
215.62
208.884
662.128
290.2
214.175
377.702
694.565
1527.39
1333.85
6469.08
528.125
1528.23
609.297
577.694
1440.13
634.574
432.916
331.348
316.567
294.909
274.248
262.788
340.246
1455.12
638.314
418.266
313.836
298.092
276.817
263.909
261.591
267.215
263.847
257.715
243.328
245.18
250.593
241.668
1313.88
567.08
312.141
285.583
264.569
261.945
255.349
247.322
249.48
249.302
251.688
240.425
230.636
235.863
247.679
246.836
251.563
250.117
254.714
345.157
410.35
872.305
967.645
504.102
270.911
245.157
244.333
237.037
235.031
237.559
236.21
232.694
230.851
233.459
239.832
222.071
596.502
586.43
250.33
259.995
244.178
255.622
255.42
282.209
616.232
534.926
302.737
233.558
215.681
196.674
188.179
197.5
208.392
216.701
216.909
218.426
215.123
222.855
221.001
226.271
229.231
215.571
547.02
589.863
222.549
247.128
253.25
269.377
305.718
1303.28
423.448
198.145
155.256
146.381
182.656
192.77
417.546
613.678
753.216
180.988
199.447
207.503
197.526
190.22
195.556
217.731
224.226
214.209
202.948
524.927
578.089
228.901
256.191
299.019
635.36
1523.42
391.291
269.993
233.25
174.477
172.962
166.055
187.734
218.408
204.869
188.126
364.961
177.658
197.259
249.97
211.321
664.747
200.778
224.947
236.272
238.166
600.426
600.549
277.747
617.07
1268.81
313.33
304.433
227.722
162.804
142.642
149.283
178.374
173.935
156.692
253.682
199.732
176.129
177.285
271.496
439.44
179.217
199.504
530.2
226.829
239.913
240.128
246.484
275.545
563.708
410.532
1352.14
314.658
236.472
191.099
179.294
125.384
126.629
132.095
143.517
167.674
171.604
134.988
235.756
208.266
198.885
195.848
184.858
166.682
160.246
210.113
194.138
240.472
260.025
370.319
623.382
1072.01
380.267
169.364
161.055
196.02
163.009
164.831
127.142
115.088
107.765
136.577
141.71
130.913
128.746
121.825
127.57
128.044
131.156
176.84
168.016
225.246
197.508
209.412
221.878
254.472
562.351
1160.2
212.279
134.09
187.093
166.755
144.876
161.031
137.42
139.606
135.347
135.42
131.479
125.952
132.632
148.72
115.603
123.84
129.142
134.806
142.338
267.994
171.907
589.702
565.848
704.443
4614.21
776.139
1390.31
297.859
189.849
143.562
130.512
125.323
149.038
188.667
164.204
149.099
144.701
143.596
140.091
156.99
161.944
147.831
129.745
141.678
141.114
143.317
150.351
146.373
579.567
1684.85
1294.58
338.402
192.824
138.564
122.795
127.222
131.886
121.906
120.601
118.808
187.956
154.531
144.603
124.462
181.572
176.964
162.887
160.833
176.359
159.863
152.898
132.901
203.154
451.227
454.176
187.898
184.373
190.296
168.013
122.937
111.319
114.129
127.038
127.425
119.832
115.046
114.301
102.36
143.601
126.566
117.436
169.706
170.927
177.984
211.211
206.538
130.389
192.094
465.924
431.372
192.204
147.8
152.544
126.864
120.117
114.883
114.128
108.475
113.779
120.934
124.389
118.676
100.919
97.5033
116.092
126.75
142.834
151.655
189.157
215.099
216.965
373.998
178.882
453.948
395.169
167.463
178.022
160.907
131.586
119.287
115.612
110.524
109.869
103.352
101.276
108.529
112.405
117.241
97.6344
95.0528
106.055
123.736
141.738
145.767
179.585
244.372
253.404
388.843
833.617
1165.53
381.716
163.036
163.752
131.132
123.207
119.667
119.752
115.212
104.563
95.0081
80.8722
79.6584
88.0193
106.901
113.657
108.471
110.21
114.317
120.531
126.791
137.907
175.983
218.631
371.211
400.871
1143.15
374.029
151.803
157.581
126.649
114.604
109.747
106.695
107.538
109.322
98.0397
77.9649
67.4785
66.9188
73.6878
86.5174
89.2527
97.6796
109.351
117.988
110.532
121.649
135.492
180.697
365.514
442.768
1028.47
254.197
147.097
164.085
127.545
112.347
104.55
96.2968
88.5581
83.3325
82.9181
85.2246
72.7171
69.7825
67.6651
74.9996
82.8752
86.5787
81.941
92.6705
114.466
113.767
127.141
153.733
211.75
311.936
1349.22
1230.26
269.437
140.816
126.43
115.235
108.725
104.407
94.0985
79.1029
66.3663
63.4177
64.3388
66.2458
68.7285
70.3039
74.541
78.4392
90.8114
98.2404
106.228
104.768
125.543
134.476
164.642
207.673
188.159
1540.81
403.204
148.596
167.237
125.631
109.367
104.813
98.0591
82.2133
59.885
53.129
52.0534
53.3501
56.765
61.6796
66.649
72.9173
81.9216
90.9148
101.209
110.901
121.593
136.718
162.094
210.735
182.21
438.357
451.887
183.146
136.952
119.507
110.323
105.352
98.1681
90.7011
53.1769
44.3002
42.194
43.2595
46.4627
51.137
58.4302
67.4046
78.0133
88.0276
96.5802
103.205
109.729
118.764
129.876
165.514
179.037
447.08
1000.23
232.902
136.015
134.048
113.248
107.268
102.524
91.2088
55.6144
39.8626
33.9981
34.3202
35.7024
39.8697
45.8852
53.4171
63.1969
77.3342
90.5846
100.454
106.851
115.802
129.989
148.219
153.487
396.275
393.05
148.02
125.209
107.594
102.002
95.7935
88.3818
56.9421
36.2381
30.8692
29.6163
30.4288
32.4052
34.8747
40.3462
47.2896
57.432
74.0545
89.7373
102.514
110.292
118.392
148.79
191.707
283.335
445.709
164.087
162.846
121.788
102.925
94.1701
89.9408
72.5136
42.4251
31.0661
27.5074
26.9124
27.7891
29.3248
31.6487
36.1997
43.5145
55.4019
75.6338
94.066
105.953
116.889
126.359
145.109
172.5
833.484
931.645
211.804
132.657
131.587
106.179
96.011
85.9979
79.328
58.5987
40.9883
34.1164
30.7315
28.71
28.0566
29.6539
32.6533
37.9417
48.6089
64.499
88.3278
101.034
113.928
129.471
144.187
150.65
407.023
935.55
223.965
136.621
136.086
109.769
99.7463
89.909
79.1369
65.5306
45.9221
37.0864
37.2159
34.2802
31.5545
29.9833
31.9115
38.4637
49.4505
73.0756
97.7713
107.277
117.268
125.137
158.373
205.26
252.829
1099.42
396.627
159.313
139.139
110.728
102.321
95.4546
85.075
73.2725
55.2189
36.1884
32.7979
37.3767
41.951
38.8986
36.9255
39.4525
52.726
76.2884
95.6052
105.593
113.982
127.425
157.058
202.071
229.455
929.232
775.11
188.878
167.906
120.875
103.4
97.0608
91.2502
79.4212
69.5519
51.8435
33.9299
32.0499
40.4063
47.2598
45.7679
44.7342
49.1125
72.7413
90.1304
99.7378
106.178
116.303
159.774
196.937
226.188
915.358
234.206
136.298
114.264
101.015
93.8597
92.8496
85.7514
63.9581
56.1732
49.8071
37.1711
33.1888
41.2493
55.3915
61.6476
57.6969
67.526
86.0874
96.7107
102.063
109.78
126.267
150.694
206.739
908.871
760.855
145.815
124.182
103.026
93.5824
84.4612
77.1443
76.32
58.8714
46.4516
45.485
43.1203
38.7421
42.0522
54.1143
65.3184
74.3125
80.9897
91.3251
97.6207
107.764
122.16
152.806
200.807
382.048
241.857
133.681
111.201
99.7535
87.689
74.8239
62.0659
53.4713
48.761
40.6857
38.3543
40.7044
42.5205
43.9867
49.6983
66.9488
76.3466
85.9528
96.185
106.485
111.53
137.688
187.61
235.091
948.735
929.194
187.42
122.325
103.4
96.5677
85.982
68.6973
48.5691
39.8631
36.5864
34.4046
33.8101
37.5817
45.2918
52.8844
59.5322
71.9276
83.3141
89.9765
98.5801
109.204
120.971
134.371
159.301
852.62
318.086
146.25
131.263
106.035
95.7162
86.3733
62.3336
42.504
32.6795
29.1611
28.862
31.1643
36.3878
46.456
61.309
76.7161
84.6902
93.6842
96.9251
101.563
112.901
130.111
168.827
258.374
1218.07
715.168
138.357
116.982
100.843
91.8229
89.5186
83.2909
52.697
33.8256
27.5253
25.3666
25.2286
27.1864
32.531
41.557
53.8611
72.5154
85.3682
94.0729
101.817
107.446
115.93
157.058
219.437
902.948
198.991
154.636
111.003
97.1104
88.1126
80.5518
77.9388
64.3593
37.5663
26.939
24.6133
24.6349
25.5788
28.8649
35.9156
46.6457
61.653
79.2703
93.714
106.222
121.81
139.764
139.508
404.349
693.773
138.189
112.232
94.1406
86.8366
81.5631
76.0066
69.3775
61.3932
44.2844
29.743
25.749
26.2349
27.0156
28.9478
34.9939
45.7365
61.5916
79.9845
95.452
108.498
124.804
174.34
225.244
1008.56
225.849
126.566
102.586
91.4702
83.4022
76.5488
70.9502
61.692
51.0742
40.9008
31.2829
26.9203
28.1414
32.6959
36.7761
41.7282
54.3885
76.3428
86.6193
98.8348
113.156
144.377
181.77
395.531
700.828
135.73
112.784
96.6809
86.8147
79.2881
70.8888
62.661
54.1107
41.4711
35.8642
30.6517
27.9269
29.5689
36.4201
50.3286
64.6235
73.1585
87.2499
97.8958
105.155
119.604
135.046
168.087
905.822
223.601
124.792
102.037
91.0466
82.8404
74.1318
65.5783
57.9314
49.8289
40.8947
31.2436
28.4731
27.7875
30.2065
37.1263
48.6174
67.2563
80.2003
89.6411
99.5563
110.449
137.182
179.125
259.177
715.334
134.671
112.614
94.5474
86.2293
77.6751
67.7846
59.3415
53.1797
47.3567
41.1962
33.759
28.7626
28.4432
31.517
40.1366
51.7333
64.8035
77.9806
91.7985
101.475
119.012
132.191
152.913
853.316
230.463
119.567
99.7958
91.946
83.6311
74.4958
62.5275
51.4305
46.4278
44.4466
41.3668
36.3936
32.244
32.635
38.6345
51.0936
66.1102
74.3215
81.913
92.8655
105.117
117.176
182.767
245.15
193.652
150.11
104.493
90.4952
81.9905
73.4348
60.2721
46.6218
40.6186
39.8087
40.4379
40.5015
40.3926
42.0638
48.4874
60.5087
73.4856
80.0223
85.6322
95.5245
113.199
140.694
132.832
706.051
746.505
133.039
111.301
94.2643
86.2781
80.3762
72.7013
59.8443
44.2641
36.7729
34.9834
36.5478
39.7857
43.4234
48.4712
55.1758
63.3544
71.4847
79.9169
87.4627
95.2785
114.904
181.474
212.415
998.375
711.817
144.996
105.844
89.4838
84.0258
80.0306
73.5121
60.0976
43.6101
34.8092
31.5919
32.1733
35.4981
41.0073
48.007
56.9049
64.8486
72.1095
78.5115
85.8884
94.0447
109.482
183.169
648.251
345.584
137.14
103.383
88.2532
79.1038
75.084
72.2901
60.8819
44.3449
34.2834
29.4106
29.0575
31.6382
36.7162
43.8344
53.9921
65.767
75.4497
83.9849
90.1481
101.075
120.205
166.525
783.482
193.803
157.762
106.647
87.8702
76.3747
67.1228
62.1578
57.2441
45.9121
35.3412
29.185
27.0167
29.7848
35.195
42.5007
52.1984
63.2169
75.3702
86.4169
96.2606
103.731
148.652
225.347
712.319
155.228
128.711
95.4503
84.0841
74.2615
62.4777
52.6783
46.511
42.5374
36.0757
30.8226
28.4753
29.896
36.078
43.8761
54.1343
64.7484
74.602
85.7277
95.5944
125.977
131.707
721.188
357.393
132.766
99.9869
86.6211
79.8137
71.9883
60.5744
48.0498
40.1387
35.6149
32.9724
31.0355
30.6404
32.7599
38.4128
47.1367
57.1985
67.8351
76.7254
84.0555
97.6542
119.745
172.664
969.978
187.292
153.713
105.74
87.6447
77.6816
69.1553
58.3682
44.8022
36.7538
30.6408
28.2067
28.6038
30.5834
34.7395
41.4386
49.9925
60.5255
70.2871
79.751
87.0575
98.8666
130.919
216.773
749.031
135.4
110.394
91.2772
84.0983
76.5646
67.7247
57.2327
43.0895
33.8115
28.1893
25.009
25.0479
27.8712
33.1415
40.8232
50.3002
63.0372
73.243
81.8167
91.6763
100.486
138.997
361.937
353.084
130.548
99.3208
89.975
81.3046
74.2019
67.2679
57.3505
42.963
31.4748
25.5494
23.0478
22.4587
24.4502
29.7646
38.5122
48.872
62.4695
74.327
82.7705
92.6685
121.868
127.68
698.368
240.104
116.933
96.1771
86.0162
77.7359
69.4518
62.1397
54.2013
43.5984
31.2005
23.2727
20.9575
21.0947
22.9459
27.5466
36.7272
49.4042
63.6149
74.7998
84.2775
93.4987
124.909
175.352
980.845
200.162
155.006
103.279
86.3717
75.9317
66.018
58.0082
50.4176
42.3562
33.8311
24.3843
19.835
19.5523
21.9984
27.5035
37.6094
51.4603
66.7121
77.4947
85.9017
102.664
119.609
191.035
910.389
138.553
104.974
90.8172
83.9847
74.8764
63.2565
52.6804
46.4527
40.9773
34.657
27.8097
21.8259
19.1574
20.4579
26.1833
37.7684
54.9819
68.6549
80.261
90.465
101.742
155.363
347.169
723.072
128.944
109.716
91.6385
84.3192
76.1848
64.2347
51.1993
41.6044
37.5488
34.5206
29.9312
24.792
21.4272
20.771
25.0518
37.8312
59.0248
71.4074
81.5588
92.054
123.721
134.319
742.589
671.215
137.969
102.684
90.8327
83.3962
75.7731
65.0689
51.3591
40.1089
34.2031
32.0337
30.5239
27.1992
23.7726
23.6626
27.7662
40.5889
62.1879
73.6533
83.1299
99.7505
112.347
186.475
241.866
115.427
93.7588
85.0334
81.0566
74.6616
64.4832
51.0276
39.4579
32.9695
30.2655
29.6862
29.0382
26.6829
26.2048
32.2198
46.3015
63.9011
74.2946
84.9175
103.008
152.536
231.827
234.04
116.085
95.0585
86.9772
79.74
73.0802
64.1209
50.5464
38.8826
31.7739
29.1012
29.325
30.7872
32.7644
35.2417
41.6801
54.5902
65.6145
74.5131
86.8546
100.296
160.292
641.571
203.951
160.827
105.038
85.9448
76.7306
70.4213
63.029
51.0873
39.1952
30.8668
27.3151
27.8763
31.0339
35.7233
41.6563
50.3544
61.2761
68.0382
74.4116
85.2576
118.764
153.89
675.002
199.397
117.267
92.1378
82.6448
74.2671
65.5885
58.1997
49.3145
39.8694
31.0071
25.8542
25.2688
28.5862
33.9215
40.9307
50.3374
59.5834
67.471
74.8224
85.7727
104.638
157.751
808.963
187.806
113.315
90.1296
81.4101
72.6909
62.4243
52.7161
44.7737
38.2635
31.6191
26.7071
24.743
26.7248
32.0651
38.9954
48.3448
57.9892
66.8198
74.2258
84.0169
108.808
133.536
911.409
880.056
141.504
106.363
89.0353
81.054
72.1551
60.0775
48.2479
39.8894
34.3337
30.0108
27.2022
26.0858
27.3921
32.0202
39.5534
49.1701
58.967
68.1657
75.6709
83.5101
105.301
169.812
696.94
141.623
123.25
92.1303
80.4119
71.5193
59.1438
44.8126
35.6796
30.2599
26.7665
25.2806
25.6468
28.12
33.4021
41.1265
51.1785
60.5526
69.7365
78.4595
85.0495
107.984
177.233
688.636
137.593
97.079
83.2754
76.8868
69.3166
59.204
43.0159
32.4125
26.9112
23.7458
22.4103
23.1401
26.2989
32.1111
40.595
51.7616
62.1621
70.497
79.0367
91.2129
102.969
183.853
349.787
126.095
92.9049
81.0551
75.24
68.0957
59.8231
44.5795
30.3295
24.2386
21.387
19.9616
20.2378
23.0437
29.2056
38.1927
49.6497
61.7955
70.8549
79.2346
92.0338
124.116
232.328
234.655
110.085
87.6958
77.7691
72.4269
66.7795
59.7041
48.7547
32.0093
22.2219
19.1211
17.9711
18.1786
20.6326
26.4259
36.499
48.8946
61.2288
70.6898
78.5999
93.8144
128.509
613.18
238.214
110.708
87.8384
76.3893
69.0231
64.0114
58.9474
49.9188
37.5268
24.5607
17.6573
15.9182
16.444
19.2741
25.552
36.1901
49.7158
62.1135
72.0258
79.6422
93.1128
135.891
649.829
201.785
114.749
90.9787
76.8972
67.3809
59.4866
53.695
47.9713
39.5842
29.2469
20.5933
15.5707
15.1367
17.9388
24.7793
35.9361
50.7647
63.9753
73.8613
84.6866
92.7881
133.314
679.571
187.762
115.396
87.7562
75.0637
65.2658
55.4476
47.0223
42.2446
38.6025
31.9543
24.4073
18.4158
15.5759
17.5413
24.6073
37.23
52.8406
65.4395
74.5613
86.8518
110.67
124.617
748.558
195.493
117.708
88.2359
75.0579
63.5065
50.77
41.4476
36.9844
33.9489
31.2989
26.6462
22.2167
19.5575
20.5851
27.9311
41.4879
55.2444
66.1085
75.6075
85.8551
115.026
165.217
940.023
188.989
121.665
95.0665
78.8215
64.3211
45.5778
37.1579
33.453
30.3018
27.2981
24.6618
22.5926
23.1002
26.719
34.9722
46.67
57.9373
66.1403
74.6602
86.1001
114.672
177.317
881.304
137.899
113.093
101.826
83.5856
66.5374
41.5301
33.7553
30.7094
28.369
25.4747
22.5703
20.7661
21.9406
27.4971
36.8864
48.9041
60.0264
68.4885
75.2715
84.0733
112.818
180.183
699.047
157.943
120.887
91.1547
81.1536
67.2397
38.8449
31.1139
28.5292
26.8401
24.9669
22.6615
20.8852
20.9835
25.8351
35.7838
49.0836
60.805
69.4636
77.3503
84.5537
108.851
186.392
707.162
143.086
102.021
84.8311
76.8458
68.8245
46.0826
30.552
27.0362
25.4727
23.9236
22.4796
21.6792
22.5491
25.917
35.0393
49.3322
61.9502
70.7408
78.5049
91.2022
111.71
177.393
368.418
133.821
98.6334
84.7064
75.6012
64.8079
50.2163
33.3178
26.3502
24.4502
22.9367
21.2547
20.4664
22.0362
27.1589
36.3664
51.3468
65.3647
74.0427
81.364
94.5213
127.539
212.328
233.228
118.704