/*--------------------------------*- C++ -*----------------------------------*\
| =========                 |                                                 |
| \\      /  F ield         | OpenFOAM: The Open Source CFD Toolbox           |
|  \\    /   O peration     | Version:  2312                                  |
|   \\  /    A nd           | Website:  www.openfoam.com                      |
|    \\/     M anipulation  |                                                 |
\*---------------------------------------------------------------------------*/
FoamFile
{
    version     2.0;
    format      ascii;
    arch        "LSB;label=64;scalar=64";
    class       volScalarField;
    location    "150";
    object      p;
}
// * * * * * * * * * * * * * * * * * * * * * * * * * * * * * * * * * * * * * //

dimensions      [0 2 -2 0 0 0 0];

internalField   nonuniform List<scalar> 
404911
(
-0.130514
-0.130541
-0.126129
-0.128002
-0.132307
-0.1312
-0.127864
-0.127109
-0.127601
-0.127797
-0.132023
-0.135843
-0.135773
-0.133243
-0.131353
-0.128032
-0.134749
-0.134642
-0.135071
-0.134479
-0.138834
-0.137217
-0.136918
-0.13811
-0.139116
-0.148365
-0.138867
-0.137732
-0.136218
-0.139491
-0.138485
-0.138812
-0.1384
-0.135704
-0.140385
-0.139951
-0.138879
-0.142296
-0.14159
-0.14095
-0.141869
-0.14286
-0.142538
-0.142056
-0.141191
-0.141643
-0.144284
-0.143076
-0.142443
-0.142168
-0.144793
-0.145119
-0.144258
-0.143068
-0.144594
-0.144495
-0.144719
-0.134397
-0.134246
-0.13307
-0.134739
-0.133956
-0.135139
-0.135504
-0.135378
-0.137454
-0.136107
-0.135848
-0.137802
-0.138362
-0.138392
-0.138004
-0.138125
-0.139321
-0.138791
-0.138368
-0.138377
-0.140215
-0.139728
-0.141276
-0.140612
-0.142721
-0.142071
-0.141478
-0.144329
-0.143435
-0.145394
-0.144772
-0.143904
-0.145454
-0.14507
-0.14822
-0.148945
-0.147892
-0.149939
-0.149956
-0.149244
-0.151913
-0.150998
-0.15092
-0.153499
-0.152294
-0.151601
-0.15394
-0.0679762
-0.0662852
-0.0639117
-0.0732239
-0.0684806
-0.0737099
-0.0655209
-0.0679736
-0.0663773
-0.0650034
-0.0630792
-0.0740532
-0.0743616
-0.0709688
-0.0692194
-0.0685563
-0.0674671
-0.0671046
-0.0647531
-0.0597703
-0.0763325
-0.0759918
-0.0740744
-0.0743439
-0.0737671
-0.0726831
-0.0711029
-0.0695101
-0.0688266
-0.067793
-0.0666438
-0.0648867
-0.0638892
-0.0650689
-0.0600191
-0.0587788
-0.0783252
-0.0780245
-0.0766457
-0.07642
-0.0758116
-0.0750525
-0.0744209
-0.0735144
-0.0723939
-0.0700006
-0.0690915
-0.0688178
-0.0670133
-0.0654243
-0.0647022
-0.0801575
-0.0796824
-0.07838
-0.0783404
-0.0776048
-0.0765493
-0.0761183
-0.0755678
-0.0749312
-0.0737016
-0.07293
-0.0716227
-0.0697632
-0.0695635
-0.0685913
-0.0827404
-0.0806247
-0.08027
-0.0791821
-0.0782459
-0.0776951
-0.076355
-0.0761328
-0.0759285
-0.0749044
-0.0740437
-0.0725168
-0.0718984
-0.0710591
-0.0705039
-0.0672399
-0.0820013
-0.0837002
-0.0842877
-0.0823417
-0.0818457
-0.0799396
-0.0788835
-0.078126
-0.0770245
-0.0764505
-0.0760603
-0.0752825
-0.0743863
-0.0732852
-0.0723271
-0.0715779
-0.070397
-0.0862147
-0.0852415
-0.0846881
-0.0835156
-0.0836155
-0.0832533
-0.0824462
-0.0812165
-0.0803969
-0.079132
-0.0784263
-0.0773329
-0.0765595
-0.0760176
-0.0751391
-0.0748291
-0.0733591
-0.0714438
-0.0885967
-0.086341
-0.0863308
-0.0857879
-0.0850028
-0.0843561
-0.0832732
-0.0823944
-0.0817031
-0.0806196
-0.0797001
-0.0784061
-0.0775604
-0.07701
-0.0762772
-0.0763908
-0.0739517
-0.0739556
-0.09109
-0.0900307
-0.089491
-0.0879194
-0.0871033
-0.0863508
-0.0853466
-0.0845666
-0.0835563
-0.0829629
-0.0819643
-0.0809872
-0.0799089
-0.0789739
-0.0781325
-0.0770069
-0.0767189
-0.0754617
-0.092998
-0.0911031
-0.0901891
-0.0899156
-0.0888361
-0.088111
-0.0870426
-0.0858533
-0.0849506
-0.0838952
-0.0831665
-0.0823756
-0.0814429
-0.0806695
-0.078914
-0.0785185
-0.0790918
-0.0954993
-0.094169
-0.0939909
-0.0919035
-0.0905311
-0.0903013
-0.089391
-0.0887109
-0.0877112
-0.0862554
-0.0854572
-0.0843306
-0.0835926
-0.0828821
-0.0818145
-0.0811845
-0.0807617
-0.0967268
-0.0958544
-0.0966488
-0.094571
-0.0933794
-0.0924832
-0.0916871
-0.0909941
-0.0901985
-0.0891984
-0.087741
-0.0871506
-0.0861374
-0.0851724
-0.08443
-0.0834224
-0.0824712
-0.0817099
-0.0997984
-0.100889
-0.0979868
-0.0976057
-0.0968715
-0.0956758
-0.0945335
-0.0936167
-0.0926031
-0.0919136
-0.0910383
-0.0895959
-0.0886095
-0.087391
-0.0867391
-0.0865135
-0.0852303
-0.0832447
-0.100603
-0.100132
-0.100168
-0.0989082
-0.0983001
-0.0979715
-0.0968876
-0.0960389
-0.0952542
-0.0941889
-0.0932521
-0.092761
-0.0915103
-0.0899928
-0.0891971
-0.0881056
-0.0868852
-0.0861369
-0.101472
-0.100702
-0.10071
-0.100368
-0.100008
-0.0993652
-0.0984858
-0.0974138
-0.0967369
-0.0956357
-0.0947972
-0.0943525
-0.0935583
-0.092131
-0.0905877
-0.0894596
-0.0884537
-0.0893093
-0.102826
-0.102305
-0.102944
-0.100939
-0.100894
-0.100705
-0.100114
-0.0994695
-0.0989379
-0.098291
-0.0972284
-0.0961776
-0.095438
-0.0946412
-0.0942089
-0.0931997
-0.0915456
-0.0907318
-0.103936
-0.103296
-0.102976
-0.102228
-0.101459
-0.101197
-0.100789
-0.100418
-0.0998483
-0.0996067
-0.0991497
-0.0981157
-0.0969006
-0.0961465
-0.0950088
-0.0938588
-0.0933492
-0.0915393
-0.107406
-0.106653
-0.105125
-0.10393
-0.103345
-0.102989
-0.101901
-0.101343
-0.100692
-0.100406
-0.100261
-0.09996
-0.099666
-0.0993296
-0.09827
-0.0972187
-0.0960818
-0.0947946
-0.106428
-0.107164
-0.106312
-0.105256
-0.104563
-0.103944
-0.10319
-0.102151
-0.101654
-0.100724
-0.100503
-0.100423
-0.100128
-0.0999798
-0.0990831
-0.0987538
-0.0984232
-0.107317
-0.107594
-0.107255
-0.10762
-0.107241
-0.106386
-0.105616
-0.104776
-0.103952
-0.103193
-0.102175
-0.101269
-0.100623
-0.100612
-0.100024
-0.100295
-0.0992867
-0.0984191
-0.109205
-0.108299
-0.10779
-0.107633
-0.107442
-0.107348
-0.106888
-0.106338
-0.105422
-0.1046
-0.103691
-0.102842
-0.101937
-0.101138
-0.100781
-0.100435
-0.100228
-0.0996061
-0.109137
-0.109218
-0.10878
-0.107988
-0.107787
-0.107808
-0.107331
-0.106983
-0.106541
-0.105985
-0.105523
-0.104422
-0.10337
-0.102476
-0.101417
-0.0998229
-0.101483
-0.0997686
-0.110345
-0.110367
-0.109886
-0.109507
-0.108986
-0.10851
-0.107951
-0.107704
-0.107677
-0.107328
-0.106889
-0.106375
-0.105901
-0.10495
-0.104397
-0.103314
-0.10305
-0.102364
-0.111381
-0.110867
-0.110585
-0.110527
-0.110101
-0.109886
-0.109208
-0.108706
-0.108255
-0.107872
-0.107625
-0.107412
-0.107268
-0.106559
-0.106295
-0.105418
-0.105851
-0.103651
-0.112161
-0.111815
-0.111168
-0.110991
-0.110807
-0.110536
-0.110142
-0.109557
-0.108857
-0.108784
-0.108359
-0.107842
-0.107386
-0.107251
-0.106497
-0.106462
-0.106167
-0.10595
-0.113171
-0.112814
-0.112395
-0.111984
-0.111558
-0.111393
-0.111096
-0.110871
-0.110499
-0.110016
-0.109075
-0.10891
-0.108588
-0.108471
-0.107774
-0.107311
-0.109582
-0.105233
-0.114182
-0.113634
-0.113408
-0.112788
-0.112341
-0.111935
-0.11168
-0.111491
-0.111238
-0.11091
-0.110585
-0.110002
-0.10944
-0.108995
-0.108539
-0.107364
-0.107542
-0.106948
-0.114289
-0.114105
-0.114187
-0.113911
-0.113305
-0.112707
-0.112284
-0.112021
-0.111844
-0.111635
-0.111326
-0.111005
-0.110565
-0.110157
-0.109811
-0.109022
-0.10837
-0.107772
-0.115441
-0.114903
-0.114369
-0.114686
-0.114193
-0.113657
-0.113063
-0.112629
-0.112297
-0.112129
-0.111951
-0.111682
-0.111446
-0.111093
-0.110608
-0.110526
-0.11008
-0.108703
-0.117365
-0.115481
-0.115801
-0.115572
-0.115176
-0.115111
-0.11468
-0.114088
-0.11336
-0.112958
-0.112539
-0.112293
-0.112074
-0.111883
-0.111662
-0.111589
-0.111292
-0.111162
-0.116239
-0.116819
-0.116526
-0.116127
-0.116083
-0.116046
-0.115666
-0.115156
-0.114579
-0.113614
-0.113177
-0.112789
-0.112508
-0.112214
-0.11207
-0.111964
-0.111887
-0.1111
-0.116583
-0.116813
-0.116688
-0.116376
-0.116232
-0.116077
-0.11613
-0.11595
-0.115484
-0.114926
-0.1143
-0.113657
-0.113201
-0.11289
-0.11257
-0.112033
-0.111147
-0.111079
-0.118301
-0.117045
-0.116854
-0.116857
-0.116782
-0.116464
-0.116158
-0.116394
-0.116118
-0.115741
-0.115262
-0.114662
-0.114123
-0.113661
-0.113363
-0.11302
-0.112364
-0.117958
-0.118844
-0.117833
-0.117338
-0.117095
-0.117023
-0.116997
-0.116775
-0.116293
-0.116275
-0.116181
-0.115914
-0.115529
-0.115079
-0.114502
-0.114141
-0.113753
-0.113475
-0.118626
-0.11873
-0.118531
-0.118034
-0.117551
-0.117295
-0.117318
-0.117185
-0.116982
-0.116597
-0.116297
-0.116222
-0.115982
-0.115717
-0.115307
-0.114826
-0.114537
-0.113395
-0.11968
-0.118901
-0.118967
-0.118581
-0.118298
-0.117759
-0.117415
-0.117346
-0.117225
-0.117125
-0.116793
-0.116514
-0.116377
-0.116011
-0.115786
-0.115235
-0.114338
-0.114048
-0.119169
-0.119974
-0.119834
-0.119503
-0.119138
-0.118815
-0.118612
-0.118133
-0.117665
-0.117482
-0.117339
-0.117327
-0.117067
-0.116633
-0.116478
-0.116153
-0.115926
-0.115581
-0.120561
-0.12032
-0.119823
-0.119805
-0.119518
-0.119295
-0.118964
-0.118746
-0.118379
-0.117939
-0.117807
-0.117479
-0.117442
-0.117268
-0.116952
-0.11666
-0.116576
-0.116084
-0.12085
-0.121033
-0.12065
-0.120236
-0.120013
-0.119743
-0.119443
-0.119051
-0.118811
-0.118578
-0.118224
-0.117925
-0.117722
-0.117659
-0.117345
-0.117287
-0.116825
-0.116653
-0.123369
-0.120911
-0.121004
-0.120787
-0.120459
-0.120252
-0.119958
-0.11961
-0.119199
-0.118843
-0.118681
-0.118443
-0.118037
-0.117783
-0.117769
-0.117479
-0.117175
-0.117483
-0.121749
-0.121643
-0.121719
-0.121229
-0.121006
-0.120738
-0.120527
-0.120216
-0.119862
-0.119349
-0.119003
-0.118931
-0.118665
-0.118177
-0.118047
-0.117779
-0.118183
-0.121833
-0.122952
-0.122198
-0.122278
-0.121945
-0.121522
-0.121197
-0.120987
-0.12083
-0.120552
-0.120174
-0.119634
-0.118964
-0.118972
-0.119045
-0.118651
-0.11837
-0.117956
-0.123341
-0.122992
-0.122752
-0.122596
-0.122503
-0.122128
-0.121714
-0.121358
-0.121224
-0.1211
-0.120868
-0.120562
-0.120193
-0.119364
-0.118877
-0.119059
-0.118763
-0.118584
-0.123261
-0.123429
-0.123283
-0.123148
-0.123142
-0.122835
-0.122444
-0.122002
-0.121552
-0.121574
-0.121361
-0.12114
-0.120863
-0.120538
-0.120204
-0.119715
-0.119501
-0.119264
-0.124471
-0.123678
-0.123587
-0.123726
-0.123444
-0.123515
-0.123227
-0.122857
-0.122454
-0.121874
-0.121643
-0.121477
-0.121261
-0.120998
-0.12075
-0.120488
-0.120251
-0.119989
-0.124194
-0.124742
-0.124138
-0.123938
-0.123874
-0.123769
-0.123729
-0.123551
-0.123203
-0.122795
-0.122412
-0.12199
-0.121629
-0.121345
-0.121137
-0.120786
-0.120681
-0.120294
-0.124648
-0.124284
-0.124288
-0.124301
-0.124135
-0.124063
-0.123963
-0.123893
-0.12377
-0.123481
-0.123107
-0.12274
-0.12231
-0.121973
-0.121654
-0.121473
-0.121069
-0.121109
-0.125439
-0.124932
-0.12447
-0.124288
-0.124376
-0.124278
-0.124193
-0.124068
-0.123976
-0.123901
-0.123718
-0.1234
-0.123055
-0.122646
-0.122243
-0.121847
-0.121881
-0.122107
-0.125552
-0.125696
-0.125061
-0.124591
-0.124523
-0.124458
-0.124383
-0.12427
-0.124137
-0.12408
-0.124042
-0.123849
-0.123573
-0.123179
-0.122808
-0.1225
-0.122279
-0.121354
-0.126392
-0.126063
-0.126111
-0.125504
-0.125325
-0.124764
-0.124514
-0.124566
-0.124574
-0.124446
-0.124381
-0.124268
-0.124272
-0.12393
-0.123754
-0.123342
-0.122962
-0.122557
-0.122257
-0.126939
-0.126375
-0.126162
-0.126234
-0.125946
-0.125644
-0.125179
-0.124624
-0.124702
-0.12475
-0.124652
-0.124561
-0.124378
-0.124137
-0.123899
-0.123775
-0.123463
-0.12306
-0.127056
-0.126768
-0.126736
-0.126582
-0.126315
-0.126011
-0.125679
-0.125222
-0.125009
-0.124839
-0.124911
-0.124742
-0.12458
-0.12444
-0.124238
-0.124109
-0.123177
-0.128103
-0.127728
-0.127396
-0.127216
-0.127056
-0.12693
-0.126621
-0.126306
-0.126056
-0.125685
-0.125265
-0.125062
-0.124959
-0.124916
-0.124652
-0.124447
-0.124224
-0.124615
-0.128608
-0.128556
-0.127887
-0.127724
-0.127515
-0.127339
-0.127149
-0.126836
-0.126511
-0.126273
-0.12591
-0.125428
-0.125187
-0.125066
-0.124904
-0.124878
-0.124657
-0.124659
-0.131131
-0.128659
-0.128608
-0.128254
-0.12799
-0.127741
-0.127538
-0.127372
-0.127145
-0.126958
-0.126551
-0.126133
-0.125548
-0.125433
-0.125255
-0.124941
-0.125115
-0.124428
-0.129411
-0.129147
-0.128804
-0.12851
-0.128238
-0.127976
-0.127776
-0.127594
-0.127305
-0.127212
-0.126859
-0.12656
-0.126146
-0.125854
-0.125595
-0.125433
-0.125036
-0.130767
-0.129975
-0.129447
-0.129116
-0.128774
-0.128503
-0.128227
-0.12801
-0.127804
-0.127385
-0.127282
-0.127037
-0.126764
-0.12637
-0.126008
-0.125837
-0.12572
-0.130852
-0.129099
-0.129926
-0.129939
-0.129525
-0.129359
-0.129057
-0.128784
-0.128489
-0.128256
-0.127879
-0.127565
-0.127404
-0.127177
-0.126872
-0.126563
-0.126159
-0.125647
-0.131935
-0.131232
-0.130446
-0.130273
-0.130258
-0.129903
-0.129628
-0.129361
-0.129035
-0.128754
-0.128667
-0.128428
-0.127995
-0.127716
-0.127422
-0.127393
-0.126324
-0.132473
-0.13149
-0.13141
-0.130735
-0.130819
-0.130598
-0.130219
-0.129871
-0.129668
-0.129511
-0.129161
-0.129083
-0.128706
-0.128367
-0.128189
-0.128074
-0.127622
-0.132759
-0.13262
-0.132517
-0.131895
-0.131341
-0.131033
-0.130798
-0.130751
-0.130392
-0.13005
-0.129888
-0.129706
-0.129519
-0.12932
-0.129107
-0.128914
-0.128625
-0.128697
-0.133268
-0.133429
-0.133317
-0.132918
-0.132498
-0.132289
-0.131443
-0.130131
-0.130674
-0.130528
-0.130395
-0.130179
-0.129968
-0.129832
-0.129577
-0.12943
-0.128779
-0.128827
-0.136229
-0.134222
-0.134032
-0.133799
-0.133543
-0.1333
-0.133146
-0.132397
-0.130983
-0.130762
-0.13089
-0.130602
-0.130314
-0.130106
-0.13007
-0.129803
-0.129488
-0.128981
-0.135941
-0.13596
-0.134882
-0.134434
-0.134242
-0.133973
-0.133569
-0.133521
-0.133066
-0.132181
-0.131428
-0.130965
-0.130713
-0.130401
-0.13015
-0.1299
-0.129959
-0.129128
-0.135544
-0.135444
-0.13651
-0.135973
-0.135296
-0.135058
-0.134801
-0.134757
-0.134243
-0.133602
-0.133138
-0.132524
-0.131734
-0.131234
-0.13116
-0.130773
-0.130326
-0.130462
-0.13
-0.136423
-0.135786
-0.136356
-0.13664
-0.136385
-0.135797
-0.135455
-0.135192
-0.135052
-0.134771
-0.13415
-0.13356
-0.133157
-0.132648
-0.132231
-0.131767
-0.130823
-0.131508
-0.13104
-0.140054
-0.136711
-0.137307
-0.137163
-0.136668
-0.136426
-0.13599
-0.135541
-0.135146
-0.134767
-0.134205
-0.133874
-0.133411
-0.132931
-0.132662
-0.132169
-0.131521
-0.130749
-0.140312
-0.139348
-0.138112
-0.137939
-0.137618
-0.137208
-0.136979
-0.136512
-0.135814
-0.135267
-0.134842
-0.134284
-0.13397
-0.133647
-0.133331
-0.132989
-0.132876
-0.141119
-0.140543
-0.139458
-0.138931
-0.138587
-0.13812
-0.137542
-0.137384
-0.13669
-0.135955
-0.135404
-0.13483
-0.134521
-0.134109
-0.133638
-0.133196
-0.133587
-0.141989
-0.141283
-0.140752
-0.139884
-0.139452
-0.13909
-0.138573
-0.13808
-0.137635
-0.136886
-0.136316
-0.135797
-0.135333
-0.134936
-0.134186
-0.134218
-0.13373
-0.144618
-0.142951
-0.142662
-0.1416
-0.140958
-0.14031
-0.139959
-0.139602
-0.139059
-0.13858
-0.13798
-0.137282
-0.136654
-0.136057
-0.13576
-0.135485
-0.135073
-0.133557
-0.145089
-0.14435
-0.144354
-0.143394
-0.142374
-0.141536
-0.141001
-0.140675
-0.140206
-0.139576
-0.139123
-0.138437
-0.137702
-0.137252
-0.136727
-0.136566
-0.135851
-0.14719
-0.14637
-0.145945
-0.145161
-0.144392
-0.143369
-0.142487
-0.141754
-0.141306
-0.140795
-0.14014
-0.139608
-0.138972
-0.138519
-0.137629
-0.137533
-0.137319
-0.148754
-0.147602
-0.147369
-0.146979
-0.146346
-0.145367
-0.144196
-0.143486
-0.142772
-0.142189
-0.141526
-0.140807
-0.140208
-0.139621
-0.139112
-0.138404
-0.137316
-0.149059
-0.149024
-0.1484
-0.148117
-0.147598
-0.14686
-0.145737
-0.144953
-0.144136
-0.143554
-0.143076
-0.142256
-0.141462
-0.140808
-0.13997
-0.139304
-0.138879
-0.151455
-0.149346
-0.149079
-0.149008
-0.148315
-0.147585
-0.146634
-0.145881
-0.145231
-0.144722
-0.144292
-0.143686
-0.142898
-0.142065
-0.141375
-0.141106
-0.13987
-0.151222
-0.15144
-0.15011
-0.149408
-0.149193
-0.148685
-0.147289
-0.145923
-0.145725
-0.145577
-0.145331
-0.144934
-0.144265
-0.143478
-0.142569
-0.141649
-0.141685
-0.154411
-0.151946
-0.150876
-0.149536
-0.149326
-0.149073
-0.148453
-0.14724
-0.146237
-0.145905
-0.145684
-0.145272
-0.144635
-0.143872
-0.142302
-0.142395
-0.154386
-0.154195
-0.15282
-0.151581
-0.150248
-0.149838
-0.14947
-0.148783
-0.14765
-0.146672
-0.146307
-0.146008
-0.145645
-0.145563
-0.144575
-0.159198
-0.157513
-0.156433
-0.155323
-0.154072
-0.152342
-0.151079
-0.150268
-0.14996
-0.149083
-0.148286
-0.147737
-0.147323
-0.146655
-0.145945
-0.145138
-0.160714
-0.159138
-0.158742
-0.157911
-0.156481
-0.155359
-0.153346
-0.15219
-0.151149
-0.150589
-0.149591
-0.148923
-0.148974
-0.148037
-0.147054
-0.147062
-0.159369
-0.159905
-0.159745
-0.158682
-0.158549
-0.157339
-0.156187
-0.154697
-0.153353
-0.152199
-0.151392
-0.150611
-0.149421
-0.148756
-0.147621
-0.147638
-0.160878
-0.161271
-0.161099
-0.160373
-0.160386
-0.159771
-0.158852
-0.157769
-0.157153
-0.155785
-0.154634
-0.152951
-0.15267
-0.151806
-0.150212
-0.148982
-0.164846
-0.162811
-0.161667
-0.161372
-0.16095
-0.160752
-0.159867
-0.159466
-0.159112
-0.158354
-0.157092
-0.155438
-0.153847
-0.152966
-0.15177
-0.150775
-0.165275
-0.164496
-0.163907
-0.162638
-0.16191
-0.161735
-0.161329
-0.160559
-0.160039
-0.15985
-0.159402
-0.15841
-0.156681
-0.154805
-0.153824
-0.152989
-0.166516
-0.165954
-0.165872
-0.164546
-0.163304
-0.162564
-0.162036
-0.161469
-0.161393
-0.161104
-0.160521
-0.160431
-0.160951
-0.159123
-0.156813
-0.154784
-0.168551
-0.169804
-0.167475
-0.166289
-0.165047
-0.163889
-0.163379
-0.162437
-0.161838
-0.161273
-0.161007
-0.161907
-0.159817
-0.159699
-0.161029
-0.158534
-0.173171
-0.171133
-0.169659
-0.168001
-0.167002
-0.166039
-0.165158
-0.164093
-0.163121
-0.162505
-0.161642
-0.161352
-0.161103
-0.160808
-0.159199
-0.17496
-0.173751
-0.172526
-0.170231
-0.169202
-0.167969
-0.167148
-0.166105
-0.165069
-0.164028
-0.163161
-0.162516
-0.161732
-0.161064
-0.159932
-0.160486
-0.176826
-0.175232
-0.173876
-0.171791
-0.170981
-0.169836
-0.168948
-0.168025
-0.167002
-0.165936
-0.16498
-0.163784
-0.162501
-0.161737
-0.161617
-0.158965
-0.176563
-0.176969
-0.176112
-0.174826
-0.173706
-0.171926
-0.170561
-0.169637
-0.168739
-0.167793
-0.166759
-0.165925
-0.16527
-0.164317
-0.162956
-0.177758
-0.179181
-0.177107
-0.175168
-0.173973
-0.172789
-0.17139
-0.170508
-0.169588
-0.168282
-0.167287
-0.166378
-0.166243
-0.164651
-0.177711
-0.179464
-0.178627
-0.177161
-0.176041
-0.174842
-0.173604
-0.172385
-0.1712
-0.170144
-0.169454
-0.168737
-0.167078
-0.18285
-0.182155
-0.181191
-0.180728
-0.178769
-0.177556
-0.176561
-0.175103
-0.173813
-0.172956
-0.171931
-0.171575
-0.169968
-0.169841
-0.18496
-0.183726
-0.18222
-0.181743
-0.180303
-0.179807
-0.178422
-0.176983
-0.175752
-0.174412
-0.17374
-0.173191
-0.172111
-0.170367
-0.188311
-0.186473
-0.184698
-0.18389
-0.182758
-0.182205
-0.180713
-0.179478
-0.177924
-0.175959
-0.175633
-0.174072
-0.173657
-0.171915
-0.192379
-0.189461
-0.188606
-0.186406
-0.184913
-0.18479
-0.183253
-0.181904
-0.180266
-0.178792
-0.177406
-0.17717
-0.175695
-0.173722
-0.194219
-0.193694
-0.191774
-0.189752
-0.186897
-0.185416
-0.185715
-0.184442
-0.183078
-0.182613
-0.179602
-0.178001
-0.17703
-0.177228
-0.194713
-0.194363
-0.194604
-0.193806
-0.191222
-0.191325
-0.189098
-0.187549
-0.186048
-0.185233
-0.182771
-0.18131
-0.178425
-0.19554
-0.193979
-0.191154
-0.191993
-0.19043
-0.189922
-0.186234
-0.185337
-0.183686
-0.195697
-0.194842
-0.194199
-0.191334
-0.189779
-0.1908
-0.188447
-0.18717
-0.196533
-0.195182
-0.195694
-0.192412
-0.193348
-0.19285
-0.189928
-0.197929
-0.19595
-0.198378
-0.194628
-0.194921
-0.195761
-0.195666
-0.197272
-0.198907
-0.197405
-0.195965
-0.195798
-0.203161
-0.202017
-0.203823
-0.195554
-0.198444
-0.197492
-0.220118
-0.214114
-0.207456
-0.206329
-0.202019
-0.220196
-0.218949
-0.215714
-0.213105
-0.20837
-0.212447
-0.218795
-0.215496
-0.218334
-0.211125
-0.209078
-0.216991
-0.21924
-0.219243
-0.0122802
-0.00845866
-0.00213007
-0.0124948
-0.0176261
-0.0153811
-0.0121835
-0.0124874
-0.0125748
-0.0125446
-0.00192539
0.00559167
-0.0157153
-0.0163363
-0.0205288
-0.0159774
-0.0174401
-0.0167378
-0.0138479
-0.0128228
-0.0122094
-0.0114013
-0.0132161
-0.00850443
-0.00485215
-0.00306245
0.00404405
-0.0220768
-0.0219004
-0.0174165
-0.0178667
-0.0153389
-0.018698
-0.0180432
-0.0161147
-0.0162396
-0.0151874
-0.013681
-0.0134929
-0.0121002
-0.0118006
-0.0110194
-0.00622329
-0.00462172
-0.0031436
0.0109835
0.0130866
0.0127675
0.014389
-0.0309703
-0.0269479
-0.0243687
-0.0216688
-0.0221086
-0.0199627
-0.0186002
-0.0186268
-0.0181084
-0.0177597
-0.0168474
-0.0160388
-0.015604
-0.0142205
-0.0151467
-0.00870726
-0.0115938
-0.00853534
-0.00630121
-0.00545127
-0.00204997
0.00185761
0.00660934
-0.0345772
-0.0345918
-0.0318715
-0.0306364
-0.0264804
-0.0254065
-0.0231445
-0.0223992
-0.0207422
-0.0199211
-0.0200901
-0.0189258
-0.0186854
-0.0172538
-0.0187082
-0.0155503
-0.0152064
-0.00844791
-0.00808986
-0.00913489
-0.00920988
-0.00534226
-0.00501843
-0.00263263
0.000373239
-0.0394811
-0.0403955
-0.0364517
-0.0352704
-0.0340587
-0.033334
-0.0281948
-0.0258157
-0.0240568
-0.0232025
-0.0217975
-0.0206653
-0.0196364
-0.0200206
-0.0190463
-0.0179139
-0.0172452
-0.0150817
-0.0144388
-0.0131499
-0.0121675
-0.00720661
-0.00717845
-0.00502379
-0.00332194
-0.041058
-0.0407492
-0.0406631
-0.0399649
-0.0387355
-0.0365947
-0.0351482
-0.0328566
-0.0294341
-0.0265956
-0.0248217
-0.0240135
-0.0226279
-0.022495
-0.0182137
-0.0187002
-0.0190189
-0.0166855
-0.0184192
-0.0159589
-0.015065
-0.0120339
-0.0114342
-0.00784387
-0.00609454
-0.0448689
-0.0417533
-0.0420891
-0.0418101
-0.0411698
-0.0401849
-0.0393991
-0.0372467
-0.0364705
-0.0339741
-0.0305848
-0.0274288
-0.0256025
-0.0251176
-0.0230742
-0.022159
-0.0226454
-0.0184439
-0.0202567
-0.0187022
-0.0172069
-0.016987
-0.014158
-0.0139111
-0.0116283
-0.0505542
-0.0528422
-0.0503527
-0.0454769
-0.0442915
-0.04289
-0.0418284
-0.0411492
-0.0400351
-0.0393148
-0.0376792
-0.0369302
-0.0349645
-0.0322816
-0.0294903
-0.0280678
-0.0259516
-0.0235698
-0.0221386
-0.022263
-0.0198982
-0.0190873
-0.0194666
-0.017044
-0.0169447
-0.0175234
-0.0549405
-0.0542982
-0.0517675
-0.051971
-0.0502451
-0.0486745
-0.0469504
-0.045261
-0.0436057
-0.0424585
-0.0413923
-0.0402895
-0.0393375
-0.0381048
-0.0370274
-0.0357211
-0.0337859
-0.0319322
-0.0295573
-0.0281211
-0.0261867
-0.0230877
-0.0208015
-0.0203851
-0.0177199
-0.0186847
-0.0170588
-0.0568777
-0.0553455
-0.054136
-0.0529553
-0.0519603
-0.0504924
-0.0497901
-0.0484245
-0.0464496
-0.0446914
-0.0432571
-0.0417777
-0.0404896
-0.0392674
-0.0384866
-0.0371323
-0.0357772
-0.0344679
-0.0333823
-0.0308568
-0.0293209
-0.0300835
-0.0226031
-0.0227358
-0.0195523
-0.0628373
-0.0617389
-0.0582693
-0.0570285
-0.055514
-0.0544331
-0.0534018
-0.052647
-0.0514931
-0.050331
-0.0489756
-0.0473891
-0.0459683
-0.0444706
-0.0424009
-0.0404022
-0.0393127
-0.0388444
-0.0373392
-0.0360924
-0.0351833
-0.0338183
-0.0318367
-0.0314289
-0.0258085
-0.065245
-0.0628317
-0.062296
-0.060011
-0.0581307
-0.0566347
-0.0551083
-0.054181
-0.0532882
-0.0526745
-0.0513548
-0.0499577
-0.0482562
-0.0474285
-0.04568
-0.0433414
-0.0413041
-0.0400938
-0.0397659
-0.0377799
-0.036685
-0.0359457
-0.0347584
-0.0333536
-0.0700167
-0.0666406
-0.0678198
-0.0652692
-0.0642593
-0.0629101
-0.0611083
-0.0588375
-0.0572782
-0.0560234
-0.0548169
-0.0539366
-0.0533089
-0.0518829
-0.0508739
-0.0494507
-0.0484153
-0.0471504
-0.0445723
-0.0424443
-0.0410693
-0.0399239
-0.0383784
-0.0374729
-0.0368992
-0.0698869
-0.0703828
-0.0696309
-0.0681881
-0.0677571
-0.0666577
-0.0653975
-0.0640627
-0.0622215
-0.0597044
-0.0579639
-0.0568102
-0.0556394
-0.0546525
-0.0537371
-0.0528598
-0.0513849
-0.0502824
-0.0494123
-0.048214
-0.0458762
-0.0435878
-0.0420173
-0.0404356
-0.0395671
-0.0733079
-0.0722808
-0.0715885
-0.0707806
-0.0694877
-0.0686574
-0.0675637
-0.0671087
-0.0663201
-0.0650077
-0.0633841
-0.0616376
-0.0591836
-0.0577675
-0.0565024
-0.0554018
-0.0543885
-0.0534628
-0.0521732
-0.0510821
-0.0504664
-0.0491991
-0.0477444
-0.0448255
-0.0442377
-0.076961
-0.0769579
-0.0740618
-0.0735525
-0.0732343
-0.0724977
-0.071995
-0.0700406
-0.0691167
-0.0679105
-0.0673209
-0.066782
-0.0655274
-0.0635852
-0.0619819
-0.0599514
-0.0585217
-0.0570546
-0.0561997
-0.0553185
-0.0540069
-0.0526913
-0.0518328
-0.0511534
-0.049911
-0.0480443
-0.0790071
-0.0764737
-0.0768948
-0.0759459
-0.0747912
-0.0744114
-0.0741156
-0.0738154
-0.0727521
-0.0709114
-0.0694609
-0.0683877
-0.0677061
-0.0667962
-0.0655506
-0.0638182
-0.0624757
-0.06072
-0.0585232
-0.0575399
-0.0565919
-0.0558007
-0.0539498
-0.0530572
-0.0529592
-0.0526304
-0.0766963
-0.0798883
-0.0802043
-0.0781971
-0.0771771
-0.0765093
-0.0756612
-0.0750373
-0.0747016
-0.0743019
-0.0735297
-0.0716808
-0.0702073
-0.0689499
-0.0682533
-0.0670762
-0.0653817
-0.063845
-0.0633965
-0.0623242
-0.0600056
-0.0588785
-0.0580951
-0.0570212
-0.0543593
-0.0537024
-0.05312
-0.0832297
-0.0801419
-0.0801006
-0.080019
-0.0795057
-0.0788277
-0.0778463
-0.0769283
-0.0761405
-0.0755319
-0.0750633
-0.0744902
-0.073657
-0.0723878
-0.0709226
-0.069687
-0.0689144
-0.0676128
-0.0654471
-0.0638409
-0.0639555
-0.0625107
-0.0612685
-0.0601364
-0.0593213
-0.0579997
-0.0544314
-0.0840154
-0.0830551
-0.0824072
-0.0813633
-0.0806909
-0.0799423
-0.0792321
-0.0783683
-0.0774484
-0.0765861
-0.0759158
-0.0754029
-0.0747593
-0.0738479
-0.0727285
-0.0716308
-0.0706328
-0.0697921
-0.0683323
-0.0662626
-0.0644187
-0.0635674
-0.0621045
-0.0618943
-0.0613744
-0.0592632
-0.0846734
-0.0856296
-0.0840861
-0.083557
-0.0826629
-0.081937
-0.0813545
-0.0802641
-0.0796854
-0.0788333
-0.0779308
-0.0769652
-0.0762027
-0.0756862
-0.0750064
-0.0740861
-0.0730613
-0.0720843
-0.071282
-0.0706204
-0.0692886
-0.0682714
-0.0656621
-0.0639682
-0.0631553
-0.0616082
-0.0875285
-0.0878074
-0.0856387
-0.0858631
-0.0847475
-0.0837074
-0.082968
-0.0822768
-0.0818166
-0.0809515
-0.0800086
-0.0790338
-0.0781578
-0.0772805
-0.0764331
-0.0758815
-0.0752572
-0.074437
-0.0734196
-0.0724224
-0.0717075
-0.0709631
-0.0701144
-0.0691187
-0.0667508
-0.0646769
-0.0907464
-0.0886006
-0.0880024
-0.0870787
-0.0862937
-0.0853795
-0.0841752
-0.0835135
-0.0828176
-0.0820971
-0.0812376
-0.0802684
-0.0792157
-0.0782574
-0.0773583
-0.0766713
-0.0760945
-0.0754757
-0.074704
-0.0737346
-0.0727437
-0.0718555
-0.0709112
-0.0703618
-0.0688699
-0.0933645
-0.0905843
-0.0903301
-0.0893777
-0.0886741
-0.0878762
-0.086828
-0.0859154
-0.0848566
-0.0839465
-0.0831185
-0.0823438
-0.0815315
-0.0805609
-0.0794846
-0.0784124
-0.0775877
-0.0769458
-0.0762977
-0.0756207
-0.0749087
-0.0739391
-0.0730878
-0.0722589
-0.0710717
-0.0695587
-0.0938015
-0.0930413
-0.0926031
-0.0917476
-0.0904427
-0.0897732
-0.0892098
-0.0884465
-0.0874159
-0.0864117
-0.085379
-0.084408
-0.0835
-0.0826616
-0.0818769
-0.0809151
-0.0797843
-0.0786367
-0.077932
-0.0772471
-0.0764678
-0.0756908
-0.0751754
-0.074197
-0.0732951
-0.0703391
-0.0954257
-0.0966611
-0.0949852
-0.0941553
-0.0931884
-0.0921487
-0.0910229
-0.0902343
-0.0896892
-0.0889236
-0.0879541
-0.0869001
-0.0858729
-0.0848879
-0.0839522
-0.0830979
-0.0822631
-0.0813383
-0.0803874
-0.079138
-0.0781923
-0.0775484
-0.0768223
-0.0761282
-0.0751448
-0.0739909
-0.0737922
-0.099346
-0.0974984
-0.09683
-0.0959323
-0.0949297
-0.0938729
-0.0927408
-0.0916378
-0.0907976
-0.0902394
-0.0894275
-0.0884744
-0.0874569
-0.0864103
-0.0853875
-0.0844383
-0.0835226
-0.0826977
-0.0817665
-0.0809536
-0.0800423
-0.0790583
-0.0780959
-0.0772112
-0.0762395
-0.0748756
-0.0992137
-0.0990738
-0.0990576
-0.0986827
-0.0975667
-0.096678
-0.0958209
-0.0947152
-0.0933909
-0.0923587
-0.0916619
-0.0910452
-0.090169
-0.0890654
-0.0880096
-0.0869373
-0.0858392
-0.0850453
-0.0840245
-0.0831483
-0.0823452
-0.0817009
-0.0807863
-0.0800447
-0.0803204
-0.0779944
-0.101632
-0.100079
-0.0998085
-0.0996816
-0.0995711
-0.0983588
-0.0972813
-0.0966564
-0.0954644
-0.0941361
-0.0932745
-0.0925996
-0.0919424
-0.0908741
-0.0894058
-0.0883189
-0.0873537
-0.086309
-0.0856083
-0.0848752
-0.0842008
-0.083279
-0.0824095
-0.0816062
-0.080774
-0.102218
-0.101535
-0.101094
-0.100696
-0.100327
-0.100175
-0.10007
-0.0991236
-0.0979105
-0.0971576
-0.096113
-0.0948384
-0.0940851
-0.0934863
-0.0927697
-0.091595
-0.0899687
-0.0888593
-0.0880922
-0.0872485
-0.0864661
-0.0857324
-0.0849902
-0.0845616
-0.0846603
-0.103537
-0.10249
-0.101866
-0.101481
-0.101032
-0.100651
-0.100388
-0.100194
-0.0994983
-0.0984361
-0.097573
-0.0966755
-0.0955613
-0.0947387
-0.0941891
-0.0934287
-0.0923893
-0.0909724
-0.0896567
-0.0887712
-0.0882157
-0.0875718
-0.086997
-0.0852495
-0.084007
-0.106122
-0.104737
-0.103894
-0.10316
-0.102302
-0.101779
-0.101336
-0.100907
-0.100601
-0.100196
-0.0996155
-0.0989363
-0.0982793
-0.0973405
-0.096217
-0.0952529
-0.0946768
-0.0938588
-0.0928844
-0.0917338
-0.0903811
-0.08955
-0.0886896
-0.0877774
-0.0876742
-0.106657
-0.106139
-0.105521
-0.104297
-0.103476
-0.102697
-0.102162
-0.101608
-0.101198
-0.100804
-0.100444
-0.0999729
-0.0995642
-0.0990612
-0.0981765
-0.0970755
-0.0960277
-0.0950883
-0.0940952
-0.0931541
-0.092044
-0.0908635
-0.0897765
-0.0890171
-0.0880514
-0.107955
-0.106809
-0.106857
-0.106653
-0.106209
-0.104937
-0.103787
-0.103066
-0.102525
-0.101968
-0.101415
-0.100935
-0.100656
-0.100301
-0.100008
-0.0997315
-0.0989836
-0.0981167
-0.0972262
-0.0959941
-0.0948965
-0.0937863
-0.0923064
-0.091306
-0.090524
-0.10749
-0.107727
-0.107351
-0.10719
-0.107042
-0.106781
-0.105838
-0.104552
-0.103658
-0.102977
-0.102291
-0.101666
-0.101128
-0.100732
-0.100455
-0.100191
-0.100028
-0.0995975
-0.0987813
-0.0979109
-0.0967602
-0.0954232
-0.0942312
-0.0941671
-0.108366
-0.109159
-0.108303
-0.107948
-0.107753
-0.107611
-0.107441
-0.107199
-0.106651
-0.10568
-0.104641
-0.103693
-0.102823
-0.102105
-0.10142
-0.100903
-0.100535
-0.100229
-0.099979
-0.0995486
-0.0990255
-0.0983215
-0.0974024
-0.0963341
-0.0950762
-0.109764
-0.109425
-0.108968
-0.108627
-0.108317
-0.108027
-0.107774
-0.1077
-0.107499
-0.107082
-0.10639
-0.105439
-0.104489
-0.103548
-0.102611
-0.101866
-0.10126
-0.100798
-0.100469
-0.100054
-0.0995246
-0.0988504
-0.0982865
-0.097714
-0.11043
-0.110528
-0.109924
-0.109752
-0.109416
-0.108993
-0.108637
-0.10829
-0.107935
-0.107826
-0.1076
-0.107285
-0.106797
-0.106071
-0.105305
-0.104275
-0.103127
-0.10245
-0.101836
-0.101162
-0.100808
-0.10033
-0.0999937
-0.0997071
-0.0990476
-0.111305
-0.11106
-0.110589
-0.110321
-0.110085
-0.109799