/*--------------------------------*- C++ -*----------------------------------*\
| =========                 |                                                 |
| \\      /  F ield         | OpenFOAM: The Open Source CFD Toolbox           |
|  \\    /   O peration     | Version:  2312                                  |
|   \\  /    A nd           | Website:  www.openfoam.com                      |
|    \\/     M anipulation  |                                                 |
\*---------------------------------------------------------------------------*/
FoamFile
{
    version     2.0;
    format      ascii;
    arch        "LSB;label=64;scalar=64";
    class       volScalarField;
    location    "70";
    object      p;
}
// * * * * * * * * * * * * * * * * * * * * * * * * * * * * * * * * * * * * * //

dimensions      [0 2 -2 0 0 0 0];

internalField   nonuniform List<scalar> 
404911
(
0.0702062
0.0701741
0.0701945
0.0701942
0.0702197
0.0701922
0.0701813
0.0701863
0.0701873
0.0701909
0.0710239
0.0705733
0.0704455
0.0703624
0.0702742
0.0702414
0.0713065
0.0710258
0.0707728
0.0706614
0.0717192
0.0715097
0.0711576
0.0722646
0.0719888
0.0714867
0.0727175
0.0725144
0.0723533
0.0734502
0.0732367
0.0730157
0.0727258
0.0726307
0.0735373
0.0734053
0.0731966
0.0742659
0.074007
0.0737965
0.0734927
0.0745656
0.0744018
0.0742266
0.0740257
0.0736601
0.0747247
0.0745654
0.0744048
0.0742676
0.0751636
0.0749598
0.0746964
0.0746393
0.0752249
0.0751122
0.0776688
0.0699483
0.0699992
0.0699874
0.070756
0.070474
0.0713159
0.0710318
0.0708333
0.0717758
0.0715628
0.0712005
0.0722708
0.0718788
0.0727483
0.0724237
0.0723748
0.0732291
0.0730032
0.0726164
0.0724873
0.0735143
0.0733613
0.0740758
0.0737803
0.0744195
0.0742279
0.0741345
0.0747799
0.074651
0.0751669
0.0748814
0.0746646
0.0752092
0.0752022
0.0775682
0.0777038
0.0775162
0.0784155
0.0781027
0.077944
0.0787425
0.0784505
0.0781408
0.0790528
0.0790161
0.078815
0.0790317
0.0283774
0.0281324
0.0279012
0.0299498
0.0296947
0.029066
0.0290073
0.0286023
0.0283425
0.0281457
0.0277633
0.0308501
0.0305034
0.0297571
0.0293605
0.0290248
0.0287853
0.028476
0.0282529
0.027127
0.0319181
0.0315708
0.0313276
0.0310128
0.0307433
0.0305119
0.030016
0.029563
0.0291662
0.0289189
0.0286846
0.0283729
0.0278241
0.0272632
0.0272218
0.0271476
0.0327499
0.032383
0.0320506
0.0317101
0.0314101
0.0311281
0.0308697
0.0306084
0.0302449
0.029884
0.029524
0.0291082
0.0288759
0.0285496
0.0271959
0.0337942
0.0333061
0.0329398
0.0325186
0.0321288
0.0318309
0.0315136
0.0312214
0.030957
0.0307138
0.0303595
0.0300284
0.0297465
0.0293866
0.0291887
0.0344406
0.0341234
0.0335524
0.0331469
0.0327439
0.0322859
0.0319653
0.0316226
0.0313352
0.0311095
0.0308278
0.0305629
0.0302119
0.0298998
0.0295961
0.0294073
0.0356295
0.0351319
0.0346579
0.0343329
0.0337221
0.0334206
0.0329849
0.0323761
0.0320268
0.0317358
0.0314872
0.0312252
0.0309558
0.0306693
0.0303608
0.0300534
0.0297989
0.0371211
0.036731
0.0363621
0.0358464
0.0353415
0.0349232
0.034591
0.0340884
0.0336677
0.0331885
0.032559
0.0322439
0.0319233
0.0316616
0.0314018
0.0310962
0.03083
0.0305377
0.0379116
0.0375025
0.0369453
0.0365722
0.0361069
0.0356219
0.0352313
0.0347394
0.0343267
0.0338456
0.0333992
0.032866
0.0324357
0.0321491
0.031873
0.0315484
0.0312955
0.0309909
0.0389119
0.0385743
0.0382011
0.0377442
0.0372763
0.0368041
0.0363812
0.0358932
0.0354719
0.0350111
0.0345623
0.0341048
0.0336551
0.033123
0.0326336
0.0323595
0.032088
0.0317962
0.0396185
0.0392293
0.0388217
0.0384677
0.038059
0.0375679
0.0371196
0.0366571
0.036158
0.0357456
0.0352855
0.0348459
0.0343464
0.0338897
0.0335092
0.0329705
0.0324658
0.0405765
0.0402008
0.0397312
0.0394532
0.0391112
0.0387533
0.0383316
0.0378563
0.0373812
0.0369218
0.0364809
0.0359914
0.0355474
0.0351013
0.0346049
0.0341468
0.0338195
0.0414485
0.041139
0.0407509
0.0405226
0.0401334
0.0397687
0.0393803
0.0390549
0.0386451
0.0382151
0.0377391
0.0371823
0.0367118
0.0362461
0.0358
0.0352896
0.0348962
0.0344725
0.0426578
0.04223
0.0416521
0.041301
0.0409556
0.0407471
0.0403356
0.0400337
0.0396594
0.039336
0.0390332
0.0385304
0.0379934
0.0374746
0.0369104
0.0364211
0.0361123
0.0357247
0.0434307
0.0431968
0.0429197
0.0426359
0.0420632
0.0415926
0.0412185
0.0409921
0.0406483
0.0403111
0.0398861
0.0395971
0.0393493
0.0388311
0.0382104
0.0376818
0.0372023
0.0366939
0.0439113
0.0436189
0.0433475
0.043089
0.0428154
0.0424604
0.0419798
0.0415595
0.0411806
0.040889
0.0404708
0.0400957
0.0398488
0.0396066
0.0390786
0.0384364
0.0379563
0.0374352
0.0447472
0.0444146
0.0439865
0.0437793
0.0435326
0.043179
0.0429279
0.0426085
0.0422511
0.0418625
0.0414416
0.0411808
0.0407254
0.040287
0.0400185
0.0397585
0.0392061
0.0386921
0.0452726
0.0449687
0.0446301
0.0442703
0.0439614
0.0436936
0.0433622
0.0430081
0.0427219
0.0424705
0.042183
0.0417309
0.0414164
0.0410133
0.0405073
0.0402169
0.0399673
0.0395896
0.0464598
0.0460838
0.0454825
0.0451139
0.0448654
0.0444991
0.0441627
0.0438512
0.0435674
0.0431401
0.042838
0.0426355
0.0424227
0.0421701
0.0418207
0.0413608
0.0408525
0.0404044
0.0471023
0.0468026
0.0464513
0.0459206
0.0454824
0.0451411
0.0448239
0.044537
0.044119
0.0438338
0.043368
0.0430504
0.0427997
0.0425808
0.0423391
0.0420705
0.0416585
0.0477939
0.0475175
0.0472359
0.047022
0.0467816
0.046246
0.0458825
0.0454409
0.0451309
0.044734
0.0443406
0.0440679
0.0436316
0.0432902
0.0430391
0.0427776
0.0425358
0.0422251
0.0483267
0.0479997
0.0477363
0.0474412
0.0472272
0.0469571
0.0465968
0.0462082
0.0458471
0.0455269
0.0451539
0.0446882
0.044255
0.0438944
0.0435273
0.043221
0.0429636
0.0427072
0.0487951
0.0485313
0.0482356
0.0479525
0.0476289
0.0473537
0.04709
0.0467872
0.046452
0.0461375
0.0458436
0.0454738
0.0449398
0.044549
0.0441413
0.0439489
0.0434809
0.0431904
0.0495653
0.0492594
0.0489959
0.0487493
0.0484896
0.0482496
0.0478355
0.047557
0.0472278
0.0468591
0.0465841
0.0463582
0.0460805
0.0457918
0.0452743
0.0448738
0.0444409
0.0440522
0.0502686
0.0500125
0.04975
0.0494818
0.0492383
0.0489738
0.0487018
0.0484583
0.0481649
0.047786
0.0474388
0.0470647
0.0467294
0.0465017
0.0462293
0.0459362
0.0454829
0.0451391
0.0507667
0.0504587
0.0501984
0.0499465
0.0496831
0.0494545
0.049229
0.0489158
0.0486724
0.0483676
0.0480161
0.0476495
0.0473207
0.0469726
0.0467023
0.0464256
0.0461199
0.0457059
0.051485
0.0512068
0.0509345
0.0506571
0.0503748
0.0501358
0.0498951
0.0496682
0.0494703
0.0492194
0.0488874
0.0485582
0.0482354
0.0479456
0.0475813
0.0471939
0.0467509
0.0466698
0.0519479
0.0516724
0.0514033
0.0511312
0.0508392
0.0505692
0.0503252
0.0500806
0.0498562
0.049665
0.049488
0.0491548
0.0488215
0.0484466
0.0480954
0.0478952
0.0474904
0.0471453
0.0524264
0.0521579
0.05186
0.0515973
0.0513176
0.0510165
0.0507447
0.0505076
0.0502656
0.0500349
0.0498196
0.0495967
0.0493252
0.0490009
0.0486642
0.0483451
0.0480405
0.0476594
0.0530075
0.0526088
0.0523304
0.0520385
0.0518258
0.0515352
0.0512136
0.0508822
0.050678
0.0504402
0.0502096
0.0499786
0.0497326
0.0494528
0.0491489
0.0488499
0.0485173
0.04825
0.053635
0.0534838
0.0532892
0.0529174
0.0525859
0.0522924
0.0520582
0.0517605
0.0514393
0.0510539
0.0508564
0.0506247
0.0503913
0.050144
0.049888
0.0496152
0.0493395
0.0489722
0.0542197
0.0538964
0.0536445
0.0534475
0.0531565
0.0528034
0.0525338
0.0523161
0.0520921
0.0517331
0.0512949
0.0510374
0.0508318
0.0506002
0.0503246
0.0500677
0.0497973
0.0495303
0.0547003
0.0544277
0.0541271
0.0538746
0.0535505
0.0532461
0.0529682
0.0527202
0.0524883
0.0522868
0.0520039
0.0516437
0.0513144
0.0510611
0.0508143
0.0505684
0.05031
0.0500436
0.0551195
0.0548834
0.0546356
0.0543364
0.0541042
0.0537487
0.0534493
0.0530613
0.0528666
0.0526325
0.0524194
0.0521758
0.0518682
0.0515862
0.0512954
0.0510142
0.0507652
0.0559424
0.0556139
0.0553544
0.0551144
0.0548338
0.0545678
0.0543545
0.0539558
0.0535966
0.0532451
0.0530268
0.0528045
0.052589
0.0523444
0.0520661
0.0517939
0.0515156
0.0512034
0.0564408
0.0561567
0.0558824
0.0556181
0.0553123
0.0550101
0.0547375
0.0545367
0.0542238
0.0538905
0.0535406
0.0531835
0.0530148
0.0527841
0.0525415
0.0522782
0.0519881
0.0517672
0.0568565
0.0566154
0.056373
0.0561191
0.0558728
0.0555741
0.0553031
0.0549206
0.0547305
0.0545067
0.0541523
0.0537456
0.0534643
0.0532522
0.0530106
0.052777
0.0525424
0.0522432
0.0575576
0.0572909
0.0570685
0.056832
0.0566048
0.0563988
0.0562043
0.0557937
0.0555387
0.0551863
0.0548846
0.0547003
0.0543807
0.0540432
0.0537397
0.0534958
0.053243
0.0529939
0.0579249
0.0577026
0.0575027
0.0572767
0.0570584
0.0568422
0.0566451
0.0564744
0.0561493
0.0558447
0.0554468
0.0551531
0.0548346
0.0546688
0.0543837
0.0540246
0.0537394
0.0534325
0.0584047
0.0581312
0.0579032
0.057698
0.0574754
0.0572677
0.0570572
0.0568611
0.0566972
0.056493
0.0560125
0.0557732
0.0553245
0.0550639
0.0548613
0.0545962
0.05428
0.0540192
0.0587792
0.0586017
0.0583527
0.0581223
0.0579059
0.0576827
0.0574703
0.0572559
0.0570279
0.0568329
0.0566615
0.0563736
0.0559843
0.0556179
0.055326
0.055068
0.054837
0.0545006
0.0593103
0.0590831
0.0588102
0.0585708
0.0583197
0.0581027
0.0578912
0.0576875
0.0574766
0.0572035
0.056993
0.0567929
0.056533
0.056228
0.0558818
0.0555968
0.0552995
0.0600288
0.0597525
0.0595085
0.0592533
0.0589887
0.0587615
0.0585105
0.0582937
0.0580959
0.057903
0.057735
0.0574385
0.0572237
0.0569168
0.0567321
0.0564727
0.0561595
0.0558738
0.0604094
0.0601782
0.0599567
0.0597213
0.0594779
0.0592278
0.058952
0.0586743
0.058462
0.0582966
0.0581205
0.0579749
0.0578807
0.0574296
0.0571602
0.0569002
0.0566643
0.0564034
0.0608626
0.0606201
0.060386
0.0601705
0.0599183
0.0597085
0.059497
0.0591906
0.0589585
0.0586291
0.0584739
0.0583171
0.0581517
0.0579931
0.0577402
0.0574178
0.0571377
0.0568827
0.0612879
0.0610542
0.060835
0.0605883
0.0603622
0.0601233
0.0599235
0.0597464
0.0595572
0.0593385
0.0588882
0.0586857
0.05852
0.0583333
0.0581376
0.0578899
0.0576312
0.057366
0.0618157
0.0615119
0.0612622
0.0610335
0.0607797
0.0605356
0.0603056
0.0601085
0.0599236
0.0597529
0.0594994
0.0592024
0.0589321
0.0587346
0.0585288
0.0582986
0.058079
0.0578027
0.0623138
0.0620282
0.0617481
0.0614807
0.061214
0.0609529
0.0607046
0.0604701
0.060263
0.0600728
0.0598838
0.0596693
0.059418
0.0591629
0.0589425
0.05872
0.0585027
0.0582592
0.0628296
0.0625185
0.0622156
0.0619591
0.0616679
0.0613827
0.0611203
0.0608591
0.0606219
0.0604095
0.0602347
0.0600411
0.0598441
0.0596106
0.0593763
0.0591601
0.0589274
0.0586575
0.0633227
0.0630629
0.0627823
0.0624118
0.062087
0.0618268
0.061552
0.0613116
0.0610542
0.0607817
0.0605464
0.0603999
0.0602307
0.0600395
0.0598166
0.0595809
0.0593556
0.0591738
0.0640547
0.0638232
0.0635639
0.0633548
0.0631114
0.0625945
0.062281
0.0620487
0.0617448
0.0615542
0.0612296
0.0610718
0.0607968
0.0606002
0.0604374
0.0602499
0.0600286
0.0598011
0.0595616
0.0644874
0.0642994
0.0640794
0.0638421
0.0636309
0.0634727
0.0631211
0.0627935
0.0623759
0.0619976
0.0618783
0.0616173
0.061316
0.0609789
0.0608433
0.0606806
0.0604724
0.060256
0.0647187
0.0644998
0.0642835
0.0640507
0.0638685
0.0637139
0.0635173
0.0631688
0.0627805
0.062493
0.0620986
0.0618995
0.0617076
0.0614211
0.0611265
0.0609015
0.0606928
0.0654157
0.0652041
0.0649766
0.0647311
0.0644991
0.0642708
0.0640708
0.0639115
0.0637417
0.063359
0.0630956
0.0627326
0.06241
0.0621389
0.0619043
0.0616687
0.0614018
0.0611376
0.0659251
0.0656242
0.065429
0.0652008
0.0649574
0.0647188
0.0644757
0.0642524
0.0640789
0.0639247
0.063602
0.0633128
0.062988
0.0626517
0.0624093
0.0621519
0.0619057
0.0615937
0.0662522
0.0661092
0.0658849
0.0656468
0.0654188
0.0651953
0.0649734
0.0646858
0.0644183
0.0642133
0.0640927
0.0637799
0.0635549
0.0632431
0.0629129
0.0626495
0.0624033
0.0621775
0.0665386
0.0663296
0.066089
0.0658553
0.0656361
0.0654286
0.0652505
0.0649795
0.0646708
0.0643619
0.0642438
0.064089
0.0638091
0.0634674
0.0631927
0.0629049
0.0626611
0.0670596
0.0667264
0.0664937
0.0662904
0.066071
0.065847
0.0656422
0.0654836
0.0652407
0.0649597
0.0646208
0.0644053
0.0642402
0.0639865
0.0637005
0.063435
0.0631651
0.0682339
0.067804
0.0674071
0.0670156
0.0667701
0.0665227
0.066289
0.0660322
0.065819
0.0656671
0.0654711
0.0652109
0.0648749
0.0646353
0.0644345
0.0642021
0.0639039
0.0636463
0.0687797
0.0684588
0.0680467
0.0676879
0.0672816
0.0670377
0.0667876
0.0665463
0.0662666
0.0660618
0.0658422
0.0657077
0.0653931
0.0650901
0.0648601
0.0646217
0.0644404
0.0691736
0.068966
0.0686461
0.0683269
0.0679705
0.0675657
0.0672611
0.0670431
0.0668356
0.0664823
0.0662985
0.066076
0.0658686
0.0656916
0.0653705
0.0650861
0.0648293
0.0699606
0.069683
0.0694436
0.0691892
0.0688441
0.0685896
0.0682364
0.0677969
0.0675143
0.0672544
0.0670472
0.0668976
0.0665853
0.0663007
0.0660882
0.0658776
0.0656021
0.06533
0.070438
0.0701509
0.0698577
0.0696874
0.0694345
0.069193
0.0688848
0.0684947
0.0681817
0.0679731
0.0675321
0.0673409
0.0670795
0.0668251
0.0666063
0.0663585
0.0661269
0.0658734
0.0709292
0.0706213
0.070474
0.0700815
0.0699745
0.0697321
0.0696751
0.0694879
0.0690932
0.0686259
0.0682399
0.0679403
0.0676481
0.0673044
0.0669672
0.0667905
0.0665839
0.0663665
0.0715738
0.0712485
0.0709014
0.0706381
0.0704068
0.0701914
0.0700604
0.0697642
0.0695948
0.0694313
0.0690541
0.0686827
0.0683589
0.068023
0.0676822
0.0673302
0.0670869
0.0668582
0.0723789
0.0721004
0.0717909
0.0714437
0.071219
0.0709388
0.0707061
0.070516
0.0705421
0.0701991
0.0699097
0.0696405
0.0693389
0.0690098
0.0687161
0.0684338
0.0680222
0.0676119
0.067389
0.072755
0.072562
0.0723245
0.0720699
0.0717781
0.0715041
0.0712804
0.0710157
0.07081
0.0705498
0.0703019
0.0700844
0.069828
0.0695801
0.0692805
0.068974
0.0687294
0.068336
0.0679867
0.0729329
0.0727597
0.0725197
0.0722744
0.0720174
0.0717516
0.0714696
0.0711876
0.071007
0.0706758
0.0704482
0.0702231
0.070001
0.0697517
0.0694636
0.0692012
0.0689231
0.0686098
0.0735455
0.0732768
0.0730079
0.0727433
0.0724825
0.0722506
0.0719369
0.0717186
0.0713277
0.0711054
0.0708674
0.070628
0.0704155
0.070181
0.0699214
0.0696528
0.0693774
0.0740743
0.0738034
0.0735489
0.0732685
0.0729757
0.0727592
0.0723607
0.0722561
0.0718737
0.0716059
0.0713013
0.0710594
0.0708358
0.0706236
0.0703831
0.0701448
0.0698139
0.074664
0.0743509
0.0740704
0.0737902
0.0735165
0.0732024
0.0729293
0.0726081
0.0724638
0.0722581
0.0718349
0.0715767
0.0713211
0.0710881
0.070848
0.0705981
0.0703398
0.0753901
0.0751499
0.0749026
0.0745551
0.0743031
0.0739837
0.0736171
0.0734283
0.0731531
0.0729461
0.0727137
0.0724189
0.0720628
0.0718199
0.0715718
0.071333
0.0710717
0.0708564
0.0759889
0.0757039
0.0753581
0.0750907
0.0747846
0.074453
0.0742107
0.0740958
0.073634
0.0733929
0.0731665
0.0729244
0.0726604
0.0722886
0.0720421
0.0717956
0.071562
0.076528
0.0762387
0.0759182
0.0755963
0.0752663
0.0749318
0.0744981
0.0743087
0.0741168
0.0739207
0.0736457
0.0734036
0.0731956
0.0729213
0.0726156
0.0723046
0.0720427
0.0770264
0.0767736
0.0765246
0.0761581
0.0757679
0.075333
0.0750916
0.074932
0.0745674
0.0744032
0.0741469
0.0738861
0.0736131
0.0733879
0.0731364
0.0728524
0.0725657
0.0776456
0.0773108
0.0770126
0.0767393
0.0763401
0.0758843
0.0755331
0.0753511
0.0749069
0.0748006
0.07461
0.0743968
0.0741467
0.073895
0.0736143
0.0733878
0.0731041
0.0781631
0.0779227
0.0775978
0.0772781
0.076982
0.0766381
0.0761148
0.0752738
0.0754926
0.0752662
0.075103
0.0748606
0.0746095
0.0743658
0.0741045
0.0738356
0.0735999
0.0786415
0.0784266
0.0781495
0.0779294
0.0776011
0.0774043
0.0770397
0.0764663
0.0760311
0.0757652
0.07556
0.0753663
0.0751429
0.0748522
0.0746072
0.0743245
0.0740499
0.0788533
0.0786566
0.0783595
0.0780796
0.0777843
0.0774645
0.0772987
0.0769224
0.0764355
0.0760818
0.0758567
0.0756129
0.0753614
0.075094
0.074881
0.0745377
0.0796539
0.0792304
0.0788879
0.0785944
0.0783187
0.0780631
0.077963
0.0774787
0.0771059
0.076715
0.0763096
0.0760589
0.0758515
0.0755738
0.075319
0.0808253
0.0804987
0.0800374
0.079594
0.0791371
0.079021
0.0785531
0.0781369
0.0781112
0.0776785
0.077277
0.0769757
0.0766851
0.0763619
0.0760923
0.0758278
0.0813404
0.0811113
0.0808814
0.080455
0.0799955
0.0794157
0.079054
0.0791622
0.0785309
0.0782856
0.0779658
0.0775507
0.0771396
0.0769184
0.0766258
0.0763569
0.081973
0.081673
0.0813767
0.0810392
0.0806734
0.080288
0.0797417
0.0795221
0.0790792
0.0788347
0.0786116
0.078264
0.0778212
0.077421
0.0771302
0.0768704
0.0828625
0.0825665
0.0822509
0.0819335
0.081688
0.0813411
0.0809783
0.0806655
0.0803348
0.0799625
0.0795576
0.0791496
0.0788391
0.0785235
0.0781579
0.0777987
0.0833156
0.0830196
0.0828107
0.0825796
0.0822557
0.0819663
0.0815955
0.081253
0.0808778
0.0806534
0.0803042
0.0799012
0.0794744
0.0791485
0.0789055
0.078574
0.0839595
0.0835985
0.0832748
0.0830187
0.0828007
0.0824839
0.0822437
0.0819158
0.0815298
0.0812645
0.0810359
0.0807443
0.0803583
0.079886
0.079522
0.0791247
0.0846599
0.0842332
0.0837722
0.0835097
0.0832632
0.0830148
0.0827258
0.0823694
0.0820909
0.0817922
0.0815515
0.0813649
0.0811144
0.0807671
0.08024
0.0799266
0.0853937
0.084861
0.0845074
0.084139
0.0837384
0.0835401
0.083238
0.0829777
0.0826193
0.0823254
0.082051
0.0817415
0.0816206
0.0814312
0.0810697
0.0806837
0.0860378
0.0856805
0.0852446
0.0848893
0.0845187
0.0842149
0.0838611
0.0835409
0.0832891
0.082881
0.0825283
0.0823266
0.082092
0.0817936
0.0815793
0.086667
0.0863872
0.0859865
0.0856163
0.0851938
0.0848165
0.084508
0.0842069
0.0839221
0.0835883
0.0832368
0.0827888
0.0825544
0.082316
0.0820736
0.0817679
0.0872445
0.0869443
0.0866772
0.0863498
0.085954
0.0855135
0.085152
0.0847444
0.084546
0.0842269
0.0839415
0.0835877
0.0831027
0.0828375
0.0826336
0.0823466
0.0878442
0.0875597
0.0872134
0.086917
0.0866001
0.0862177
0.085863
0.0855394
0.0851769
0.084877
0.0845949
0.0843124
0.0840385
0.083597
0.0831734
0.0880882
0.0877574
0.0874861
0.0872625
0.0869285
0.0865371
0.0861247
0.0858524
0.0855432
0.0852266
0.0848802
0.0846504
0.0842754
0.0839371
0.0890775
0.0885857
0.0881437
0.0878479
0.0875417
0.087189
0.0868307
0.0864943
0.0861603
0.0859268
0.0856054
0.085199
0.0849304
0.0900639
0.0897924
0.0893767
0.0890269
0.0886141
0.0881831
0.0878412
0.0875126
0.0871556
0.0868024
0.0864416
0.0861301
0.0858711
0.0854542
0.0905813
0.0902865
0.090058
0.0896855
0.0893756
0.0889099
0.088584
0.088127
0.0877755
0.087457
0.0870727
0.0867229
0.0864138
0.0861427
0.091195
0.090877
0.0905537
0.0902088
0.0899802
0.0896096
0.0892583
0.0888463
0.0884753
0.088158
0.0876989
0.0873529
0.087028
0.0867632
0.0916772
0.0914887
0.0911624
0.0908562
0.0905743
0.0901861
0.0899261
0.0895419
0.0891512
0.0887813
0.0884443
0.0879854
0.087669
0.0873478
0.0921908
0.0919751
0.0917684
0.0915473
0.0913384
0.0911021
0.0905752
0.0901866
0.0898172
0.0894358
0.0890678
0.0887591
0.0883969
0.0879829
0.0926554
0.0923838
0.0921986
0.0920588
0.0918435
0.0914947
0.0912631
0.0909685
0.0905721
0.0901359
0.0896706
0.0893573
0.0890573
0.0923057
0.0922061
0.0919532
0.0915347
0.091324
0.0909607
0.0903976
0.0898581
0.0895538
0.0925789
0.0924875
0.0922004
0.09182
0.091579
0.0913187
0.0908931
0.0903262
0.0931357
0.0928248
0.0927685
0.0926573
0.0922431
0.0918127
0.0915589
0.094117
0.09373
0.0931879
0.0930443
0.0928743
0.0925435
0.0921376
0.0941644
0.0937573
0.0934051
0.0931445
0.0928804
0.0953337
0.0948927
0.0942255
0.0942269
0.0937979
0.0934991
0.0981314
0.0978556
0.0964822
0.0958711
0.0943395
0.0982615
0.0978799
0.0975774
0.0972144
0.0969749
0.0948751
0.0987943
0.0974189
0.0968842
0.0966935
0.0961723
0.0990533
0.0982298
0.0974582
0.00675257
0.00645679
0.00626477
0.00908902
0.00860545
0.00816184
0.00779345
0.00734919
0.00692338
0.00653247
0.00630999
0.00463654
0.0110328
0.0106171
0.0100609
0.00967727
0.00921765
0.00874924
0.00833868
0.00791677
0.00747167
0.00704242
0.00657391
0.00625215
0.00585093
0.00529786
0.00491677
0.0125339
0.0120825
0.0116748
0.011173
0.0107599
0.0102168
0.00977657
0.0093661
0.00891722
0.00846919
0.00803405
0.00752935
0.00710712
0.00666596
0.00623336
0.00586713
0.00541746
0.0049111
0.00461601
0.00398344
0.00332855
0.00301448
0.0141391
0.0138097
0.0132515
0.0127544
0.0122135
0.0117688
0.0113322
0.0108348
0.0103546
0.00988863
0.00946948
0.00904908
0.00861474
0.00818353
0.0076733
0.00723068
0.00665008
0.00628497
0.00591793
0.0054822
0.00505142
0.00459228
0.00407026
0.0161401
0.0154822
0.0150481
0.0144377
0.0140033
0.0134
0.012885
0.012372
0.0119269
0.0114663
0.0109607
0.0104522
0.00997026
0.00955067
0.00907835
0.00877115
0.00839994
0.00797178
0.00714746
0.00671627
0.00632289
0.00597426
0.00555877
0.00516931
0.00473998
0.0172977
0.0166865
0.016303
0.0157882
0.0152869
0.0145326
0.0141412
0.0135625
0.0130424
0.0125346
0.0120848
0.0116262
0.0111433
0.0104888
0.0100256
0.00963855
0.00920834
0.00888274
0.00853307
0.00799368
0.0072437
0.00682581
0.00644492
0.00606855
0.00565845
0.0187843
0.0181324
0.0174595
0.0170237
0.0164489
0.015892
0.0155122
0.01513
0.0144976
0.0137658
0.0131342
0.0126842
0.0122989
0.0118192
0.0114674
0.0106106
0.0100854
0.00972582
0.0093029
0.00893768
0.00854805
0.00809668
0.00740793
0.00699882
0.00659223
0.0203482
0.0197016
0.0189613
0.0182008
0.0176239
0.0172131
0.016696
0.0161719
0.0156805
0.0153674
0.0148674
0.014191
0.01342
0.0128237
0.0125008
0.0121687
0.0117159
0.0109052
0.0101634
0.00978553
0.00938248
0.0089633
0.0085742
0.00810721
0.00761535
0.0227748
0.0221712
0.0212575
0.020666
0.0198633
0.0190434
0.0184251
0.0178355
0.0174143
0.0169677
0.0163463
0.0158768
0.0155769
0.0151938
0.0145878
0.0139333
0.0132122
0.0126572
0.0122462
0.0119484
0.0110551
0.0103608
0.00988269
0.00948494
0.00906041
0.00856215
0.0242367
0.0238054
0.0233913
0.022954
0.0223831
0.0216191
0.0208797
0.0200435
0.0191803
0.0187489
0.0181533
0.0176238
0.0170828
0.0164641
0.0160332
0.015698
0.0153421
0.0148769
0.0143359
0.0135567
0.0129403
0.0124587
0.0118196
0.0111672
0.0106876
0.0100226
0.0096013
0.0248467
0.0244376
0.0240212
0.0236415
0.0231001
0.0225422
0.0218951
0.0211759
0.0205257
0.0197311
0.0190591
0.018392
0.0178141
0.0172366
0.0165458
0.0162139
0.0158555
0.0154848
0.0150693
0.014658
0.0140823
0.0132468
0.0127896
0.0120755
0.0112701
0.0270124
0.0264737
0.0258329
0.0252433
0.0247434
0.0242097
0.0238827
0.0234159
0.0227157
0.0221181
0.0214732
0.0208088
0.020158
0.0193412
0.0187339
0.0181123
0.0173776
0.0167106
0.0163827
0.016037
0.0156633
0.0153235
0.0149475
0.0144408
0.0137433
0.0276732
0.0272152
0.0268314
0.0262592
0.0256227
0.0249013
0.0244965
0.0241941
0.0236221
0.023025
0.0223429
0.0217607
0.0211758
0.0204893
0.0197078
0.0190287
0.0182871
0.0175976
0.0169589
0.0165305
0.0161985
0.0158815
0.015543
0.0151746
0.0290937
0.028868
0.0283865
0.0279113
0.0274172
0.0270874
0.0266489
0.0260692
0.0255413
0.0249092
0.0245148
0.0239955
0.0234033
0.0229285
0.0221857
0.0215168
0.0208903
0.0200489
0.0193252
0.0186182
0.0178083
0.0171643
0.0167269
0.0163625
0.0159956
0.0300094
0.0295879
0.029254
0.0290223
0.0287546
0.0280851
0.0277681
0.0274438
0.0270356
0.0265308
0.0258814
0.0252647
0.0249468
0.0243603
0.0238109
0.0232038
0.0226155
0.0218848
0.0212172
0.0204118
0.0195589
0.0187152
0.0179224
0.0174349
0.0168771
0.0308184
0.0304726
0.030139
0.0297635
0.0294067
0.0291107
0.0288261
0.0284008
0.0280887
0.0277836
0.0274179
0.0268857
0.0262071
0.0258268
0.0252148
0.0247148
0.0242185
0.023681
0.0230193
0.0223829
0.0217258
0.0209257
0.0201382
0.0191865
0.0181758
0.0319403
0.0316228
0.0313129
0.0309888
0.0306605
0.0303407
0.0299061
0.0296066
0.0292043
0.0289448
0.0286169
0.0283353
0.0280034
0.0275267
0.0272944
0.0267313
0.0261078
0.0255739
0.0251925
0.0246175
0.0240947
0.0234855
0.0228247
0.0222129
0.021542
0.0208048
0.0328477
0.0326185
0.032158
0.0317956
0.0314795
0.0311326
0.0308341
0.0305143
0.0301424
0.0297879
0.029471
0.0290845
0.0287956
0.0285052
0.028215
0.0277545
0.0273218
0.0269992
0.0264606
0.0260798
0.0257158
0.0249803
0.0244231
0.0238588
0.0233384
0.0226675
0.0340439
0.033502
0.0330164
0.0326756
0.0323314
0.0319157
0.0315599
0.0312783
0.0310048
0.0307241
0.0302743
0.0299007
0.0297914
0.029276
0.0289569
0.0286647
0.0283214
0.0278864
0.0273963
0.0271351
0.0268725
0.0262902
0.0260008
0.0255651
0.0248487
0.0242889
0.0237189
0.0348666
0.0345646
0.0341378
0.0336748
0.0332138
0.0327795
0.0323867
0.0320363
0.0317158
0.0314287
0.0311433
0.0308695
0.0305837
0.030127
0.0297833
0.0295126
0.0291552
0.0288502
0.0284728
0.0279354
0.0275727
0.0272061
0.0268392
0.0264516
0.026138
0.0258272
0.025383
0.0355917
0.0351155
0.0347181
0.0343048
0.0338302
0.0333341
0.0329262
0.0325306
0.0321444
0.0318269
0.0315289
0.0312444
0.030976
0.0307051
0.0303923
0.0300496
0.0297263
0.0294072
0.029094
0.0287626
0.0282012
0.0276481
0.0272688
0.0269541
0.026574
0.0262181
0.0367631
0.0361985
0.0357491
0.0353099
0.0348699
0.0344661
0.0339223
0.0336266
0.0332618
0.0327605
0.0323833
0.032007
0.0316338
0.0313596
0.0310999
0.0308231
0.0305281
0.0302132
0.0299009
0.0296095
0.0293971
0.0289782
0.0282428
0.0277805
0.0274065
0.0270648
0.0378004
0.0373548
0.0369328
0.0364922
0.0360137
0.0355391
0.0351376
0.0346315
0.0342469
0.0338717
0.0333728
0.032878
0.0323261
0.0321539
0.0317765
0.0314924
0.0312337
0.030961
0.0306646
0.0303662
0.0300758
0.029758
0.0293995
0.0289836
0.0285775
0.0280413
0.0384105
0.0380433
0.0376113
0.0371258
0.0367171
0.0361357
0.035826
0.0353662
0.0348648
0.0344622
0.0340705
0.0335457
0.0330736
0.0325069
0.0321677
0.0319227
0.031654
0.0313837
0.0311048
0.0308143
0.0304967
0.0301963
0.0298729
0.0295145
0.0291611
0.0394777
0.0390979
0.0387056
0.038325
0.0378987
0.0373969
0.0371853
0.0365237
0.0360175
0.0354712
0.0351187
0.0347438
0.0342718
0.0337867
0.0333273
0.0328224
0.0324498
0.0321365
0.0318559
0.0315725
0.031288
0.0309715
0.0306379
0.0303088
0.0300137
0.029696
0.0405289
0.0401478
0.0397613
0.0393545
0.0389543
0.0385682
0.0381685
0.0374912
0.0373194
0.0368721
0.0363578
0.0358593
0.0353536
0.0348927
0.0345408
0.0340739
0.0335452
0.0330872
0.0329013
0.032382
0.0320948
0.0317728
0.0314443
0.0311201
0.0308201
0.0305021
0.0415459
0.0411179
0.0407221
0.0403643
0.0399779
0.039619
0.0392439
0.0388607
0.0384321
0.0379268
0.0375142
0.0371544
0.0365984
0.0361326
0.035664
0.0351634
0.0347401
0.0344301
0.0339531
0.033301
0.0329569
0.032614
0.0323406
0.0319743
0.03163
0.0313133
0.0309763
0.0420722
0.0416736
0.041321
0.0409165
0.0405623
0.0401925
0.0398537
0.0395001
0.0391438
0.0388092
0.0383242
0.0378299
0.0374691
0.0368706
0.0363978
0.0358951
0.0353965
0.0350817
0.0345888
0.0343507
0.0337582
0.0333248
0.0329155
0.0325628
0.0321976
0.0318506
0.0430558
0.0427176
0.0423457
0.0418908
0.0414958
0.0411208
0.0407818
0.0404633
0.0401371
0.0397836
0.0393911
0.0390334
0.0386395
0.0382668
0.0377434
0.0371799
0.0366263
0.0360567
0.0353808
0.0355645
0.0349556
0.0344427
0.0340409
0.0335739
0.0330905
0.0327537
0.0435421
0.0432484
0.0429515
0.0426075
0.0421368
0.0419878
0.04154
0.0411331
0.0406318
0.040267
0.0400253
0.0396561
0.0392382
0.0387267
0.0384749
0.0380292
0.0373645
0.0368026
0.0366449
0.0361456
0.0355735
0.0350775
0.0346791
0.0342902
0.0338149
0.0443938
0.044081
0.0437603
0.0434125
0.0431399
0.0428613
0.0423622
0.0419592
0.0417138
0.041476
0.0409502
0.0403775
0.040196
0.0399345
0.0395613
0.0391021
0.0386952
0.0383292
0.0378176
0.0371544
0.0367046
0.0363207
0.0358308
0.0353701
0.034861
0.0449306
0.0445789
0.044267
0.0439173
0.0436067
0.0433341
0.0430379
0.0425688
0.0421369
0.0419582
0.0417128
0.0412932
0.0407508
0.0404386
0.0401862
0.0397933
0.0394007
0.0390128
0.0386329
0.0380335
0.0374293
0.0369327
0.0364904
0.0360517
0.0356641
0.0458587
0.0455027
0.0451368
0.0447454
0.0444025
0.0440653
0.0437841
0.0434888
0.0432101
0.0428735
0.0423613
0.0419792
0.0417621
0.0416753
0.041169
0.040752
0.0404618
0.0399996
0.0396266
0.0394805
0.0388041
0.0382367
0.037689
0.0372475
0.0367448
0.0465235
0.0461486
0.045743
0.045355
0.0449445
0.0446141
0.0442619
0.0440231
0.0437333
0.0432073
0.0431572
0.0427206
0.0423335
0.0419416
0.0415526
0.041343
0.0410894
0.0406864
0.0401755
0.0399377
0.0395043
0.0388781
0.0385095
0.0379951
0.0374691
0.047349
0.0470867
0.0467616
0.0464168
0.0459622
0.045846
0.0455033
0.044946
0.044485
0.044237
0.0439607
0.0434714
0.043257
0.0429991
0.0426017
0.0423126
0.0419881
0.0416005
0.0413011
0.0409546
0.0404692
0.0401233
0.0396995
0.0391984
0.0387306
0.047888
0.0476083
0.0473189
0.0470247
0.0467544
0.0462122
0.0457794
0.0455811
0.0451865
0.0448584
0.044452
0.044085
0.0437291
0.0434139
0.0431244
0.0428022
0.0425103
0.0423202
0.0420414
0.041662
0.0412494
0.0407883
0.0403861
0.0398237
0.0486872
0.0483671
0.04808
0.0477852
0.0474937
0.0472437
0.046964
0.0465523
0.0460438
0.0458734
0.0454958
0.0451349
0.0448109
0.044415
0.0440297
0.0436918
0.0433941
0.0430891
0.042764
0.0425141
0.0422145
0.0418638
0.0414821
0.0410686
0.0406667
0.0491306
0.0488395
0.0485835
0.0483053
0.0480215
0.0477129
0.0474891
0.0471947
0.0467477
0.0464507
0.0462099
0.045879
0.0454787
0.0450875
0.0447044
0.0443728
0.044032
0.0435628
0.0432557
0.0429924
0.0426893
0.0423807
0.042088
0.0417011
0.0499009
0.0496023
0.0493317
0.0490298
0.0487732
0.0485198
0.0482467
0.0479671
0.0477432
0.0474775
0.0470088
0.0466215
0.0464095
0.0460638
0.0455551
0.0451752
0.0449623
0.044688
0.0442362
0.0438543
0.0435403
0.0432163
0.0428834
0.0426028
0.0422838
0.0503709
0.0500821
0.0498133
0.0495312
0.0492444
0.0489943
0.0487228
0.0484778
0.0481505
0.0477526
0.0476413
0.0472482
0.0468486
0.0466862
0.0463368
0.0459978
0.0455503
0.045177
0.0448633
0.0444763
0.044097
0.0437583
0.0434486
0.0431189
0.0511457
0.0508507
0.0505625
0.0502497
0.0499901
0.0497439
0.0494704
0.0492569
0.0489833
0.0487254
0.0484679
0.0479522
0.047738
0.0474149
0.0471019
0.0468641
0.0465037
0.0462141
0.0459194
0.0455428
0.0451179
0.0447471
0.0443413
0.0440395
0.0437415
0.0515852
0.0513059
0.0510328
0.0507443
0.0504527
0.0501937
0.0499372
0.0497157
0.049474
0.0492285
0.0488711
0.0487743
0.0483857
0.0479935
0.0475685
0.0473508
0.047126
0.0467621
0.0464349
0.0461256
0.0457246
0.0453001
0.0449951
0.0446158
0.0520629
0.0517973
0.0515021
0.0511915
0.0509327
0.0506477
0.0504052
0.0501488
0.0499101
0.0496703
0.049441
0.0490199
0.0488245
0.0485564
0.0483034
0.0479252
0.0474476
0.0472042
0.0468928
0.046629
0.0463123
0.045913
0.0455704
0.045254
0.0527922
0.0525461
0.0522762
0.0519525
0.0516631
0.05139
0.0510972
0.0508412
0.0505764
0.0503372
0.0500891
0.0498588
0.0496475
0.0493135
0.0490059
0.0487059
0.0484039