# vtk DataFile Version 2.0
track0
ASCII
DATASET POLYDATA
POINTS 12049 float
-0.0205 0.001 1e-05
-0.02052 0.000999985 1e-05
-0.02054 0.000999974 1e-05
-0.02056 0.000999965 1e-05
-0.02058 0.000999959 1e-05
-0.0206 0.000999956 1e-05
-0.0205 0.00367778 1e-05
-0.02052 0.00367778 1e-05
-0.02054 0.00367777 1e-05
-0.02056 0.00367777 1e-05
-0.02058 0.00367777 1e-05
-0.0206 0.00367777 1e-05
-0.0205 0.00635556 1e-05
-0.02052 0.00635555 1e-05
-0.02054 0.00635555 1e-05
-0.02056 0.00635555 1e-05
-0.02058 0.00635555 1e-05
-0.0206 0.00635555 1e-05
-0.0205 0.00903333 1e-05
-0.02052 0.00903333 1e-05
-0.02054 0.00903333 1e-05
-0.02056 0.00903333 1e-05
-0.02058 0.00903333 1e-05
-0.0206 0.00903333 1e-05
-0.0205 0.0117111 1e-05
-0.02052 0.0117111 1e-05
-0.02054 0.0117111 1e-05
-0.02056 0.0117111 1e-05
-0.02058 0.0117111 1e-05
-0.0206 0.0117111 1e-05
-0.0205 0.0143889 1e-05
-0.02052 0.0143889 1e-05
-0.02054 0.0143889 1e-05
-0.02056 0.0143889 1e-05
-0.02058 0.0143889 1e-05
-0.0206 0.0143889 1e-05
-0.0205 0.0170667 1e-05
-0.02052 0.0170667 1e-05
-0.02054 0.0170667 1e-05
-0.02056 0.0170667 1e-05
-0.02058 0.0170667 1e-05
-0.0206 0.0170667 1e-05
-0.0205 0.0197444 1e-05
-0.02052 0.0197444 1e-05
-0.02054 0.0197444 1e-05
-0.02056 0.0197444 1e-05
-0.02058 0.0197444 1e-05
-0.0206 0.0197444 1e-05
-0.0205 0.0224222 1e-05
-0.02052 0.0224222 1e-05
-0.02054 0.0224222 1e-05
-0.02056 0.0224222 1e-05
-0.02058 0.0224222 1e-05
-0.0206 0.0224222 1e-05
-0.0205 0.0251 1e-05
-0.02052 0.0250998 1e-05
-0.02054 0.0250997 1e-05
-0.02056 0.0250995 1e-05
-0.02058 0.0250995 1e-05
-0.0206 0.0250994 1e-05
-0.0205 0.001 1e-05
-0.0202034 0.00100022 1e-05
-0.0199069 0.00100067 1e-05
-0.0196103 0.00100132 1e-05
-0.0193137 0.00100219 1e-05
-0.0190172 0.00100326 1e-05
-0.0187132 0.00100466 1e-05
-0.0184093 0.00100588 1e-05
-0.0181054 0.0010071 1e-05
-0.0178015 0.00100832 1e-05
-0.0174976 0.00100953 1e-05
-0.0172058 0.00101083 1e-05
-0.016914 0.00101193 1e-05
-0.0166222 0.00101303 1e-05
-0.0163305 0.00101413 1e-05
-0.0160387 0.00101522 1e-05
-0.0157586 0.00101636 1e-05
-0.0154784 0.00101744 1e-05
-0.0151983 0.00101856 1e-05
-0.0149182 0.00101971 1e-05
-0.0146381 0.0010209 1e-05
-0.0143746 0.00102209 1e-05
-0.0141111 0.00102327 1e-05
-0.0138476 0.00102449 1e-05
-0.0135841 0.00102574 1e-05
-0.0133616 0.00102682 1e-05
-0.0133479 0.00102688 1e-05
-0.0133343 0.00102695 1e-05
-0.0133207 0.00102702 1e-05
-0.0133071 0.00102709 1e-05
-0.0132934 0.00102716 1e-05
-0.0130353 0.00102844 1e-05
-0.0127771 0.00102975 1e-05
-0.0125189 0.00103107 1e-05
-0.0122607 0.0010324 1e-05
-0.0120025 0.00103375 1e-05
-0.0117547 0.00103506 1e-05
-0.0115068 0.00103638 1e-05
-0.0112589 0.0010377 1e-05
-0.0110111 0.00103902 1e-05
-0.0107632 0.00104035 1e-05
-0.0105252 0.00104163 1e-05
-0.0102873 0.00104291 1e-05
-0.0100493 0.00104418 1e-05
-0.00981133 0.00104546 1e-05
-0.00957337 0.00104674 1e-05
-0.00934491 0.00104796 1e-05
-0.00911645 0.00104918 1e-05
-0.00888799 0.0010504 1e-05
-0.00865954 0.00105162 1e-05
-0.00843108 0.00105283 1e-05
-0.00821175 0.00105399 1e-05
-0.00799242 0.00105515 1e-05
-0.00777309 0.0010563 1e-05
-0.00755376 0.00105745 1e-05
-0.00733443 0.0010586 1e-05
-0.00712387 0.00105969 1e-05
-0.0069133 0.00106078 1e-05
-0.00670273 0.00106187 1e-05
-0.00649216 0.00106295 1e-05
-0.0062816 0.00106403 1e-05
-0.00607944 0.00106505 1e-05
-0.00587729 0.00106608 1e-05
-0.00567514 0.0010671 1e-05
-0.00547298 0.00106812 1e-05
-0.00527083 0.00106913 1e-05
-0.00507675 0.0010701 1e-05
-0.00488267 0.00107106 1e-05
-0.0046886 0.00107202 1e-05
-0.00449452 0.00107298 1e-05
-0.00430044 0.00107394 1e-05
-0.00411412 0.00107484 1e-05
-0.0039278 0.00107575 1e-05
-0.00374147 0.00107666 1e-05
-0.00355515 0.00107756 1e-05
-0.00336883 0.00107846 1e-05
-0.00318995 0.00107931 1e-05
-0.00301107 0.00108017 1e-05
-0.00283219 0.00108103 1e-05
-0.00265331 0.00108188 1e-05
-0.00247443 0.00108273 1e-05
-0.0023027 0.00108354 1e-05
-0.00213097 0.00108436 1e-05
-0.00195924 0.00108517 1e-05
-0.0017875 0.00108598 1e-05
-0.00161577 0.00108679 1e-05
-0.0014509 0.00108756 1e-05
-0.00128603 0.00108833 1e-05
-0.00112116 0.00108911 1e-05
-0.000956289 0.00108988 1e-05
-0.000791418 0.00109066 1e-05
-0.000633135 0.00109141 1e-05
-0.000474851 0.00109216 1e-05
-0.000316567 0.00109291 1e-05
-0.000158284 0.00109366 1e-05
0 0.00109441 1e-05
0.000105677 0.0010949 1e-05
0.000211355 0.0010954 1e-05
0.000317032 0.0010959 1e-05
0.00042271 0.00109639 1e-05
0.000528387 0.00109688 1e-05
0.000634886 0.00109737 1e-05
0.000741385 0.00109786 1e-05
0.000847885 0.00109834 1e-05
0.000954384 0.00109882 1e-05
0.00106088 0.0010993 1e-05
0.00116821 0.00109977 1e-05
0.00127554 0.00110024 1e-05
0.00138286 0.00110071 1e-05
0.00149019 0.00110116 1e-05
0.00159752 0.00110162 1e-05
0.00170568 0.00110206 1e-05
0.00181384 0.0011025 1e-05
0.001922 0.00110294 1e-05
0.00203016 0.00110336 1e-05
0.00213833 0.00110377 1e-05
0.00224733 0.00110418 1e-05
0.00235633 0.00110458 1e-05
0.00246533 0.00110498 1e-05
0.00257434 0.00110536 1e-05
0.00268334 0.00110574 1e-05
0.00279319 0.0011061 1e-05
0.00290304 0.00110647 1e-05
0.00301289 0.00110682 1e-05
0.00312274 0.00110717 1e-05
0.00323259 0.00110751 1e-05
0.00334329 0.00110784 1e-05
0.003454 0.00110816 1e-05
0.0035647 0.00110848 1e-05
0.0036754 0.00110879 1e-05
0.00378611 0.0011091 1e-05
0.00389767 0.00110939 1e-05
0.00400924 0.00110968 1e-05
0.0041208 0.00110996 1e-05
0.00423237 0.00111023 1e-05
0.00434393 0.0011105 1e-05
0.00445636 0.00111075 1e-05
0.00456879 0.00111101 1e-05
0.00468123 0.00111125 1e-05
0.00479366 0.00111149 1e-05
0.00490609 0.00111172 1e-05
0.0050194 0.00111193 1e-05
0.0051327 0.00111215 1e-05
0.00524601 0.00111235 1e-05
0.00535932 0.00111255 1e-05
0.00547262 0.00111274 1e-05
0.00558681 0.00111293 1e-05
0.005701 0.0011131 1e-05
0.00581518 0.00111327 1e-05
0.00592937 0.00111343 1e-05
0.00604356 0.00111359 1e-05
0.00615863 0.00111373 1e-05
0.00627371 0.00111387 1e-05
0.00638878 0.001114 1e-05
0.00650386 0.00111413 1e-05
0.00661893 0.00111424 1e-05
0.0067349 0.00111435 1e-05
0.00685087 0.00111445 1e-05
0.00696684 0.00111455 1e-05
0.00708281 0.00111463 1e-05
0.00719878 0.00111471 1e-05
0.00729881 0.00111477 1e-05
0.00739884 0.00111483 1e-05
0.00749886 0.00111488 1e-05
0.00759889 0.00111492 1e-05
0.00769412 0.00111496 1e-05
0.00771193 0.00111496 1e-05
0.00772973 0.00111497 1e-05
0.00774753 0.00111497 1e-05
0.00776533 0.00111498 1e-05
0.00778313 0.00111499 1e-05
0.00790091 0.00111502 1e-05
0.00801869 0.00111504 1e-05
0.00813647 0.00111506 1e-05
0.00825425 0.00111507 1e-05
0.00837203 0.00111507 1e-05
0.00849073 0.00111506 1e-05
0.00860942 0.00111504 1e-05
0.00872812 0.00111502 1e-05
0.00884682 0.00111499 1e-05
0.00896551 0.00111495 1e-05
0.00908513 0.00111489 1e-05
0.00920475 0.00111483 1e-05
0.00932437 0.00111477 1e-05
0.00944398 0.0011147 1e-05
0.0095636 0.00111462 1e-05
0.00968415 0.00111452 1e-05
0.0098047 0.00111442 1e-05
0.00992525 0.00111431 1e-05
0.0100458 0.00111419 1e-05
0.0101663 0.00111407 1e-05
0.0102878 0.00111393 1e-05
0.0104093 0.00111378 1e-05
0.0105308 0.00111363 1e-05
0.0106523 0.00111347 1e-05
0.0107738 0.0011133 1e-05
0.0108962 0.00111311 1e-05
0.0110186 0.00111293 1e-05
0.0111411 0.00111273 1e-05
0.0112635 0.00111253 1e-05
0.0113859 0.00111231 1e-05
0.0115093 0.00111208 1e-05
0.0116327 0.00111184 1e-05
0.0117561 0.0011116 1e-05
0.0118795 0.00111135 1e-05
0.0120028 0.00111109 1e-05
0.0121272 0.0011108 1e-05
0.0122515 0.00111052 1e-05
0.0123759 0.00111023 1e-05
0.0125002 0.00110994 1e-05
0.0126245 0.00110963 1e-05
0.0127498 0.0011093 1e-05
0.0128752 0.00110897 1e-05
0.0130005 0.00110863 1e-05
0.0131258 0.00110828 1e-05
0.0132511 0.00110793 1e-05
0.0133774 0.00110755 1e-05
0.0135036 0.00110717 1e-05
0.0136299 0.00110678 1e-05
0.0137562 0.00110638 1e-05
0.0138825 0.00110598 1e-05
0.0140098 0.00110555 1e-05
0.014137 0.00110512 1e-05
0.0142643 0.00110468 1e-05
0.0143915 0.00110423 1e-05
0.0145188 0.00110377 1e-05
0.0146471 0.00110329 1e-05
0.0147753 0.00110281 1e-05
0.0149036 0.00110232 1e-05
0.0150318 0.00110182 1e-05
0.0151601 0.00110131 1e-05
0.0152893 0.00110078 1e-05
0.0154186 0.00110025 1e-05
0.0155478 0.0010997 1e-05
0.0156771 0.00109915 1e-05
0.0158063 0.00109858 1e-05
0.0159366 0.00109801 1e-05
0.0160668 0.00109742 1e-05
0.0161971 0.00109682 1e-05
0.0163274 0.00109621 1e-05
0.0164576 0.0010956 1e-05
0.0165889 0.00109497 1e-05
0.0167201 0.00109433 1e-05
0.0168514 0.00109367 1e-05
0.0169827 0.00109301 1e-05
0.0171139 0.00109234 1e-05
0.0172462 0.00109166 1e-05
0.0173785 0.00109097 1e-05
0.0175108 0.00109026 1e-05
0.0176431 0.00108954 1e-05
0.0177754 0.00108882 1e-05
0.0179087 0.00108809 1e-05
0.018042 0.00108734 1e-05
0.0181753 0.00108658 1e-05
0.0183087 0.00108581 1e-05
0.018442 0.00108503 1e-05
0.0185763 0.00108425 1e-05
0.0187107 0.00108345 1e-05
0.018845 0.00108263 1e-05
0.0189794 0.0010818 1e-05
0.0191137 0.00108097 1e-05
0.0192491 0.00108013 1e-05
0.0193845 0.00107928 1e-05
0.0195199 0.0010784 1e-05
0.0196553 0.00107752 1e-05
0.0197907 0.00107663 1e-05
0.0199272 0.00107575 1e-05
0.0200636 0.00107484 1e-05
0.0202001 0.00107391 1e-05
0.0203365 0.00107296 1e-05
0.020473 0.00107203 1e-05
0.0206105 0.00107109 1e-05
0.020748 0.00107012 1e-05
0.0208855 0.00106914 1e-05
0.021023 0.00106814 1e-05
0.0211606 0.00106715 1e-05
0.0212991 0.00106616 1e-05
0.0214377 0.00106514 1e-05
0.0215763 0.00106409 1e-05
0.0217149 0.00106304 1e-05
0.0218535 0.001062 1e-05
0.0219931 0.00106095 1e-05
0.0221328 0.00105988 1e-05
0.0222724 0.00105878 1e-05
0.0224121 0.00105767 1e-05
0.0225517 0.00105657 1e-05
0.0226925 0.00105547 1e-05
0.0228332 0.00105434 1e-05
0.022974 0.00105318 1e-05
0.0231147 0.00105202 1e-05
0.0232555 0.00105086 1e-05
0.0233973 0.0010497 1e-05
0.0235391 0.00104852 1e-05
0.023681 0.00104731 1e-05
0.0238228 0.00104608 1e-05
0.0239647 0.00104487 1e-05
0.0241076 0.00104366 1e-05
0.0242505 0.00104242 1e-05
0.0243935 0.00104115 1e-05
0.0245364 0.00103987 1e-05
0.0246794 0.0010386 1e-05
0.0248234 0.00103733 1e-05
0.0249675 0.00103603 1e-05
0.0251115 0.0010347 1e-05
0.0252556 0.00103337 1e-05
[...]
POINT_DATA 12049
 FIELD attributes 1
U 3 12049 float
10.0004 	0.00731836 	0 10.0004 	0.00585469 	0 10.0003 	0.00439102 	0 10.0002 	0.00292735 	0 10.0001 	0.00146367 	0 10 	0 	0
10.0001 	0.000879685 	0 10 	0.000703748 	0 10 	0.000527811 	0 10 	0.000351874 	0 10 	0.000175937 	0 10 	0 	0
10.0001 	0.000466884 	0 10.0001 	0.000373316 	0 10.0001 	0.000279749 	0 10 	0.000186182 	0 10 	9.26139e-05 	0 10 	0 	0
10 	0.000266961 	0 10 	0.000213569 	0 10 	0.000160177 	0 10 	0.000106784 	0 10 	5.33922e-05 	0 10 	0 	0
10 	8.1293e-05 	0 10 	6.50344e-05 	0 10 	4.87758e-05 	0 10 	3.25172e-05 	0 10 	1.62586e-05 	0 10 	0 	0
10 	-2.54255e-05 	0 10 	-2.03404e-05 	0 10 	-1.52553e-05 	0 10 	-1.01702e-05 	0 10 	-5.0851e-06 	0 10 	0 	0
10 	-0.000215568 	0 10 	-0.000172455 	0 10 	-0.000129341 	0 10 	-8.62274e-05 	0 10 	-4.31137e-05 	0 10 	0 	0
10 	-0.000377454 	0 10 	-0.000301964 	0 10 	-0.000226473 	0 10 	-0.000150982 	0 10 	-7.54909e-05 	0 10 	0 	0
9.99999 	-0.000427323 	0 9.99999 	-0.000341858 	0 9.99999 	-0.000256394 	0 10 	-0.000170929 	0 10 	-8.54646e-05 	0 10 	0 	0
9.17387 	0.0870992 	0 9.1308 	0.0696794 	0 9.08741 	0.0522593 	0 9.04368 	0.0348389 	0 8.99962 	0.0174184 	0 8.95524 	0 	0
10.0004 	0.00731836 	0 10.0024 	0.0151688 	0 10.0045 	0.0221877 	0 10.0065 	0.0291624 	0 10.0085 	0.0360932 	0 10.0135 	0.0463085 	0 10.0163 	0.0402077 	0 10.0207 	0.0401662 	0 10.0252 	0.0401248 	0 10.0296 	0.0400837 	0 10.0356 	0.0445443 	0 10.0384 	0.0379039 	0 10.0424 	0.0378599 	0 10.0464 	0.0378159 	0 10.0504 	0.0377719 	0 10.0545 	0.0408732 	0 10.0567 	0.0387955 	0 10.0591 	0.0401048 	0 10.0616 	0.0414157 	0 10.064 	0.0427282 	0 10.0662 	0.0451864 	0 10.0677 	0.0452975 	0 10.069 	0.0464998 	0 10.0704 	0.0477032 	0 10.0717 	0.0489077 	0 10.0728 	0.049926 	0 10.0729 	0.0499888 	0 10.073 	0.0500516 	0 10.073 	0.0501143 	0 10.0731 	0.0501771 	0 10.0732 	0.0502304 	0 10.0737 	0.0508575 	0 10.0742 	0.0514786 	0 10.0747 	0.0521002 	0 10.0753 	0.0527223 	0 10.0758 	0.0531802 	0 10.0756 	0.0534766 	0 10.0753 	0.0536674 	0 10.0749 	0.0538583 	0 10.0746 	0.0540494 	0 10.0741 	0.0540019 	0 10.0736 	0.0541478 	0 10.0725 	0.0541253 	0 10.0714 	0.0541028 	0 10.0703 	0.0540802 	0 10.0688 	0.0537884 	0 10.0684 	0.0538702 	0 10.0668 	0.053738 	0 10.0652 	0.0536058 	0 10.0635 	0.0534736 	0 10.061 	0.0530549 	0 10.061 	0.0531111 	0 10.0589 	0.0529185 	0 10.0569 	0.0527258 	0 10.0549 	0.052533 	0 10.0513 	0.0520414 	0 10.052 	0.0520973 	0 10.0496 	0.0518792 	0 10.0473 	0.0516611 	0 10.045 	0.0514429 	0 10.0404 	0.0509179 	0 10.0418 	0.050995 	0 10.0393 	0.0507736 	0 10.0368 	0.0505522 	0 10.0343 	0.0503306 	0 10.0285 	0.0497893 	0 10.031 	0.0498952 	0 10.0283 	0.0496883 	0 10.0256 	0.0494814 	0 10.023 	0.0492744 	0 10.0161 	0.0487408 	0 10.0197 	0.048887 	0 10.017 	0.0486975 	0 10.0142 	0.048508 	0 10.0115 	0.0483185 	0 10.0034 	0.0477848 	0 10.0082 	0.0479736 	0 10.0055 	0.0478458 	0 10.0027 	0.0477181 	0 9.99996 	0.0475903 	0 9.99069 	0.0471309 	0 9.99687 	0.047401 	0 9.99416 	0.0472929 	0 9.99144 	0.0471848 	0 9.98873 	0.0470767 	0 9.97825 	0.0465764 	0 9.98581 	0.0468683 	0 9.98319 	0.0469377 	0 9.98057 	0.0470072 	0 9.97794 	0.0470766 	0 9.96632 	0.0468259 	0 9.97539 	0.0472472 	8.59881e-22 9.97345 	0.0472556 	5.66347e-21 9.97151 	0.0472641 	1.0467e-20 9.96957 	0.0472726 	1.52706e-20 9.95754 	0.0468043 	1.2931e-20 9.96792 	0.0470096 	8.96281e-20 9.96624 	0.0467656 	8.32327e-20 9.96456 	0.0465215 	7.68346e-20 9.96287 	0.0462775 	7.04339e-20 9.95065 	0.0456219 	-1.4288e-20 9.96093 	0.0455641 	-3.87539e-20 9.95928 	0.0452251 	-4.30977e-20 9.95763 	0.044886 	-4.74397e-20 9.95598 	0.0445469 	-5.17801e-20 9.9439 	0.0439317 	-2.02301e-20 9.95373 	0.0436819 	-1.78204e-20 9.95187 	0.0430571 	-1.2391e-20 9.95001 	0.0424322 	-6.962e-21 9.94815 	0.0418072 	-1.53349e-21 9.93619 	0.0409696 	6.75389e-21 9.9456 	0.0406442 	-5.27553e-21 9.94349 	0.0397984 	-2.29325e-20 9.94138 	0.0389524 	-4.05914e-20 9.93927 	0.0381063 	-5.82523e-20 9.92733 	0.0369817 	-8.32565e-20 9.93619 	0.0367454 	-1.18232e-19 9.93372 	0.035908 	-1.06505e-19 9.93124 	0.0350705 	-9.47719e-20 9.92876 	0.0342327 	-8.30309e-20 9.91677 	0.0329807 	-2.83077e-20 9.92493 	0.0328681 	3.34684e-20 9.92205 	0.0321122 	4.62762e-20 9.91916 	0.0313561 	5.9075e-20 9.91626 	0.0305998 	7.18647e-20 9.90428 	0.0293266 	3.48767e-20 9.91165 	0.0292473 	-4.55478e-20 9.90836 	0.028526 	-5.13286e-20 9.90507 	0.0278046 	-5.70954e-20 9.90177 	0.0270829 	-6.28483e-20 9.88989 	0.0258253 	-3.08531e-22 9.89635 	0.0257052 	5.87945e-20 9.89264 	0.0249917 	4.98898e-20 9.88891 	0.024278 	4.09712e-20 9.88518 	0.023564 	3.20386e-20 9.87348 	0.0223594 	-2.69421e-20 9.87884 	0.0221748 	-7.97632e-20 9.87465 	0.0214684 	-1.00838e-19 9.87046 	0.0207617 	-1.21908e-19 9.86625 	0.0200548 	-1.42972e-19 9.85483 	0.0189314 	-1.29239e-19 9.85887 	0.0186799 	-1.48558e-19 9.85419 	0.017985 	-1.36761e-19 9.8495 	0.0172897 	-1.2496e-19 9.8448 	0.0165942 	-1.13154e-19 9.83382 	0.0155658 	-7.8901e-20 9.83627 	0.0152555 	-6.64249e-20 9.8311 	0.0145768 	-4.88727e-20 9.82592 	0.0138978 	-3.13221e-20 9.82074 	0.0132186 	-1.37732e-20 9.81042 	0.0122863 	2.07447e-21 9.81099 	0.0119102 	0 9.80534 	0.0112421 	0 9.79968 	0.0105738 	0 9.79402 	0.00990516 	0 9.78469 	0.00906358 	0 9.78301 	0.00860732 	-1.55324e-20 9.77689 	0.00794511 	-3.35347e-20 9.77076 	0.00728258 	-5.15387e-20 9.76462 	0.00661972 	-6.95443e-20 9.75663 	0.00587133 	-8.82965e-20 9.75323 	0.00541342 	-9.28094e-20 9.7476 	0.00485182 	-9.34079e-20 9.74196 	0.00428995 	-9.40027e-20 9.73631 	0.00372783 	-9.45939e-20 9.73093 	0.00319242 	-9.51531e-20 9.72991 	0.00309175 	-9.54206e-20 9.7289 	0.00299107 	-9.56881e-20 9.72788 	0.00289037 	-9.59556e-20 9.72686 	0.00278967 	-9.62232e-20 9.72487 	0.00264489 	-9.6219e-20 9.71866 	0.00203131 	-6.98052e-20 9.71155 	0.00137717 	-4.21477e-20 9.70443 	0.000722626 	-1.44996e-20 9.6973 	6.76676e-05 	1.31394e-20 9.68284 	-0.000912363 	4.78743e-20 9.68203 	-0.00126919 	4.87436e-20 9.67448 	-0.00191904 	4.98193e-20 9.66692 	-0.00256933 	5.08928e-20 9.65935 	-0.00322008 	5.19642e-20 9.63824 	-0.004447 	5.48641e-20 9.64269 	-0.00457911 	4.32766e-20 9.63473 	-0.0052245 	3.16867e-20 9.62676 	-0.00587036 	2.00956e-20 9.61877 	-0.00651672 	8.50343e-21 9.59136 	-0.0079445 	-9.56054e-22 9.60076 	-0.00789704 	-8.02309e-21 9.59241 	-0.00853903 	-1.90959e-20 9.58404 	-0.00918154 	-3.01675e-20 9.57566 	-0.00982458 	-4.1238e-20 9.54245 	-0.0114006 	-5.23225e-20 9.55638 	-0.011225 	-5.25329e-20 9.54767 	-0.0118658 	-5.95328e-20 9.53894 	-0.0125072 	-6.65296e-20 9.53019 	-0.0131491 	-7.35232e-20 9.49181 	-0.0148175 	-9.10309e-20 9.50977 	-0.0145652 	-1.41138e-19 9.50072 	-0.0152045 	-1.32098e-19 9.49165 	-0.0158444 	-1.23071e-19 9.48257 	-0.016485 	-1.14057e-19 9.43969 	-0.0181842 	-3.94691e-20 9.4611 	-0.017906 	-2.5408e-20 9.45174 	-0.0185439 	-1.78555e-20 9.44236 	-0.0191824 	-1.03022e-20 9.43297 	-0.0198216 	-2.74814e-21 9.38634 	-0.0214955 	0 9.41061 	-0.0212418 	0 9.40096 	-0.02188 	0 9.3913 	-0.0225189 	0 9.38162 	-0.0231585 	0 9.332 	-0.0247555 	0 9.35853 	-0.024576 	1.66453e-21 9.34863 	-0.0252157 	8.69449e-21 9.33871 	-0.0258562 	1.57237e-20 9.32877 	-0.0264974 	2.27521e-20 9.2769 	-0.027966 	3.96632e-20 9.30511 	-0.0279095 	1.50688e-19 9.29498 	-0.0285504 	1.53487e-19 9.28483 	-0.029192 	1.563e-19 9.27466 	-0.0298344 	1.59128e-19 9.22124 	-0.0311221 	3.98456e-20 9.25061 	-0.0312304 	2.14694e-20 9.24027 	-0.031871 	1.51683e-20 9.22991 	-0.0325125 	8.86638e-21 9.21777 	-0.0331716 	3.38164e-21 9.16522 	-0.0342164 	1.65325e-20 9.192 	-0.0345513 	9.99056e-20 9.18473 	-0.0351644 	1.08246e-19 9.1742 	-0.0358048 	1.09443e-19 9.15792 	-0.0364664 	9.66126e-20 9.10901 	-0.0372452 	3.76382e-21 9.13244 	-0.0377987 	-9.49133e-20 9.1286 	-0.0384201 	-1.22474e-19 9.11791 	-0.039059 	-1.3223e-19 9.09822 	-0.0396716 	-1.22841e-19 9.05277 	-0.0402075 	-5.85732e-20 9.07307 	-0.0409581 	-1.70341e-19 9.07209 	-0.0416308 	-2.07186e-19 9.06127 	-0.042268 	-2.09392e-19 9.03883 	-0.0427867 	-1.65953e-19 8.99665 	-0.0431036 	-4.49185e-20 9.01404 	-0.0440289 	-2.36792e-20 9.01542 	-0.0447901 	-1.05216e-20 9.00448 	-0.0454254 	-3.57966e-21 8.9799 	-0.0458123 	0 8.94078 	-0.0459347 	0 8.95549 	-0.0470132 	0 8.95877 	-0.0478942 	0 8.94775 	-0.0485273 	0 8.92156 	-0.0487512 	1.9018e-21 8.88529 	-0.0487027 	5.06883e-21 8.89755 	-0.049913 	2.05101e-21 8.90232 	-0.0509383 	0 8.89123 	-0.0515693 	0 8.86392 	-0.0516062 	2.27944e-21 8.83028 	-0.0514105 	5.45056e-21 8.84032 	-0.0527333 	2.43239e-21 8.84622 	-0.0539225 	1.22147e-21 8.83508 	-0.0545514 	7.51957e-21 8.80708 	-0.0543827 	2.33649e-20 8.77585 	-0.0540612 	4.1039e-20 8.78388 	-0.0554771 	1.61168e-19 8.79061 	-0.056843 	2.73701e-19 8.77944 	-0.0574699 	2.77061e-19 8.7511 	-0.0570846 	1.61662e-19 8.72209 	-0.0566588 	4.15397e-20 8.7283 	-0.0581517 	2.41251e-20 8.73447 	-0.0596462 	6.71175e-21 8.72307 	-0.0602312 	2.63425e-22 8.69606 	-0.0597202 	3.31541e-21 8.66906 	-0.0592088 	6.36725e-21 8.67365 	-0.0607626 	3.47271e-21 8.67819 	-0.0623179 	5.78989e-22 8.66718 	-0.0628722 	2.0841e-21 8.64201 	-0.0622931 	-1.65268e-21 8.61685 	-0.0617135 	-5.38854e-21 8.61999 	-0.0633144 	-4.69698e-20 8.62308 	-0.064917 	-8.85549e-20 8.61249 	-0.0654415 	-8.98511e-20 8.58899 	-0.0648103 	-5.18119e-20 8.56551 	-0.0641786 	-1.3771e-20 8.56737 	-0.0658188 	8.12218e-20 8.56917 	-0.0674606 	1.76209e-19 8.55904 	-0.067957 	1.84378e-19 8.53706 	-0.0672849 	1.0523e-19 8.51509 	-0.0666122 	2.60825e-20 8.51582 	-0.0682829 	1.51554e-20 8.51649 	-0.0699553 	4.22485e-21 8.50685 	-0.0704245 	4.17424e-22 8.48623 	-0.0697218 	4.85009e-21 8.46562 	-0.0690186 	9.2844e-21 8.46536 	-0.0707064 	3.95257e-21 8.46504 	-0.0723958 	-1.38435e-21 8.45591 	-0.0728384 	-1.98698e-20 8.43651 	-0.0721186 	-6.78387e-20 8.41713 	-0.0713984 	-1.1581e-19 8.416 	-0.0730864 	-2.41312e-19 8.41481 	-0.0747761 	-3.66808e-19 8.4062 	-0.0751944 	-3.52127e-19 8.38791 	-0.0744783 	-2.08261e-19 8.36963 	-0.0737617 	-6.43957e-20 8.36773 	-0.0754451 	5.44775e-20 8.36567 	-0.0771086 	1.71402e-19 8.35727 	-0.0774762 	1.69058e-19 8.3404 	-0.0768259 	8.67333e-20 8.32312 	-0.0761234 	3.46284e-22 8.32055 	-0.0777971 	-8.53842e-20 8.31704 	-0.0792681 	-1.59047e-19 8.30877 	-0.0796432 	-1.6788e-19 8.29399 	-0.0791703 	-1.09874e-19 8.27761 	-0.0784886 	-3.54409e-20 8.27444 	-0.0801495 	-2.47018e-20 8.26975 	-0.0814287 	-1.40582e-20 8.26162 	-0.0818129 	-3.63272e-21 8.24864 	-0.0815202 	1.28564e-20 8.23309 	-0.0808651 	3.25902e-20 8.22938 	-0.0825122 	1.16482e-20 8.22375 	-0.083604 	-2.46536e-21 8.21575 	-0.0839994 	-8.01969e-21 8.20435 	-0.083887 	-3.68028e-21 8.18955 	-0.0832628 	1.06301e-20 8.18537 	-0.0848957 	-5.2716e-21 8.17899 	-0.0858059 	-1.53995e-20 8.1711 	-0.0862139 	-2.15153e-20 8.16107 	-0.0862803 	-3.26349e-20 8.14696 	-0.08569 	-5.33655e-20 8.14236 	-0.087309 	5.05834e-20 8.13541 	-0.0880442 	7.94593e-20 8.12763 	-0.0884662 	8.17025e-20 8.11879 	-0.0887085 	6.71308e-20 8.1053 	-0.0881546 	-2.1863e-20 8.10032 	-0.0897603 	6.58678e-20 8.09296 	-0.090328 	7.83268e-20 8.08528 	-0.0907652 	8.13016e-20 8.07746 	-0.0911802 	8.24673e-20 8.06453 	-0.0906645 	9.45261e-21 8.05913 	-0.0922123 	-6.26161e-22 8.05157 	-0.0926659 	-4.2668e-22 8.04398 	-0.0931198 	-2.27221e-22 8.03638 	-0.0935739 	-2.77842e-23 8.02464 	-0.0932276 	1.64e-20 8.01868 	-0.0945947 	0 8.0112 	-0.0950662 	0 8.00371 	-0.095538 	0 7.99619 	-0.0960101 	0 7.9856 	-0.0958517 	1.33515e-20 7.97921 	-0.0970463 	0 7.97181 	-0.0975369 	0 7.96439 	-0.0980279 	0 7.95695 	-0.0985191 	0 7.94736 	-0.0985444 	0 7.94065 	-0.0995746 	0 7.93332 	-0.100086 	0 7.92598 	-0.100597 	0 7.91861 	-0.101109 	0 7.9099 	-0.101314 	-6.63262e-21 7.90296 	-0.102188 	0 7.8957 	-0.10272 	0 7.88842 	-0.103253 	0 7.88111 	-0.103786 	0 7.87316 	-0.104166 	-6.79644e-21 7.86609 	-0.104891 	0 7.85888 	-0.105446 	0 7.85165 	-0.106002 	0 7.8444 	-0.106558 	0 7.83711 	-0.107109 	-2.14588e-22 7.83688 	-0.107133 	-2.66981e-22 7.83665 	-0.107152 	-5.87344e-22 7.83642 	-0.107171 	-9.07709e-22 7.83618 	-0.107189 	-1.22808e-21 7.83595 	-0.107208 	-1.54799e-21 7.82884 	-0.10777 	-1.04613e-20 7.8217 	-0.108332 	-1.93734e-20 7.81455 	-0.108895 	-2.82841e-20 7.80737 	-0.109458 	-3.71935e-20 7.80097 	-0.109863 	-4.61088e-20 7.79336 	-0.110611 	-4.38053e-20 7.78602 	-0.111217 	-4.31694e-20 7.77866 	-0.111823 	-4.25304e-20 7.77128 	-0.112429 	-4.18886e-20 7.7655 	-0.112722 	-4.46864e-20 7.7576 	-0.113638 	-3.47147e-20 7.75029 	-0.114271 	-2.4726e-20 7.74296 	-0.114903 	-1.47359e-20 7.73561 	-0.115536 	-4.74417e-21 7.73066 	-0.115704 	0 7.72247 	-0.116785 	-1.98506e-21 7.71518 	-0.117445 	-6.54272e-21 7.70787 	-0.118105 	-1.10996e-20 7.70053 	-0.118765 	-1.56556e-20 7.69639 	-0.118814 	-2.01822e-20 7.6879 	-0.120056 	-4.97631e-20 7.68063 	-0.120744 	-6.85687e-20 7.67333 	-0.121433 	-8.73761e-20 7.666 	-0.122121 	-1.06185e-19 7.66265 	-0.122059 	-9.42987e-20 7.65385 	-0.123459 	-7.08599e-20 7.64658 	-0.124177 	-6.01886e-20 7.63929 	-0.124896 	-4.95104e-20 7.63231 	-0.12555 	-4.15146e-20 7.62937 	-0.125449 	-6.45457e-20 7.62053 	-0.126889 	-7.78174e-20 7.613 	-0.127754 	-6.54596e-20 7.6057 	-0.128505 	-4.79766e-20 7.59954 	-0.12904 	-2.66951e-20 7.59653 	-0.128991 	4.84827e-21 7.5877 	-0.130446 	8.91487e-21 7.57983 	-0.131481 	7.42282e-21 7.57252 	-0.132264 	2.59016e-21 7.56715 	-0.132685 	0 7.56406 	-0.13269 	0 7.55524 	-0.134159 	0 7.54702 	-0.13536 	0 7.53969 	-0.136176 	0 7.53509 	-0.136491 	0 7.53191 	-0.136548 	0 7.52309 	-0.138035 	0 7.51451 	-0.139398 	-3.24243e-21 7.50715 	-0.140249 	-1.99496e-20 7.50331 	-0.140462 	-3.67207e-20 7.50003 	-0.140572 	-5.35021e-20 7.49119 	-0.142078 	-3.52997e-20 7.48231 	-0.143583 	-1.70907e-20 7.47513 	-0.144439 	3.75066e-21 7.47175 	-0.144603 	7.62009e-21 7.46836 	-0.144767 	1.14894e-20 7.45951 	-0.146292 	4.21847e-20 7.45061 	-0.147819 	7.28783e-20 7.44386 	-0.148702 	8.54597e-20 7.44037 	-0.148919 	7.13734e-20 7.43686 	-0.149136 	5.72852e-20 7.42799 	-0.150683 	3.45209e-20 7.41906 	-0.152231 	1.1748e-20 7.41273 	-0.153144 	4.26079e-21 7.40911 	-0.153414 	1.30593e-20 7.40548 	-0.153684 	2.18588e-20 7.39657 	-0.155254 	8.15249e-20 7.38761 	-0.156825 	1.41194e-19 7.38168 	-0.157769 	1.41855e-19 7.37792 	-0.158091 	8.28346e-20 7.37416 	-0.158414 	2.38128e-20 7.36521 	-0.160008 	1.58175e-20 7.3562 	-0.161603 	7.82586e-21 7.35065 	-0.162579 	7.90524e-21 7.34675 	-0.162954 	1.64731e-20 7.34285 	-0.163329 	2.50423e-20 7.33385 	-0.164948 	8.31783e-20 7.32534 	-0.166473 	1.32333e-19 7.3199 	-0.167456 	1.3013e-19 7.31556 	-0.168003 	8.45507e-20 7.3115 	-0.16843 	2.70881e-20 7.30244 	-0.170075 	1.93489e-20 7.29469 	-0.171484 	1.15621e-20 7.28913 	-0.172507 	3.69449e-21 7.28428 	-0.173241 	0 7.28006 	-0.17372 	0 7.27093 	-0.175392 	0 7.26392 	-0.176689 	0 7.25823 	-0.177752 	0 7.25287 	-0.178671 	0 7.24847 	-0.1792 	0 7.23927 	-0.180899 	0 7.23298 	-0.182088 	0 7.22715 	-0.18319 	0 7.22128 	-0.184291 	5.03639e-24 7.2167 	-0.184871 	1.48101e-20 7.20775 	-0.186539 	8.05001e-22 7.20181 	-0.187681 	8.86014e-21 7.19583 	-0.188822 	1.69176e-20 7.18982 	-0.189963 	2.49774e-20 7.18469 	-0.190734 	3.58994e-20 7.17648 	-0.192288 	8.95142e-20 7.17038 	-0.193468 	9.34709e-20 7.16425 	-0.194649 	9.74053e-20 7.15807 	-0.195829 	1.01317e-19 7.1524 	-0.196789 	6.03423e-20 7.1449 	-0.19823 	9.31045e-20 7.13864 	-0.19945 	8.17478e-20 7.13233 	-0.200669 	7.03684e-20 7.12599 	-0.201889 	5.89663e-20 7.11978 	-0.203035 	3.74439e-20 7.11617 	-0.203735 	3.62097e-20 7.11298 	-0.204361 	3.64418e-20 7.10977 	-0.204988 	3.66752e-20 7.10656 	-0.205614 	3.69098e-20 7.10344 	-0.206221 	3.71382e-20 7.10005 	-0.206855 	3.65128e-20 7.09666 	-0.20749 	3.5886e-20 7.09326 	-0.208125 	3.52579e-20 7.08984 	-0.20876 	3.46283e-20 7.08703 	-0.209328 	3.56694e-20 7.07991 	-0.21069 	3.31925e-20 7.0731 	-0.211985 	3.23099e-20 7.06624 	-0.213279 	3.14219e-20 7.05933 	-0.214574 	3.05284e-20 7.05422 	-0.215671 	3.60845e-20 7.04621 	-0.217203 	3.94873e-20 7.0392 	-0.218536 	3.34809e-20 7.03214 	-0.219869 	2.74827e-20 7.02504 	-0.221202 	2.14928e-20 7.02098 	-0.222208 	2.32225e-21 7.01203 	-0.223909 	-2.49602e-22 7.00482 	-0.22528 	-1.6623e-22 6.99756 	-0.22665 	-8.28278e-23 6.99028 	-0.228018 	0 6.98724 	-0.228935 	0 6.97765 	-0.230747 	0 6.96991 	-0.232212 	-1.07553e-20 6.96244 	-0.23362 	-2.32965e-20 6.95624 	-0.234889 	-3.47621e-20 6.95297 	-0.23585 	-4.38307e-20 6.94317 	-0.237692 	-3.26459e-20 6.93444 	-0.239332 	-2.00214e-20 6.92675 	-0.240776 	-6.00695e-21 6.92164 	-0.241947 	3.4727e-21 6.91813 	-0.24295 	1.01433e-20 6.90812 	-0.244822 	4.40459e-21 6.89836 	-0.246636 	1.41531e-21 6.89044 	-0.248115 	1.41242e-20 6.88643 	-0.249188 	3.29308e-20 6.88268 	-0.250232 	5.21765e-20 6.87244 	-0.252134 	3.20449e-20 6.86213 	-0.254035 	1.19094e-20 6.85455 	-0.255526 	-6.86044e-22 6.85058 	-0.25661 	-3.69916e-21 6.84658 	-0.257694 	-6.71358e-21 6.8361 	-0.259625 	-5.35545e-20 6.82556 	-0.261555 	-1.00397e-19 6.81829 	-0.263086 	-1.06553e-19 6.81406 	-0.264209 	-6.9762e-20 6.8098 	-0.265333 	-3.2971e-20 6.79908 	-0.267291 	-7.03439e-20 6.78828 	-0.26925 	-1.07724e-19 6.78132 	-0.270821 	-1.05581e-19 6.77682 	-0.271982 	-6.64915e-20 6.77229 	-0.273144 	-2.74007e-20 6.76132 	-0.275131 	-6.66352e-20 6.75142 	-0.277004 	-9.27999e-20 6.74449 	-0.278578 	-8.41911e-20 6.73884 	-0.279927 	-5.42226e-20 6.73404 	-0.281126 	-9.99872e-21 6.72281 	-0.28314 	-7.52835e-21 6.71413 	-0.284896 	-4.91185e-21 6.70693 	-0.286501 	-2.20953e-21 6.70009 	-0.288038 	0 6.695 	-0.289274 	0 6.6835 	-0.291314 	0 6.67606 	-0.292953 	0 6.66859 	-0.294588 	0 6.66107 	-0.296222 	0 6.65514 	-0.297584 	0 6.64488 	-0.299504 	-1.0288e-21 6.6372 	-0.301169 	-3.85794e-21 6.62945 	-0.302834 	-6.68847e-21 6.62165 	-0.304499 	-9.52039e-21 6.61445 	-0.306054 	-9.27219e-21 6.60811 	-0.307286 	-2.13365e-20 6.6028 	-0.308417 	-1.9276e-20 6.59747 	-0.309547 	-1.72063e-20 6.5921 	-0.310677 	-1.51273e-20 6.58696 	-0.311755 	-1.31352e-20 6.58405 	-0.312327 	-1.23332e-20 6.58114 	-0.312899 	-1.15294e-20 6.57821 	-0.313471 	-1.07237e-20 6.57528 	-0.314043 	-9.91624e-21 6.57271 	-0.314568 	-1.34909e-20 6.56383 	-0.316337 	-6.1359e-21 6.55507 	-0.318054 	1.24434e-21 6.54624 	-0.31977 	8.62302e-21 6.53734 	-0.321487 	1.60001e-20 6.52987 	-0.323016 	2.16549e-20 6.52011 	-0.324963 	1.84994e-20 6.51101 	-0.326706 	1.97627e-20 6.50185 	-0.328449 	2.1018e-20 6.49262 	-0.330192 	2.22652e-20 6.48598 	-0.331608 	3.43372e-20 6.47552 	-0.333671 	4.10705e-20 6.46586 	-0.335501 	4.09459e-20 6.45636 	-0.33727 	3.90212e-20 6.44796 	-0.338895 	2.92944e-20 6.44101 	-0.340338 	9.63021e-21 6.4302 	-0.342421 	2.68752e-20 6.41958 	-0.344434 	3.86959e-20 6.40973 	-0.346226 	3.34274e-20 6.40222 	-0.34773 	1.00628e-20 6.39494 	-0.349201 	-1.54327e-20 6.38376 	-0.351302 	-9.1289e-21 6.37251 	-0.353404 	-2.82708e-21 6.3629 	-0.355199 	-1.0458e-21 6.35534 	-0.356695 	-4.96541e-22 6.34772 	-0.358191 	5.78956e-23 6.33618 	-0.360311 	1.35099e-21 6.32455 	-0.36243 	2.65146e-21 6.31521 	-0.364263 	3.90614e-21 6.3073 	-0.365783 	8.56895e-21 6.29933 	-0.367304 	1.32353e-20 6.28741 	-0.36944 	9.50122e-21 6.27631 	-0.371472 	5.76525e-21 6.26696 	-0.373295 	2.02152e-21 6.25807 	-0.374989 	0 6.24975 	-0.376532 	0 6.23743 	-0.378684 	0 6.22734 	-0.380576 	0 6.21762 	-0.382416 	0 6.20783 	-0.384256 	0 6.19893 	-0.385869 	0 6.1872 	-0.387927 	1.41109e-21 6.17718 	-0.389784 	5.4212e-21 6.16708 	-0.391641 	9.43403e-21 6.15691 	-0.393496 	1.34496e-20 6.14685 	-0.39531 	1.74707e-20 6.1442 	-0.395766 	1.71731e-20 6.14189 	-0.396185 	1.73464e-20 6.13957 	-0.396604 	1.752e-20 6.13724 	-0.397024 	1.76938e-20 6.13495 	-0.397436 	1.78653e-20 6.1272 	-0.398892 	1.97657e-20 6.1194 	-0.400348 	2.16762e-20 6.11156 	-0.401803 	2.35969e-20 6.10367 	-0.403258 	2.55277e-20 6.09587 	-0.404584 	2.00083e-20 6.08595 	-0.406617 	1.84336e-20 6.07559 	-0.408505 	1.31565e-20 6.06516 	-0.410392 	7.89043e-21 6.05465 	-0.412278 	2.63538e-21 6.04437 	-0.413868 	-1.17539e-20 6.0344 	-0.416046 	-3.58971e-20 6.0238 	-0.418 	-4.04433e-20 6.01297 	-0.419899 	-4.00887e-20 6.00222 	-0.421644 	-3.03914e-20 5.99155 	-0.42323 	-1.0853e-20 5.98119 	-0.425413 	2.01208e-2