# vtk DataFile Version 2.0
track0
ASCII
DATASET POLYDATA
POINTS 12049 float
-0.0205 0.001 1e-05
-0.02052 0.000999985 1e-05
-0.02054 0.000999974 1e-05
-0.02056 0.000999965 1e-05
-0.02058 0.000999959 1e-05
-0.0206 0.000999956 1e-05
-0.0205 0.00367778 1e-05
-0.02052 0.00367778 1e-05
-0.02054 0.00367777 1e-05
-0.02056 0.00367777 1e-05
-0.02058 0.00367777 1e-05
-0.0206 0.00367777 1e-05
-0.0205 0.00635556 1e-05
-0.02052 0.00635555 1e-05
-0.02054 0.00635555 1e-05
-0.02056 0.00635555 1e-05
-0.02058 0.00635555 1e-05
-0.0206 0.00635555 1e-05
-0.0205 0.00903333 1e-05
-0.02052 0.00903333 1e-05
-0.02054 0.00903333 1e-05
-0.02056 0.00903333 1e-05
-0.02058 0.00903333 1e-05
-0.0206 0.00903333 1e-05
-0.0205 0.0117111 1e-05
-0.02052 0.0117111 1e-05
-0.02054 0.0117111 1e-05
-0.02056 0.0117111 1e-05
-0.02058 0.0117111 1e-05
-0.0206 0.0117111 1e-05
-0.0205 0.0143889 1e-05
-0.02052 0.0143889 1e-05
-0.02054 0.0143889 1e-05
-0.02056 0.0143889 1e-05
-0.02058 0.0143889 1e-05
-0.0206 0.0143889 1e-05
-0.0205 0.0170667 1e-05
-0.02052 0.0170667 1e-05
-0.02054 0.0170667 1e-05
-0.02056 0.0170667 1e-05
-0.02058 0.0170667 1e-05
-0.0206 0.0170667 1e-05
-0.0205 0.0197444 1e-05
-0.02052 0.0197444 1e-05
-0.02054 0.0197444 1e-05
-0.02056 0.0197444 1e-05
-0.02058 0.0197444 1e-05
-0.0206 0.0197444 1e-05
-0.0205 0.0224222 1e-05
-0.02052 0.0224222 1e-05
-0.02054 0.0224222 1e-05
-0.02056 0.0224222 1e-05
-0.02058 0.0224222 1e-05
-0.0206 0.0224222 1e-05
-0.0205 0.0251 1e-05
-0.02052 0.0250998 1e-05
-0.02054 0.0250997 1e-05
-0.02056 0.0250995 1e-05
-0.02058 0.0250995 1e-05
-0.0206 0.0250994 1e-05
-0.0205 0.001 1e-05
-0.0202034 0.00100022 1e-05
-0.0199069 0.00100067 1e-05
-0.0196103 0.00100132 1e-05
-0.0193137 0.00100219 1e-05
-0.0190172 0.00100326 1e-05
-0.0187132 0.00100466 1e-05
-0.0184093 0.00100588 1e-05
-0.0181054 0.0010071 1e-05
-0.0178015 0.00100832 1e-05
-0.0174976 0.00100953 1e-05
-0.0172058 0.00101083 1e-05
-0.016914 0.00101193 1e-05
-0.0166222 0.00101303 1e-05
-0.0163305 0.00101413 1e-05
-0.0160387 0.00101522 1e-05
-0.0157586 0.00101636 1e-05
-0.0154784 0.00101744 1e-05
-0.0151983 0.00101856 1e-05
-0.0149182 0.00101971 1e-05
-0.0146381 0.0010209 1e-05
-0.0143746 0.00102209 1e-05
-0.0141111 0.00102327 1e-05
-0.0138476 0.00102449 1e-05
-0.0135841 0.00102574 1e-05
-0.0133616 0.00102682 1e-05
-0.0133479 0.00102688 1e-05
-0.0133343 0.00102695 1e-05
-0.0133207 0.00102702 1e-05
-0.0133071 0.00102709 1e-05
-0.0132934 0.00102716 1e-05
-0.0130353 0.00102844 1e-05
-0.0127771 0.00102975 1e-05
-0.0125189 0.00103107 1e-05
-0.0122607 0.0010324 1e-05
-0.0120025 0.00103375 1e-05
-0.0117547 0.00103506 1e-05
-0.0115068 0.00103638 1e-05
-0.0112589 0.0010377 1e-05
-0.0110111 0.00103902 1e-05
-0.0107632 0.00104035 1e-05
-0.0105252 0.00104163 1e-05
-0.0102873 0.00104291 1e-05
-0.0100493 0.00104418 1e-05
-0.00981133 0.00104546 1e-05
-0.00957337 0.00104674 1e-05
-0.00934491 0.00104796 1e-05
-0.00911645 0.00104918 1e-05
-0.00888799 0.0010504 1e-05
-0.00865954 0.00105162 1e-05
-0.00843108 0.00105283 1e-05
-0.00821175 0.00105399 1e-05
-0.00799242 0.00105515 1e-05
-0.00777309 0.0010563 1e-05
-0.00755376 0.00105745 1e-05
-0.00733443 0.0010586 1e-05
-0.00712387 0.00105969 1e-05
-0.0069133 0.00106078 1e-05
-0.00670273 0.00106187 1e-05
-0.00649216 0.00106295 1e-05
-0.0062816 0.00106403 1e-05
-0.00607944 0.00106505 1e-05
-0.00587729 0.00106608 1e-05
-0.00567514 0.0010671 1e-05
-0.00547298 0.00106812 1e-05
-0.00527083 0.00106913 1e-05
-0.00507675 0.0010701 1e-05
-0.00488267 0.00107106 1e-05
-0.0046886 0.00107202 1e-05
-0.00449452 0.00107298 1e-05
-0.00430044 0.00107394 1e-05
-0.00411412 0.00107484 1e-05
-0.0039278 0.00107575 1e-05
-0.00374147 0.00107666 1e-05
-0.00355515 0.00107756 1e-05
-0.00336883 0.00107846 1e-05
-0.00318995 0.00107931 1e-05
-0.00301107 0.00108017 1e-05
-0.00283219 0.00108103 1e-05
-0.00265331 0.00108188 1e-05
-0.00247443 0.00108273 1e-05
-0.0023027 0.00108354 1e-05
-0.00213097 0.00108436 1e-05
-0.00195924 0.00108517 1e-05
-0.0017875 0.00108598 1e-05
-0.00161577 0.00108679 1e-05
-0.0014509 0.00108756 1e-05
-0.00128603 0.00108833 1e-05
-0.00112116 0.00108911 1e-05
-0.000956289 0.00108988 1e-05
-0.000791418 0.00109066 1e-05
-0.000633135 0.00109141 1e-05
-0.000474851 0.00109216 1e-05
-0.000316567 0.00109291 1e-05
-0.000158284 0.00109366 1e-05
0 0.00109441 1e-05
0.000105677 0.0010949 1e-05
0.000211355 0.0010954 1e-05
0.000317032 0.0010959 1e-05
0.00042271 0.00109639 1e-05
0.000528387 0.00109688 1e-05
0.000634886 0.00109737 1e-05
0.000741385 0.00109786 1e-05
0.000847885 0.00109834 1e-05
0.000954384 0.00109882 1e-05
0.00106088 0.0010993 1e-05
0.00116821 0.00109977 1e-05
0.00127554 0.00110024 1e-05
0.00138286 0.00110071 1e-05
0.00149019 0.00110116 1e-05
0.00159752 0.00110162 1e-05
0.00170568 0.00110206 1e-05
0.00181384 0.0011025 1e-05
0.001922 0.00110294 1e-05
0.00203016 0.00110336 1e-05
0.00213833 0.00110377 1e-05
0.00224733 0.00110418 1e-05
0.00235633 0.00110458 1e-05
0.00246533 0.00110498 1e-05
0.00257434 0.00110536 1e-05
0.00268334 0.00110574 1e-05
0.00279319 0.0011061 1e-05
0.00290304 0.00110647 1e-05
0.00301289 0.00110682 1e-05
0.00312274 0.00110717 1e-05
0.00323259 0.00110751 1e-05
0.00334329 0.00110784 1e-05
0.003454 0.00110816 1e-05
0.0035647 0.00110848 1e-05
0.0036754 0.00110879 1e-05
0.00378611 0.0011091 1e-05
0.00389767 0.00110939 1e-05
0.00400924 0.00110968 1e-05
0.0041208 0.00110996 1e-05
0.00423237 0.00111023 1e-05
0.00434393 0.0011105 1e-05
0.00445636 0.00111075 1e-05
0.00456879 0.00111101 1e-05
0.00468123 0.00111125 1e-05
0.00479366 0.00111149 1e-05
0.00490609 0.00111172 1e-05
0.0050194 0.00111193 1e-05
0.0051327 0.00111215 1e-05
0.00524601 0.00111235 1e-05
0.00535932 0.00111255 1e-05
0.00547262 0.00111274 1e-05
0.00558681 0.00111293 1e-05
0.005701 0.0011131 1e-05
0.00581518 0.00111327 1e-05
0.00592937 0.00111343 1e-05
0.00604356 0.00111359 1e-05
0.00615863 0.00111373 1e-05
0.00627371 0.00111387 1e-05
0.00638878 0.001114 1e-05
0.00650386 0.00111413 1e-05
0.00661893 0.00111424 1e-05
0.0067349 0.00111435 1e-05
0.00685087 0.00111445 1e-05
0.00696684 0.00111455 1e-05
0.00708281 0.00111463 1e-05
0.00719878 0.00111471 1e-05
0.00729881 0.00111477 1e-05
0.00739884 0.00111483 1e-05
0.00749886 0.00111488 1e-05
0.00759889 0.00111492 1e-05
0.00769412 0.00111496 1e-05
0.00771193 0.00111496 1e-05
0.00772973 0.00111497 1e-05
0.00774753 0.00111497 1e-05
0.00776533 0.00111498 1e-05
0.00778313 0.00111499 1e-05
0.00790091 0.00111502 1e-05
0.00801869 0.00111504 1e-05
0.00813647 0.00111506 1e-05
0.00825425 0.00111507 1e-05
0.00837203 0.00111507 1e-05
0.00849073 0.00111506 1e-05
0.00860942 0.00111504 1e-05
0.00872812 0.00111502 1e-05
0.00884682 0.00111499 1e-05
0.00896551 0.00111495 1e-05
0.00908513 0.00111489 1e-05
0.00920475 0.00111483 1e-05
0.00932437 0.00111477 1e-05
0.00944398 0.0011147 1e-05
0.0095636 0.00111462 1e-05
0.00968415 0.00111452 1e-05
0.0098047 0.00111442 1e-05
0.00992525 0.00111431 1e-05
0.0100458 0.00111419 1e-05
0.0101663 0.00111407 1e-05
0.0102878 0.00111393 1e-05
0.0104093 0.00111378 1e-05
0.0105308 0.00111363 1e-05
0.0106523 0.00111347 1e-05
0.0107738 0.0011133 1e-05
0.0108962 0.00111311 1e-05
0.0110186 0.00111293 1e-05
0.0111411 0.00111273 1e-05
0.0112635 0.00111253 1e-05
0.0113859 0.00111231 1e-05
0.0115093 0.00111208 1e-05
0.0116327 0.00111184 1e-05
0.0117561 0.0011116 1e-05
0.0118795 0.00111135 1e-05
0.0120028 0.00111109 1e-05
0.0121272 0.0011108 1e-05
0.0122515 0.00111052 1e-05
0.0123759 0.00111023 1e-05
0.0125002 0.00110994 1e-05
0.0126245 0.00110963 1e-05
0.0127498 0.0011093 1e-05
0.0128752 0.00110897 1e-05
0.0130005 0.00110863 1e-05
0.0131258 0.00110828 1e-05
0.0132511 0.00110793 1e-05
0.0133774 0.00110755 1e-05
0.0135036 0.00110717 1e-05
0.0136299 0.00110678 1e-05
0.0137562 0.00110638 1e-05
0.0138825 0.00110598 1e-05
0.0140098 0.00110555 1e-05
0.014137 0.00110512 1e-05
0.0142643 0.00110468 1e-05
0.0143915 0.00110423 1e-05
0.0145188 0.00110377 1e-05
0.0146471 0.00110329 1e-05
0.0147753 0.00110281 1e-05
0.0149036 0.00110232 1e-05
0.0150318 0.00110182 1e-05
0.0151601 0.00110131 1e-05
0.0152893 0.00110078 1e-05
0.0154186 0.00110025 1e-05
0.0155478 0.0010997 1e-05
0.0156771 0.00109915 1e-05
0.0158063 0.00109858 1e-05
0.0159366 0.00109801 1e-05
0.0160668 0.00109742 1e-05
0.0161971 0.00109682 1e-05
0.0163274 0.00109621 1e-05
0.0164576 0.0010956 1e-05
0.0165889 0.00109497 1e-05
0.0167201 0.00109433 1e-05
0.0168514 0.00109367 1e-05
0.0169827 0.00109301 1e-05
0.0171139 0.00109234 1e-05
0.0172462 0.00109166 1e-05
0.0173785 0.00109097 1e-05
0.0175108 0.00109026 1e-05
0.0176431 0.00108954 1e-05
0.0177754 0.00108882 1e-05
0.0179087 0.00108809 1e-05
0.018042 0.00108734 1e-05
0.0181753 0.00108658 1e-05
0.0183087 0.00108581 1e-05
0.018442 0.00108503 1e-05
0.0185763 0.00108425 1e-05
0.0187107 0.00108345 1e-05
0.018845 0.00108263 1e-05
0.0189794 0.0010818 1e-05
0.0191137 0.00108097 1e-05
0.0192491 0.00108013 1e-05
0.0193845 0.00107928 1e-05
0.0195199 0.0010784 1e-05
0.0196553 0.00107752 1e-05
0.0197907 0.00107663 1e-05
0.0199272 0.00107575 1e-05
0.0200636 0.00107484 1e-05
0.0202001 0.00107391 1e-05
0.0203365 0.00107296 1e-05
0.020473 0.00107203 1e-05
0.0206105 0.00107109 1e-05
0.020748 0.00107012 1e-05
0.0208855 0.00106914 1e-05
0.021023 0.00106814 1e-05
0.0211606 0.00106715 1e-05
0.0212991 0.00106616 1e-05
0.0214377 0.00106514 1e-05
0.0215763 0.00106409 1e-05
0.0217149 0.00106304 1e-05
0.0218535 0.001062 1e-05
0.0219931 0.00106095 1e-05
0.0221328 0.00105988 1e-05
0.0222724 0.00105878 1e-05
0.0224121 0.00105767 1e-05
0.0225517 0.00105657 1e-05
0.0226925 0.00105547 1e-05
0.0228332 0.00105434 1e-05
0.022974 0.00105318 1e-05
0.0231147 0.00105202 1e-05
0.0232555 0.00105086 1e-05
0.0233973 0.0010497 1e-05
0.0235391 0.00104852 1e-05
0.023681 0.00104731 1e-05
0.0238228 0.00104608 1e-05
0.0239647 0.00104487 1e-05
0.0241076 0.00104366 1e-05
0.0242505 0.00104242 1e-05
0.0243935 0.00104115 1e-05
0.0245364 0.00103987 1e-05
0.0246794 0.0010386 1e-05
0.0248234 0.00103733 1e-05
0.0249675 0.00103603 1e-05
0.0251115 0.0010347 1e-05
0.0252556 0.00103337 1e-05
[...]
POINT_DATA 12049
 FIELD attributes 2
p 1 12049 float
-5.37972 -5.3764 -5.37308 -5.36977 -5.36646 -5.36314
-5.53201 -5.53199 -5.53197 -5.53195 -5.53192 -5.5319
-5.70601 -5.70588 -5.70576 -5.70564 -5.70552 -5.70541
-5.79919 -5.79914 -5.79908 -5.79903 -5.79897 -5.79892
-5.84416 -5.84404 -5.84393 -5.84382 -5.84371 -5.84359
-5.85062 -5.85046 -5.8503 -5.85014 -5.84998 -5.84982
-5.82366 -5.82359 -5.82352 -5.82345 -5.82338 -5.8233
-5.75409 -5.75405 -5.75401 -5.75397 -5.75393 -5.75389
-5.63281 -5.63281 -5.63282 -5.63282 -5.63283 -5.63284
-3.42021 -3.43954 -3.45874 -3.47781 -3.49674 -3.51554
-5.37972 -5.37901 -5.37539 -5.37169 -5.36792 -5.35954 -5.37339 -5.38837 -5.40334 -5.41831 -5.44273 -5.4645 -5.49444 -5.52437 -5.55431 -5.58705 -5.60271 -5.62441 -5.64611 -5.66782 -5.69114 -5.71003 -5.73093 -5.75183 -5.77273 -5.79039 -5.79147 -5.79255 -5.79363 -5.7947 -5.79578 -5.81744 -5.83909 -5.86075 -5.88241 -5.9038 -5.92255 -5.94112 -5.95968 -5.97825 -5.99624 -6.01186 -6.02719 -6.04253 -6.05787 -6.07265 -6.08641 -6.09992 -6.11344 -6.12695 -6.14001 -6.1527 -6.16513 -6.17755 -6.18997 -6.20197 -6.21374 -6.2252 -6.23666 -6.24812 -6.25916 -6.27008 -6.28071 -6.29135 -6.30198 -6.31226 -6.32252 -6.3325 -6.34248 -6.35246 -6.36212 -6.37184 -6.38135 -6.39085 -6.40036 -6.40966 -6.41901 -6.42805 -6.43708 -6.44612 -6.45495 -6.46405 -6.47325 -6.48245 -6.49165 -6.50108 -6.51074 -6.52007 -6.52941 -6.53874 -6.54801 -6.55803 -6.56918 -6.58033 -6.59147 -6.60314 -6.614 -6.6261 -6.63819 -6.65029 -6.66197 -6.6726 -6.68288 -6.69316 -6.70344 -6.71272 -6.72063 -6.72936 -6.73809 -6.74682 -6.75615 -6.76458 -6.77331 -6.78205 -6.79078 -6.79958 -6.80796 -6.81528 -6.8226 -6.82992 -6.83631 -6.84328 -6.84893 -6.85457 -6.86021 -6.86473 -6.87055 -6.87529 -6.88003 -6.88478 -6.88854 -6.8935 -6.89755 -6.90161 -6.90566 -6.90891 -6.91289 -6.91613 -6.91937 -6.92261 -6.92526 -6.92827 -6.93073 -6.93319 -6.93566 -6.93776 -6.94008 -6.94204 -6.94401 -6.94598 -6.94775 -6.94975 -6.95153 -6.95331 -6.95509 -6.95677 -6.95859 -6.96028 -6.96196 -6.96365 -6.9653 -6.96673 -6.9681 -6.96947 -6.97084 -6.97215 -6.9724 -6.97264 -6.97289 -6.97313 -6.97339 -6.97494 -6.9765 -6.97806 -6.97963 -6.98137 -6.98274 -6.98431 -6.98589 -6.98746 -6.98944 -6.99062 -6.99225 -6.99388 -6.99551 -6.99786 -6.99885 -7.0006 -7.00236 -7.00411 -7.00693 -7.00774 -7.00962 -7.0115 -7.01338 -7.01668 -7.01727 -7.01925 -7.02123 -7.02321 -7.02695 -7.02735 -7.02943 -7.03152 -7.03361 -7.03779 -7.03806 -7.04028 -7.04249 -7.04471 -7.04931 -7.04949 -7.05184 -7.05419 -7.05655 -7.06149 -7.06163 -7.06411 -7.0666 -7.06908 -7.07433 -7.07446 -7.07708 -7.0797 -7.08243 -7.08781 -7.08821 -7.09075 -7.09351 -7.09664 -7.10194 -7.10268 -7.10514 -7.10803 -7.11152 -7.11672 -7.11782 -7.12023 -7.12326 -7.12705 -7.13216 -7.1336 -7.13601 -7.13916 -7.14321 -7.14822 -7.15 -7.15245 -7.15573 -7.15998 -7.16489 -7.16699 -7.16951 -7.17291 -7.17734 -7.18215 -7.18456 -7.18718 -7.1907 -7.19525 -7.19999 -7.20268 -7.20542 -7.20906 -7.21371 -7.21839 -7.22133 -7.22427 -7.22804 -7.23269 -7.23733 -7.24051 -7.24368 -7.24757 -7.25219 -7.25681 -7.26022 -7.26364 -7.26763 -7.27222 -7.27681 -7.28044 -7.28407 -7.28816 -7.29271 -7.29725 -7.30107 -7.30488 -7.30904 -7.31354 -7.31804 -7.322 -7.32596 -7.33017 -7.33465 -7.33913 -7.3432 -7.34727 -7.35155 -7.35604 -7.36052 -7.36468 -7.36885 -7.3732 -7.3777 -7.3822 -7.38643 -7.39069 -7.39508 -7.39958 -7.4041 -7.40838 -7.4127 -7.41712 -7.42163 -7.42617 -7.43048 -7.43486 -7.43931 -7.44382 -7.44839 -7.45273 -7.45715 -7.46162 -7.46614 -7.47072 -7.47507 -7.47952 -7.48401 -7.48852 -7.4931 -7.49746 -7.50193 -7.50642 -7.51092 -7.5155 -7.51985 -7.52433 -7.52881 -7.53329 -7.53785 -7.5422 -7.54666 -7.55111 -7.55557 -7.56009 -7.56442 -7.56885 -7.57327 -7.57769 -7.58215 -7.58646 -7.59084 -7.59521 -7.59958 -7.60398 -7.60825 -7.61256 -7.61687 -7.62118 -7.6255 -7.62971 -7.63393 -7.63816 -7.64239 -7.64662 -7.64675 -7.64688 -7.64702 -7.64715 -7.64729 -7.65129 -7.6553 -7.65931 -7.66332 -7.66734 -7.67137 -7.6754 -7.67944 -7.68347 -7.68752 -7.69144 -7.69535 -7.69926 -7.70318 -7.70711 -7.7109 -7.71468 -7.71845 -7.72223 -7.72602 -7.72967 -7.73328 -7.73688 -7.74049 -7.7441 -7.74759 -7.75101 -7.75442 -7.75784 -7.76125 -7.76455 -7.76777 -7.77099 -7.77419 -7.77738 -7.78048 -7.78351 -7.78649 -7.78946 -7.7924 -7.79527 -7.79809 -7.80083 -7.80352 -7.8062 -7.80881 -7.81139 -7.81385 -7.81624 -7.81862 -7.82095 -7.82329 -7.82545 -7.8275 -7.82955 -7.83158 -7.8336 -7.83545 -7.83716 -7.83887 -7.84055 -7.84225 -7.84376 -7.84509 -7.84643 -7.84776 -7.84909 -7.85024 -7.85118 -7.85211 -7.85306 -7.854 -7.85478 -7.85529 -7.8558 -7.85633 -7.85683 -7.85716 -7.85728 -7.85734 -7.85742 -7.85743 -7.8573 -7.85701 -7.85659 -7.8562 -7.85567 -7.85505 -7.85434 -7.85341 -7.85253 -7.85142 -7.85028 -7.84914 -7.84767 -7.84623 -7.84454 -7.84285 -7.84116 -7.83922 -7.83715 -7.83488 -7.83261 -7.83035 -7.82793 -7.82518 -7.8223 -7.81943 -7.81656 -7.81364 -7.81193 -7.81019 -7.80844 -7.80669 -7.805 -7.80326 -7.80151 -7.79977 -7.79803 -7.79623 -7.79218 -7.78806 -7.78395 -7.77984 -7.77555 -7.77096 -7.76615 -7.76135 -7.75655 -7.75143 -7.74629 -7.74076 -7.73524 -7.72972 -7.72373 -7.71796 -7.71176 -7.70549 -7.69908 -7.69232 -7.68579 -7.679 -7.67197 -7.66461 -7.65706 -7.64974 -7.64235 -7.63452 -7.62618 -7.6178 -7.60967 -7.60155 -7.59286 -7.58364 -7.57441 -7.56544 -7.55648 -7.54695 -7.53685 -7.52674 -7.51691 -7.50708 -7.49668 -7.48567 -7.47467 -7.46394 -7.45304 -7.44168 -7.42998 -7.41805 -7.4064 -7.39434 -7.38204 -7.36963 -7.35673 -7.34415 -7.33087 -7.31759 -7.30432 -7.29059 -7.27677 -7.26249 -7.24821 -7.23394 -7.21949 -7.20947 -7.19925 -7.18904 -7.17883 -7.16909 -7.16396 -7.15883 -7.1537 -7.14857 -7.14336 -7.12723 -7.11103 -7.09483 -7.07864 -7.0621 -7.04518 -7.02792 -7.01066 -6.99341 -6.9755 -6.95767 -6.93943 -6.92108 -6.90244 -6.88342 -6.86449 -6.84544 -6.82599 -6.8059 -6.78573 -6.76569 -6.74565 -6.72498 -6.70365 -6.68233 -6.66114 -6.63995 -6.61809 -6.59558 -6.57308 -6.55072 -6.52811 -6.50497 -6.48157 -6.45787 -6.43432 -6.4101 -6.38575 -6.36141 -6.33659 -6.31154 -6.28595 -6.26037 -6.23479 -6.20913 -6.20322 -6.19721 -6.1912 -6.18519 -6.17928 -6.1585 -6.13773 -6.11697 -6.09621 -6.0752 -6.04738 -6.01937 -5.99138 -5.96339 -5.93481 -5.9059 -5.87669 -5.84742 -5.81783 -5.78791 -5.75771 -5.72748 -5.69688 -5.66565 -5.63442 -5.60292 -5.57143 -5.53939 -5.50683 -5.47427 -5.44146 -5.4085 -5.375 -5.34127 -5.30736 -5.27321 -5.23848 -5.20362 -5.16877 -5.1336 -5.10094 -5.06787 -5.0348 -5.00175 -4.97069 -4.96715 -4.96361 -4.96006 -4.95652 -4.95293 -4.91548 -4.87801 -4.84056 -4.80311 -4.7651 -4.72666 -4.68783 -4.64901 -4.60993 -4.57027 -4.53051 -4.49066 -4.45048 -4.40948 -4.36845 -4.32732 -4.2862 -4.24442 -4.20203 -4.15964 -4.11715 -4.07438 -4.03105 -3.98759 -3.94384 -3.89995 -3.85526 -3.81058 -3.76591 -3.72108 -3.70583 -3.69038 -3.67493 -3.65948 -3.64438 -3.61382 -3.58326 -3.55272 -3.52217 -3.49119 -3.44425 -3.39703 -3.34983 -3.30245 -3.25434 -3.20622 -3.15799 -3.10949 -3.06015 -3.01074 -2.96132 -2.91192 -2.86183 -2.81118 -2.76051 -2.70982 -2.65873 -2.60721 -2.55569 -2.50379 -2.45758 -2.4108 -2.36402 -2.31725 -2.27316 -2.26668 -2.26021 -2.25373 -2.24726 -2.24069 -2.18695 -2.13316 -2.07939 -2.02563 -1.97107 -1.91649 -1.86169 -1.80679 -1.7513 -1.69555 -1.63986 -1.58418 -1.52795 -1.4712 -1.4144 -1.35765 -1.30059 -1.24313 -1.18567 -1.12789 -1.08401 -1.03968 -0.995358 -0.951044 -0.908846 -0.89435 -0.879855 -0.865361 -0.850868 -0.836214 -0.777072 -0.71786 -0.658663 -0.599407 -0.539517 -0.479692 -0.41983 -0.35981 -0.29922 -0.238576 -0.177981 -0.117403 -0.0563217 0.00490144 0.0662272 0.127515 0.189213 0.250935 0.312643 0.374437 0.38141 0.388428 0.395445 0.402463 0.409432 0.464692 0.51994 0.575176 0.6304 0.686052 0.748683 0.811365 0.874077 0.937097 1.00025 1.06331 1.12636 1.18967 1.25308 1.31657 1.38 1.44361 1.50724 1.57085 1.63454 1.63918 1.64383 1.64848 1.65313 1.65776 1.71699 1.77622 1.83543 1.89463 1.95406 2.01803 2.08198 2.1459 2.20989 2.27397 2.33794 2.40189 2.46584 2.52974 2.59369 2.63996 2.68616 2.73236 2.77855 2.82302 2.84099 2.85897 2.87694 2.89492 2.91289 2.97666 3.04034 3.10402 3.16763 3.23127 3.29475 3.35822 3.42149 3.48458 3.54775 3.61078 3.6736 3.73632 3.79902 3.86175 3.8697 3.8776 3.8855 3.89339 3.90124 3.95573 4.01021 4.06467 4.11909 4.17334 4.23528 4.29718 4.35877 4.42004 4.48138 4.54253 4.6035 4.66415 4.72479 4.78526 4.80703 4.82863 4.8502 4.87176 4.89306 4.93152 4.96997 5.00843 5.04682 5.085 5.14441 5.20363 5.26271 5.32126 5.37985 5.43817 5.49636 5.55406 5.61169 5.66908 5.69655 5.72379 5.75094 5.77809 5.80498 5.83461 5.86423 5.89386 5.92342 5.95273 6.0088 6.06457 6.12024 6.17533 6.23036 6.28509 6.33976 6.39375 6.44758 6.50117 6.5303 6.55909 6.58777 6.61646 6.64506 6.66919 6.69331 6.71743 6.74146 6.76521 6.81728 6.86898 6.9206 6.97148 7.02223 7.07279 7.12324 7.17289 7.22245 7.27162 7.29399 7.31605 7.33799 7.35993 7.38199 7.40844 7.43489 7.46135 7.48767 7.51362 7.5612 7.60852 7.65563 7.70183 7.74798 7.79396 7.83969 7.88472 7.92976 7.9743 7.9902 8.00586 8.02142 8.03697 8.0527 8.08091 8.10912 8.13733 8.16538 8.19298 8.23584 8.27854 8.32086 8.36234 8.40376 8.44498 8.4859 8.52621 8.56653 8.6064 8.61966 8.63268 8.64563 8.65858 8.67175 8.69783 8.72391 8.74999 8.77594 8.80141 8.83952 8.87745 8.91508 8.95187 8.98859 9.0251 9.06141 9.09706 9.13268 9.16782 9.1847 9.20124 9.21772 9.23419 9.25122 9.26899 9.28675 9.30451 9.32221 9.33955 9.37302 9.40612 9.43917 9.47164 9.50386 9.5358 9.56775 9.59903 9.62986 9.66057 9.68894 9.7167 9.74439 9.77209 9.8021 9.80367 9.80523 9.8068 9.80836 9.80989 9.83861 9.8673 9.89598 9.92459 9.95255 9.98019 10.0078 10.035 10.0616 10.0881 10.1144 10.1405 10.1661 10.1916 10.2168 10.2393 10.2613 10.2833 10.3053 10.3294 10.3313 10.3332 10.3351 10.3371 10.3389 10.3623 10.3856 10.409 10.4323 10.4551 10.4775 10.4998 10.5219 10.5436 10.5651 10.5863 10.6076 10.6284 10.6488 10.6693 10.6893 10.7091 10.7288 10.7484 10.7678 10.7818 10.7956 10.8094 10.8231 10.8382 10.8428 10.8474 10.852 10.8566 10.8612 10.879 10.8968 10.9146 10.9324 10.9499 10.9671 10.984 11.0008 11.0175 11.034 11.0503 11.0665 11.0825 11.0984 11.1142 11.1297 11.1453 11.1603 11.1748 11.1891 11.2031 11.2179 11.2332 11.2485 11.2642 11.2787 11.2887 11.2987 11.3087 11.3165 11.3237 11.3344 11.345 11.3557 11.3703 11.3732 11.3762 11.3791 11.3821 11.3859 11.3992 11.4112 11.4232 11.4336 11.4286 11.4223 11.4167 11.4136 11.4155 11.4173 11.4182 11.4191 11.4189 11.4183 11.4174 11.4156 11.4121 11.4085 11.4049 11.401 11.4001 11.3991 11.3981 11.3971 11.3961 11.3908 11.3854 11.3799 11.3745 11.3685 11.36 11.3506 11.3411 11.3309 11.3202 11.3081 11.296 11.2825 11.2679 11.2532 11.2369 11.2201 11.2023 11.1841 11.1649 11.1436 11.121 11.0984 11.0757 11.0529 11.051 11.049 11.047 11.045 11.0429 11.0178 10.9926 10.9674 10.9422 10.9157 10.8844 10.8514 10.8182 10.7842 10.7492 10.7115 10.6738 10.6337 10.5916 10.5494 10.5043 10.4592 10.4118 10.3621 10.3121 10.2589 10.2039 10.1479 10.0919 10.0332 9.96995 9.9042 9.83841 9.77259 9.70648 9.70074 9.69481 9.68888 9.68295 9.67691 9.60725 9.53753 9.46775 9.39792 9.32602 9.24097 9.15209 9.06315 8.97314 8.87881 8.77924 8.67774 8.57371 8.46608 8.3574 8.24305 8.12864 8.00358 7.86858 7.73347 7.59178 7.45002 7.30658 7.16104 7.01533 6.86275 6.6949 6.50973 6.31774 6.10617 5.88527 5.69346 5.50168 5.30987 5.13219 4.92079 4.64253 4.36474 4.08742 3.7238 3.70854 3.69329 3.67803 3.66278 3.64437 3.39046 3.14149 2.89179 2.64141 2.51009 2.37112 1.95158 1.53792 0.975632 0