# vtk DataFile Version 2.0
track0
ASCII
DATASET POLYDATA
POINTS 12059 float
-0.0205 0.001 1e-05
-0.02052 0.000999985 1e-05
-0.02054 0.000999974 1e-05
-0.02056 0.000999965 1e-05
-0.02058 0.000999959 1e-05
-0.0206 0.000999956 1e-05
-0.0205 0.00367778 1e-05
-0.02052 0.00367778 1e-05
-0.02054 0.00367777 1e-05
-0.02056 0.00367777 1e-05
-0.02058 0.00367777 1e-05
-0.0206 0.00367777 1e-05
-0.0205 0.00635556 1e-05
-0.02052 0.00635555 1e-05
-0.02054 0.00635555 1e-05
-0.02056 0.00635555 1e-05
-0.02058 0.00635555 1e-05
-0.0206 0.00635555 1e-05
-0.0205 0.00903333 1e-05
-0.02052 0.00903333 1e-05
-0.02054 0.00903333 1e-05
-0.02056 0.00903333 1e-05
-0.02058 0.00903333 1e-05
-0.0206 0.00903333 1e-05
-0.0205 0.0117111 1e-05
-0.02052 0.0117111 1e-05
-0.02054 0.0117111 1e-05
-0.02056 0.0117111 1e-05
-0.02058 0.0117111 1e-05
-0.0206 0.0117111 1e-05
-0.0205 0.0143889 1e-05
-0.02052 0.0143889 1e-05
-0.02054 0.0143889 1e-05
-0.02056 0.0143889 1e-05
-0.02058 0.0143889 1e-05
-0.0206 0.0143889 1e-05
-0.0205 0.0170667 1e-05
-0.02052 0.0170667 1e-05
-0.02054 0.0170667 1e-05
-0.02056 0.0170667 1e-05
-0.02058 0.0170667 1e-05
-0.0206 0.0170667 1e-05
-0.0205 0.0197444 1e-05
-0.02052 0.0197444 1e-05
-0.02054 0.0197444 1e-05
-0.02056 0.0197444 1e-05
-0.02058 0.0197444 1e-05
-0.0206 0.0197444 1e-05
-0.0205 0.0224222 1e-05
-0.02052 0.0224222 1e-05
-0.02054 0.0224222 1e-05
-0.02056 0.0224222 1e-05
-0.02058 0.0224222 1e-05
-0.0206 0.0224222 1e-05
-0.0205 0.0251 1e-05
-0.02052 0.0250998 1e-05
-0.02054 0.0250997 1e-05
-0.02056 0.0250995 1e-05
-0.02058 0.0250995 1e-05
-0.0206 0.0250994 1e-05
-0.0205 0.001 1e-05
-0.0202034 0.00100022 1e-05
-0.0199069 0.00100067 1e-05
-0.0196103 0.00100133 1e-05
-0.0193137 0.00100219 1e-05
-0.0190172 0.00100326 1e-05
-0.0187132 0.00100467 1e-05
-0.0184093 0.00100589 1e-05
-0.0181054 0.00100711 1e-05
-0.0178015 0.00100832 1e-05
-0.0174976 0.00100954 1e-05
-0.0172058 0.00101083 1e-05
-0.016914 0.00101193 1e-05
-0.0166222 0.00101303 1e-05
-0.0163305 0.00101413 1e-05
-0.0160387 0.00101523 1e-05
-0.0157586 0.00101637 1e-05
-0.0154784 0.00101745 1e-05
-0.0151983 0.00101856 1e-05
-0.0149182 0.00101972 1e-05
-0.0146381 0.00102091 1e-05
-0.0143746 0.00102209 1e-05
-0.0141112 0.00102327 1e-05
-0.0138478 0.00102449 1e-05
-0.0135843 0.00102574 1e-05
-0.0133618 0.00102682 1e-05
-0.0133482 0.00102688 1e-05
-0.0133345 0.00102695 1e-05
-0.0133208 0.00102702 1e-05
-0.0133071 0.00102709 1e-05
-0.0132934 0.00102716 1e-05
-0.0130353 0.00102844 1e-05
-0.0127771 0.00102975 1e-05
-0.0125189 0.00103107 1e-05
-0.0122607 0.0010324 1e-05
-0.0120025 0.00103375 1e-05
-0.0117547 0.00103506 1e-05
-0.0115068 0.00103638 1e-05
-0.0112589 0.0010377 1e-05
-0.0110111 0.00103902 1e-05
-0.0107632 0.00104035 1e-05
-0.0105252 0.00104163 1e-05
-0.0102873 0.00104291 1e-05
-0.0100493 0.00104418 1e-05
-0.00981133 0.00104546 1e-05
-0.00957337 0.00104674 1e-05
-0.00934491 0.00104796 1e-05
-0.00911645 0.00104918 1e-05
-0.00888799 0.0010504 1e-05
-0.00865954 0.00105162 1e-05
-0.00843108 0.00105283 1e-05
-0.00821175 0.00105399 1e-05
-0.00799242 0.00105515 1e-05
-0.00777309 0.0010563 1e-05
-0.00755376 0.00105745 1e-05
-0.00733443 0.0010586 1e-05
-0.00712387 0.00105969 1e-05
-0.0069133 0.00106078 1e-05
-0.00670273 0.00106187 1e-05
-0.00649216 0.00106295 1e-05
-0.0062816 0.00106403 1e-05
-0.00607944 0.00106505 1e-05
-0.00587729 0.00106608 1e-05
-0.00567514 0.0010671 1e-05
-0.00547298 0.00106812 1e-05
-0.00527083 0.00106914 1e-05
-0.00507675 0.0010701 1e-05
-0.00488267 0.00107107 1e-05
-0.0046886 0.00107203 1e-05
-0.00449452 0.00107299 1e-05
-0.00430044 0.00107394 1e-05
-0.00411412 0.00107485 1e-05
-0.0039278 0.00107576 1e-05
-0.00374147 0.00107666 1e-05
-0.00355515 0.00107757 1e-05
-0.00336883 0.00107847 1e-05
-0.00318995 0.00107932 1e-05
-0.00301107 0.00108018 1e-05
-0.00283219 0.00108103 1e-05
-0.00265331 0.00108189 1e-05
-0.00247443 0.00108274 1e-05
-0.0023027 0.00108355 1e-05
-0.00213097 0.00108437 1e-05
-0.00195924 0.00108518 1e-05
-0.0017875 0.00108599 1e-05
-0.00161577 0.0010868 1e-05
-0.0014509 0.00108757 1e-05
-0.00128603 0.00108835 1e-05
-0.00112116 0.00108913 1e-05
-0.000956289 0.00108991 1e-05
-0.000791418 0.00109069 1e-05
-0.000633135 0.00109143 1e-05
-0.000474851 0.00109218 1e-05
-0.000316567 0.00109294 1e-05
-0.000158284 0.00109369 1e-05
0 0.00109444 1e-05
0.000105677 0.00109494 1e-05
0.000211355 0.00109544 1e-05
0.000317032 0.00109594 1e-05
0.00042271 0.00109644 1e-05
0.000528387 0.00109693 1e-05
0.000634886 0.00109742 1e-05
0.000741385 0.00109791 1e-05
0.000847885 0.0010984 1e-05
0.000954384 0.00109888 1e-05
0.00106088 0.00109936 1e-05
0.00116821 0.00109984 1e-05
0.00127554 0.00110031 1e-05
0.00138286 0.00110078 1e-05
0.00149019 0.00110124 1e-05
0.00159752 0.00110169 1e-05
0.00170568 0.00110214 1e-05
0.00181384 0.00110258 1e-05
0.001922 0.00110302 1e-05
0.00203016 0.00110344 1e-05
0.00213833 0.00110386 1e-05
0.00224733 0.00110427 1e-05
0.00235633 0.00110467 1e-05
0.00246533 0.00110507 1e-05
0.00257434 0.00110546 1e-05
0.00268334 0.00110583 1e-05
0.00279319 0.0011062 1e-05
0.00290304 0.00110657 1e-05
0.00301289 0.00110692 1e-05
0.00312274 0.00110727 1e-05
0.00323259 0.00110761 1e-05
0.00334329 0.00110794 1e-05
0.003454 0.00110827 1e-05
0.0035647 0.00110859 1e-05
0.0036754 0.0011089 1e-05
0.00378611 0.00110921 1e-05
0.00389767 0.0011095 1e-05
0.00400924 0.00110979 1e-05
0.0041208 0.00111008 1e-05
0.00423237 0.00111035 1e-05
0.00434393 0.00111062 1e-05
0.00445636 0.00111088 1e-05
0.00456879 0.00111113 1e-05
0.00468123 0.00111138 1e-05
0.00479366 0.00111162 1e-05
0.00490609 0.00111185 1e-05
0.0050194 0.00111207 1e-05
0.0051327 0.00111228 1e-05
0.00524601 0.00111249 1e-05
0.00535932 0.00111269 1e-05
0.00547262 0.00111288 1e-05
0.00558681 0.00111307 1e-05
0.005701 0.00111324 1e-05
0.00581518 0.00111342 1e-05
0.00592937 0.00111358 1e-05
0.00604356 0.00111373 1e-05
0.00615863 0.00111388 1e-05
0.00627371 0.00111402 1e-05
0.00638878 0.00111415 1e-05
0.00650386 0.00111428 1e-05
0.00661893 0.0011144 1e-05
0.0067349 0.00111451 1e-05
0.00685087 0.00111461 1e-05
0.00696684 0.00111471 1e-05
0.00708281 0.00111479 1e-05
0.00719878 0.00111487 1e-05
0.00730188 0.00111494 1e-05
0.00740499 0.00111499 1e-05
0.00750809 0.00111505 1e-05
0.00761119 0.00111509 1e-05
0.00770917 0.00111513 1e-05
0.00772397 0.00111514 1e-05
0.00773876 0.00111514 1e-05
0.00775355 0.00111514 1e-05
0.00776834 0.00111515 1e-05
0.00778313 0.00111515 1e-05
0.00790091 0.00111519 1e-05
0.00801869 0.00111521 1e-05
0.00813647 0.00111523 1e-05
0.00825425 0.00111524 1e-05
0.00837203 0.00111524 1e-05
0.00849073 0.00111523 1e-05
0.00860942 0.00111522 1e-05
0.00872812 0.00111519 1e-05
0.00884682 0.00111516 1e-05
0.00896551 0.00111512 1e-05
0.00908513 0.00111507 1e-05
0.00920475 0.00111501 1e-05
0.00932437 0.00111495 1e-05
0.00944398 0.00111488 1e-05
0.0095636 0.0011148 1e-05
0.00968415 0.0011147 1e-05
0.0098047 0.0011146 1e-05
0.00992525 0.00111449 1e-05
0.0100458 0.00111438 1e-05
0.0101663 0.00111425 1e-05
0.0102878 0.00111411 1e-05
0.0104093 0.00111397 1e-05
0.0105308 0.00111382 1e-05
0.0106523 0.00111366 1e-05
0.0107738 0.00111349 1e-05
0.0108962 0.0011133 1e-05
0.0110186 0.00111311 1e-05
0.0111411 0.00111291 1e-05
0.0112635 0.00111271 1e-05
0.0113859 0.0011125 1e-05
0.0115093 0.00111226 1e-05
0.0116327 0.00111203 1e-05
0.0117561 0.00111178 1e-05
0.0118795 0.00111153 1e-05
0.0120028 0.00111127 1e-05
0.0121272 0.00111099 1e-05
0.0122515 0.00111071 1e-05
0.0123759 0.00111042 1e-05
0.0125002 0.00111012 1e-05
0.0126245 0.00110981 1e-05
0.0127498 0.00110948 1e-05
0.0128752 0.00110914 1e-05
0.0130005 0.00110881 1e-05
0.0131258 0.00110846 1e-05
0.0132511 0.0011081 1e-05
0.0133774 0.00110772 1e-05
0.0135036 0.00110734 1e-05
0.0136299 0.00110695 1e-05
0.0137562 0.00110655 1e-05
0.0138825 0.00110614 1e-05
0.0140098 0.00110571 1e-05
0.014137 0.00110528 1e-05
0.0142643 0.00110484 1e-05
0.0143915 0.00110439 1e-05
0.0145188 0.00110393 1e-05
0.0146471 0.00110345 1e-05
0.0147753 0.00110296 1e-05
0.0149036 0.00110247 1e-05
0.0150318 0.00110197 1e-05
0.0151601 0.00110146 1e-05
0.0152893 0.00110093 1e-05
0.0154186 0.00110039 1e-05
0.0155478 0.00109984 1e-05
0.0156771 0.00109929 1e-05
0.0158063 0.00109872 1e-05
0.0159366 0.00109814 1e-05
0.0160668 0.00109755 1e-05
0.0161971 0.00109695 1e-05
0.0163274 0.00109634 1e-05
0.0164576 0.00109572 1e-05
0.0165889 0.00109509 1e-05
0.0167201 0.00109444 1e-05
0.0168514 0.00109379 1e-05
0.0169827 0.00109312 1e-05
0.0171139 0.00109245 1e-05
0.0172462 0.00109177 1e-05
0.0173785 0.00109107 1e-05
0.0175108 0.00109036 1e-05
0.0176431 0.00108964 1e-05
0.0177754 0.00108891 1e-05
0.0179087 0.00108818 1e-05
0.018042 0.00108742 1e-05
0.0181753 0.00108666 1e-05
0.0183087 0.00108588 1e-05
0.018442 0.0010851 1e-05
0.0185763 0.00108432 1e-05
0.0187107 0.00108351 1e-05
0.018845 0.00108269 1e-05
0.0189794 0.00108185 1e-05
0.0191137 0.00108102 1e-05
0.0192491 0.00108018 1e-05
0.0193845 0.00107932 1e-05
0.0195199 0.00107844 1e-05
0.0196553 0.00107755 1e-05
0.0197907 0.00107667 1e-05
0.0199272 0.00107578 1e-05
0.0200636 0.00107486 1e-05
0.0202001 0.00107393 1e-05
0.0203365 0.00107298 1e-05
0.020473 0.00107204 1e-05
0.0206105 0.00107109 1e-05
0.020748 0.00107013 1e-05
0.0208855 0.00106913 1e-05
0.021023 0.00106813 1e-05
0.0211606 0.00106714 1e-05
0.0212991 0.00106614 1e-05
0.0214377 0.00106512 1e-05
0.0215763 0.00106407 1e-05
0.0217149 0.00106301 1e-05
0.0218535 0.00106196 1e-05
0.0219931 0.00106091 1e-05
0.0221328 0.00105983 1e-05
0.0222724 0.00105873 1e-05
0.0224121 0.00105761 1e-05
0.0225517 0.00105651 1e-05
0.0226925 0.0010554 1e-05
0.0228332 0.00105427 1e-05
0.022974 0.00105311 1e-05
0.0231147 0.00105194 1e-05
0.0232555 0.00105078 1e-05
0.0233973 0.00104961 1e-05
0.0235391 0.00104842 1e-05
0.023681 0.00104721 1e-05
0.0238228 0.00104598 1e-05
0.0239647 0.00104476 1e-05
0.0241076 0.00104354 1e-05
0.0242505 0.0010423 1e-05
0.0243935 0.00104102 1e-05
0.0245364 0.00103974 1e-05
0.0246794 0.00103846 1e-05
0.0248234 0.00103719 1e-05
0.0249675 0.00103588 1e-05
0.0251115 0.00103455 1e-05
0.0252556 0.00103321 1e-05
[...]
POINT_DATA 12059
 FIELD attributes 2
p 1 12059 float
-5.75821 -5.7549 -5.75159 -5.74828 -5.74497 -5.74167
-5.9113 -5.91128 -5.91125 -5.91123 -5.91121 -5.91119
-6.08526 -6.08513 -6.08501 -6.08489 -6.08476 -6.08466
-6.17846 -6.17841 -6.17835 -6.1783 -6.17824 -6.17819
-6.22345 -6.22334 -6.22323 -6.22311 -6.223 -6.22289
-6.22994 -6.22978 -6.22962 -6.22946 -6.2293 -6.22914
-6.203 -6.20293 -6.20286 -6.20279 -6.20272 -6.20264
-6.13345 -6.13341 -6.13337 -6.13333 -6.13329 -6.13325
-6.01224 -6.01225 -6.01226 -6.01226 -6.01227 -6.01227
-3.79975 -3.81907 -3.83827 -3.85733 -3.87626 -3.89505
-5.75821 -5.75754 -5.75397 -5.75033 -5.7466 -5.73833 -5.75225 -5.76727 -5.7823 -5.79733 -5.8218 -5.84357 -5.87351 -5.90346 -5.9334 -5.96615 -5.98181 -6.00351 -6.02522 -6.04692 -6.07025 -6.08913 -6.11003 -6.13092 -6.15183 -6.16948 -6.17056 -6.17164 -6.17273 -6.17381 -6.17489 -6.19655 -6.2182 -6.23986 -6.26152 -6.2829 -6.30166 -6.32022 -6.33878 -6.35735 -6.37534 -6.39095 -6.40628 -6.42161 -6.43694 -6.45172 -6.46548 -6.47898 -6.49249 -6.506 -6.51905 -6.53173 -6.54415 -6.55656 -6.56898 -6.58096 -6.59272 -6.60417 -6.61562 -6.62706 -6.63809 -6.64899 -6.65961 -6.67023 -6.68085 -6.6911 -6.70135 -6.7113 -6.72126 -6.73122 -6.74085 -6.75054 -6.76002 -6.7695 -6.77897 -6.78824 -6.79756 -6.80656 -6.81556 -6.82456 -6.83335 -6.84241 -6.85157 -6.86072 -6.86988 -6.87926 -6.88889 -6.89817 -6.90746 -6.91675 -6.92599 -6.93602 -6.94723 -6.95844 -6.96964 -6.98141 -6.9924 -7.0047 -7.017 -7.02929 -7.04118 -7.05199 -7.06247 -7.07294 -7.08342 -7.09286 -7.10087 -7.10967 -7.11847 -7.12727 -7.13665 -7.1451 -7.15385 -7.16259 -7.17133 -7.18013 -7.18854 -7.19587 -7.20321 -7.21055 -7.21694 -7.22394 -7.2296 -7.23526 -7.24093 -7.24546 -7.25129 -7.25605 -7.2608 -7.26556 -7.26933 -7.27429 -7.27835 -7.2824 -7.28646 -7.2897 -7.29368 -7.29692 -7.30016 -7.3034 -7.30605 -7.30906 -7.31153 -7.31399 -7.31645 -7.31856 -7.32089 -7.32286 -7.32484 -7.32681 -7.3286 -7.33061 -7.3324 -7.3342 -7.33599 -7.33768 -7.33952 -7.34122 -7.34292 -7.34462 -7.34628 -7.34777 -7.3492 -7.35063 -7.35206 -7.35342 -7.35363 -7.35383 -7.35404 -7.35424 -7.35446 -7.35603 -7.35761 -7.35919 -7.36078 -7.36253 -7.36393 -7.36552 -7.36711 -7.3687 -7.3707 -7.3719 -7.37356 -7.37521 -7.37686 -7.37923 -7.38025 -7.38202 -7.3838 -7.38557 -7.38842 -7.38925 -7.39115 -7.39306 -7.39496 -7.39828 -7.3989 -7.4009 -7.40289 -7.40489 -7.40866 -7.40908 -7.41119 -7.41329 -7.41539 -7.4196 -7.41989 -7.42212 -7.42436 -7.42659 -7.4312 -7.4314 -7.43377 -7.43614 -7.4385 -7.44346 -7.44362 -7.44611 -7.44861 -7.45111 -7.45636 -7.45651 -7.45914 -7.46177 -7.46451 -7.46988 -7.4703 -7.47286 -7.47562 -7.47875 -7.48405 -7.48481 -7.48728 -7.49018 -7.49366 -7.49886 -7.49998 -7.5024 -7.50543 -7.50922 -7.51431 -7.51577 -7.51819 -7.52135 -7.52539 -7.53038 -7.53217 -7.53463 -7.53791 -7.54216 -7.54705 -7.54916 -7.55169 -7.55509 -7.5595 -7.56431 -7.56672 -7.56934 -7.57286 -7.5774 -7.58213 -7.58481 -7.58757 -7.5912 -7.59583 -7.6005 -7.60344 -7.60638 -7.61015 -7.61478 -7.61941 -7.62259 -7.62577 -7.62965 -7.63426 -7.63886 -7.64228 -7.64569 -7.64968 -7.65426 -7.65883 -7.66246 -7.6661 -7.67018 -7.6747 -7.67923 -7.68305 -7.68686 -7.69101 -7.6955 -7.69998 -7.70394 -7.7079 -7.71211 -7.71657 -7.72104 -7.72511 -7.72917 -7.73345 -7.73793 -7.7424 -7.74656 -7.75072 -7.75506 -7.75955 -7.76405 -7.76827 -7.77252 -7.77691 -7.78141 -7.78593 -7.7902 -7.79452 -7.79895 -7.80345 -7.80799 -7.8123 -7.81668 -7.82113 -7.82563 -7.83019 -7.83453 -7.83894 -7.84341 -7.84792 -7.85249 -7.85684 -7.86128 -7.86576 -7.87026 -7.87483 -7.87917 -7.88364 -7.88811 -7.89259 -7.89716 -7.90149 -7.90596 -7.91042 -7.91488 -7.91942 -7.92375 -7.92818 -7.93262 -7.93705 -7.94154 -7.94586 -7.95025 -7.95465 -7.95904 -7.96348 -7.96776 -7.9721 -7.97644 -7.98079 -7.98515 -7.98939 -7.99366 -7.99793 -8.00221 -8.00649 -8.01063 -8.01479 -8.01895 -8.02311 -8.02709 -8.02715 -8.02721 -8.02727 -8.02733 -8.0274 -8.03149 -8.03558 -8.03968 -8.04377 -8.04788 -8.05186 -8.05584 -8.05982 -8.06381 -8.06781 -8.07167 -8.07553 -8.07939 -8.08325 -8.08712 -8.09086 -8.09458 -8.0983 -8.10202 -8.10575 -8.10934 -8.11288 -8.11643 -8.11998 -8.12353 -8.12695 -8.1303 -8.13366 -8.13701 -8.14035 -8.14359 -8.14675 -8.1499 -8.15304 -8.15616 -8.1592 -8.16217 -8.16509 -8.168 -8.17088 -8.17368 -8.17644 -8.17911 -8.18175 -8.18436 -8.18691 -8.18944 -8.19184 -8.19417 -8.1965 -8.19877 -8.20105 -8.20316 -8.20516 -8.20716 -8.20914 -8.21111 -8.21291 -8.21458 -8.21624 -8.21789 -8.21953 -8.22101 -8.2223 -8.2236 -8.22489 -8.22619 -8.22731 -8.22822 -8.22913 -8.23005 -8.23097 -8.23172 -8.23222 -8.23271 -8.23323 -8.23371 -8.23403 -8.23415 -8.23421 -8.23429 -8.23429 -8.23416 -8.23389 -8.23347 -8.23309 -8.23257 -8.23196 -8.23128 -8.23036 -8.2295 -8.22841 -8.22729 -8.22617 -8.22474 -8.22332 -8.22166 -8.22001 -8.21836 -8.21647 -8.21442 -8.2122 -8.20998 -8.20776 -8.20539 -8.20269 -8.19986 -8.19705 -8.19423 -8.19138 -8.19018 -8.18896 -8.18773 -8.18651 -8.18531 -8.18312 -8.18093 -8.17874 -8.17655 -8.17429 -8.17032 -8.16627 -8.16222 -8.15818 -8.15394 -8.14945 -8.14471 -8.13998 -8.13526 -8.13019 -8.12515 -8.1197 -8.11425 -8.10879 -8.10286 -8.09717 -8.09107 -8.08488 -8.07851 -8.07182 -8.06537 -8.05868 -8.05171 -8.04439 -8.03689 -8.02965 -8.02236 -8.01459 -8.00626 -7.99792 -7.98986 -7.9818 -7.97316 -7.96396 -7.95475 -7.94584 -7.93693 -7.92743 -7.91733 -7.90723 -7.89743 -7.88764 -7.87721 -7.86621 -7.85518 -7.84447 -7.83353 -7.82215 -7.81045 -7.79846 -7.78681 -7.77466 -7.7623 -7.74988 -7.7369 -7.72421 -7.71084 -7.69747 -7.6841 -7.67031 -7.65632 -7.64191 -7.6275 -7.61309 -7.59855 -7.59162 -7.58454 -7.57747 -7.5704 -7.56356 -7.55518 -7.54681 -7.53843 -7.53006 -7.52155 -7.50526 -7.48882 -7.47239 -7.45597 -7.43911 -7.42199 -7.40444 -7.38689 -7.36928 -7.35102 -7.33289 -7.31438 -7.29568 -7.27657 -7.25713 -7.23783 -7.21848 -7.1986 -7.17794 -7.15728 -7.13679 -7.11631 -7.09512 -7.07322 -7.05132 -7.02961 -7.0079 -6.98538 -6.96227 -6.9391 -6.91614 -6.89277 -6.86895 -6.84495 -6.82049 -6.79625 -6.77112 -6.74599 -6.72086 -6.69533 -6.6713 -6.64681 -6.62233 -6.59786 -6.57499 -6.5727 -6.5704 -6.56811 -6.56582 -6.56349 -6.53579 -6.50808 -6.48037 -6.45267 -6.42458 -6.39582 -6.36673 -6.33766 -6.3085 -6.27872 -6.2487 -6.21843 -6.18796 -6.157 -6.12581 -6.09437 -6.06295 -6.03097 -5.99835 -5.96573 -5.93288 -5.90004 -5.86654 -5.83247 -5.7984 -5.76412 -5.72949 -5.69444 -5.65927 -5.62375 -5.58797 -5.55144 -5.51492 -5.47841 -5.44171 -5.42432 -5.40668 -5.38905 -5.37142 -5.35435 -5.33396 -5.31357 -5.29319 -5.2728 -5.25212 -5.21302 -5.1737 -5.1344 -5.09511 -5.05492 -5.01463 -4.97401 -4.93325 -4.89192 -4.85025 -4.80849 -4.76674 -4.72436 -4.68124 -4.63811 -4.59488 -4.55167 -4.50758 -4.46311 -4.41853 -4.37387 -4.32858 -4.28304 -4.23751 -4.19161 -4.15602 -4.11994 -4.08387 -4.04781 -4.01361 -4.00239 -3.99117 -3.97995 -3.96873 -3.95734 -3.90924 -3.86104 -3.81286 -3.76469 -3.71565 -3.66653 -3.61711 -3.56757 -3.51744 -3.46699 -3.41651 -3.36605 -3.31498 -3.26324 -3.21147 -3.15968 -3.10772 -3.0551 -3.00232 -2.9493 -2.89621 -2.84236 -2.78851 -2.73469 -2.68075 -2.67092 -2.66097 -2.65103 -2.64109 -2.63126 -2.58626 -2.54127 -2.49628 -2.45131 -2.40576 -2.35008 -2.29408 -2.23809 -2.18172 -2.12493 -2.06816 -2.01141 -1.95419 -1.89643 -1.83863 -1.78084 -1.7229 -1.66445 -1.60592 -1.54716 -1.49026 -1.43282 -1.3754 -1.318 -1.26407 -1.26144 -1.2588 -1.25616 -1.25352 -1.25086 -1.19074 -1.13062 -1.07052 -1.01043 -0.949744 -0.889066 -0.828309 -0.767477 -0.706214 -0.644826 -0.583462 -0.522116 -0.460441 -0.398568 -0.336635 -0.274698 -0.212517 -0.150277 -0.0880522 -0.0257371 -0.0105741 0.00464519 0.0198636 0.035081 0.0500801 0.0975541 0.145019 0.192474 0.23992 0.287622 0.35054 0.413443 0.47633 0.539345 0.602482 0.66558 0.72866 0.791808 0.854933 0.91813 0.981302 1.04451 1.10772 1.17092 1.23416 1.2443 1.25444 1.26458 1.27472 1.28477 1.33794 1.39111 1.44426 1.49741 1.55063 1.61393 1.67715 1.74028 1.80333 1.86645 1.9295 1.99253 2.05537 2.11809 2.18081 2.23144 2.28187 2.33227 2.38266 2.4312 2.44362 2.45605 2.46847 2.48089 2.49327 2.5555 2.61763 2.67974 2.74175 2.80365 2.86543 2.92718 2.9886 3.04971 3.11088 3.17194 3.23275 3.29336 3.35395 3.41444 3.42918 3.44382 3.45843 3.47304 3.48753 3.53297 3.57841 3.62385 3.66923 3.71437 3.7739 3.83328 3.89243 3.95107 4.00977 4.0683 4.12672 4.18465 4.24247 4.30005 4.33201 4.36368 4.39528 4.42688 4.45806 4.48353 4.509 4.53447 4.5599 4.58513 4.64158 4.69761 4.75365 4.80926 4.86472 4.91993 4.97513 5.02976 5.08392 5.13803 5.18113 5.22377 5.26629 5.30881 5.35099 5.36181 5.37264 5.38346 5.39427 5.40495 5.45747 5.50978 5.56208 5.61409 5.66567 5.71704 5.7684 5.81914 5.86922 5.91931 5.96922 6.0185 6.06759 6.11668 6.16573 6.16756 6.16936 6.17116 6.17296 6.17476 6.22106 6.26737 6.31368 6.35981 6.40526 6.45239 6.49952 6.54592 6.59162 6.6373 6.68291 6.72797 6.77266 6.81736 6.86182 6.86898 6.87602 6.88303 6.89003 6.89707 6.93367 6.97028 7.00689 7.04334 7.07918 7.12187 7.16455 7.20652 7.2478 7.28903 7.3302 7.37099 7.41126 7.45153 7.49136 7.50445 7.5173 7.53009 7.54288 7.55585 7.58212 7.6084 7.63468 7.66086 7.68656 7.72483 7.76285 7.80063 7.8376 7.8745 7.91128 7.94797 7.98394 8.01974 8.05517 8.07758 8.09956 8.12147 8.14338 8.16609 8.17871 8.19133 8.20395 8.21653 8.22887 8.26278 8.29635 8.32992 8.36309 8.39585 8.42849 8.46113 8.49318 8.52462 8.55601 8.58729 8.61806 8.64862 8.67919 8.70954 8.71576 8.72184 8.72792 8.73399 8.74016 8.76363 8.78711 8.81059 8.83404 8.85698 8.88577 8.91431 8.94269 8.97055 8.99827 9.02582 9.05337 9.08042 9.10702 9.13356 9.15993 9.18582 9.21163 9.23744 9.26309 9.26823 9.27327 9.27831 9.28334 9.28847 9.30834 9.32821 9.34808 9.36795 9.38742 9.41167 9.43564 9.45955 9.48315 9.50656 9.52978 9.553 9.57584 9.59829 9.62071 9.64295 9.66502 9.68686 9.70867 9.73016 9.74834 9.76625 9.78416 9.80207 9.82146 9.82423 9.82699 9.82976 9.83253 9.83527 9.85561 9.87592 9.89622 9.91651 9.93655 9.9563 9.9759 9.99542 10.0148 10.034 10.0531 10.0721 10.0909 10.1095 10.1281 10.1464 10.1648 10.183 10.2011 10.2191 10.2368 10.2545 10.2721 10.2898 10.3073 10.3173 10.3272 10.3372 10.3472 10.358 10.3651 10.3722 10.3792 10.3863 10.3934 10.4102 10.4268 10.4433 10.4599 10.4761 10.4922 10.5088 10.5255 10.543 10.5613 10.5793 10.5969 10.6092 10.6163 10.6233 10.6298 10.6364 10.6534 10.681 10.7085 10.7357 10.7582 10.7668 10.7728 10.7703 10.768 10.7704 10.773 10.7755 10.7784 10.7787 10.7791 10.7795 10.7798 10.7822 10.7892 10.796 10.8027 10.8092 10.8153 10.8208 10.8263 10.8303 10.833 10.8358 10.8378 10.8396 10.8412 10.8426 10.8436 10.8436 10.8432 10.8427 10.8423 10.8417 10.8417 10.8417 10.8417 10.8416 10.8415 10.8392 10.8366 10.8338 10.8309 10.8273 10.8226 10.8177 10.8116 10.8045 10.7974 10.789 10.7805 10.7708 10.7602 10.7491 10.7366 10.7227 10.7085 10.6944 10.6798 10.6763 10.6724 10.6686 10.6647 10.6607 10.6462 10.6316 10.617 10.6023 10.5866 10.5645 10.5403 10.516 10.4905 10.4641 10.4351 10.4061 10.3743 10.3401 10.3058 10.2687 10.2309 10.1904 10.1483 10.1047 10.0579 10.0068 9.95548 9.90409 9.85116 9.82998 9.80734 9.7847 9.76205 9.73746 9.69744 9.65739 9.61729 9.57716 9.53463 9.46049 9.3822 9.30381 9.22392 9.138 9.04693 8.95374 8.85659 8.75309 8.64867 8.53853 8.42832 8.30556 8.17061 8.03549 7.89365 7.75079 7.60392 7.45467 7.30365 7.14549 6.96026 6.76781 6.57541 6.36101 6.14104 5.93698 5.73282 5.52859 5.32677 5.27976 5.21928 5.15882 5.09838 5.03342 4.79401 4.55419 4.31399 4.0734 3.78222 3.42937 3.16467 2.89945 2.63375 2.54822 2.48193 2.1077 1.67674 0.955546 0