# vtk DataFile Version 2.0
track0
ASCII
DATASET POLYDATA
POINTS 12059 float
-0.0205 0.001 1e-05
-0.02052 0.000999985 1e-05
-0.02054 0.000999974 1e-05
-0.02056 0.000999965 1e-05
-0.02058 0.000999959 1e-05
-0.0206 0.000999956 1e-05
-0.0205 0.00367778 1e-05
-0.02052 0.00367778 1e-05
-0.02054 0.00367777 1e-05
-0.02056 0.00367777 1e-05
-0.02058 0.00367777 1e-05
-0.0206 0.00367777 1e-05
-0.0205 0.00635556 1e-05
-0.02052 0.00635555 1e-05
-0.02054 0.00635555 1e-05
-0.02056 0.00635555 1e-05
-0.02058 0.00635555 1e-05
-0.0206 0.00635555 1e-05
-0.0205 0.00903333 1e-05
-0.02052 0.00903333 1e-05
-0.02054 0.00903333 1e-05
-0.02056 0.00903333 1e-05
-0.02058 0.00903333 1e-05
-0.0206 0.00903333 1e-05
-0.0205 0.0117111 1e-05
-0.02052 0.0117111 1e-05
-0.02054 0.0117111 1e-05
-0.02056 0.0117111 1e-05
-0.02058 0.0117111 1e-05
-0.0206 0.0117111 1e-05
-0.0205 0.0143889 1e-05
-0.02052 0.0143889 1e-05
-0.02054 0.0143889 1e-05
-0.02056 0.0143889 1e-05
-0.02058 0.0143889 1e-05
-0.0206 0.0143889 1e-05
-0.0205 0.0170667 1e-05
-0.02052 0.0170667 1e-05
-0.02054 0.0170667 1e-05
-0.02056 0.0170667 1e-05
-0.02058 0.0170667 1e-05
-0.0206 0.0170667 1e-05
-0.0205 0.0197444 1e-05
-0.02052 0.0197444 1e-05
-0.02054 0.0197444 1e-05
-0.02056 0.0197444 1e-05
-0.02058 0.0197444 1e-05
-0.0206 0.0197444 1e-05
-0.0205 0.0224222 1e-05
-0.02052 0.0224222 1e-05
-0.02054 0.0224222 1e-05
-0.02056 0.0224222 1e-05
-0.02058 0.0224222 1e-05
-0.0206 0.0224222 1e-05
-0.0205 0.0251 1e-05
-0.02052 0.0250998 1e-05
-0.02054 0.0250997 1e-05
-0.02056 0.0250995 1e-05
-0.02058 0.0250995 1e-05
-0.0206 0.0250994 1e-05
-0.0205 0.001 1e-05
-0.0202034 0.00100022 1e-05
-0.0199069 0.00100067 1e-05
-0.0196103 0.00100133 1e-05
-0.0193137 0.00100219 1e-05
-0.0190172 0.00100326 1e-05
-0.0187132 0.00100467 1e-05
-0.0184093 0.00100589 1e-05
-0.0181054 0.00100711 1e-05
-0.0178015 0.00100832 1e-05
-0.0174976 0.00100954 1e-05
-0.0172058 0.00101083 1e-05
-0.016914 0.00101193 1e-05
-0.0166222 0.00101303 1e-05
-0.0163305 0.00101413 1e-05
-0.0160387 0.00101523 1e-05
-0.0157586 0.00101637 1e-05
-0.0154784 0.00101745 1e-05
-0.0151983 0.00101856 1e-05
-0.0149182 0.00101972 1e-05
-0.0146381 0.00102091 1e-05
-0.0143746 0.00102209 1e-05
-0.0141112 0.00102327 1e-05
-0.0138478 0.00102449 1e-05
-0.0135843 0.00102574 1e-05
-0.0133618 0.00102682 1e-05
-0.0133482 0.00102688 1e-05
-0.0133345 0.00102695 1e-05
-0.0133208 0.00102702 1e-05
-0.0133071 0.00102709 1e-05
-0.0132934 0.00102716 1e-05
-0.0130353 0.00102844 1e-05
-0.0127771 0.00102975 1e-05
-0.0125189 0.00103107 1e-05
-0.0122607 0.0010324 1e-05
-0.0120025 0.00103375 1e-05
-0.0117547 0.00103506 1e-05
-0.0115068 0.00103638 1e-05
-0.0112589 0.0010377 1e-05
-0.0110111 0.00103902 1e-05
-0.0107632 0.00104035 1e-05
-0.0105252 0.00104163 1e-05
-0.0102873 0.00104291 1e-05
-0.0100493 0.00104418 1e-05
-0.00981133 0.00104546 1e-05
-0.00957337 0.00104674 1e-05
-0.00934491 0.00104796 1e-05
-0.00911645 0.00104918 1e-05
-0.00888799 0.0010504 1e-05
-0.00865954 0.00105162 1e-05
-0.00843108 0.00105283 1e-05
-0.00821175 0.00105399 1e-05
-0.00799242 0.00105515 1e-05
-0.00777309 0.0010563 1e-05
-0.00755376 0.00105745 1e-05
-0.00733443 0.0010586 1e-05
-0.00712387 0.00105969 1e-05
-0.0069133 0.00106078 1e-05
-0.00670273 0.00106187 1e-05
-0.00649216 0.00106295 1e-05
-0.0062816 0.00106403 1e-05
-0.00607944 0.00106505 1e-05
-0.00587729 0.00106608 1e-05
-0.00567514 0.0010671 1e-05
-0.00547298 0.00106812 1e-05
-0.00527083 0.00106914 1e-05
-0.00507675 0.0010701 1e-05
-0.00488267 0.00107107 1e-05
-0.0046886 0.00107203 1e-05
-0.00449452 0.00107299 1e-05
-0.00430044 0.00107394 1e-05
-0.00411412 0.00107485 1e-05
-0.0039278 0.00107576 1e-05
-0.00374147 0.00107666 1e-05
-0.00355515 0.00107757 1e-05
-0.00336883 0.00107847 1e-05
-0.00318995 0.00107932 1e-05
-0.00301107 0.00108018 1e-05
-0.00283219 0.00108103 1e-05
-0.00265331 0.00108189 1e-05
-0.00247443 0.00108274 1e-05
-0.0023027 0.00108355 1e-05
-0.00213097 0.00108437 1e-05
-0.00195924 0.00108518 1e-05
-0.0017875 0.00108599 1e-05
-0.00161577 0.0010868 1e-05
-0.0014509 0.00108757 1e-05
-0.00128603 0.00108835 1e-05
-0.00112116 0.00108913 1e-05
-0.000956289 0.00108991 1e-05
-0.000791418 0.00109069 1e-05
-0.000633135 0.00109143 1e-05
-0.000474851 0.00109218 1e-05
-0.000316567 0.00109294 1e-05
-0.000158284 0.00109369 1e-05
0 0.00109444 1e-05
0.000105677 0.00109494 1e-05
0.000211355 0.00109544 1e-05
0.000317032 0.00109594 1e-05
0.00042271 0.00109644 1e-05
0.000528387 0.00109693 1e-05
0.000634886 0.00109742 1e-05
0.000741385 0.00109791 1e-05
0.000847885 0.0010984 1e-05
0.000954384 0.00109888 1e-05
0.00106088 0.00109936 1e-05
0.00116821 0.00109984 1e-05
0.00127554 0.00110031 1e-05
0.00138286 0.00110078 1e-05
0.00149019 0.00110124 1e-05
0.00159752 0.00110169 1e-05
0.00170568 0.00110214 1e-05
0.00181384 0.00110258 1e-05
0.001922 0.00110302 1e-05
0.00203016 0.00110344 1e-05
0.00213833 0.00110386 1e-05
0.00224733 0.00110427 1e-05
0.00235633 0.00110467 1e-05
0.00246533 0.00110507 1e-05
0.00257434 0.00110546 1e-05
0.00268334 0.00110583 1e-05
0.00279319 0.0011062 1e-05
0.00290304 0.00110657 1e-05
0.00301289 0.00110692 1e-05
0.00312274 0.00110727 1e-05
0.00323259 0.00110761 1e-05
0.00334329 0.00110794 1e-05
0.003454 0.00110827 1e-05
0.0035647 0.00110859 1e-05
0.0036754 0.0011089 1e-05
0.00378611 0.00110921 1e-05
0.00389767 0.0011095 1e-05
0.00400924 0.00110979 1e-05
0.0041208 0.00111008 1e-05
0.00423237 0.00111035 1e-05
0.00434393 0.00111062 1e-05
0.00445636 0.00111088 1e-05
0.00456879 0.00111113 1e-05
0.00468123 0.00111138 1e-05
0.00479366 0.00111162 1e-05
0.00490609 0.00111185 1e-05
0.0050194 0.00111207 1e-05
0.0051327 0.00111228 1e-05
0.00524601 0.00111249 1e-05
0.00535932 0.00111269 1e-05
0.00547262 0.00111288 1e-05
0.00558681 0.00111307 1e-05
0.005701 0.00111324 1e-05
0.00581518 0.00111342 1e-05
0.00592937 0.00111358 1e-05
0.00604356 0.00111373 1e-05
0.00615863 0.00111388 1e-05
0.00627371 0.00111402 1e-05
0.00638878 0.00111415 1e-05
0.00650386 0.00111428 1e-05
0.00661893 0.0011144 1e-05
0.0067349 0.00111451 1e-05
0.00685087 0.00111461 1e-05
0.00696684 0.00111471 1e-05
0.00708281 0.00111479 1e-05
0.00719878 0.00111487 1e-05
0.00730188 0.00111494 1e-05
0.00740499 0.00111499 1e-05
0.00750809 0.00111505 1e-05
0.00761119 0.00111509 1e-05
0.00770917 0.00111513 1e-05
0.00772397 0.00111514 1e-05
0.00773876 0.00111514 1e-05
0.00775355 0.00111514 1e-05
0.00776834 0.00111515 1e-05
0.00778313 0.00111515 1e-05
0.00790091 0.00111519 1e-05
0.00801869 0.00111521 1e-05
0.00813647 0.00111523 1e-05
0.00825425 0.00111524 1e-05
0.00837203 0.00111524 1e-05
0.00849073 0.00111523 1e-05
0.00860942 0.00111522 1e-05
0.00872812 0.00111519 1e-05
0.00884682 0.00111516 1e-05
0.00896551 0.00111512 1e-05
0.00908513 0.00111507 1e-05
0.00920475 0.00111501 1e-05
0.00932437 0.00111495 1e-05
0.00944398 0.00111488 1e-05
0.0095636 0.0011148 1e-05
0.00968415 0.0011147 1e-05
0.0098047 0.0011146 1e-05
0.00992525 0.00111449 1e-05
0.0100458 0.00111438 1e-05
0.0101663 0.00111425 1e-05
0.0102878 0.00111411 1e-05
0.0104093 0.00111397 1e-05
0.0105308 0.00111382 1e-05
0.0106523 0.00111366 1e-05
0.0107738 0.00111349 1e-05
0.0108962 0.0011133 1e-05
0.0110186 0.00111311 1e-05
0.0111411 0.00111291 1e-05
0.0112635 0.00111271 1e-05
0.0113859 0.0011125 1e-05
0.0115093 0.00111226 1e-05
0.0116327 0.00111203 1e-05
0.0117561 0.00111178 1e-05
0.0118795 0.00111153 1e-05
0.0120028 0.00111127 1e-05
0.0121272 0.00111099 1e-05
0.0122515 0.00111071 1e-05
0.0123759 0.00111042 1e-05
0.0125002 0.00111012 1e-05
0.0126245 0.00110981 1e-05
0.0127498 0.00110948 1e-05
0.0128752 0.00110914 1e-05
0.0130005 0.00110881 1e-05
0.0131258 0.00110846 1e-05
0.0132511 0.0011081 1e-05
0.0133774 0.00110772 1e-05
0.0135036 0.00110734 1e-05
0.0136299 0.00110695 1e-05
0.0137562 0.00110655 1e-05
0.0138825 0.00110614 1e-05
0.0140098 0.00110571 1e-05
0.014137 0.00110528 1e-05
0.0142643 0.00110484 1e-05
0.0143915 0.00110439 1e-05
0.0145188 0.00110393 1e-05
0.0146471 0.00110345 1e-05
0.0147753 0.00110296 1e-05
0.0149036 0.00110247 1e-05
0.0150318 0.00110197 1e-05
0.0151601 0.00110146 1e-05
0.0152893 0.00110093 1e-05
0.0154186 0.00110039 1e-05
0.0155478 0.00109984 1e-05
0.0156771 0.00109929 1e-05
0.0158063 0.00109872 1e-05
0.0159366 0.00109814 1e-05
0.0160668 0.00109755 1e-05
0.0161971 0.00109695 1e-05
0.0163274 0.00109634 1e-05
0.0164576 0.00109572 1e-05
0.0165889 0.00109509 1e-05
0.0167201 0.00109444 1e-05
0.0168514 0.00109379 1e-05
0.0169827 0.00109312 1e-05
0.0171139 0.00109245 1e-05
0.0172462 0.00109177 1e-05
0.0173785 0.00109107 1e-05
0.0175108 0.00109036 1e-05
0.0176431 0.00108964 1e-05
0.0177754 0.00108891 1e-05
0.0179087 0.00108818 1e-05
0.018042 0.00108742 1e-05
0.0181753 0.00108666 1e-05
0.0183087 0.00108588 1e-05
0.018442 0.0010851 1e-05
0.0185763 0.00108432 1e-05
0.0187107 0.00108351 1e-05
0.018845 0.00108269 1e-05
0.0189794 0.00108185 1e-05
0.0191137 0.00108102 1e-05
0.0192491 0.00108018 1e-05
0.0193845 0.00107932 1e-05
0.0195199 0.00107844 1e-05
0.0196553 0.00107755 1e-05
0.0197907 0.00107667 1e-05
0.0199272 0.00107578 1e-05
0.0200636 0.00107486 1e-05
0.0202001 0.00107393 1e-05
0.0203365 0.00107298 1e-05
0.020473 0.00107204 1e-05
0.0206105 0.00107109 1e-05
0.020748 0.00107013 1e-05
0.0208855 0.00106913 1e-05
0.021023 0.00106813 1e-05
0.0211606 0.00106714 1e-05
0.0212991 0.00106614 1e-05
0.0214377 0.00106512 1e-05
0.0215763 0.00106407 1e-05
0.0217149 0.00106301 1e-05
0.0218535 0.00106196 1e-05
0.0219931 0.00106091 1e-05
0.0221328 0.00105983 1e-05
0.0222724 0.00105873 1e-05
0.0224121 0.00105761 1e-05
0.0225517 0.00105651 1e-05
0.0226925 0.0010554 1e-05
0.0228332 0.00105427 1e-05
0.022974 0.00105311 1e-05
0.0231147 0.00105194 1e-05
0.0232555 0.00105078 1e-05
0.0233973 0.00104961 1e-05
0.0235391 0.00104842 1e-05
0.023681 0.00104721 1e-05
0.0238228 0.00104598 1e-05
0.0239647 0.00104476 1e-05
0.0241076 0.00104354 1e-05
0.0242505 0.0010423 1e-05
0.0243935 0.00104102 1e-05
0.0245364 0.00103974 1e-05
0.0246794 0.00103846 1e-05
0.0248234 0.00103719 1e-05
0.0249675 0.00103588 1e-05
0.0251115 0.00103455 1e-05
0.0252556 0.00103321 1e-05
[...]
POINT_DATA 12059
 FIELD attributes 1
U 3 12059 float
10.0004 	0.00734828 	0 10.0004 	0.00587863 	0 10.0003 	0.00440897 	0 10.0002 	0.00293931 	0 10.0001 	0.00146966 	0 10 	0 	0
10.0001 	0.000878611 	0 10 	0.000702889 	0 10 	0.000527166 	0 10 	0.000351444 	0 10 	0.000175722 	0 10 	0 	0
10.0001 	0.00046667 	0 10.0001 	0.000373146 	0 10.0001 	0.000279622 	0 10 	0.000186098 	0 10 	9.25739e-05 	0 10 	0 	0
10 	0.000266923 	0 10 	0.000213538 	0 10 	0.000160154 	0 10 	0.000106769 	0 10 	5.33845e-05 	0 10 	0 	0
10 	8.12971e-05 	0 10 	6.50377e-05 	0 10 	4.87783e-05 	0 10 	3.25189e-05 	0 10 	1.62594e-05 	0 10 	0 	0
10 	-2.54064e-05 	0 10 	-2.03251e-05 	0 10 	-1.52438e-05 	0 10 	-1.01626e-05 	0 10 	-5.08128e-06 	0 10 	0 	0
10 	-0.000215518 	0 10 	-0.000172414 	0 10 	-0.000129311 	0 10 	-8.6207e-05 	0 10 	-4.31035e-05 	0 10 	0 	0
10 	-0.000377269 	0 10 	-0.000301815 	0 10 	-0.000226361 	0 10 	-0.000150908 	0 10 	-7.54538e-05 	0 10 	0 	0
9.99999 	-0.00042626 	0 9.99999 	-0.000341008 	0 9.99999 	-0.000255756 	0 10 	-0.000170504 	0 10 	-8.52519e-05 	0 10 	0 	0
9.17387 	0.0871273 	0 9.1308 	0.0697018 	0 9.08741 	0.0522761 	0 9.04368 	0.0348501 	0 8.99963 	0.017424 	0 8.95524 	0 	0
10.0004 	0.00734828 	0 10.0024 	0.0152068 	0 10.0045 	0.022229 	0 10.0065 	0.0292066 	0 10.0086 	0.0361401 	0 10.0136 	0.0463324 	0 10.0164 	0.0402135 	0 10.0208 	0.0401645 	0 10.0253 	0.0401156 	0 10.0297 	0.0400669 	0 10.0356 	0.0445258 	0 10.0385 	0.0378881 	0 10.0425 	0.0378453 	0 10.0464 	0.0378024 	0 10.0504 	0.0377594 	0 10.0545 	0.0408613 	0 10.0567 	0.0387843 	0 10.0591 	0.0400943 	0 10.0616 	0.0414059 	0 10.064 	0.0427191 	0 10.0662 	0.0451778 	0 10.0677 	0.0452893 	0 10.069 	0.0464919 	0 10.0704 	0.0476957 	0 10.0717 	0.0489005 	0 10.0728 	0.049919 	0 10.0729 	0.049982 	0 10.073 	0.0500451 	0 10.073 	0.0501082 	0 10.0731 	0.0501712 	0 10.0732 	0.0502248 	0 10.0737 	0.0508524 	0 10.0742 	0.0514739 	0 10.0747 	0.052096 	0 10.0753 	0.0527186 	0 10.0757 	0.0531771 	0 10.0756 	0.0534738 	0 10.0753 	0.053665 	0 10.0749 	0.0538564 	0 10.0746 	0.0540478 	0 10.074 	0.0540009 	0 10.0736 	0.0541471 	0 10.0725 	0.054125 	0 10.0714 	0.0541029 	0 10.0703 	0.0540808 	0 10.0688 	0.0537895 	0 10.0684 	0.0538716 	0 10.0668 	0.0537398 	0 10.0651 	0.053608 	0 10.0635 	0.0534762 	0 10.061 	0.0530581 	0 10.061 	0.0531146 	0 10.0589 	0.0529225 	0 10.0569 	0.0527303 	0 10.0549 	0.0525381 	0 10.0513 	0.0520471 	0 10.0519 	0.0521036 	0 10.0496 	0.0518862 	0 10.0473 	0.0516688 	0 10.045 	0.0514513 	0 10.0404 	0.0509271 	0 10.0418 	0.051005 	0 10.0393 	0.0507845 	0 10.0368 	0.0505638 	0 10.0342 	0.0503432 	0 10.0285 	0.0498028 	0 10.0309 	0.0499097 	0 10.0283 	0.0497037 	0 10.0256 	0.0494976 	0 10.0229 	0.0492915 	0 10.016 	0.0487591 	0 10.0196 	0.0489068 	0 10.0169 	0.0487191 	0 10.0142 	0.0485313 	0 10.0114 	0.0483435 	0 10.0033 	0.0478121 	0 10.0081 	0.0480033 	0 10.0054 	0.047877 	0 10.0026 	0.0477506 	0 9.99988 	0.0476242 	0 9.9906 	0.0471663 	0 9.99677 	0.0474409 	0 9.99405 	0.0473441 	0 9.99133 	0.0472473 	0 9.98861 	0.0471504 	0 9.97813 	0.0466682 	0 9.98569 	0.0469815 	0 9.98308 	0.0470634 	0 9.98046 	0.0471455 	0 9.97784 	0.0472275 	0 9.96622 	0.0469808 	0 9.97531 	0.0474177 	9.89291e-22 9.97337 	0.0474334 	6.52619e-21 9.97144 	0.0474492 	1.20631e-20 9.9695 	0.047465 	1.75999e-20 9.95746 	0.0469935 	1.49018e-20 9.96787 	0.0472054 	1.03315e-19 9.96619 	0.0469711 	9.59549e-20 9.96452 	0.0467369 	8.85915e-20 9.96285 	0.0465026 	8.12251e-20 9.95062 	0.0458534 	-1.64321e-20 9.96093 	0.0457948 	-4.46038e-20 9.95929 	0.0454577 	-4.96127e-20 9.95766 	0.0451206 	-5.46197e-20 9.95602 	0.0447835 	-5.96248e-20 9.94394 	0.0441721 	-2.32848e-20 9.95379 	0.0439176 	-2.0509e-20 9.95194 	0.0432861 	-1.42587e-20 9.95008 	0.0426546 	-8.00888e-21 9.94822 	0.0420229 	-1.75961e-21 9.93625 	0.04118 	7.77853e-21 9.94569 	0.0408489 	-6.03505e-21 9.94358 	0.0399976 	-2.62976e-20 9.94147 	0.0391461 	-4.65624e-20 9.93935 	0.0382945 	-6.68296e-20 9.92739 	0.0371658 	-9.55431e-20 9.93628 	0.0369287 	-1.35789e-19 9.9338 	0.0360893 	-1.22337e-19 9.93132 	0.0352496 	-1.08878e-19 9.92883 	0.0344098 	-9.54093e-20 9.91681 	0.0331544 	-3.25003e-20 9.925 	0.0330417 	3.84941e-20 9.92211 	0.0322847 	5.31934e-20 9.91922 	0.0315273 	6.78823e-20 9.91631 	0.0307698 	8.25608e-20 9.9043 	0.0294937 	3.99988e-20 9.9117 	0.0294139 	-5.24273e-20 9.90841 	0.0286912 	-5.90632e-20 9.90511 	0.0279683 	-6.5683e-20 9.9018 	0.0272451 	-7.22868e-20 9.88988 	0.0259849 	-3.65054e-22 9.89638 	0.0258642 	6.76049e-20 9.89265 	0.0251493 	5.74166e-20 9.88891 	0.0244341 	4.72123e-20 9.88518 	0.0237186 	3.69921e-20 9.87342 	0.0225118 	-3.0789e-20 9.87883 	0.0223268 	-9.14337e-20 9.87462 	0.0216188 	-1.15573e-19 9.87042 	0.0209106 	-1.39707e-19 9.8662 	0.0202021 	-1.63835e-19 9.85472 	0.0190762 	-1.47914e-19 9.8588 	0.0188248 	-1.70202e-19 9.85411 	0.0181282 	-1.56689e-19 9.8494 	0.0174314 	-1.43171e-19 9.8447 	0.0167342 	-1.29648e-19 9.83365 	0.0157028 	-9.02642e-20 9.83615 	0.0153932 	-7.60169e-20 9.83096 	0.0147128 	-5.59205e-20 9.82577 	0.0140322 	-3.5826e-20 9.82056 	0.0133512 	-1.57334e-20 9.81019 	0.0124153 	2.3955e-21 9.8108 	0.0120401 	0 9.80514 	0.01137 	0 9.79946 	0.0106995 	0 9.79378 	0.0100288 	0 9.78438 	0.0091826 	0 9.78274 	0.00872702 	-1.77256e-20 9.7766 	0.00806207 	-3.83134e-20 9.77046 	0.0073968 	-5.89031e-20 9.7643 	0.0067312 	-7.94947e-20 9.75623 	0.00597734 	-1.00966e-19 9.75271 	0.00550299 	-1.0628e-19 9.74689 	0.00492143 	-1.06984e-19 9.74106 	0.0043396 	-1.07683e-19 9.73522 	0.00375749 	-1.08378e-19 9.72967 	0.00320404 	-1.09034e-19 9.72882 	0.00311999 	-1.09288e-19 9.72797 	0.00303594 	-1.09542e-19 9.72712 	0.00295188 	-1.09796e-19 9.72627 	0.00286782 	-1.10049e-19 9.72462 	0.00274704 	-1.10045e-19 9.71824 	0.00212359 	-7.95964e-20 9.7111 	0.00146631 	-4.79683e-20 9.70396 	0.000808615 	-1.63509e-20 9.69681 	0.000150508 	1.52559e-20 9.68249 	-0.000825896 	5.47898e-20 9.6815 	-0.00119253 	5.57879e-20 9.67393 	-0.00184589 	5.7016e-20 9.66635 	-0.00249971 	5.82416e-20 9.65876 	-0.00315398 	5.94648e-20 9.6378 	-0.00437783 	6.27533e-20 9.64206 	-0.00452028 	4.95056e-20 9.63407 	-0.00516971 	3.62554e-20 9.62608 	-0.00581964 	2.30039e-20 9.61807 	-0.00647005 	9.75106e-21 9.59081 	-0.00789517 	-1.08188e-21 9.60002 	-0.00785828 	-9.19418e-21 9.59164 	-0.00850444 	-2.1843e-20 9.58324 	-0.00915113 	-3.44906e-20 9.57484 	-0.00979836 	-4.71368e-20 9.54179 	-0.0113717 	-5.97988e-20 9.55553 	-0.0112068 	-6.00819e-20 9.54678 	-0.0118518 	-6.80683e-20 9.53803 	-0.0124974 	-7.60511e-20 9.52926 	-0.0131435 	-8.40304e-20 9.49104 	-0.0148084 	-1.03957e-19 9.50879 	-0.0145682 	-1.60811e-19 9.49971 	-0.0152122 	-1.50482e-19 9.49061 	-0.0158568 	-1.40169e-19 9.48151 	-0.0165019 	-1.2987e-19 9.4388 	-0.018197 	-4.50275e-20 9.46 	-0.0179317 	-2.90089e-20 9.45061 	-0.0185745 	-2.03916e-20 9.4412 	-0.019218 	-1.17735e-20 9.43178 	-0.0198621 	-3.15439e-21 9.38534 	-0.0215316 	0 9.40938 	-0.0212914 	0 9.39971 	-0.0219346 	0 9.39002 	-0.0225785 	0 9.38031 	-0.023223 	0 9.33089 	-0.0248148 	0 9.35718 	-0.0246501 	1.91407e-21 9.34725 	-0.0252948 	9.92364e-21 9.3373 	-0.0259403 	1.79323e-20 9.32734 	-0.0265865 	2.59401e-20 9.27568 	-0.0280484 	4.51896e-20 9.30364 	-0.0280078 	1.71459e-19 9.29348 	-0.0286535 	1.74653e-19 9.28331 	-0.0293 	1.77862e-19 9.27311 	-0.0299473 	1.81089e-19 9.21991 	-0.0312266 	4.53983e-20 9.24902 	-0.0313517 	2.44791e-20 9.23866 	-0.031997 	1.72967e-20 9.22827 	-0.0326431 	1.01133e-20 9.21619 	-0.0333056 	3.81986e-21 9.16379 	-0.0343419 	1.87993e-20 9.19039 	-0.0346927 	1.13786e-19 9.183 	-0.0353118 	1.23117e-19 9.17244 	-0.0359566 	1.24487e-19 9.15623 	-0.0366204 	1.10061e-19 9.10747 	-0.0373903 	4.28243e-21 9.13072 	-0.0379594 	-1.0809e-19 9.12676 	-0.0385873 	-1.39292e-19 9.11605 	-0.0392303 	-1.50393e-19 9.09643 	-0.0398439 	-1.39825e-19 9.05113 	-0.0403709 	-6.66206e-20 9.07125 	-0.0411364 	-1.93824e-19 9.07015 	-0.0418164 	-2.35565e-19 9.0593 	-0.0424574 	-2.38084e-19 9.03694 	-0.0429758 	-1.88848e-19 8.99492 	-0.0432838 	-5.10918e-20 9.01213 	-0.0442232 	-2.69247e-20 9.01338 	-0.0449922 	-1.19776e-20 9.00242 	-0.0456311 	-4.08156e-21 8.97793 	-0.0460164 	0 8.93896 	-0.0461303 	0 8.9535 	-0.047222 	0 8.95664 	-0.0481112 	0 8.9456 	-0.0487476 	0 8.91951 	-0.0489688 	2.1553e-21 8.88338 	-0.0489123 	5.75087e-21 8.89548 	-0.0501347 	2.32496e-21 8.9001 	-0.0511687 	0 8.88899 	-0.0518028 	0 8.86179 	-0.0518358 	2.58475e-21 8.82828 	-0.0516327 	6.18498e-21 8.83817 	-0.0529665 	2.75867e-21 8.84393 	-0.0541645 	1.39127e-21 8.83277 	-0.0547962 	8.53664e-21 8.80488 	-0.0546231 	2.65164e-20 8.77378 	-0.0542948 	4.65817e-20 8.78166 	-0.0557206 	1.82972e-19 8.78825 	-0.0570956 	3.10668e-19 8.77705 	-0.0577252 	3.1449e-19 8.74883 	-0.0573348 	1.83534e-19 8.71994 	-0.0569031 	4.71523e-20 8.72602 	-0.0584049 	2.73825e-20 8.73205 	-0.0599083 	7.61421e-21 8.72063 	-0.0604956 	2.97695e-22 8.69373 	-0.0599793 	3.75559e-21 8.66684 	-0.0594626 	7.21331e-21 8.67131 	-0.0610238 	3.93413e-21 8.67572 	-0.0625865 	6.55874e-22 8.66469 	-0.0631424 	2.36237e-21 8.63962 	-0.0625583 	-1.87517e-21 8.61457 	-0.0619739 	-6.11164e-21 8.61759 	-0.0635794 	-5.32759e-20 8.62057 	-0.0651865 	-1.00444e-19 8.60996 	-0.0657128 	-1.01923e-19 8.58656 	-0.0650802 	-5.87842e-20 8.56317 	-0.0644472 	-1.56433e-20 8.56492 	-0.0660949 	9.19491e-20 8.56662 	-0.0677443 	1.99535e-19 8.55648 	-0.0682428 	2.08795e-19 8.53458 	-0.0675676 	1.19158e-19 8.5127 	-0.0668919 	2.95204e-20 8.51333 	-0.0685695 	1.71489e-20 8.51391 	-0.0702488 	4.77349e-21 8.50426 	-0.0707197 	4.67357e-22 8.48372 	-0.0700138 	5.5047e-21 8.46319 	-0.0693074 	1.05439e-20 8.46284 	-0.070999 	4.48646e-21 8.46244 	-0.0726922 	-1.57679e-21 8.4533 	-0.0731366 	-2.24584e-20 8.43398 	-0.0724178 	-7.67272e-20 8.41467 	-0.0716985 	-1.30999e-19 8.41346 	-0.0733913 	-2.72926e-19 8.41219 	-0.0750857 	-4.14847e-19 8.40358 	-0.0755064 	-3.98222e-19 8.38535 	-0.0747915 	-2.3553e-19 8.36714 	-0.0740762 	-7.28394e-20 8.36517 	-0.0757631 	6.16084e-20 8.36302 	-0.0774281 	1.93633e-19 8.35462 	-0.0777982 	1.90992e-19 8.33782 	-0.0771525 	9.80825e-20 8.32061 	-0.0764528 	4.12361e-22 8.31796 	-0.0781303 	-9.64773e-20 8.31439 	-0.0796025 	-1.79564e-19 8.30612 	-0.0799808 	-1.89547e-19 8.2914 	-0.0795138 	-1.24191e-19 8.27508 	-0.0788359 	-4.0072e-20 8.27184 	-0.0805009 	-2.79395e-20 8.2671 	-0.0817814 	-1.59148e-20 8.25897 	-0.0821697 	-4.13397e-21 8.24605 	-0.0818842 	1.44671e-20 8.23055 	-0.081234 	3.67573e-20 8.22679 	-0.0828859 	1.30989e-20 8.22112 	-0.0839795 	-2.79449e-21 8.21311 	-0.0843799 	-9.05437e-21 8.20175 	-0.0842761 	-4.20274e-21 8.187 	-0.083658 	1.19755e-20 8.18277 	-0.0852967 	-6.00413e-21 8.17637 	-0.0862094 	-1.74071e-20 8.16848 	-0.0866235 	-2.42949e-20 8.15848 	-0.0866997 	-3.67771e-20 8.14441 	-0.0861166 	-6.01617e-20 8.13976 	-0.0877425 	5.7032e-20 8.1328 	-0.0884809 	8.92037e-20 8.12502 	-0.08891 	9.1724e-20 8.1162 	-0.0891633 	7.56703e-20 8.10275 	-0.0886176 	-2.46682e-20 8.09773 	-0.0902311 	7.42037e-20 8.09035 	-0.0908026 	8.78779e-20 8.08267 	-0.0912479 	9.12157e-20 8.07488 	-0.0916751 	9.28764e-20 8.06199 	-0.0911686 	1.06119e-20 8.05654 	-0.0927203 	-6.97777e-22 8.04897 	-0.0931829 	-4.75817e-22 8.04139 	-0.0936458 	-2.53882e-22 8.03379 	-0.094109 	-3.1972e-23 8.0221 	-0.093777 	1.83787e-20 8.0161 	-0.0951484 	0 8.00862 	-0.0956298 	0 8.00112 	-0.0961114 	0 7.9936 	-0.0965934 	0 7.98305 	-0.0964503 	1.49295e-20 7.97663 	-0.0976496 	0 7.96923 	-0.0981509 	0 7.96181 	-0.0986524 	0 7.95437 	-0.0991543 	0 7.94481 	-0.0991959 	0 7.93808 	-0.100231 	0 7.93075 	-0.100753 	0 7.92339 	-0.101276 	0 7.91602 	-0.101799 	0 7.90734 	-0.102021 	-7.32345e-21 7.90039 	-0.1029 	0 7.89312 	-0.103444 	0 7.88583 	-0.103988 	0 7.87851 	-0.104533 	0 7.87058 	-0.104931 	-7.33213e-21 7.86354 	-0.105658 	0 7.85637 	-0.106222 	0 7.84917 	-0.106786 	0 7.84195 	-0.10735 	0 7.83503 	-0.107891 	0 7.83492 	-0.107899 	0 7.83481 	-0.107907 	0 7.8347 	-0.107916 	0 7.83459 	-0.107924 	0 7.8345 	-0.10793 	0 7.82713 	-0.108525 	-1.03191e-20 7.81975 	-0.109118 	-2.06643e-20 7.81234 	-0.109711 	-3.10078e-20 7.80491 	-0.110305 	-4.13498e-20 7.79831 	-0.110733 	-5.16987e-20 7.79066 	-0.111501 	-4.9007e-20 7.78331 	-0.112119 	-4.82882e-20 7.77594 	-0.112737 	-4.75661e-20 7.76854 	-0.113356 	-4.68406e-20 7.7628 	-0.113652 	-5.00898e-20 7.75486 	-0.114589 	-3.88858e-20 7.74754 	-0.115233 	-2.76623e-20 7.74019 	-0.115878 	-1.6437e-20 7.73281 	-0.116523 	-5.20998e-21 7.7279 	-0.116693 	0 7.71967 	-0.117794 	-2.16353e-21 7.71236 	-0.118465 	-7.26948e-21 7.70503 	-0.119136 	-1.23745e-20 7.69767 	-0.119808 	-1.74786e-20 7.69356 	-0.119859 	-2.25506e-20 7.68503 	-0.12112 	-5.59065e-20 7.67774 	-0.121819 	-7.7e-20 7.67042 	-0.122519 	-9.80955e-20 7.66307 	-0.123218 	-1.19193e-19 7.65975 	-0.123157 	-1.05395e-19 7.6509 	-0.124577 	-7.88902e-20 7.64361 	-0.125306 	-6.6921e-20 7.63629 	-0.126035 	-5.4944e-20 7.62936 	-0.126688 	-4.64989e-20 7.62639 	-0.126598 	-7.23187e-20 7.61753 	-0.128048 	-8.7182e-20 7.60994 	-0.128933 	-7.3862e-20 7.60261 	-0.129694 	-5.42603e-20 7.5965 	-0.130226 	-3.01663e-20 7.59345 	-0.130187 	5.18893e-21 7.5846 	-0.13165 	9.73721e-21 7.57667 	-0.132706 	8.23112e-21 7.56933 	-0.133497 	2.81513e-21 7.564 	-0.133915 	0 7.56088 	-0.133928 	0 7.55203 	-0.135406 	0 7.54375 	-0.136627 	0 7.53639 	-0.137451 	0 7.53184 	-0.13776 	0 7.52862 	-0.137825 	0 7.51977 	-0.139319 	0 7.51113 	-0.140703 	-3.25418e-21 7.50374 	-0.14156 	-2.19518e-20 7.49994 	-0.141766 	-4.07227e-20 7.49662 	-0.141883 	-5.95035e-20 7.48776 	-0.143395 	-3.91197e-20 7.47884 	-0.144907 	-1.87286e-20 7.47168 	-0.145768 	4.09055e-21 7.46826 	-0.145937 	8.40839e-21 7.46483 	-0.146107 	1.27261e-20 7.45595 	-0.147638 	4.70297e-20 7.44702 	-0.149169 	8.13314e-20 7.44029 	-0.150057 	9.49726e-20 7.43676 	-0.150279 	7.9255e-20 7.43321 	-0.150501 	6.35352e-20 7.42431 	-0.152053 	3.80566e-20 7.41535 	-0.153605 	1.25684e-20 7.40904 	-0.154522 	4.98328e-21 7.40538 	-0.154796 	1.48136e-20 7.40171 	-0.155071 	2.4645e-20 7.39277 	-0.156645 	9.132e-20 7.38378 	-0.15822 	1.57998e-19 7.37787 	-0.159166 	1.58742e-19 7.37408 	-0.159493 	9.27953e-20 7.37028 	-0.15982 	2.6847e-20 7.3613 	-0.161418 	1.7921e-20 7.35226 	-0.163016 	8.99903e-21 7.34673 	-0.163994 	9.0756e-21 7.3428 	-0.164373 	1.86435e-20 7.33886 	-0.164753 	2.82128e-20 7.32983 	-0.166376 	9.3146e-20 7.32139 	-0.167887 	1.46229e-19 7.31593 	-0.168873 	1.4375e-19 7.31151 	-0.169441 	9.46909e-20 7.30741 	-0.169872 	3.05166e-20 7.29833 	-0.171521 	2.18812e-20 7.29065 	-0.172916 	1.31866e-20 7.28507 	-0.173942 	4.40345e-21 7.28014 	-0.174698 	0 7.27589 	-0.175181 	0 7.26674 	-0.176857 	0 7.25981 	-0.178141 	0 7.2541 	-0.179207 	0 7.24867 	-0.180149 	0 7.24424 	-0.180684 	0 7.23501 	-0.182388 	0 7.22881 	-0.183563 	0 7.22295 	-0.18467 	0 7.21707 	-0.185778 	0 7.21242 	-0.186383 	1.59577e-20 7.20356 	-0.188038 	1.19303e-21 7.1976 	-0.189186 	1.01912e-20 7.1916 	-0.190334 	1.9192e-20 7.18556 	-0.191482 	2.81954e-20 7.18037 	-0.19228 	4.02222e-20 7.17226 	-0.193822 	9.71443e-20 7.16614 	-0.195011 	1.01536e-19 7.15999 	-0.1962 	1.05903e-19 7.1538 	-0.197389 	1.10244e-19 7.14807 	-0.198378 	6.89816e-20 7.14067 	-0.19981 	1.01099e-19 7.13439 	-0.20104 	8.8389e-20 7.12808 	-0.20227 	7.56531e-20 7.12172 	-0.2035 	6.28915e-20 7.11545 	-0.204679 	4.20067e-20 7.11287 	-0.205183 	4.10187e-20 7.11059 	-0.205634 	4.12065e-20 7.10831 	-0.206085 	4.1395e-20 7.10602 	-0.206537 	4.15843e-20 7.10378 	-0.206978 	4.17699e-20 7.09946 	-0.207799 	4.08753e-20 7.09513 	-0.20862 	3.99782e-20 7.09078 	-0.209441 	3.90785e-20 7.08641 	-0.210262 	3.81763e-20 7.08281 	-0.210997 	3.96709e-20 7.07559 	-0.212394 	3.6386e-20 7.06877 	-0.213705 	3.53907e-20 7.0619 	-0.215016 	3.43892e-20 7.05499 	-0.216328 	3.33815e-20 7.05005 	-0.217421 	4.02865e-20 7.04193 	-0.218991 	4.51377e-20 7.03492 	-0.220344 	3.84377e-20 7.02786 	-0.221697 	3.17471e-20 7.02075 	-0.22305 	2.50658e-20 7.01687 	-0.224055 	2.76967e-21 7.00782 	-0.225797 	-2.81316e-22 7.00061 	-0.227191 	-1.85901e-22 6.99335 	-0.228585 	-9.04485e-23 6.98626 	-0.229956 	0 6.98322 	-0.230897 	0 6.97364 	-0.232733 	0 6.96578 	-0.234246 	-1.12912e-20 6.95831 	-0.235682 	-2.53235e-20 6.95232 	-0.236958 	-3.79716e-20 6.94905 	-0.237947 	-4.81279e-20 6.93926 	-0.239817 	-3.55829e-20 6.93041 	-0.241509 	-2.16031e-20 6.92272 	-0.242985 	-5.89266e-21 6.91783 	-0.244168 	4.31304e-21 6.91433 	-0.245204 	1.17724e-20 6.90432 	-0.247109 	5.36113e-21 6.89445 	-0.248978 	8.04485e-22 6.88652 	-0.250495 	1.50219e-20 6.88275 	-0.251584 	3.64453e-20 6.879 	-0.252666 	5.79804e-20 6.86877 	-0.254605 	3.54393e-20 6.85847 	-0.256544 	1.28939e-20 6.851 	-0.258077 	-9.75309e-22 6.84703 	-0.259205 	-4.36457e-21 6.84304 	-0.260333 	-7.75536e-21 6.83257 	-0.262306 	-6.02644e-20 6.82203 	-0.264279 	-1.12775e-19 6.81487 	-0.265857 	-1.20325e-19 6.81065 	-0.267029 	-7.90905e-20 6.80639 	-0.268202 	-3.7856e-20 6.79568 	-0.270209 	-7.983e-20 6.7849 	-0.272215 	-1.21812e-19 6.77819 	-0.273813 	-1.1668e-19 6.77355 	-0.275054 	-7.53378e-20 6.76902 	-0.276271 	-3.14767e-20 6.75806 	-0.278311 	-7.55881e-20 6.74844 	-0.280213 	-1.01591e-19 6.74152 	-0.281842 	-9.18904e-20 6.73571 	-0.283277 	-6.12011e-20 6.7309 	-0.284537 	-1.15082e-20 6.71968 	-0.28661 	-8.73207e-21 6.71128 	-0.288401 	-5.77114e-21 6.7041 	-0.290067 	-2.73017e-21 6.69708 	-0.291696 	0 6.69198 	-0.292998 	0 6.68075 	-0.295078 	0 6.67335 	-0.296782 	0 6.66588 	-0.298484 	0 6.65836 	-0.300187 	0 6.65223 	-0.301651 	0 6.64228 	-0.303613 	-1.4063e-21 6.63459 	-0.305352 	-4.61799e-21 6.62684 	-0.30709 	-7.83132e-21 6.61903 	-0.308828 	-1.10463e-20 6.61162 	-0.31049 	-1.1838e-20 6.60727 	-0.311371 	-2.13191e-20 6.60364 	-0.31218 	-1.97033e-20 6.6 	-0.31299 	-1.80823e-20 6.59634 	-0.3138 	-1.64563e-20 6.59279 	-0.314583 	-1.48781e-20 6.58812 	-0.315549 	-1.34052e-20 6.58344 	-0.316514 	-1.19266e-20 6.57873 	-0.31748 	-1.04425e-20 6.574 	-0.318445 	-8.95276e-21 6.56986 	-0.319334 	-1.55291e-20 6.56085 	-0.321218 	-7.21163e-21 6.55205 	-0.32302 	1.16212e-21 6.5432 	-0.324821 	9.53401e-21 6.53427 	-0.326621 	1.7904e-20 6.52701 	-0.328205 	2.40009e-20 6.5171 	-0.330274 	1.95388e-20 6.50797 	-0.332107 	2.09504e-20 6.49876 	-0.33394 	2.23525e-20 6.48975 	-0.335742 	2.49301e-20 6.48306 	-0.337249 	3.8661e-20 6.47257 	-0.339405 	4.63174e-20 6.46273 	-0.341366 	4.74277e-20 6.45317 	-0.34323 	4.52606e-20 6.44501 	-0.344918 	3.20773e-20 6.43799 	-0.346459 	9.73221e-21 6.42713 	-0.34864 	2.93413e-20 6.41631 	-0.350792 	4.62882e-20 6.40641 	-0.352683 	4.01265e-20 6.3991 	-0.354257 	1.10933e-20 6.39174 	-0.355831 	-1.79472e-20 6.3805 	-0.358036 	-1.07551e-20 6.36918 	-0.360241 	-3.56526e-21 6.35966 	-0.362147 	1.36728e-22 6.352 	-0.363752 	7.79206e-22 6.34428 	-0.365357 	1.42799e-21 6.33265 	-0.367586 	2.93602e-21 6.32094 	-0.369814 	4.45286e-21 6.31177 	-0.371739 	5.52977e-21 6.30365 	-0.373398 	1.04959e-20 6.29556 	-0.375032 	1.58392e-20 6.28354 	-0.377282 	1.15845e-20 6.27271 	-0.379386 	7.32514e-21 6.26324 	-0.381325 	3.0597e-21 6.25402 	-0.383186 	0 6.24555 	-0.384847 	0 6.23312 	-0.387118 	0 6.22329 	-0.389085 	0 6.21343 	-0.391046 	0 6.2035 	-0.393006 	0 6.1942 	-0.394795 	0 6.18351 	-0.396779 	2.01764e-21 6.1741 	-0.398613 	6.32144e-21 6.16462 	-0.400446 	1.06281e-20 6.15507 	-0.402278 	1.49376e-20 6.14608 	-0.403989 	1.89683e-20 6.14521 	-0.404162 	1.92877e-20 6.14434 	-0.404335 	1.96071e-20 6.14346 	-0.404507 	1.99264e-20 6.14259 	-0.40468 	2.02457e-20 6.14173 	-0.404838 	2.0988e-20 6.13169 	-0.406858 	2.49456e-20 6.12154 	-0.408861 	2.78499e-20 6.11132 	-0.410862 	3.07747e-20 6.10101 	-0.412864 	3.37202e-20 6.09079 	-0.414684 	2.43618e-20 6.08085 	-0.41691 	2.44852e-20 6.07028 	-0.418929 	1.84146e-20 6.05964 	-0.420947 	1.23577e-20 6.04896 	-0.422926 	4.90552e-21 6.03844 	-0.424632 	-1.24961e-20 6.02826 	-0.426943 	-4.06249e-20 6.0176 	-0.429099 	-5.29537e-20 6.00654 	-0.431131 	-5.2623e-20 5.99558 	-0.432951 	-3.69758e-20 5.98462 	-0.434672 	-1.42224e-20 5.97402 	-0.436991 	2.19944e-20 5.96332 	-0.439308 	5.8203e-20 5.95202 	-0.441323 	5.50753e-20 5.9407 	-0.443057 	1.39217e-2