/*--------------------------------*- C++ -*----------------------------------*\
| =========                 |                                                 |
| \\      /  F ield         | OpenFOAM: The Open Source CFD Toolbox           |
|  \\    /   O peration     | Version:  2312                                  |
|   \\  /    A nd           | Website:  www.openfoam.com                      |
|    \\/     M anipulation  |                                                 |
\*---------------------------------------------------------------------------*/
FoamFile
{
    version     2.0;
    format      ascii;
    arch        "LSB;label=64;scalar=64";
    class       volScalarField;
    location    "150";
    object      nut_ML_ND;
}
// * * * * * * * * * * * * * * * * * * * * * * * * * * * * * * * * * * * * * //

dimensions      [0 0 0 0 0 0 0];

internalField   nonuniform List<scalar> 
404911
(
0.354714
0.507521
0.305524
0.0739013
0.518241
0.524216
0.526916
0.116636
0.0916649
0.0751076
0.506247
0.503163
0.555031
0.501466
0.510034
0.0986516
0.491154
0.541395
0.520727
0.473956
0.442204
0.532345
0.430358
0.471858
0.570106
0.477447
0.529449
0.584111
0.578523
0.294381
0.540311
0.579084
0.54875
0.518097
0.520975
0.567006
0.499138
0.332215
0.506042
0.559504
0.508892
0.386512
0.513627
0.567987
0.564128
0.495162
0.358489
0.553757
0.536154
0.353928
0.277471
0.416888
0.479606
0.0935523
0.131871
0.0770022
0.0739033
0.50789
0.501768
0.48728
0.530054
0.576572
0.547063
0.58228
0.57792
0.562176
0.575312
0.548529
0.57317
0.580137
0.574211
0.586012
0.569201
0.579075
0.585676
0.528126
0.305121
0.543741
0.581198
0.571656
0.578657
0.56994
0.585481
0.572394
0.574877
0.577592
0.526266
0.579197
0.287217
0.568258
0.54037
0.0995591
0.576463
0.549133
0.562843
0.576972
0.572868
0.570715
0.580603
0.536919
0.350413
0.578104
0.567804
0.359095
0.43554
0.506329
0.533855
0.509741
0.534774
0.55691
0.562221
0.555869
0.553835
0.547948
0.291017
0.515953
0.55696
0.378229
0.504756
0.553514
0.552367
0.551869
0.548808
0.52483
0.472306
0.538546
0.557603
0.559884
0.562661
0.521546
0.527025
0.520724
0.555305
0.555563
0.553578
0.553005
0.542133
0.539643
0.540732
0.522853
0.490214
0.53964
0.561943
0.562902
0.556455
0.555219
0.55712
0.56354
0.524987
0.521038
0.555318
0.555877
0.55149
0.315891
0.520032
0.501218
0.550227
0.568543
0.567755
0.559299
0.554921
0.550018
0.551077
0.553258
0.555992
0.556634
0.554565
0.554821
0.545988
0.532148
0.531364
0.518125
0.519799
0.524272
0.528225
0.524154
0.474129
0.554563
0.551252
0.551399
0.551225
0.551829
0.552063
0.554496
0.548885
0.543542
0.549309
0.50998
0.525542
0.522976
0.522302
0.530393
0.533763
0.526765
0.488199
0.559095
0.556461
0.555576
0.554434
0.556463
0.556563
0.549179
0.419699
0.498614
0.552415
0.521058
0.532835
0.537692
0.537289
0.532045
0.521385
0.534883
0.532132
0.529785
0.525187
0.561515
0.557963
0.558254
0.560817
0.554566
0.51995
0.504
0.509936
0.538631
0.559481
0.572705
0.560053
0.541465
0.534825
0.547941
0.539175
0.548769
0.549627
0.5642
0.558837
0.559784
0.555342
0.534186
0.441741
0.42905
0.537216
0.576051
0.56418
0.572335
0.574345
0.57323
0.570794
0.559759
0.548972
0.546159
0.5687
0.569442
0.53555
0.519123
0.560138
0.553058
0.457557
0.510447
0.561187
0.575127
0.554426
0.573402
0.574737
0.575868
0.576427
0.576048
0.574427
0.573182
0.571411
0.539105
0.528184
0.523503
0.515542
0.518284
0.513777
0.547928
0.564345
0.53276
0.571142
0.573739
0.573988
0.573465
0.572995
0.575622
0.576687
0.575219
0.555312
0.524227
0.514199
0.513193
0.362351
0.527153
0.56546
0.56562
0.572344
0.57182
0.572535
0.575325
0.575727
0.572617
0.566161
0.569921
0.572489
0.575796
0.559491
0.525154
0.513944
0.54033
0.473506
0.499291
0.497129
0.534199
0.56149
0.575365
0.579767
0.573237
0.573435
0.575058
0.574979
0.573327
0.568717
0.572747
0.574458
0.572297
0.525392
0.562821
0.510372
0.488879
0.547155
0.573882
0.563706
0.574332
0.573276
0.56493
0.581536
0.573176
0.574532
0.572954
0.578722
0.579172
0.572473
0.573681
0.572995
0.526492
0.540105
0.512653
0.568732
0.578813
0.580664
0.579947
0.574384
0.574921
0.570925
0.581795
0.578613
0.582998
0.583494
0.578637
0.573856
0.564363
0.553874
0.553037
0.491821
0.49363
0.541123
0.569667
0.574857
0.582938
0.584566
0.58153
0.57735
0.580564
0.579195
0.583401
0.575748
0.578583
0.575969
0.571595
0.571638
0.493407
0.474657
0.533946
0.576193
0.57394
0.570738
0.573027
0.581637
0.578424
0.582224
0.585032
0.584479
0.583854
0.578789
0.57779
0.574547
0.572456
0.5721
0.534401
0.502432
0.495036
0.499651
0.523923
0.575476
0.570291
0.579951
0.578174
0.579578
0.583414
0.58462
0.585427
0.584655
0.58329
0.578533
0.562594
0.562304
0.567342
0.516089
0.527172
0.577
0.572801
0.578281
0.579943
0.581501
0.580993
0.580429
0.582401
0.579812
0.581961
0.585402
0.584276
0.58099
0.581229
0.573184
0.532093
0.503832
0.571788
0.585723
0.5787
0.582711
0.579933
0.582346
0.583211
0.579491
0.576758
0.577301
0.578329
0.580083
0.582132
0.581884
0.573331
0.570634
0.530542
0.526537
0.581378
0.578021
0.581352
0.583389
0.583529
0.580376
0.58323
0.58316
0.580298
0.576649
0.578321
0.581338
0.577364
0.580246
0.571552
0.568584
0.495515
0.554423
0.583635
0.585271
0.585845
0.585397
0.585262
0.582952
0.575892
0.585136
0.585038
0.58074
0.579423
0.575591
0.575577
0.570854
0.569322
0.537887
0.463439
0.518574
0.569908
0.581623
0.584408
0.584892
0.585294
0.582811
0.583635
0.585077
0.583881
0.583421
0.584127
0.58232
0.579518
0.553256
0.576925
0.558292
0.472137
0.486061
0.551671
0.581148
0.576223
0.582891
0.584601
0.584477
0.585075
0.58549
0.583871
0.585723
0.58289
0.582534
0.582207
0.581313
0.579396
0.563617
0.524801
0.516675
0.573735
0.581015
0.583744
0.584533
0.584642
0.584711
0.584668
0.58269
0.585719
0.585727
0.585502
0.581499
0.57978
0.576699
0.571262
0.560326
0.453975
0.489007
0.552939
0.583934
0.584691
0.58433
0.584951
0.585001
0.58471
0.584677
0.584617
0.581519
0.583901
0.583718
0.584709
0.580806
0.579831
0.56625
0.537839
0.498477
0.579387
0.585525
0.585375
0.584653
0.585
0.585108
0.58496
0.584907
0.584914
0.585039
0.585109
0.58526
0.584891
0.582361
0.574102
0.556537
0.523621
0.555927
0.588337
0.586082
0.584764
0.584499
0.584991
0.584885
0.585006
0.585043
0.585032
0.585081
0.584991
0.584654
0.583928
0.581317
0.575941
0.564944
0.514402
0.562174
0.584691
0.586805
0.58512
0.584524
0.585382
0.585709
0.585163
0.584406
0.584682
0.585072
0.584996
0.584532
0.582289
0.580182
0.575555
0.542753
0.432231
0.496813
0.575133
0.588557
0.586879
0.584728
0.585419
0.585228
0.585727
0.584317
0.584372
0.58359
0.58331
0.584241
0.584261
0.581717
0.573599
0.564798
0.521051
0.502895
0.578211
0.586493
0.587251
0.586341
0.585528
0.58537
0.585226
0.585604
0.584666
0.58557
0.584409
0.583284
0.58263
0.581457
0.571977
0.561381
0.432942
0.546536
0.581717
0.58428
0.585846
0.585976
0.585063
0.584821
0.585085
0.584685
0.584968
0.58562
0.585726
0.584794
0.582976
0.576224
0.575296
0.558003
0.401498
0.549449
0.583668
0.586277
0.585733
0.585787
0.58387
0.583902
0.585517
0.585161
0.584803
0.584503
0.584705
0.584306
0.582645
0.577972
0.571938
0.532074
0.497205
0.566532
0.583788
0.585297
0.585797
0.58572
0.585643
0.583489
0.584395
0.585737
0.585331
0.585098
0.584693
0.583913
0.581691
0.572638
0.564471
0.519507
0.523015
0.578533
0.58222
0.581771
0.585096
0.586182
0.585935
0.585774
0.584017
0.584633
0.585595
0.584727
0.584927
0.584385
0.582028
0.57467
0.557383
0.379854
0.546116
0.583631
0.586493
0.585186
0.585665
0.586024
0.584647
0.58512
0.584574
0.585705
0.584755
0.585715
0.585752
0.5843
0.582208
0.572999
0.541512
0.368255
0.496715
0.571544
0.585754
0.585449
0.585036
0.585182
0.58566
0.584272
0.585456
0.585512
0.5852
0.585624
0.584907
0.584584
0.58502
0.580405
0.574321
0.534522
0.497512
0.576329
0.586405
0.586317
0.585108
0.584982
0.584791
0.585514
0.584188
0.585182
0.585542
0.585717
0.58573
0.58539
0.583746
0.580041
0.56812
0.519796
0.497911
0.577869
0.586773
0.586488
0.584961
0.584386
0.584712
0.584901
0.585464
0.585738
0.584582
0.585696
0.585727
0.585819
0.582385
0.576954
0.563277
0.396742
0.497052
0.578002
0.586676
0.586248
0.585024
0.583813
0.584061
0.584658
0.585199
0.585336
0.585742
0.585516
0.585426
0.584456
0.582662
0.571376
0.54094
0.374081
0.551234
0.583815
0.584989
0.585017
0.584567
0.584156
0.583808
0.584142
0.584984
0.585782
0.585706
0.585745
0.58572
0.582878
0.582016
0.572691
0.534005
0.495616
0.558134
0.587461
0.58823
0.584691
0.584198
0.584284
0.584198
0.58426
0.584258
0.585059
0.585708
0.585748
0.585198
0.584914
0.582955
0.575357
0.537724
0.49695
0.577641
0.587368
0.585033
0.584934
0.583911
0.584275
0.584828
0.584788
0.584557
0.584348
0.584295
0.585413
0.58352
0.582868
0.581164
0.573544
0.53692
0.500008
0.578694
0.587414
0.58811
0.586448
0.584713
0.584255
0.585322
0.584457
0.584345
0.584998
0.585058
0.584515
0.584276
0.583522
0.581524
0.578321
0.53494
0.49888
0.577904
0.586821
0.587467
0.586741
0.585601
0.584699
0.58458
0.585454
0.584949
0.585337
0.585183
0.585314
0.584922
0.584137
0.580809
0.577464
0.533951
0.497015
0.577482
0.586
0.586534
0.586313
0.585743
0.58524
0.58499
0.58492
0.585227
0.585659
0.585927
0.585655
0.585252
0.583681
0.581805
0.57422
0.526106
0.499239
0.577985
0.585346
0.585781
0.585712
0.585453
0.585413
0.585318
0.585282
0.585169
0.585065
0.585329
0.585281
0.584953
0.583403
0.578216
0.56701
0.487552
0.544863
0.57813
0.584523
0.585052
0.585375
0.585252
0.585178
0.585557
0.585611
0.585576
0.58542
0.585286
0.585158
0.584872
0.583316
0.578591
0.564972
0.450017
0.542863
0.577721
0.583497
0.584847
0.585536
0.585385
0.585614
0.585806
0.585385
0.585011
0.585716
0.585469
0.585311
0.585022
0.583199
0.578255
0.564769
0.438596
0.48263
0.560334
0.577159
0.581432
0.584031
0.583609
0.584717
0.584875
0.585034
0.584559
0.584768
0.584437
0.585502
0.585614
0.585179
0.583126
0.575332
0.561768
0.434527
0.490645
0.568202
0.581139
0.576926
0.582555
0.584753
0.583645
0.585722
0.583737
0.583466
0.583502
0.583128
0.584317
0.585535
0.584873
0.582735
0.57378
0.542679
0.565721
0.57923
0.583745
0.584925
0.585106
0.58523
0.585823
0.580991
0.581496
0.582465
0.581951
0.583585
0.586112
0.585052
0.580668
0.575608
0.536835
0.439006
0.558096
0.577509
0.583333
0.58506
0.585314
0.585319
0.585542
0.58563
0.58438
0.580443
0.579901
0.583886
0.586064
0.584568
0.579183
0.572438
0.524695
0.381736
0.55628
0.57307
0.582812
0.584912
0.58507
0.58541
0.58559
0.585652
0.585502
0.584353
0.581838
0.58357
0.58598
0.585461
0.580626
0.569946
0.519182
0.369839
0.55304
0.567523
0.581337
0.584668
0.585054
0.585455
0.585854
0.585084
0.585564
0.585517
0.585542
0.585682
0.586158
0.58454
0.580403
0.568496
0.453756
0.563075
0.564839
0.580194
0.584204
0.585073
0.585289
0.585746
0.584483
0.585031
0.58557
0.585825
0.585923
0.5858
0.583544
0.577173
0.561657
0.410216
0.381491
0.563464
0.582019
0.583945
0.584935
0.585275
0.585509
0.585783
0.584035
0.584364
0.585302
0.585659
0.585037
0.582388
0.575436
0.559169
0.381622
0.314628
0.523674
0.574474
0.58061
0.585035
0.584887
0.585293
0.585699
0.585657
0.585763
0.584981
0.585672
0.585995
0.584934
0.580694
0.574702
0.555848
0.367894
0.516333
0.575001
0.576791
0.58272
0.585834
0.585345
0.585267
0.585874
0.584906
0.58562
0.585738
0.585793
0.585915
0.585134
0.57976
0.571504
0.531877
0.522386
0.547453
0.577246
0.584155
0.585998
0.585867
0.584717
0.585662
0.585736
0.585611
0.585053
0.585445
0.585145
0.583588
0.578225
0.567675
0.52544
0.369947
0.536067
0.571825
0.578417
0.580664
0.582811
0.584144
0.584742
0.585815
0.585526
0.584062
0.583737
0.585563
0.585885
0.582826
0.575448
0.561192
0.385424
0.460735
0.55747
0.569867
0.581969
0.581768
0.583048
0.576123
0.580819
0.585875
0.582928
0.585298
0.585676
0.58536
0.585112
0.58095
0.570428
0.556675
0.364403
0.496362
0.574272
0.565346
0.577787
0.583028
0.584476
0.585302
0.582171
0.577422
0.585748
0.584336
0.585565
0.585517
0.58483
0.581754
0.567349
0.558289
0.376915
0.512571
0.577915
0.576257
0.581498
0.58484
0.585506
0.585647
0.584704
0.585779
0.582182
0.585855
0.585466
0.584541
0.584076
0.582634
0.574964
0.561994
0.390897
0.490572
0.551433
0.581514
0.58114
0.581467
0.585632
0.583616
0.577219
0.584668
0.584405
0.585342
0.584881
0.584207
0.583468
0.585105
0.580085
0.572951
0.517922
0.394741
0.50322
0.580932
0.576219
0.582159
0.582397
0.585638
0.578015
0.563497
0.573343
0.585589
0.584273
0.585747
0.585209
0.584954
0.583716
0.581149
0.573877
0.551087
0.378978
0.567785
0.585351
0.583815
0.583829
0.585697
0.57679
0.564109
0.568019
0.579163
0.585738
0.58571
0.585372
0.58372
0.582049
0.576386
0.573421
0.534522
0.364152
0.56207
0.587748
0.584409
0.583678
0.585379
0.567946
0.567323
0.579083
0.579512
0.584913
0.585595
0.584825
0.58392
0.582352
0.577439
0.570586
0.526401
0.559298
0.587034
0.586271
0.583034
0.585669
0.572576
0.562073
0.573079
0.58352
0.583775
0.585726
0.585706
0.583968
0.582724
0.576864
0.567158
0.517649
0.556154
0.56957
0.583706
0.583745
0.58594
0.568314
0.562184
0.568762
0.576869
0.583341
0.585592
0.585775
0.585071
0.581874
0.578688
0.565786
0.434891
0.493322
0.574011
0.581092
0.583308
0.584717
0.58578
0.578352
0.566119
0.574023
0.580895
0.585496
0.585675
0.584794
0.584225
0.58243
0.572115
0.558711
0.39639
0.498347
0.576776
0.579392
0.582458
0.583413
0.585648
0.56966
0.569617
0.5768
0.58447
0.585781
0.584551
0.582614
0.5842
0.581085
0.576931
0.537823
0.505112
0.587498
0.589726
0.585067
0.584077
0.585784
0.575783
0.566349
0.574011
0.58412
0.585627
0.58472
0.585594
0.584163
0.581263
0.574529
0.528422
0.510673
0.590373
0.591427
0.587019
0.583857
0.585769
0.569802
0.572457
0.582825
0.585608
0.585604
0.584644
0.585807
0.584546
0.581207
0.572185
0.529176
0.512382
0.591535
0.5914
0.586561
0.58394
0.585356
0.574522
0.573827
0.581931
0.585732
0.585327
0.584685
0.585684
0.583921
0.580158
0.570842
0.484314
0.512002
0.589746
0.589183
0.586844
0.584125
0.58459
0.585775
0.580135
0.581617
0.585616
0.584738
0.584085
0.585362
0.583222
0.576956
0.564189
0.454749
0.56799
0.58873
0.581914
0.583683
0.584758
0.585736
0.585395
0.585763
0.58568
0.585571
0.584552
0.585355
0.584641
0.581802
0.574879
0.559878
0.409979
0.547789
0.548968
0.581638
0.58566
0.584353
0.572338
0.580372
0.585769
0.585299
0.584651
0.585258
0.583133
0.578242
0.559857
0.545576
0.394198
0.545385
0.578089
0.575014
0.584863
0.572433
0.568529
0.574596
0.584966
0.585612
0.584968
0.583338
0.582843
0.578939
0.567621
0.526628
0.564907
0.57072
0.579321
0.577144
0.580688
0.573913
0.568897
0.576246
0.583843
0.585777
0.584951
0.585143
0.582154
0.574749
0.564471
0.51827
0.559934
0.588152
0.584194
0.575152
0.575854
0.585575
0.575591
0.578546
0.585716
0.585186
0.584355
0.581906
0.579618
0.572827
0.561616
0.405489
0.552556
0.584669
0.582673
0.577236
0.57441
0.574274
0.583221
0.585086
0.584783
0.583758
0.583126
0.579373
0.575433
0.564327
0.556243
0.397901
0.499601
0.554095
0.577325
0.581917
0.576423
0.572809
0.575317
0.577798
0.579497
0.573627
0.571662
0.574423
0.579473
0.573543
0.560738
0.506666
0.499752
0.567192
0.579796
0.575568
0.582877
0.575893
0.575983
0.578228
0.5836
0.58139
0.577435
0.575028
0.572104
0.567139
0.518089
0.551353
0.504368
0.567651
0.572281
0.567694
0.582452
0.577156
0.580086
0.579947
0.581163
0.581921
0.575195
0.572697
0.572611
0.572255
0.518334
0.492609
0.541537
0.576905
0.526194
0.564275
0.573669
0.583769
0.582108
0.583805
0.584183
0.582845
0.577098
0.575566
0.573016
0.564933
0.533545
0.323661
0.533157
0.517668
0.541758
0.575579
0.5726
0.577533
0.581166
0.576995
0.576084
0.577913
0.579387
0.575894
0.57391
0.569294
0.545913
0.508781
0.45564
0.506508
0.535034
0.570787
0.576607
0.576386
0.58066
0.581324
0.578143
0.57572
0.573563
0.566487
0.562299
0.569841
0.541783
0.427527
0.556879
0.513855
0.556262
0.574883
0.578476
0.580341
0.578195
0.576027
0.575709
0.575833
0.575302
0.574403
0.568289
0.561618
0.474104
0.445552
0.552808
0.566515
0.517147
0.548005
0.576148
0.582323
0.580314
0.576334
0.575567
0.573446
0.572017
0.57284
0.576756
0.539322
0.496281
0.518302
0.55946
0.564767
0.493435
0.525111
0.570882
0.579148
0.578419
0.57623
0.574987
0.574658
0.563845
0.578797
0.572995
0.535939
0.43207
0.523025
0.513124
0.525786
0.544318
0.576377
0.577394
0.575927
0.572273
0.571435
0.552022
0.574667
0.561471
0.484666
0.431811
0.514793
0.51957
0.525384
0.539622
0.533352
0.574777
0.575925
0.573807
0.562291
0.578612
0.574038
0.535174
0.397042
0.557703
0.564441
0.521933
0.524369
0.563018
0.536542
0.526436
0.574837
0.573675
0.564631
0.578554
0.566314
0.527258
0.366179
0.550723
0.562925
0.522676
0.511802
0.536749
0.564585
0.545984
0.536064
0.538848
0.542873
0.579189
0.567477
0.484778
0.36187
0.550322
0.518745
0.524332
0.516447
0.521843
0.553776
0.54969
0.561015
0.529085
0.514951
0.580033
0.569963
0.487762
0.354829
0.545728
0.523666
0.505425
0.514038
0.511208
0.542895
0.566668
0.574619
0.55561
0.525378
0.582931
0.554666
0.492044
0.354783
0.543679
0.552906
0.488097
0.511967
0.494211
0.484453
0.554385
0.567186
0.542365
0.581011
0.584496
0.557753
0.489713
0.326031
0.338143
0.547443
0.558418
0.51535
0.517293
0.491442
0.511232
0.54636
0.520416
0.510915
0.587563
0.561827
0.561374
0.518054
0.524258
0.525862
0.574034
0.533005
0.524814
0.528389
0.548909
0.559093
0.565645
0.522655
0.509762
0.580627
0.587091
0.579447
0.510608
0.0748654
0.521655
0.563918
0.524862
0.5216
0.582751
0.567175
0.38597
0.365035
0.450337
0.433062
0.574096
0.578912
0.502183
0.470821
0.366864
0.571829
0.577983
0.537678
0.355196
0.476861
0.543635
0.570864
0.578025
0.50568
0.352512
0.547917
0.17878
0.360344
0.550596
0.522535
0.556869
0.558004
0.550994
0.553082
0.540488
0.534271
0.549257
0.533518
0.525621
0.503375
0.351645
0.0757755
0.519846
0.530501
0.682488
0.71388
0.529028
0.60101
0.641059
0.673061
0.68947
0.707211
0.711217
0.712777
0.704472
0.521366
0.57168
0.600222
0.614676
0.626666
0.639081
0.659531
0.672711
0.676648
0.690278
0.692904
0.694723
0.691188
0.685093
0.666009
0.517243
0.563424
0.592879
0.596842
0.598932
0.603973
0.611012
0.621893
0.641298
0.665936
0.658994
0.65098
0.672599
0.682252
0.688481
0.682815
0.675653
0.650155
0.611785
0.594959
0.655727
0.723524
0.520397
0.551697
0.585801
0.589801
0.590089
0.589983
0.59172
0.595516
0.600337
0.607275
0.620159
0.639677
0.658513
0.639724
0.576074
0.608537
0.686953
0.684367
0.676284
0.669318
0.647422
0.611494
0.583979
0.52896
0.564509
0.578661
0.583913
0.58662
0.587288
0.584783
0.581882
0.583015
0.588757
0.594505
0.595702
0.602036
0.615137
0.631389
0.643719
0.632057
0.581113
0.606427
0.680274
0.684078
0.680943
0.672776
0.654895
0.600058
0.54346
0.578844
0.585083
0.586465
0.581204
0.578134
0.535751
0.534674
0.520416
0.577696
0.5842
0.589409
0.594263
0.592668
0.59853
0.609529
0.617709
0.625693
0.626674
0.576118
0.592687
0.676987
0.680584
0.678512
0.655231
0.493631
0.545879
0.57214
0.572754
0.581736
0.580498
0.579938
0.574325
0.575975
0.578009
0.577232
0.559069
0.589122
0.592026
0.522226
0.588537
0.542862
0.604239
0.607634
0.611113
0.62308
0.555261
0.584259
0.654536
0.627037
0.502087
0.561991
0.573506
0.578918
0.58443
0.585112
0.584875
0.581145
0.579667
0.57843
0.575099
0.577772
0.579679
0.58178
0.578
0.563485
0.584553
0.587215
0.568641
0.597065
0.598079
0.598684
0.603405
0.612825
0.571436
0.537379
0.49905
0.561685
0.582241
0.581419
0.580533
0.583825
0.585574
0.585374
0.584032
0.581171
0.579201
0.57977
0.575614
0.577561
0.578743
0.580901
0.585542
0.585381
0.58741
0.584898
0.588991
0.58802
0.590146
0.576364
0.539658
0.503854
0.538746
0.580085
0.582832
0.584691
0.582256
0.582239
0.58446
0.584512
0.585142
0.582872
0.583531
0.583656
0.58253
0.58288
0.582333
0.582688
0.582865
0.580773
0.583846
0.576555
0.581477
0.583007
0.580798
0.578319
0.543048
0.499456
0.567616
0.583478
0.577975
0.583487
0.583883
0.583347
0.585325
0.583466
0.5838
0.58305
0.583544
0.584681
0.584962
0.5834
0.58291
0.583677
0.584036
0.584309
0.584583
0.577708
0.580649
0.541491
0.546198
0.535167
0.352365
0.51397
0.485393
0.544426
0.580275
0.5847
0.585058
0.58499
0.584519
0.585588
0.585565
0.585358
0.585242
0.585158
0.585333
0.585231
0.585111
0.58445
0.582692
0.583306
0.583839
0.58371
0.583129
0.581905
0.533862
0.506028
0.495989
0.552161
0.580069
0.581443
0.583448
0.582842
0.583817
0.585854
0.586137
0.586666
0.586359
0.585443
0.585642
0.585805
0.585327
0.584574
0.584593
0.584347
0.58146
0.581143
0.579973
0.57866
0.570236
0.539315
0.549585
0.59151
0.586151
0.58671
0.583786
0.583913
0.58219
0.578434
0.584654
0.585853
0.585845
0.585125
0.585881
0.585358
0.586511
0.586424
0.586219
0.584919
0.583513
0.582487
0.579252
0.574269
0.575725
0.565746
0.534127
0.551387
0.592139
0.597559
0.594576
0.591207
0.587206
0.585266
0.583295
0.581912
0.582583
0.585836
0.585987
0.586037
0.583225
0.583612
0.586089
0.586338
0.585828
0.58465
0.582322
0.580063
0.577743
0.554118
0.564225
0.528924
0.561398
0.595703
0.593448
0.594335
0.591751
0.590218
0.5882
0.585966
0.585307
0.58505
0.584523
0.584158
0.585284
0.585672
0.585099
0.584048
0.585622
0.586111
0.584968
0.582254
0.580649
0.57761
0.572031
0.539677
0.495514
0.509055
0.56427
0.596005
0.594244
0.593473
0.591172
0.590115
0.588538
0.587676
0.586337
0.585986
0.585988
0.585822
0.585768
0.584891
0.58475
0.585549
0.586174
0.58609
0.585847
0.585713
0.583393
0.579746
0.575758
0.546177
0.513996
0.508433
0.562945
0.595768
0.592751
0.591721
0.59025
0.589024
0.58803
0.587107
0.585681
0.584701
0.585288
0.585603
0.585615
0.585768
0.586041
0.585622
0.584465
0.583459
0.584514
0.585714
0.585576
0.583985
0.579885
0.565346
0.524844
0.510556
0.579934
0.595983
0.590055
0.589844
0.588992
0.587948
0.586935
0.585925
0.585101
0.58457
0.583599
0.584244
0.585223
0.585486
0.585342
0.585354
0.585721
0.585907
0.584019
0.578968
0.580302
0.579464
0.570135
0.573787
0.539412
0.490954
0.502089
0.573861
0.594569
0.594238
0.590563
0.588578
0.587549
0.586104
0.585012
0.58461
0.584319
0.584454
0.5845
0.584184
0.584931
0.585765
0.585975
0.585877
0.58572
0.585908
0.585786
0.581756
0.579076
0.574421
0.556178
0.562676
0.398264
0.551784
0.594677
0.591006
0.590662
0.588736
0.587508
0.586483
0.584236
0.583566
0.583914
0.584408
0.584738
0.585071
0.585215
0.58531
0.585717
0.586044
0.586027
0.584875
0.584092
0.584623
0.582757
0.580159
0.570804
0.572758
0.527495
0.542311
0.588916
0.594299
0.593058
0.59018
0.588265
0.587063
0.584836
0.581362
0.580154
0.581474
0.583281
0.584489
0.585254
0.58574
0.585982
0.585954
0.58571
0.585639
0.58568
0.583848
0.58418
0.585088
0.578672
0.575682
0.526307
0.510569
0.57741
0.59266
0.592267
0.590355
0.588927
0.587489
0.585301
0.582725
0.579062
0.576686
0.576698
0.578987
0.582247
0.584223
0.585218
0.585668
0.58574
0.585551
0.585573
0.586306
0.5858
0.585122
0.586264
0.583614
0.534136
0.547987
0.589093
0.591412
0.590639
0.589401
0.587564
0.583747
0.57962
0.577197
0.57546
0.573653
0.572973
0.574437
0.577771
0.581539
0.58384
0.584755
0.585038
0.585257
0.585828
0.586352
0.586385
0.583698
0.574845
0.557636
0.534649
0.584568
0.586113
0.588676
0.589342
0.588086
0.584209
0.577373
0.571777
0.569833
0.569695
0.569062
0.56852
0.569998
0.573326
0.577725
0.581823
0.583855
0.584732
0.585545
0.586216
0.585911
0.585353
0.585204
0.58078
0.507576
0.504435
0.571674
0.588348
0.587086
0.588407
0.588376
0.5859
0.581008
0.572864
0.566353
0.5634
0.563212
0.564175
0.565334
0.566845
0.570398
0.575587
0.579774
0.582832
0.585006
0.586182
0.585982
0.58514
0.585425
0.584594
0.540981
0.503641
0.568655
0.587965
0.586904
0.587221
0.587843
0.586902
0.583047
0.577316
0.570933
0.565342
0.561827
0.560026
0.560255
0.562248
0.565918
0.570448
0.575626
0.581181
0.584303
0.586093
0.586058
0.585827
0.584147
0.575051
0.563719
0.499246
0.540013
0.585131
0.588892
0.58762
0.586879
0.587536
0.585355
0.580321
0.574548
0.569182
0.565367
0.563205
0.561646
0.560472
0.561595
0.565952
0.573012
0.579645
0.583987
0.586573
0.585824
0.584921
0.584094
0.571597
0.567276
0.504348
0.513318
0.578884
0.58521
0.588544
0.587499
0.587242
0.586656
0.583928
0.578331
0.572868
0.568141
0.565685
0.565179
0.564801
0.563708
0.563665
0.566898
0.574084
0.581872
0.58635
0.586974
0.586343
0.583995
0.569777
0.566876
0.503728
0.56842
0.588597
0.589237
0.588885
0.58802
0.586785
0.58344
0.580839
0.576562
0.572533
0.568719
0.566396
0.566712
0.568265
0.568183
0.567567
0.569948
0.57637
0.584236
0.587464
0.587523
0.586612
0.587153
0.569416
0.503178
0.508672
0.585481
0.589325
0.588778
0.588469
0.5871
0.584844
0.581172
0.576933
0.574808
0.572343
0.570186
0.568046
0.568012
0.570781
0.574185
0.574772
0.575361
0.581721
0.586692
0.588158
0.587341
0.586375
0.573444
0.540395
0.557142
0.588019
0.588762
0.588352
0.587597
0.584503
0.580993
0.577682
0.57444
0.571766
0.571368
0.57064
0.570412
0.569433
0.570992
0.576255
0.581786
0.584146
0.586269
0.587698
0.588521
0.587798
0.577708
0.566211
0.503182
0.499129
0.571277
0.589486
0.588469
0.588011
0.586856
0.582484
0.577456
0.573791
0.571585
0.569757
0.569125
0.570214
0.571009
0.571462
0.571866
0.575752
0.582376
0.586006
0.58739
0.587495
0.587067
0.588122
0.583011
0.502962
0.542305
0.583835
0.587448
0.587228
0.587858
0.586205
0.58067
0.574537
0.570872
0.568475
0.567387
0.567806
0.569257
0.571746
0.574488
0.576841
0.578753
0.582947
0.586897
0.587963
0.586781
0.585479
0.575438
0.557063
0.496195
0.510503
0.582816
0.588967
0.588776
0.588366
0.587757
0.582599
0.576802
0.570703
0.567132
0.56511
0.564314
0.564909
0.567604
0.571034
0.575189
0.580352
0.584377
0.586317
0.587659
0.587516
0.586232
0.579883
0.56216
0.505603
0.566976
0.582117
0.58737
0.588166
0.588479
0.587265
0.582805
0.573664
0.567399
0.564274
0.562679
0.562187
0.562772
0.565098
0.569701
0.574654
0.579759
0.584397
0.586827
0.586311
0.584586
0.582331
0.577653
0.533175
0.512716
0.582554
0.587467
0.588541
0.58871
0.587543
0.585955
0.582622
0.575759
0.568021
0.563406
0.561615
0.561578
0.562344
0.564382
0.568708
0.574738
0.579848
0.584345
0.586901
0.586749
0.584197
0.576734
0.553038
0.489465
0.559186
0.58521
0.587645
0.58844
0.587796
0.585881
0.583184
0.579452
0.575425
0.570812
0.566326
0.563551
0.562934
0.564039
0.566017
0.569503
0.575258
0.581563
0.585114
0.587103
0.586416
0.583433
0.574633
0.531323
0.510572
0.582076
0.587249
0.587999
0.588377
0.586674
0.583562
0.579932
0.575923
0.57214
0.57044
0.56942
0.567589
0.56711
0.568297
0.571139
0.574245
0.578144
0.583093
0.586885
0.587484
0.58525
0.584484
0.574543
0.500165
0.559292
0.585651
0.587543
0.588115
0.587837
0.585406
0.581839
0.577971
0.574007
0.570093
0.567379
0.567334
0.56856
0.569933
0.572017
0.575567
0.580671
0.584086
0.586225
0.587771
0.586661
0.583835
0.573563
0.550948
0.509099
0.582147
0.587358
0.58797
0.588249
0.586739
0.583865
0.58025
0.576539
0.573159
0.569678
0.566875
0.565417
0.566361
0.56919
0.573216
0.577084
0.581659
0.585673
0.587357
0.587279
0.585097
0.58442
0.575595
0.499741
0.554797
0.586069
0.587966
0.587979
0.587967
0.585417
0.581779
0.578361
0.575358
0.572773
0.570288
0.56739
0.56575
0.566001
0.568564
0.573108
0.578483
0.582151
0.585486
0.587199
0.585942
0.584827
0.572307
0.549161
0.565164
0.581318
0.587343
0.588166
0.587509
0.584156
0.580053
0.576587
0.574063
0.572196
0.57077
0.569521
0.567949
0.567432
0.569279
0.57381
0.579638
0.583835
0.586147
0.586951
0.5844
0.58133
0.577314
0.505122
0.509026
0.581053
0.58798
0.588806
0.588778
0.587055
0.583316
0.57865
0.575048
0.572835
0.571464
0.570539
0.570038
0.569988
0.570298
0.571735
0.575095
0.58032
0.58546
0.586923
0.586616
0.583392
0.570189
0.55176
0.489647
0.512966
0.581336
0.587849
0.589254
0.58879
0.586634
0.582575
0.577384
0.573462
0.571427
0.570544
0.57019
0.570104
0.57048
0.571594
0.57368
0.576934
0.581051
0.584828
0.586958
0.586024
0.583107
0.566042
0.503923
0.535892
0.584046
0.588097
0.589345
0.587988
0.585272
0.581016
0.575995
0.57182
0.569441
0.568886
0.569481
0.570097
0.570778
0.572142
0.574603
0.578257
0.582336
0.585706
0.587086
0.584792
0.581438
0.5623
0.503333
0.565214
0.581947
0.587679
0.588995
0.586891
0.583293
0.579103
0.57458
0.570903
0.56834
0.566922
0.567317
0.569502
0.571273
0.572816
0.575279
0.579019
0.583294
0.586443
0.586485
0.58425
0.574604
0.547422
0.508319
0.577224
0.5852
0.588247
0.588528
0.585639
0.581408
0.577085
0.573227
0.570259
0.568447
0.567232
0.566575
0.567596
0.570559
0.5734
0.576291
0.579827
0.583869
0.586807
0.586076
0.581119
0.575469
0.503045
0.530821
0.582414
0.587322
0.588757
0.587722
0.58477
0.580401
0.575545
0.571601
0.569206
0.56813
0.567986
0.568032
0.568364
0.569957
0.572999
0.576761
0.581094
0.584745
0.587047
0.585241
0.580827
0.560119
0.48365
0.564697
0.580225
0.586722
0.588486
0.587078
0.583498
0.579332
0.574795
0.570241
0.567093
0.566468
0.567163
0.568371
0.569691
0.571161
0.573496
0.576946
0.581295
0.585405
0.587119
0.584591
0.578812
0.550088
0.506553
0.58015
0.586756
0.588287
0.588553
0.586502
0.582499
0.577577
0.573125
0.569358
0.566124
0.564281
0.564852
0.566881
0.56922
0.571674
0.574437
0.577967
0.582126
0.585995
0.586701
0.584507
0.575647
0.53182
0.532633
0.582899
0.587443
0.588204
0.588099
0.585706
0.581691
0.576219
0.57094
0.566998
0.564611
0.56329
0.56284
0.564272
0.567587
0.571042
0.574555
0.578573
0.58297
0.586369
0.586064
0.581314
0.576068
0.503993
0.553624
0.585701
0.587617
0.588692
0.587425
0.584122
0.579972
0.575013
0.569614
0.564923
0.562042
0.561228
0.561843
0.562839
0.565183
0.569569
0.574379
0.579037
0.583867
0.586961
0.586035
0.58082
0.559241
0.490781
0.564783
0.580076
0.586723
0.588437
0.587011
0.583463
0.578865
0.574192
0.569594
0.56497
0.561127
0.559229
0.559663
0.561933
0.564919
0.568918
0.574226
0.580014
0.58493
0.587183
0.58407
0.581183
0.552487
0.501753
0.579008
0.587897
0.588798
0.588422
0.58601
0.582713
0.578417
0.573851
0.569941
0.566493
0.562938
0.559834
0.558523
0.559927
0.564011
0.569395
0.575234
0.581327
0.586242
0.58678
0.584478
0.570704
0.529168
0.507967
0.581893
0.58682
0.588689
0.588383
0.585691
0.582071
0.578328
0.574167
0.570386
0.567537
0.565095
0.562638
0.560427
0.559992
0.562827
0.568956
0.576387
0.58302
0.587042
0.586485
0.581662
0.575772
0.501007
0.511686
0.581173
0.587111
0.588439
0.588368
0.58574
0.58174
0.577924
0.57478
0.571601
0.568689
0.566305
0.564499
0.563226
0.562806
0.564424
0.569368
0.577212
0.584396
0.587433
0.584898
0.583449
0.557754
0.55256
0.585725
0.588196
0.589026
0.588025
0.585713
0.581637
0.577215
0.574172
0.572269
0.57022
0.567831
0.565428
0.563889
0.564226
0.566702
0.57149
0.578727
0.585527
0.587385
0.584186