/*--------------------------------*- C++ -*----------------------------------*\
| =========                 |                                                 |
| \\      /  F ield         | OpenFOAM: The Open Source CFD Toolbox           |
|  \\    /   O peration     | Version:  2312                                  |
|   \\  /    A nd           | Website:  www.openfoam.com                      |
|    \\/     M anipulation  |                                                 |
\*---------------------------------------------------------------------------*/
FoamFile
{
    version     2.0;
    format      ascii;
    arch        "LSB;label=64;scalar=64";
    class       volScalarField;
    location    "150";
    object      omega;
}
// * * * * * * * * * * * * * * * * * * * * * * * * * * * * * * * * * * * * * //

dimensions      [0 0 -1 0 0 0 0];

internalField   nonuniform List<scalar> 
404911
(
237.179
157.175
3434.09
1536.58
138.866
158.005
128.835
602.618
340.956
281.635
222.132
285.593
143.686
244.606
396.016
1099.82
205.699
134.435
148.452
244.506
369.42
176.214
559.152
372.637
147.703
919.133
225.343
111.524
153.095
969.481
197.896
96.2935
204.595
311.383
182.235
93.6825
214.775
401.296
191.27
77.988
205.135
1002.54
189.93
75.6365
78.2304
361.108
307.728
78.693
85.0869
513.581
377.524
403.11
135.194
1322.92
325.526
566.661
9402.13
94.8192
300.37
201.005
159.961
91.0089
155.647
48.7347
59.7555
151.145
97.102
208.396
94.0892
64.5079
93.3834
31.6143
102.224
60.1961
35.5501
587.915
2263.09
220.607
51.2897
83.7233
52.3381
85.5741
30.2399
71.8874
61.6023
53.708
226.138
42.6238
1121.26
65.7784
114.313
2948.43
46.0349
67.3362
76.5097
53.7598
71.8589
68.7404
40.5677
207.668
588.105
44.2354
61.3733
435.895
1143.2
400.323
165.956
586.425
254.133
191.073
137.109
136.457
127.289
138.971
2189.37
423.402
147.515
4449.17
504.067
104.853
107.849
108.668
115.021
174.472
1212.22
235.606
140.322
129.922
115.851
428.459
388.952
424.857
106.71
100.825
110.097
103.858
149.539
145.578
96.7655
195.094
1085.27
230.957
131.997
116.276
112.973
109.364
113.961
109.765
428.11
368.881
109.233
100.826
117.033
1687.81
194.609
896.008
185.301
115.749
105.376
107.529
103.76
107.234
110.508
111.038
108.104
103.927
102.407
101.382
111.05
174.127
321.289
504.607
370.428
340.513
361.749
353.351
427.42
108.426
112.008
105.319
105.296
104.503
112.643
123.879
127.322
124.757
219.079
624.007
394.29
334.606
330.447
247.279
289.739
458.167
364.926
99.8238
106.275
105.691
114.695
121.362
126.564
151.816
1065.91
895.939
185.392
501.094
258.172
215.328
204.777
198.912
361.475
261.848
313.478
371.147
374.346
98.066
111.744
119.836
119.161
138.649
407.84
767.285
508.254
204.152
130.83
85.4817
133.033
203.401
203.586
152.411
203.665
178.598
150.654
88.5692
114.088
118.478
134.667
216.65
1106.46
1121.07
204.883
79.7576
116.322
90.4882
79.8891
86.645
97.8887
136.049
165.829
183.259
104.184
96.5167
236.466
392.714
108.294
144.916
1013.52
374.484
105.361
69.11
144.028
80.7657
77.8217
73.6596
77.4409
79.9594
89.3587
84.3972
86.6523
212.252
310.598
381.2
448.13
345.498
384.341
138.781
100.263
216.482
88.7368
81.3216
88.693
81.3594
88.2381
86.0078
74.567
76.6721
118.217
290.874
352.858
388.091
1588.52
279.06
116.6
94.3865
62.0461
73.0881
81.2428
81.695
76.8572
81.3423
92.7158
81.4705
87.5868
75.4627
128.723
319.952
357.291
172.236
934.261
887.608
791.704
226.011
132.493
52.3457
42.7929
77.8074
83.3022
79.7672
73.108
77.1748
84.2717
80.1219
78.6962
93.247
287.951
126.662
458.531
1016.4
180.668
93.4376
126.422
82.504
80.8108
87.6819
36.884
76.9668
68.6867
76.2024
45.8221
43.03
81.6049
86.7963
88.8633
238.513
190.162
382.927
104.518
70.7869
52.6569
47.9203
72.5137
66.9819
69.8377
37.7206
49.8763
35.0925
32.0117
35.9174
52.6116
96.6555
134.287
124.407
910.547
1045.55
190.345
94.7786
76.5358
39.7305
32.9808
41.7539
58.5224
43.9176
45.6112
33.1072
63.9253
53.8123
60.4483
69.4018
78.5112
346.99
790.526
275.516
92.8566
70.2937
78.8171
80.6127
42.9988
60.6594
41.5705
29.5614
29.7518
30.7021
49.1916
57.5757
79.5763
98.0192
84.1795
201.3
620.27
1010.36
802.844
253.892
101.111
90.7669
48.1572
59.8517
56.1942
44.6282
37.5457
28.6749
29.6022
32.5633
49.7591
93.9743
106.202
88.591
354.322
354.069
112.051
118.388
79.5461
58.0009
45.1773
47.3617
52.2482
45.9857
60.9217
48.9081
29.3525
34.6493
47.3331
55.0499
82.3021
197.075
885.035
129.315
79.1333
91.4934
51.0269
51.2507
43.4944
40.9286
55.9625
68.4352
66.5572
60.8385
53.012
43.5582
48.0611
88.5517
95.2987
230.579
350.917
90.8308
98.4475
75.0627
45.5966
35.9244
45.9705
38.7566
41.4426
50.4468
66.8075
61.8315
46.9485
69.5964
63.2535
105.927
111.02
884.229
180.082
73.552
56.3829
40.7018
37.0146
31.525
34.5029
58.6023
29.125
29.2618
43.4532
48.6059
77.6651
82.7508
112.87
106.438
204.444
1077.46
376.382
114.322
73.1977
48.511
38.3788
32.9786
41.5081
37.9109
29.6275
31.5516
31.3123
29.2289
34.9078
44.0391
112.558
64.938
118.15
908.201
1033.78
164.212
72.2073
86.2356
47.1693
36.3192
34.0791
30.6127
29.5234
37.8125
26.8521
37.5973
35.8159
38.0101
45.1717
57.2859
92.1051
212.9
349.804
95.9244
69.0005
46.6922
37.7751
33.9064
31.3318
32.4227
38.9241
26.645
26.5767
28.4303
44.631
54.0133
71.0739
86.4523
113.063
900.412
1045.95
164.172
71.993
55.9013
41.545
34.9705
31.8963
30.7842
29.6064
31.2562
44.9296
37.3694
38.7516
34.6309
50.487
61.7372
116.413
192.745
815.033
101.857
72.3462
51.1824
39.2903
34.0784
31.1877
30.4784
29.5642
28.6031
27.9833
28.8366
30.5802
34.1313
45.1015
78.5234
131.192
241.753
197.976
80.3017
76.4745
51.9422
38.7418
33.115
31.7475
29.9405
29.6019
29.1609
28.2966
28.6973
30.8121
35.1152
49.339
75.7168
103.978
419.483
175.936
98.5535
82.9468
48.3726
38.1008
30.9571
28.9199
30.0536
31.5889
30.47
28.5993
29.2097
31.8554
40.234
54.3118
76.2229
173.235
1020.39
1067.85
122.939
68.2059
67.8489
51.9245
35.2716
31.148
27.7736
36.8732
35.9775
33.7632
33.7056
32.0307
33.0732
42.28
78.262
102.901
372.901
844.529
110.357
71.4033
46.7386
37.6609
32.7098
29.5867
28.6269
27.0379
35.4454
30.4924
31.7296
34.7937
36.5147
42.2959
80.2937
106.91
965.007
218.623
92.6243
73.3704
47.4705
38.3013
35.1433
31.3243
28.418
29.3489
28.524
26.8786
27.6688
31.6107
36.1212
62.018
64.9389
112.448
1003.63
205.75
80.4507
55.9207
42.69
35.4
40.9334
38.2266
27.8755
27.8862
28.407
29.353
29.6842
31.9237
36.3133
55.958
72.6335
189.835
947.6
139.329
78.5155
54.8559
39.5926
34.1019
30.4213
38.9802
37.3525
26.5069
27.5107
28.0133
29.5153
32.0231
38.0383
70.7638
89.4103
358.862
354.07
97.4743
78.1535
65.8358
39.8927
31.5707
28.1806
26.4172
36.0356
36.0422
24.9201
31.0176
30.5437
32.491
38.2617
63.6307
103.341
908.859
209.934
79.2508
55.5942
42.4109
34.789
30.1426
37.0827
34.1937
35.0014
25.838
35.5071
29.8173
28.3491
33.4548
39.305
70.6439
143.204
1039.8
964.924
124.308
73.0832
56.4639
40.7509
34.1558
29.2942
36.2983
33.2944
33.7361
33.8677
24.6056
33.2718
36.5083
33.125
47.1922
68.5306
168.006
958.714
115.745
71.3397
49.2693
39.0145
33.861
31.2485
27.7211
35.0376
34.7979
34.0168
30.419
25.1727
30.0561
34.7124
48.6689
77.4925
334.313
944.133
115.068
72.1204
47.1441
38.536
34.1518
30.9137
30.0429
27.6557
25.4221
22.0814
29.2251
30.093
29.6076
40.0834
60.4849
89.4914
808.866
940.927
112.059
71.1955
46.7116
37.1981
33.9626
31.3716
30.7243
29.3967
29.0631
26.3446
23.6889
32.3433
38.1158
42.1141
81.2022
141.908
1037.57
209.343
96.6771
74.8333
48.739
37.7089
32.1667
30.3631
30.3531
29.0754
27.0878
25.0378
24.8076
26.8146
39.1874
43.6033
76.2553
163.738
1067.75
189.398
80.3961
60.6173
48.2422
38.2504
31.6434
29.1173
29.1146
30.3184
28.1144
23.9869
28.5782
34.01
34.732
43.2423
73.3792
159.685
1017.9
117.936
79.5851
70.821
46.2397
39.4948
33.3246
28.9778
28.0334
28.3145
29.7593
29.5309
26.8555
37.334
42.984
55.5447
82.6729
174.457
896.848
114.681
73.3488
48.3536
40.4868
36.6718
32.9038
28.8667
33.3991
32.4567
28.3468
28.0582
29.6682
31.3711
36.4629
54.9104
71.0105
185.886
962.829
114.786
72.5942
47.3275
37.9818
34.5335
31.2215
29.3442
27.8783
34.1611
32.4442
29.9619
29.6802
32.183
37.1488
60.4014
75.0054
201.75
964.071
118.511
73.9478
47.019
37.0402
33.545
30.4005
28.4601
28.7681
28.3428
27.2479
26.5713
29.2823
32.2037
40.2066
57.311
83.1723
342.342
897.332
111.419
73.4218
46.6956
36.0205
32.5105
29.6603
28.6443
28.2358
28.9249
28.6234
27.8235
29.3587
32.4205
40.0284
70.2352
104.386
896.454
219.945
108.027
73.2191
46.9031
35.3555
30.5527
29.6145
28.6041
28.184
27.6337
28.1119
28.1345
29.3796
32.1396
39.5743
65.7589
106.026
979.07
223.716
103.972
69.5955
45.7903
35.0379
30.092
27.1628
26.6369
24.1365
23.1781
25.329
28.7406
29.8576
31.8121
39.3517
66.3907
104.086
946.322
1088
142.609
99.0253
70.0626
42.9636
42.4385
36.9883
22.7307
23.4132
22.3747
24.2807
24.2631
26.5149
30.2341
32.0517
39.1701
73.2303
114.948
931.69
974.579
109.946
71.9848
83.3749
44.5173
32.0962
36.6343
28.7204
22.868
22.55
22.1553
21.4381
23.6973
33.6629
34.1693
40.8815
75.4296
151.547
114.324
69.8847
43.8439
35.1384
30.9102
28.4467
25.0651
18.1998
20.2623
21.984
20.7541
21.0356
26.7701
32.5132
48.4788
66.5092
160.499
907.881
111.574
66.5663
39.8106
32.7723
30.3277
28.4711
27.2388
24.0978
23.0596
19.2421
18.7433
23.5198
26.7527
34.4236
53.1114
72.3187
200.466
946.877
102.244
70.8251
37.3931
31.6298
30.7445
28.5775
27.646
27.4263
23.7581
23.0468
20.5747
23.0857
27.0132
33.2116
50.9968
77.1011
342.888
1043.81
99.6519
77.7166
38.8802
31.0565
29.7974
28.5079
25.995
22.7701
24.5033
23.4658
25.4243
28.0996
28.137
35.2951
52.2729
82.6589
755.754
93.4506
86.5203
41.6002
31.8865
28.6562
28.5583
27.3823
21.9993
25.3087
26.9742
25.7345
26.5023
29.2079
36.8668
62.998
99.6875
857.509
660.651
115.69
38.6771
32.2157
28.9404
28.1385
27.8419
26.8564
21.2207
24.0868
25.7327
29.7694
30.8045
38.5751
67.1753
103.359
956.287
2074.03
219.575
74.8988
51.8209
31.5378
29.7637
28.8526
27.8326
28.5363
26.9701
22.4054
28.1773
26.9059
32.2775
43.5856
68.0348
119.463
1005.03
195.521
58.3969
58.4646
41.1102
29.4225
30.3106
29.2834
27.0808
22.8068
26.3564
27.335
24.8909
27.2015
30.9733
45.9191
71.4609
180.769
181.184
112.741
51.3711
32.8417
28.0197
28.4041
32.7716
28.492
25.0491
26.8692
25.2827
32.5117
30.791
33.3904
51.2271
74.1547
196.765
1088.22
152.643
67.5761
46.4751
43.1875
41.5203
40.2539
37.4871
28.4
24.7644
21.029
20.4794
24.5907
27.5328
36.2118
61.9987
88.6013
757.334
860.315
106.897
83.2123
38.8956
39.7956
40.2814
78.4087
63.4123
33.2396
20.8393
25.6292
28.2815
23.9844
30.8661
41.2386
75.9852
96.6491
886.757
732.938
75.8128
103.437
55.1397
38.6537
37.3331
34.463
47.0627
84.501
31.2821
24.2148
28.2661
33.8628
35.3443
44.5231
89.9758
99.7335
897.654
347.895
70.263
70.6496
45.072
35.2863
34.716
36.5864
26.3
29.7117
51.7756
32.7526
34.5859
37.5228
38.157
44.2443
84.0427
107.925
934.661
917.698
157.543
71.5876
51.7949
45.7525
33.0014
23.8166
16.5003
27.3977
48.9337
37.3819
36.0913
36.8613
37.6605
31.0379
48.4183
81.769
227.111
942.698
807.128
84.8136
90.0567
51.3085
44.7837
33.414
17.1967
8.73229
13.7344
30.7955
42.1218
28.2346
29.7616
29.2844
32.7649
41.3091
64.0236
114.757
971.347
142.306
69.4937
48.0188
42.7781
30.188
16.3
9.04681
10.9
18.2599
31.2913
26.3688
28.9516
32.5666
35.9552
57.1817
63.3118
158.55
1094.17
173.523
71.517
66.5618
47.9947
28.9211
10.9318
10.6971
18.7661
18.6546
26.5804
32.1035
32.0126
32.6986
35.8771
54.8213
70.9319
195.481
179.995
77.1433
72.1022
57.7638
31.6278
13.8161
8.24367
13.9676
23.9597
23.6273
31.311
28.5941
33.1468
35.794
58.9296
75.1635
339.553
153.518
144.141
83.869
56.7401
35.4038
11.3044
8.3731
11.4931
16.3513
22.9006
28.6876
26.8431
32.1143
40.7084
54.6378
79.8706
771.378
857.1
95.7709
85.4384
68.3621
48.1093
32.4234
18.1556
10.1095
14.6989
20.3146
29.081
33.0239
36.2121
36.5738
42.5176
80.2134
105.571
873.927
811.639
103.229
91.4059
67.3058
50.3236
30.7416
11.7076
11.9206
16.6428
26.1831
32.1602
37.5697
42.1898
36.2804
49.6581
67.9733
172.539
755.354
86.7964
62.1373
58.4604
49.0641
32.8675
15.6264
10.0675
14.4528
24.9795
34.8407
37.2643
30.6978
34.7284
46.8131
72.1335
205.657
773.717
89.9114
64.6359
58.2344
53.536
31.9895
11.6683
13.3606
23.3428
30.956
34.2601
37.7097
30.8237
35.2251
48.7754
76.8185
206.321
790.85
97.2185
66.2392
54.3692
53.7208
39.0854
14.1307
14.0296
21.3333
31.6986
35.0054
37.1246
30.4324
36.2893
53.6046
83.1107
761.45
800.749
99.6814
67.7061
58.9559
54.7343
42.0961
32.8637
18.3921
20.2251
34.1907
36.961
37.762
29.9882
35.5361
63.4069
102.722
866.057
216.053
99.362
114.193
62.3946
44.9777
31.0291
27.5755
30.5614
34.7531
34.6594
37.3583
30.1118
30.6593
37.2885
63.4782
106.16
941.159
266.937
206.909
58.6615
35.9653
25.8841
12.9746
18.5931
30.1794
35.3519
36.6002
29.9954
34.6843
46.154
102.589
142.266
1073.94
248.867
112.785
84.6015
42.6675
13.1067
11.0692
14.5969
27.3738
34.5586
36.5497
39.9022
34.2143
41.4908
68.8494
178.755
209.745
181.033
108.9
83.2492
52.8423
13.832
11.2191
15.8455
24.3299
34.5329
35.9487
29.7812
35.4983
56.3441
69.8385
198.701
228.612
85.8888
80.2451
94.0871
68.135
34.0555
14.7274
17.4223
30.7894
37.9443
38.5125
41.5103
43.4604
68.3967
90.8452
746.657
232.198
89.6261
90.8675
85.5778
81.2871
82.3131
44.7181
38.3374
38.9327
41.3513
39.5361
52.5831
67.4212
110.571
115.097
938.765
1074.53
208.518
105.708
64.0762
79.4155
86.5297
83.4072
70.0033
51.6283
72.8823
83.0594
72.1735
46.2557
73.7615
125.387
381.969
1120.92
138.254
81.5481
83.7668
40.6586
74.1726
76.1722
71.8871
42.3858
47.357
60.9308
75.1763
85.4181
89.7137
201.899
161.227
888.733
130.707
91.8048
105.782
40.0115
68.3815
60.9005
66.2833
60.7708
49.6835
69.3567
77.8003
84.1539
97.8117
255.812
708.79
208.047
92.9619
315.939
88.7913
73.5376
39.4744
50.2355
46.6269
45.703
45.3789
53.517
48.4935
67.1043
103.388
212.209
3974.71
214.445
446.518
213.765
85.9677
88.7104
62.9881
54.5409
78.0163
85.4697
63.487
46.7136
54.193
79.6434
111.789
202.325
689.798
955.445
526.447
227.121
97.4302
73.1804
74.5432
52.6135
50.6958
65.9837
76.0507
79.2941
98.9699
130.649
125.041
232.186
1072.76
120.794
345.488
139.414
77.7254
64.2089
51.5942
59.3118
76.0681
79.3601
79.8134
84.1889
78.2672
122.065
153.742
1298.76
1062.9
136.654
92.0493
299.248
188.388
82.6875
47.4552
53.1663
74.3118
78.2156
80.0153
89.0712
102.947
92.701
226.537
1131.54
472.066
132.185
95.9349
375.356
231.395
102.659
58.4186
62.5646
77.6012
80.4434
81.8991
116.271
77.7425
99.2584
232.995
1020.53
441.631
364.731
270.108
190.567
73.9631
73.1361
74.762
88.3868
87.5942
137.943
93.8523
146.872
1029.26
598.341
411.2
348.29
294.021
146.57
217.795
85.1834
75.5073
86.6848
115.575
77.6075
101.695
221.983
1044.56
120.738
93.3535
388.76
305.119
102.824
226.755
342.259
87.4019
94.0775
131.628
96.059
126.38
419.589
1101.3
130.314
98.5502
393.901
366.577
194.358
106.48
152.319
235.136
244.645
252.527
104.954
140.31
1078.32
1025.44
127.962
433.72
383.916
393.92
275.704
143.721
174.625
104.796
250.994
394.207
107.692
148.327
1163.95
1088.7
127.228
446.448
383.124
393.229
365.881
145.794
119.412
83.4102
158.609
399.686
111.533
220.018
1214.65
1039.83
137.686
103.693
404.684
368.276
401.805
482.458
121.799
101.099
250.108
110.629
126.265
224.87
1320.36
1317.03
1029.53
104.864
99.2591
384.298
381.818
497.971
358.539
147.669
258.723
407.295
131.529
244.221
105.93
412.521
368.943
376.823
96.505
407.571
416.526
439.271
416.366
106.795
95.3571
367.231
442.794
115.159
135.047
199.689
1056.74
6163.61
481.245
96.1022
385.959
421.287
143.946
285.602
2697.71
1976.61
382.453
663.754
134.779
157.18
1043.01
360.775
651.429
135.521
149.442
470.267
710.984
489.541
156.479
133.205
175.802
1040.02
1033.56
192.275
1823.72
700.769
421.658
230.653
110.452
106.396
135.147
138.286
543.149
178.525
116.834
261.122
576.094
1371.17
1188.83
6309.82
368.91
1352.36
483.578
481.932
1250.45
486.123
304.542
216.135
202.731
191.785
192.746
205.422
366.697
1257.53
483.113
285.829
203.617
191.22
172.231
157.952
155.872
171.276
179.333
193.551
205.308
230.606
258.502
269.874
1153.21
436.976
209.767
185.672
164.265
156.991
151.97
148.492
149.804
148.584
159.386
164.241
162.357
183.836
217.562
240.696
266.661
282.012
307.702
432.901
528.928
1058.61
843.968
398.455
188.048
166.718
162.311
149.628
139.981
136.06
138.866
143.842
147.914
147.81
148.755
142.942
460.806
475.967
189.346
220.862
229.483
263.139
283.404
338.953
721.818
430.047
219.95
159.908
146.766
131.802
127.288
131.231
130.23
127.821
124.536
128.797
137.278
147.514
147.776
145.194
140.757
135.958
423.088
478.456
161.214
200.263
226.025
264.706
326.56
1386.78
311.614
119.309
90.9933
87.4651
114.032
120.308
335.193
443.102
512.973
95.4969
114.858
121.956
116.415
125.599
127.458
142.506
141.26
126.474
121.409
401.414
466.793
157.228
195.488
253.224
603.509
1371.57
292.554
127.372
106.334
60.4617
69.6453
66.1682
95.4825
118.752
105.439
95.5516
186.639
102.69
112.898
497.317
131.68
534.015
123.372
136.632
138.074
134.976
444.943
469.057
194.433
517.643
1135.86
234.389
171.254
97.5902
42.5291
38.6945
41.003
64.9406
52.4969
67.1119
109.173
103.527
91.7267
90.4067
172.429
256.129
150.561
124.346
258.783
132.401
137.357
135.184
135.827
159.303
409.116
317.668
1230.96
229.688
138.47
105.746
87.4346
44.5405
37.9474
37.3486
39.728
54.4315
52.6152
55.6973
96.5288
94.6151
90.6219
92.2583
81.6848
97.0254
100
143.909
105.583
131.863
146.856
242.399
464.219
968.078
294.321
106.375
102.341
112.894
70.457
73.7125
41.7293
39.3109
36.3147
52.0821
46.8574
35.8556
38.4282
37.9004
39.8121
41.8798
45.6697
68.8228
78.9592
155.851
129.341
138.109
132.15
144.738
403.182
989.046
157.234
87.4412
116.995
85.0556
61.1213
65.8431
35.2382
44.3008
43.9868
48.133
47.5869
46.3004
44.1794
45.7007
39.4789
37.7831
38.3743
41.5658
48.0761
97.1143
103.29
473.615
442.639
555.822
4379.91
669.529
1260.92
219.716
97.3506
62.6279
52.0722
44.8502
48.4903
42.7627
43.5632
45.4853
47.0114
47.2381
46.4686
45.8105
47.2995
47.6023
42.0186
41.0166
43.9577
50.7652
66.4201
85.3217
460.653
1525.77
1159.45
250.531
99.1535
57.763
46.6078
55.8913
46.5538
35.0556
34.1889
38.0728
41.6797
45.7757
45.7644
42.5199
43.5072
47.7183
49.4974
48.7439
47.7454
49.9616
62.4938
79.5536
125.766
335.306
354.015
121.107
151.091
118.897
89.4725
50.5112
41.6311
59.765
40.4342
35.1968
31.8572
29.5974
31.5438
27.751
36.2767
34.42
35.6535
43.2327
49.4138
55.2585
68.8316
78.6123
74.5041
117.444
357.917
333.55
125.456
91.3628
87.4393
63.6822
58.5971
52.3168
47.0851
41.2021
44.769
34.9392
33.7557
33.7941
24.3846
24.4983
31.4907
32.7932
37.1817
42.0842
51.5972
65.638
81.2237
151.614
106.382
348.146
298.135
105.621
111.924
91.8196
65.7576
54.0807
49.4553
44.8971
40.979
34.9836
34.9357
39.9713
36.5484
38.7942
26.9168
24.9629
29.0421
32.9079
40.2055
48.7702
55.9346
75.293
107.427
170.497
719.087
1043.18
289.438
103.927
99.4787
68.3966
59.777
53.8896
49.8514
42.1416
33.8485
31.7413
29.0287
27.4316
30.9721
38.7819
40.1438
38.5347
33.8672
31.6655
31.1966
27.8222
42.6986
61.2073
88.4646
158.563
310.087
1020.94
283.688
97.2691
94.3545
64.0506
50.8798
43.9212
38.4502
36.3533
31.5773
26.0269
24.1172
24.0117
23.6088
23.9983
27.0845
28.7204
31.765
39.6156
41.4334
29.264
31.1734
44.1174
69.5152
154.638
340.49
911.25
176.911
92.8469
99.1046
63.0818
46.8223
38.1206
32.1574
28.15
25.4404
24.8707
23.5987
22.5125
22.1987
22.321
22.4785
22.8116
24.0117
24.0688
26.488
39.4042
40.1844
44.6848
78.8898
93.2154
230.773
1220.67
1109.19
190.185
88.0756
69.3862
56.2221
46.2103
37.4311
29.0487
24.6483
22.7646
21.6055
21.7424
22.5426
22.4589
22.4936
22.628
23.1542
24.4609
25.7799
29.5452
27.7185
38.6266
50.7659
77.0632
111.002
107.364
1397.51
311.055
93.9404
99.1341
62.9612
47.0215
40.6415
31.1612
24.2802
21.5239
20.5991
20.6416
20.9217
21.5258
22.131
22.4178
22.8362
23.6113
26.2436
32.6857
42.9032
45.1398
56.4832
79.5589
114.715
109.594
329.247
355.215
119.211
81.9061
61.1543
49.6235
41.9707
33.7429
26.2795
20.7307
19.301
19.6108
20.3986
21.0259
21.6693
22.3535
23.0461
23.6865
24.4281
26.0942
31.7421
42.1288
48.1788
58.5537
93.1409
107.333
343.675
885.06
158.448
80.4609
72.0609
53.2827
43.8737
35.777
27.8601
22.2512
18.4705
16.8118
17.0039
18.5382
20.2597
21.2931
22.2624
23.2657
24.4342
25.8608
28.1351
32.5998
43.8027
58.8785
76.6869
86.3871
295.385
302.642
92.7913
66.2724
48.8872
41.5684
32.9837
24.8468
19.0322
16.8116
15.6429
14.5338
14.2058
15.2734
17.3088
19.3879
21.0179
22.448
24.1172
26.4513
31.0731
37.4338
45.1007
76.3959
123.532
190.437
353.846
104.388
96.0201
57.7535
41.3559
32.4115
25.0419
17.0629
13.1635
12.0908
12.0963
11.726
11.4258
12.2963
14.335
16.9421
19.3382
21.1888
23.5861
28.0152
35.0586
43.9379
54.6077
75.8993
99.9943
708.756
829.215
143.972
77.9491
67.689
43.298
33.4394
25.9136
19.9992
13.7239
10.2356
8.9356
8.90429
9.32682
9.8101
10.544
12.4345
15.5158
18.5164
20.8493
24.2483
29.713
41.9988
54.151
71.4859
84.8895
298.413
832.825
154.797
81.6858
73.8363
48.5394
37.031
27.2832
21.0676
16.3386
12.5222
9.7116
8.21555
7.5364
7.64289
8.45848
10.0599
12.2986
15.2096
18.9037
23.4624
29.1868
40.9385
49.202
78.535
123.416
163.717
963.503
308.811
97.2343
74.763
51.3715
42.0157
31.5248
23.1594
17.7547
14.4249
11.6987
9.84137
8.7932
8.1432
7.69408
8.16977
10.0795
13.6217
18.1053
22.8794
31.2804
39.9202
54.8032
80.9305
125.567
146.239
799.924
675.489
125.229
97.8166
58.3402
44.8331
35.7966
27.1763
20.5621
15.9729
13.2461
11.1095
9.94014
9.61633
9.30922
8.96174
9.01388
10.498
14.2081
20.2108
29.2278
37.2326
47.2528
80.6282
123.269
142.649
788.522
165.722
79.4905
55.7728
43.2753
35.0759
29.9842
21.2545
17.2515
14.5198
12.9365
11.2343
10.1209
10.0055
10.6
10.7475
10.8161
12.097
16.0256
23.8035
31.925
40.9108
56.2864
76.3693
128.013
783.199
671.391
94.248
65.1365
45.3705
35.2757
27.928
22.6645
19.0261
15.0633
13.3252
12.1837
11.4419
10.4996
10.3716
11.3961
13.1614
14.3554
15.2758
20.6529
28.2348
39.1452
52.3287
78.6816
123.945
281.444
175.509
79.499
55.3361
41.7098
30.1384
22.5339
17.9297
15.2899
13.9104
12.2358
11.7218
11.3137
11.3545
10.9403
11.5133
13.7875
17.7128
22.1577
27.3295
39.4792
44.4284
70.4193
117.711
150.943
823.131
837.511
126.18
71.0707
50.3379
39.0011
27.1486
19.8017
15.2984
12.9966
11.9616
11.289
10.906
11.2027
11.549
11.9465
12.3604
14.5073
18.845
23.5255
30.6753
41.1623
55.5648
69.7596
92.3753
732.364
244.952
88.0821
71.6612
52.2541
37.3936
25.9492
18.0208
13.736
11.7855
10.7099
10.2035
10.2732
10.741
11.7243
13.2361
15.2173
17.0042
20.9085
26.4544
33.0641
43.5958
63.513
108.613
170.148
1095.38
630.511
87.5425
62.7169
47.653
39.3139
32.6592
21.0134
15.1978
11.7929
10.3757
9.46314
9.11972
9.2692
10.1586
11.387
13.2003
16.5275
21.0681
24.6208
29.7337
36.0387
46.4453
85.2221
141.563
786.877
138.709
93.8679
55.756
43.5734
34.8986
27.575
20.8348
13.5624
10.2912
9.00942
8.443
8.25617
8.5403
9.35086
11.0714
13.2159
16.1085
20.3203
26.0828
33.9416
43.7443
62.6007
78.0339
310.523
613.424
89.5971
60.3634
42.2844
34.5479
28.8499
24.5764
19.4875
14.3267
10.5069
8.61782
8.00896
8.02255
8.3369
9.11838
10.8711
13.7241
16.812
21.21
27.1274
35.0712
48.0912
82.4298
139.504
887.23
164.397
75.794
50.3444
38.9673
30.6881
25.5292
21.1742
16.8592
13.7369
11.4844
9.64778
8.58823
8.46571
8.90948
9.76625
11.4461
14.4205
18.9982
23.221
29.7698
39.3749
60.7452
94.076
293.61
621.535
87.7568
61.3104
44.3618
34.2456
27.0072
21.6801
17.7363
14.6284
12.1669
11.1546
10.7486
9.94593
9.75333
10.3646
11.7872
13.7082
16.3448
20.6392
27.4285
34.4953
47.6369
63.4884
98.186
780.301
163.962
75.0737
50.6462
39.2896
30.6716
24.2138
19.4125
15.8677
13.2177
11.2518
10.003
9.87794
10.295
10.7194
11.5198
13.2794
16.7061
20.4548
23.8503
29.5817
40.8169
64.1479
103.991
172.452
638.36
88.6776
62.5269
43.9479
34.2822
26.4517
21.4479
17.5704
14.6456
12.5805
10.8831
9.74645
9.18117
9.51425
10.6275
12.269
14.038
16.931
21.3239
27.1442
33.6444
47.0491
63.0755
88.756
741.827
170.025
72.6685
51.6806
41.5287
31.05
23.547
18.7547
15.7346
13.6502
12.1951
11.1027
9.92775
9.28577
9.38479
10.4348
12.575
15.6195
18.0518
21.65
27.8147
37.3105
47.4432
98.1914
166.106
135.329
93.0191
52.1124
38.9879
29.0752
21.7257
17.1232
14.3792
12.7635
11.7535
11.1031
10.6869
10.1609
10.0019
10.8254
12.9736
16.5393
20.3812
23.9972
30.5725
43.255
65.2079
78.3405
608.879
661.673
84.1079
58.5856
43.5608
35.0943
27.5516
20.7614
16.045
13.4512
12.1173
11.393
10.9442
10.7185
10.7492
10.9913
11.768
13.5967
16.8939
22.3674
27.1048
32.8513
47.0386
95.6795
144.338
902.597
627.344
88.6886
52.8356
39.3093
33.5784
27.034
20.0774
15.1534
12.6265
11.5105
11.0277
10.8371
10.7694
10.9079
11.4131
12.4772
14.3878
17.3741
21.2668
26.7834
33.9866
46.9276
98.8913
563.034
274.791
82.6559
50.2463
37.0677
29.6496
24.6444
18.8822
14.2901
11.813
10.7444
10.4566
10.6193
10.8247
11.0751
11.689
12.9562
15.1863
18.4493
22.9806
29.0136
39.7858
58.1316
105.815
695.52
136.944
89.9134
49.7691
34.9861
27.094
21.7133
17.2697
13.6125
11.3535
10.2318
9.77188
9.90194
10.6714
11.3452
12.0154
13.3042
15.6812
19.46
24.9685
33.2716
43.4615
82.8924
157.984
635.005
95.7375
67.8957
42.0203
31.8566
25.0236
19.6482
15.6164
12.783
11.0395
10.1472
9.71951
9.58945
9.99685
11.1108
12.2962
13.7747
16.0779
19.8377
26.051
35.6049
61.0996
78.9761
633.305
289.257
82.0987
49.9808
36.5861
28.9596
23.3693
18.5774
14.6764
12.0286
10.5931
9.98997
9.88142
9.92621
10.1455
10.8527
12.1564
14.0222
16.9603
20.6807
26.595
38.3756
63.2109
111.57
880.997
131.699
93.0079
51.6774
36.3924
27.6618
21.5482
17.2949
13.9978
11.477
9.9008
9.45463
9.58485
9.99197
10.5146
11.1936
12.3306
14.1464
17.0898
21.7642
28.9439
41.6409
72.1572
150.141
670.264
87.1669
58.8841
40.9139
33.1729
26.3307
20.3898
15.8643
12.8522
10.8685
9.51678
8.77814
8.87386
9.50095
10.3379
11.3346
12.6374
14.6464
17.766
22.8974
31.8203
43.3817
82.2253
287.628
283.073
79.9378
49.1931
39.4745
30.8183
24.6141
19.4516
14.939
11.7966
9.8524
8.80305
8.33507
8.21527
8.70972
9.85742
11.1749
12.7305
14.9047
18.3457
23.7029
34.518
60.217
78.1651
616.418
177.007
68.5344
46.2025
35.0593
27.5817
22.0742
17.6677
14.0027
11.1361
9.0977
7.92702
7.55606
7.76322
8.19673
9.11395
10.773
12.8104
15.3133
19.2511
25.8393
34.9643
63.772
117.129
896.138
142.451
97.7393
49.8599
34.4899
26.8625
21.1893
16.7356
13.3819
10.9379
9.04858
7.62377
6.91945
7.01642
7.78171
8.94197
10.6061
12.9761
16.2532
20.9511
28.4339
43.6656
62.3421
129.704
832.651
91.0775
56.9954
40.6493
31.8511
25.1654
20.3864
16.2993
13.123
10.9918
9.49576
8.19742
7.12154
6.6715
7.13817
8.56083
10.671
13.4218
17.3781
23.6553
33.1107
45.3648
95.1086
274.035
648.15
83.9513
59.7874
41.1152
32.0161
25.0525
19.8191
16.1058
13.1753
11.1452
9.87003
8.88574
8.00204
7.27264
7.18458
8.23716
10.6182
14.1199
18.8576
26.1963
36.4245
65.6013
81.9505
656.023
594.949
85.8637
52.8448
41.5168
32.5517
25.1985
19.5201
15.6897
13.3212
11.6088
10.3334
9.36753
8.64819
8.16488
8.07567
8.80419
10.913
14.9188
20.7593
28.7239
43.1486
59.2977
126.42
180.22
69.8494
45.7474
35.8694
30.8242
25.1876
19.3589
15.1421
12.8568
11.7872
10.9044
9.94475
9.04252
8.47227
8.57803
9.55449
11.7251
15.7824
22.2758
31.2686
46.8192
89.6075
170.398
172.517
67.5567
45.1491
36.6953
29.1141
23.8753
19.191
14.9375
12.3649
11.3774
10.971
10.5093
9.83697
9.15102
9.00707
9.99184
12.3863
16.3338
22.9673
33.74
46.9077
96.7508
568.666
145.185
97.7025
50.761
34.4814
27.1024
22.7385
18.5967
14.9858
12.3114
10.9001
10.4901
10.4264
10.3977
10.28
10.3196
11.2163
13.5267
17.4975
23.4572
33.7741
61.3027
102.174
605.273
142.28
66.1918
43.1547
32.9747
25.8738
20.87
17.3564
14.5639
12.3365
10.7313
9.87036
9.80837
10.1719
10.5397
11.1502
12.3296
14.6996
18.6505
24.4502
34.7705
53.7657
102.346
739.595
133.851
64.6235
42.698
32.8247
25.5484
20.1711
16.2684
13.6346
11.9508
10.8525
9.97126
9.46687
9.64623
10.4038
11.2496
12.6721
15.1149
18.9608
23.9088
33.7164
56.6114
86.2089
841.434
805.947
95.7644
59.563
41.9377
32.7442
25.3075
19.6251
15.607
12.9249
11.3332
10.5175
10.0696
9.76115
9.68805
10.1408
11.1946
12.8127
15.4324
19.3322
24.7164
32.2851
53.1744
115.375
623.664
90.3252
69.1253
43.1618
32.4195
24.7166
18.8875
14.9099
12.42
10.8767
10.0759
9.7602
9.73051
9.87287
10.2517
11.1763
12.8262
15.4532
19.5875
25.9147
34.2004
56.0409
122.942
613.383
86.524
49.5462
36.3744
29.5335
23.3637
17.838
13.8846
11.6254
10.4102
9.54669
9.12056
9.16812
9.56732
10.1759
11.1376
12.7757
15.3801
19.336
25.8905
37.5814
54.9058
129.909
283.34
78.7298
47.4746
35.454
27.9477
22.1369
17.0437
12.8338
10.3859
9.22046
8.52868
7.91395
7.83199
8.47841
9.59765
10.8656
12.6095
15.3158
19.267
25.6131
37.9362
70.4632
174.816
175.474
67.7156
44.2419
33.5695
26.6425
21.1161
16.5071
12.4846
9.3749
7.68749
6.96672
6.59502
6.35729
6.83631
8.20711
10.2117
12.3407
15.2426
19.5002
25.6354
38.4482
72.6956
542.534
179.207
68.3329
44.2521
32.7947
25.3435
20.0769
15.8233
12.4813
9.66421
7.20406
5.70185
5.18984
5.28871
5.88168
7.16651
9.34548
12.1014
15.3185
20.0676
26.6765
38.8908
77.0369
577.151
147.413
67.8695
44.5826
32.2825
24.3545
18.727
14.8486
12.1129
10.0798
8.13756
6.05156
4.76333
4.53966
5.16167
6.70958
9.00758
11.981
15.6764
20.7579
29.0702
40.2345
77.5989
605.845
134.652
64.5984
40.7337
29.9062
22.6964
17.4966
13.9996
11.713
10.123
8.82028
7.32212
5.62506
4.71005
4.89943
6.25501
8.71459
11.9575
16.1171
21.2976
30.7361
49.2591
79.4198
672.081
140.159
64.1826
38.7215
27.3373
20.527
16.075
13.2035
11.3432
9.98041
8.93525
8.07742
7.08184
5.97658
5.64336
6.52272
8.74564
11.9145
16.1723
22.2791
31.0038
53.648
111.579
863.664
131.467
65.8698
40.7407
26.9096
19.0248
14.8222
12.4838
11.0149
9.83796
8.68431
7.76578
7.4251
7.29904
7.16677
7.75231
9.51544
12.4616
16.3925
22.2251
32.3317
54.4247
122.011
794.49
86.6936
61.9248
43.5804
26.2214
17.9219
13.9
11.8877
10.7067
9.80345
8.83181
7.63987
6.88981
7.08734
8.00715
9.05725
10.6796
13.3149
17.1244
22.3668
31.3631
54.4211
124.769
611.437
99.6578
61.4659
34.9031
22.5037
15.1511
12.6836
11.3744
10.4506
9.66655
8.97281
8.22867
7.2907
6.91247
7.6977
9.41837
11.4444
14.1569
18.0116
23.7192
31.5641
52.0682
130.658
618.299
84.9905
48.0677
31.9305
21.2756
13.8103
11.0501
10.4783
10.1007
9.47879
8.74637
8.20652
7.89764
7.66823
7.98884
9.40179
11.6712
14.7663
18.9908
25.1876
36.3655
54.6519
122.089
291.436
80.5264
46.6943
32.5252
22.1405
14.1544
10.5982
9.60223
9.46434
9.14354
8.43956
7.60677
7.24311
7.61713
8.49458
9.76291
11.8512
15.1243
20.088
26.9041
39.1119
69.427