/*--------------------------------*- C++ -*----------------------------------*\
| =========                 |                                                 |
| \\      /  F ield         | OpenFOAM: The Open Source CFD Toolbox           |
|  \\    /   O peration     | Version:  2312                                  |
|   \\  /    A nd           | Website:  www.openfoam.com                      |
|    \\/     M anipulation  |                                                 |
\*---------------------------------------------------------------------------*/
FoamFile
{
    version     2.0;
    format      ascii;
    arch        "LSB;label=64;scalar=64";
    class       volScalarField;
    location    "150";
    object      p;
}
// * * * * * * * * * * * * * * * * * * * * * * * * * * * * * * * * * * * * * //

dimensions      [0 2 -2 0 0 0 0];

internalField   nonuniform List<scalar> 
404911
(
4.92146
4.9217
4.92281
4.92268
4.92085
4.92129
4.92247
4.92266
4.92265
4.92266
4.92031
4.9194
4.91964
4.92044
4.92119
4.92221
4.91903
4.91933
4.91936
4.91966
4.91783
4.91836
4.91851
4.91733
4.91748
4.91507
4.91724
4.91746
4.91823
4.91633
4.91678
4.91704
4.91728
4.9184
4.91585
4.91627
4.91665
4.91473
4.91511
4.91541
4.91562
4.91413
4.9144
4.91474
4.91513
4.9151
4.91381
4.91409
4.9144
4.91471
4.9131
4.91339
4.91368
4.91405
4.91305
4.91322
4.91132
4.92067
4.92027
4.92078
4.91966
4.92015
4.9191
4.91919
4.91929
4.91819
4.91868
4.91884
4.91756
4.9177
4.9172
4.91739
4.91757
4.91657
4.91697
4.91729
4.91742
4.91579
4.91624
4.91516
4.91554
4.91444
4.91468
4.91515
4.91377
4.91407
4.91315
4.91345
4.91378
4.91297
4.91319
4.91108
4.91081
4.91122
4.90985
4.91023
4.91054
4.90914
4.90947
4.9099
4.9085
4.90877
4.90908
4.90844
4.96749
4.96803
4.96867
4.96499
4.96579
4.96579
4.9669
4.96715
4.96767
4.96812
4.96878
4.9638
4.96422
4.96535
4.96589
4.96653
4.96697
4.96751
4.96808
4.96984
4.96236
4.96276
4.96326
4.96365
4.96402
4.96448
4.9651
4.96568
4.96627
4.96678
4.96729
4.96795
4.96869
4.96924
4.96972
4.97013
4.96127
4.96168
4.96217
4.96259
4.96305
4.96346
4.96388
4.96437
4.96482
4.96534
4.96591
4.96644
4.96704
4.96757
4.9695
4.96004
4.96052
4.96103
4.96143
4.96193
4.96244
4.96289
4.96331
4.96376
4.96417
4.96458
4.96503
4.96554
4.96611
4.96664
4.95897
4.95969
4.96018
4.96065
4.96109
4.96166
4.96226
4.96273
4.96314
4.96355
4.96398
4.96438
4.9648
4.96522
4.96575
4.96644
4.95777
4.95802
4.95839
4.95914
4.9598
4.96029
4.96085
4.96147
4.96205
4.96259
4.96296
4.9634
4.96379
4.96417
4.96459
4.96501
4.96545
4.95601
4.95648
4.9568
4.95721
4.95761
4.95819
4.9588
4.95937
4.95993
4.96061
4.96131
4.96189
4.96235
4.96277
4.96316
4.96354
4.96395
4.96444
4.95503
4.95569
4.95608
4.95644
4.95675
4.95732
4.95793
4.95858
4.95914
4.95961
4.96025
4.96099
4.96173
4.96212
4.96251
4.96287
4.96338
4.96369
4.95366
4.95417
4.95462
4.95526
4.95579
4.95616
4.95647
4.95697
4.95765
4.95826
4.95885
4.95937
4.96
4.96066
4.96134
4.96185
4.96218
4.96258
4.95271
4.95334
4.95384
4.95432
4.95488
4.95547
4.95585
4.95627
4.95682
4.95734
4.95795
4.95853
4.95906
4.95966
4.96028
4.96086
4.96139
4.95161
4.952
4.95243
4.95291
4.95351
4.95399
4.9545
4.95508
4.95549
4.95594
4.9565
4.95707
4.95765
4.95824
4.95881
4.95937
4.95988
4.95069
4.95106
4.95134
4.95177
4.95211
4.95267
4.95328
4.95376
4.95423
4.95471
4.95512
4.95561
4.95617
4.95669
4.95729
4.95791
4.95843
4.95897
4.9492
4.94957
4.95037
4.95074
4.95125
4.95157
4.95189
4.95236
4.95296
4.95347
4.95391
4.95438
4.95482
4.95535
4.95588
4.95636
4.95696
4.95754
4.94814
4.94853
4.94891
4.94949
4.94997
4.95046
4.95101
4.95141
4.95175
4.95219
4.95272
4.95327
4.95365
4.9541
4.95464
4.95509
4.95555
4.95612
4.94738
4.94786
4.94825
4.94863
4.94908
4.94961
4.95015
4.95067
4.95118
4.95159
4.95198
4.9525
4.95299
4.9535
4.95407
4.95447
4.95491
4.95526
4.94646
4.94683
4.94708
4.94759
4.94795
4.9484
4.94891
4.9494
4.94992
4.95034
4.95091
4.95134
4.95174
4.95214
4.95267
4.95322
4.95381
4.95428
4.9459
4.94617
4.94651
4.94684
4.9473
4.94772
4.9481
4.94866
4.9493
4.94969
4.95006
4.95055
4.95108
4.95156
4.9519
4.95242
4.95285
4.95351
4.94452
4.94497
4.9456
4.94583
4.94626
4.94654
4.94698
4.94743
4.94787
4.94837
4.94902
4.94943
4.94978
4.95021
4.95069
4.95127
4.95171
4.9522
4.94398
4.94427
4.94486
4.94522
4.94553
4.94592
4.94629
4.94668
4.94712
4.94759
4.9481
4.94874
4.94917
4.94954
4.94995
4.95039
4.95082
4.94311
4.94333
4.94372
4.94395
4.94435
4.94479
4.94518
4.94555
4.94592
4.94634
4.94678
4.94732
4.94786
4.94848
4.94889
4.94927
4.9497
4.95017
4.94234
4.94278
4.94305
4.94344
4.94376
4.94407
4.94444
4.9448
4.94515
4.94552
4.94598
4.94642
4.94699
4.94752
4.94809
4.94859
4.94897
4.94939
4.94187
4.94216
4.94254
4.94287
4.9432
4.94351
4.94387
4.94418
4.94455
4.94485
4.94514
4.94558
4.94611
4.94666
4.94719
4.94776
4.9482
4.94873
4.94093
4.94125
4.94161
4.94193
4.94229
4.94262
4.94295
4.94324
4.94367
4.94405
4.94435
4.94464
4.94494
4.94529
4.94576
4.94624
4.94677
4.94728
4.94011
4.94043
4.94075
4.94101
4.94137
4.94169
4.94205
4.94239
4.94274
4.94304
4.94341
4.94378
4.94417
4.94447
4.94474
4.94509
4.94545
4.94601
4.93953
4.93987
4.94023
4.94053
4.94083
4.94115
4.94147
4.94181
4.94215
4.9425
4.94283
4.94318
4.94359
4.94399
4.9443
4.94458
4.94489
4.94522
4.9388
4.93908
4.93935
4.93967
4.93998
4.9403
4.94062
4.94093
4.94124
4.94158
4.94192
4.9422
4.94253
4.94291
4.94328
4.94363
4.94384
4.94442
4.93836
4.93858
4.93881
4.93911
4.93943
4.93976
4.94008
4.9404
4.94071
4.94101
4.94132
4.94164
4.94192
4.94223
4.94262
4.94304
4.94342
4.94375
4.93798
4.93824
4.93836
4.93854
4.93885
4.9392
4.93955
4.93987
4.94019
4.9405
4.94078
4.94108
4.94139
4.94169
4.942
4.94239
4.94279
4.9432
4.93748
4.93782
4.93813
4.93811
4.93834
4.93862
4.93899
4.93935
4.93968
4.93999
4.94029
4.94057
4.94086
4.94115
4.94148
4.94179
4.94214
4.9426
4.93649
4.93697
4.93723
4.93756
4.93787
4.93799
4.93818
4.93842
4.93873
4.93907
4.93948
4.93979
4.94007
4.94036
4.94065
4.94093
4.94124
4.9416
4.93614
4.93633
4.93665
4.93697
4.93725
4.93751
4.93776
4.93799
4.93826
4.93855
4.93881
4.93922
4.93954
4.93984
4.94013
4.94041
4.94073
4.94105
4.93565
4.93586
4.93615
4.93641
4.93674
4.93705
4.93733
4.93756
4.9378
4.93806
4.93832
4.93862
4.93897
4.93929
4.93959
4.9399
4.94028
4.94053
4.93498
4.93538
4.93565
4.93588
4.93615
4.93648
4.93681
4.93713
4.93737
4.9376
4.93786
4.93813
4.93843
4.93874
4.93904
4.93935
4.93966
4.9344
4.93447
4.93481
4.9351
4.93538
4.93563
4.93588
4.93619
4.93654
4.93693
4.93719
4.9374
4.93765
4.93793
4.93822
4.9385
4.93881
4.93917
4.93379
4.93409
4.93432
4.93455
4.93483
4.93512
4.93537
4.93561
4.93589
4.93621
4.93668
4.93698
4.93719
4.93743
4.93771
4.938
4.93829
4.93858
4.93331
4.93365
4.93388
4.93412
4.93433
4.93458
4.93488
4.93509
4.93533
4.93563
4.93592
4.93624
4.93667
4.93692
4.93719
4.93747
4.93778
4.93814
4.93266
4.93281
4.9331
4.93341
4.93369
4.93392
4.93413
4.93435
4.93462
4.93488
4.9351
4.93541
4.93571
4.93602
4.93636
4.93664
4.93691
4.9372
4.93207
4.93233
4.93264
4.93291
4.93321
4.93351
4.93376
4.93396
4.93418
4.9344
4.93465
4.93487
4.93518
4.93545
4.93575
4.93605
4.93634
4.9367
4.9316
4.93181
4.9321
4.93238
4.93267
4.93299
4.9333
4.93357
4.93376
4.93393
4.93414
4.93444
4.93465
4.93496
4.93524
4.93551
4.93583
4.93608
4.93083
4.93141
4.93162
4.93187
4.93214
4.93242
4.93274
4.93306
4.93335
4.93357
4.93373
4.93395
4.93423
4.93445
4.93473
4.935
4.93526
4.93558
4.9306
4.93085
4.93112
4.93141
4.93165
4.93189
4.93217
4.93248
4.93279
4.93309
4.93338
4.93356
4.93377
4.93403
4.93424
4.93449
4.93472
4.92986
4.92996
4.93035
4.93056
4.93085
4.93119
4.93145
4.93168
4.93194
4.93224
4.93254
4.93282
4.93311
4.93332
4.93354
4.93377
4.93402
4.93431
4.92927
4.92953
4.92979
4.93007
4.93033
4.93063
4.93096
4.93124
4.93148
4.93172
4.93198
4.93227
4.93256
4.93287
4.9331
4.9333
4.93357
4.93381
4.92882
4.92903
4.92928
4.92954
4.92979
4.93007
4.93037
4.93066
4.93093
4.93116
4.93147
4.93172
4.93201
4.9323
4.93257
4.93281
4.93305
4.93333
4.92825
4.92852
4.92874
4.92897
4.92926
4.92952
4.92981
4.9301
4.93039
4.93063
4.93086
4.93117
4.93145
4.93174
4.93204
4.9323
4.93257
4.9328
4.92789
4.92798
4.92821
4.92841
4.92867
4.92897
4.92926
4.92955
4.92983
4.9301
4.93033
4.9306
4.93089
4.93117
4.93146
4.93179
4.93204
4.93236
4.92751
4.92769
4.9278
4.92795
4.92813
4.92838
4.9287
4.92901
4.9293
4.92957
4.92983
4.93009
4.93036
4.93064
4.93091
4.93119
4.93148
4.93174
4.92703
4.92726
4.92746
4.9276
4.92774
4.9279
4.92814
4.92846
4.92879
4.92907
4.92932
4.92959
4.92985
4.93012
4.93039
4.93067
4.93093
4.93119
4.92663
4.92678
4.92703
4.92725
4.92739
4.92758
4.92773
4.92793
4.92824
4.92856
4.92887
4.92912
4.92937
4.92962
4.92989
4.93016
4.93042
4.93074
4.92597
4.92619
4.92637
4.92662
4.92681
4.92702
4.92719
4.92741
4.92758
4.92775
4.92799
4.92828
4.92854
4.92891
4.92915
4.9294
4.92966
4.92995
4.9302
4.92549
4.92575
4.92599
4.92615
4.92641
4.92662
4.92682
4.92699
4.92719
4.92734
4.92756
4.92786
4.92815
4.92841
4.92868
4.92893
4.92917
4.92943
4.92527
4.92549
4.92573
4.92595
4.92618
4.92639
4.92657
4.92676
4.92702
4.92723
4.92741
4.92772
4.92796
4.9282
4.92843
4.92868
4.92897
4.92443
4.92465
4.92496
4.92523
4.92549
4.92573
4.92596
4.92618
4.92636
4.9266
4.92685
4.92707
4.9273
4.92756
4.92779
4.92802
4.92825
4.92845
4.9239
4.92415
4.92443
4.9247
4.92499
4.92526
4.92551
4.92576
4.926
4.92619
4.92643
4.92669
4.92688
4.92712
4.92734
4.92757
4.92781
4.92809
4.92333
4.92371
4.92392
4.92418
4.92446
4.92474
4.92501
4.92527
4.92554
4.92581
4.92601
4.92624
4.92648
4.92667
4.92689
4.92714
4.92736
4.92761
4.92325
4.92347
4.9237
4.92395
4.92423
4.92449
4.92474
4.925
4.92525
4.92547
4.92581
4.92601
4.92623
4.92645
4.92668
4.92691
4.92715
4.92278
4.92301
4.92325
4.92348
4.92373
4.924
4.92425
4.92449
4.92475
4.92508
4.92527
4.92557
4.92579
4.92602
4.92624
4.92647
4.92672
4.92202
4.92246
4.92255
4.92273
4.92302
4.92325
4.92349
4.92376
4.92404
4.92426
4.92453
4.92485
4.92507
4.9253
4.92553
4.92577
4.92605
4.92625
4.92145
4.92179
4.92214
4.92229
4.92247
4.92277
4.92303
4.92326
4.92352
4.92376
4.92395
4.92425
4.92451
4.92478
4.92504
4.92527
4.92555
4.92098
4.92128
4.92154
4.92182
4.92203
4.92227
4.92257
4.92281
4.92302
4.92328
4.92351
4.92367
4.92399
4.92425
4.92451
4.92476
4.92505
4.92022
4.9205
4.92075
4.92105
4.92131
4.92155
4.92179
4.92204
4.92238
4.92262
4.92282
4.9231
4.92329
4.92346
4.92372
4.92399
4.92426
4.9245
4.91978
4.92001
4.92027
4.92052
4.92078
4.92104
4.92142
4.92172
4.92184
4.92216
4.92236
4.92258
4.92288
4.92308
4.92327
4.9235
4.92378
4.92402
4.91918
4.91954
4.91972
4.91998
4.92027
4.92055
4.92081
4.92135
4.92177
4.92167
4.92186
4.92211
4.92237
4.92264
4.92288
4.92309
4.92329
4.92354
4.91862
4.91897
4.91934
4.91952
4.91972
4.92
4.9204
4.92064
4.92083
4.9212
4.92134
4.92162
4.92189
4.92216
4.92244
4.9227
4.92292
4.92315
4.91808
4.91837
4.91847
4.91878
4.91909
4.91931
4.9195
4.91969
4.92008
4.92046
4.92066
4.92087
4.92109
4.92137
4.92161
4.92188
4.92214
4.92249
4.92272
4.91759
4.91785
4.91804
4.91824
4.91851
4.91878
4.91904
4.91917
4.91939
4.91968
4.92004
4.92038
4.92062
4.92086
4.9211
4.92134
4.92161
4.92186
4.92217
4.91698
4.91758
4.91777
4.91799
4.91821
4.91841
4.91863
4.91888
4.91912
4.91944
4.9198
4.92006
4.92033
4.92058
4.92082
4.92106
4.92136
4.92169
4.91629
4.91672
4.91725
4.91753
4.91772
4.91787
4.91807
4.91834
4.91861
4.91891
4.91916
4.91953
4.91978
4.92004
4.92029
4.92055
4.92078
4.91559
4.91591
4.91634
4.91682
4.91716
4.91739
4.91758
4.91779
4.9181
4.91837
4.91871
4.91896
4.91925
4.91951
4.91976
4.92002
4.92031
4.91491
4.91522
4.9155
4.91588
4.91631
4.9167
4.91707
4.91737
4.91762
4.91788
4.91814
4.91844
4.91871
4.91898
4.91926
4.9195
4.91974
4.91383
4.91423
4.91455
4.91489
4.91517
4.91552
4.91588
4.91632
4.91679
4.9171
4.91736
4.91765
4.91793
4.91822
4.91846
4.9187
4.91898
4.91925
4.91318
4.91358
4.91392
4.9143
4.91459
4.91489
4.91519
4.91551
4.91597
4.91642
4.91672
4.91704
4.91738
4.91764
4.91792
4.91817
4.91843
4.91233
4.91279
4.9132
4.91359
4.91392
4.91423
4.91451
4.91482
4.91516
4.91562
4.91604
4.91637
4.9167
4.91702
4.91733
4.91761
4.9179
4.91139
4.91195
4.91238
4.91284
4.91322
4.91352
4.91379
4.91407
4.91441
4.91478
4.91526
4.91566
4.916
4.91636
4.9167
4.91703
4.91738
4.91078
4.91104
4.91147
4.91192
4.91239
4.91284
4.91315
4.91344
4.91378
4.91419
4.91453
4.91491
4.91531
4.91567
4.91605
4.91639
4.91671
4.90992
4.91043
4.91063
4.91093
4.91145
4.91196
4.91244
4.91285
4.91319
4.91354
4.91392
4.91427
4.91464
4.915
4.91537
4.91572
4.91609
4.90971
4.90966
4.90997
4.91023
4.91059
4.91113
4.9116
4.91206
4.91252
4.91288
4.91329
4.9137
4.91403
4.91435
4.91471
4.91512
4.91545
4.909
4.9095
4.9097
4.91003
4.91046
4.91093
4.91133
4.91177
4.91223
4.9126
4.91303
4.91341
4.91374
4.91408
4.91445
4.91489
4.90853
4.9087
4.90917
4.90954
4.90991
4.91025
4.91061
4.91107
4.91154
4.91198
4.91234
4.91274
4.9131
4.91344
4.91379
4.90655
4.90719
4.90785
4.90829
4.90879
4.90914
4.90953
4.9099
4.91028
4.91081
4.91128
4.91172
4.9121
4.91245
4.91281
4.91319
4.90533
4.90606
4.90649
4.90713
4.90772
4.90832
4.90877
4.90911
4.90959
4.91002
4.91047
4.91097
4.91144
4.91181
4.91222
4.9125
4.90446
4.90488
4.90543
4.90603
4.90658
4.90719
4.90771
4.90823
4.90869
4.90913
4.90966
4.91007
4.91057
4.91105
4.91157
4.91188
4.90266
4.9032
4.90378
4.90434
4.90489
4.90558
4.90615
4.9067
4.90712
4.90764
4.90814
4.90871
4.90928
4.90972
4.91018
4.91062
4.90137
4.90215
4.90275
4.90322
4.90375
4.90433
4.90508
4.90567
4.90621
4.9066
4.90699
4.90748
4.90814
4.90871
4.90926
4.90966
4.90022
4.90097
4.9016
4.9023
4.90278
4.9033
4.90393
4.90451
4.90507
4.90555
4.90594
4.90642
4.90692
4.90756
4.9081
4.90855
4.89908
4.89967
4.90031
4.90123
4.90177
4.90233
4.90295
4.90355
4.90406
4.90458
4.905
4.90539
4.9059
4.9065
4.90704
4.90759
4.89784
4.89823
4.89911
4.89976
4.90058
4.90126
4.90176
4.90234
4.90305
4.90363
4.90412
4.90453
4.90498
4.90539
4.90579
4.90643
4.89646
4.89714
4.89791
4.89865
4.89934
4.90003
4.90058
4.90116
4.90171
4.90241
4.9031
4.90364
4.90408
4.90448
4.90506
4.89549
4.89597
4.89663
4.89738
4.89806
4.89879
4.89954
4.90004
4.90061
4.90123
4.90186
4.90246
4.90313
4.90362
4.9041
4.90444
4.89471
4.89514
4.89557
4.89627
4.89686
4.89755
4.89819
4.89903
4.89957
4.90016
4.90075
4.90153
4.9021
4.90267
4.90312
4.90386
4.89398
4.89433
4.89475
4.89517
4.8959
4.89663
4.89724
4.89775
4.89843
4.8991
4.89966
4.90025
4.90093
4.90154
4.90218
4.89351
4.89386
4.8944
4.89478
4.89545
4.89619
4.89691
4.89744
4.89803
4.8987
4.89927
4.89984
4.90048
4.90104
4.89257
4.89291
4.89343
4.89396
4.89438
4.89492
4.89572
4.89643
4.89704
4.89762
4.89823
4.89879
4.89934
4.89083
4.89133
4.89187
4.89231
4.89293
4.89354
4.89405
4.89469
4.89533
4.89597
4.89659
4.89714
4.89773
4.89836
4.88978
4.89034
4.8909
4.89138
4.89192
4.89245
4.89304
4.89365
4.89433
4.89494
4.89554
4.89614
4.89672
4.89729
4.88863
4.88925
4.88984
4.89051
4.89089
4.89147
4.89198
4.89256
4.89314
4.89388
4.89452
4.89514
4.89571
4.89633
4.88755
4.88814
4.88873
4.88936
4.88994
4.89049
4.89108
4.89155
4.89208
4.8926
4.89335
4.89387
4.8945
4.89531
4.88646
4.88703
4.88766
4.88819
4.88875
4.88922
4.89003
4.89074
4.89128
4.89163
4.89223
4.89295
4.89348
4.89398
4.88529
4.88589
4.88662
4.88712
4.88762
4.88815
4.88852
4.88935
4.8903
4.89101
4.8913
4.89191
4.89264
4.88671
4.8871
4.88763
4.88808
4.88868
4.88954
4.89046
4.8909
4.89146
4.88621
4.8867
4.8872
4.88768
4.88835
4.88894
4.88961
4.89028
4.88488
4.8858
4.88627
4.88681
4.88738
4.8879
4.88875
4.8832
4.88398
4.88484
4.88572
4.88638
4.88685
4.8873
4.88341
4.88413
4.88501
4.88578
4.88625
4.88119
4.88198
4.883
4.88379
4.88442
4.88508
4.87589
4.87644
4.87959
4.88041
4.88289
4.87572
4.87667
4.87741
4.87807
4.87873
4.88024
4.87495
4.87777
4.87849
4.87891
4.87969
4.87446
4.87574
4.87743
4.85926
4.8115
4.73715
4.96593
4.95724
4.94619
4.93572
4.91716
4.8906
4.85247
4.80427
4.68841
4.98278
4.9811
4.9781
4.97595
4.97073
4.96553
4.95852
4.94868
4.93741
4.92193
4.90159
4.87155
4.8403
4.8122
4.80416
4.98457
4.98452
4.98479
4.98411
4.98355
4.98173
4.97933
4.97632
4.97246
4.96764
4.96162
4.9583
4.94996
4.93521
4.92056
4.91
4.89462
4.90121
4.8952
4.84717
4.66995
4.27645
4.98328
4.98403
4.98476
4.98529
4.98543
4.98553
4.98537
4.98484
4.98394
4.98252
4.9805
4.97865
4.97695
4.97515
4.97097
4.96812
4.96597
4.96565
4.96503
4.96294
4.96684
4.97363
4.93769
4.98146
4.98182
4.98271
4.9834
4.98444
4.98503
4.98565
4.9861
4.98649
4.98658
4.98645
4.98614
4.98549
4.98514
4.98549
4.98659
4.98637
4.98549
4.98972
4.99425
4.9953
4.99685
5.00608
5.02242
5.05278
4.98027
4.98048
4.98133
4.9819
4.98263
4.98314
4.98406
4.98506
4.98571
4.98671
4.98726
4.98767
4.98804
4.98796
4.98874
4.99022
4.99222
4.99464
4.99575
4.99774
5.00331
5.00938
5.01343
5.02042
5.03451
4.9785
4.97931
4.98
4.98051
4.98115
4.9819
4.98267
4.98346
4.9843
4.98515
4.98589
4.98708
4.98779
4.98872
4.9894
4.99078
4.99179
4.99452
4.99608
4.999
5.00276
5.00553
5.01276
5.0189
5.02407
4.97701
4.97782
4.97854
4.97923
4.97994
4.98048
4.98107
4.98183
4.98278
4.98354
4.98432
4.98517
4.98602
4.98729
4.98903
4.99027
4.99131
4.99346
4.99548
4.99853
5.00088
5.0038
5.00761
5.0123
5.01746
4.97427
4.97467
4.97566
4.97654
4.97734
4.97825
4.97912
4.9798
4.98048
4.98113
4.98183
4.98289
4.98375
4.98453
4.98545
4.9865
4.98796
4.99012
4.9915
4.99322
4.9957
4.99924
5.00094
5.00328
5.00644
5.00991
4.97227
4.97272
4.97343
4.97384
4.97472
4.97544
4.97616
4.97717
4.97808
4.97892
4.97958
4.98037
4.98116
4.98207
4.98288
4.98375
4.98461
4.98552
4.98662
4.988
4.99012
4.99201
4.99442
4.99736
4.99986
5.00204
5.00477
4.97149
4.97208
4.97264
4.9731
4.97363
4.97427
4.97507
4.97578
4.97672
4.97777
4.97864
4.97951
4.98018
4.98097
4.98211
4.98295
4.9837
4.98449
4.98541
4.98668
4.98811
4.98952
4.99193
4.99448
4.99751
4.96955
4.97006
4.97078
4.97129
4.97194
4.97246
4.97286
4.97332
4.97391
4.97463
4.97548
4.97637
4.97743
4.97851
4.9794
4.98026
4.98106
4.98219
4.98302
4.9837
4.98452
4.98561
4.98683
4.98768
4.99011
4.96869
4.96931
4.9697
4.97036
4.97092
4.97147
4.97212
4.97254
4.97308
4.9737
4.97431
4.97514
4.97606
4.97712
4.97818
4.97921
4.98021
4.98108
4.9822
4.98298
4.98373
4.9846
4.98566
4.98681
4.96634
4.96723
4.96767
4.96846
4.96886
4.96944
4.97006
4.97064
4.97121
4.97178
4.97226
4.97277
4.97343
4.97425
4.97495
4.97585
4.97676
4.97784
4.97891
4.98
4.98103
4.9821
4.98292
4.98367
4.98453
4.96537
4.9657
4.96621
4.96677
4.96725
4.96795
4.96856
4.96921
4.96982
4.97048
4.97098
4.97152
4.97198
4.97251
4.97313
4.97389
4.97467
4.97556
4.97653
4.97757
4.97854
4.9797
4.98107
4.98193
4.98272
4.96395
4.96448
4.96493
4.96542
4.96597
4.96644
4.96696
4.9675
4.96811
4.96876
4.96949
4.97015
4.97075
4.97127
4.9717
4.97216
4.97273
4.97363
4.97439
4.97524
4.9762
4.97712
4.97822
4.9793
4.98044
4.96225
4.96245
4.9633
4.96373
4.96415
4.96461
4.96506
4.96571
4.96614
4.96666
4.96713
4.96767
4.96836
4.9692
4.9698
4.97035
4.97088
4.97129
4.9718
4.97241
4.97342
4.97411
4.97491
4.97583
4.97679
4.97785
4.96114
4.96179
4.96211
4.96256
4.96305
4.96344
4.96384
4.96424
4.96474
4.9653
4.9658
4.96642
4.96689
4.96747
4.96818
4.96896
4.96956
4.97005
4.97055
4.97094
4.97138
4.97196
4.97283
4.97377
4.97465
4.97553
4.96045
4.96037
4.9608
4.96142
4.96193
4.96235
4.96277
4.96319
4.96358
4.96399
4.96447
4.96497
4.96547
4.96612
4.96666
4.96727
4.96796
4.96866
4.96924
4.96978
4.97032
4.97077
4.97118
4.97175
4.97264
4.9736
4.9744
4.95854
4.95936
4.95979
4.96023
4.96072
4.96122
4.96169
4.96216
4.96259
4.963
4.96338
4.96381
4.96428
4.96473
4.96521
4.9658
4.96638
4.96702
4.96763
4.96818
4.96883
4.9695
4.97006
4.97054
4.971
4.97167
4.9726
4.95774
4.95832
4.95879
4.9594
4.95994
4.96048
4.96096
4.96145
4.96196
4.96244
4.96286
4.96325
4.96367
4.96409
4.9645
4.96494
4.96547
4.96606
4.96674
4.96741
4.96793
4.96841
4.96922
4.96973
4.97028
4.97091
4.95669
4.95695
4.95753
4.95798
4.95851
4.95903
4.95961
4.96014
4.96061
4.96111
4.96165
4.96227
4.96275
4.96312
4.96351
4.96392
4.96431
4.96473
4.9652
4.96571
4.96638
4.96701
4.96766
4.96827
4.96886
4.96955
4.95531
4.95565
4.95633
4.95668
4.95717
4.95766
4.95816
4.9587
4.95924
4.95978
4.96032
4.96088
4.96146
4.96204
4.9626
4.96297
4.96336
4.96375
4.96414
4.96454
4.96495
4.96546
4.96605
4.96665
4.96735
4.96804
4.95421
4.95488
4.95538
4.95587
4.95634
4.95679
4.95731
4.9578
4.95836
4.95893
4.95948
4.96005
4.96066
4.96129
4.96193
4.96241
4.96278
4.96317
4.96355
4.96394
4.96433
4.96475
4.96528
4.9658
4.96647
4.95284
4.95359
4.95397
4.95451
4.955
4.95552
4.95599
4.95645
4.95696
4.95749
4.95806
4.95865
4.95919
4.95976
4.96036
4.96101
4.96171
4.96217
4.96254
4.96293
4.9633
4.96369
4.9641
4.96455
4.96508
4.96563
4.95187
4.9523
4.95269
4.95318
4.9537
4.95415
4.95463
4.95518
4.95568
4.95613
4.95662
4.95716
4.95776
4.95835
4.95887
4.95942
4.96003
4.96063
4.96126
4.96184
4.96223
4.96263
4.96299
4.9634
4.96387
4.96448
4.95074
4.95099
4.95156
4.95192
4.95237
4.95286
4.95334
4.95381
4.95429
4.95488
4.95537
4.95584
4.95633
4.95685
4.95744
4.95804
4.95855
4.95906
4.95968
4.96031
4.96087
4.96145
4.96189
4.96227
4.96272
4.96317
4.96354
4.94969
4.95032
4.95076
4.95125
4.95166
4.95209
4.95254
4.95303
4.9535
4.95397
4.95452
4.95502
4.95549
4.95602
4.95657
4.95715
4.95774
4.95827
4.95878
4.95933
4.95993
4.96049
4.96102
4.9615
4.96199
4.96248
4.94877
4.94915
4.94951
4.94999
4.95051
4.95098
4.95142
4.95186
4.95229
4.95274
4.95323
4.95372
4.95421
4.95465
4.95515
4.95573
4.95628
4.95683
4.95741
4.95793
4.95842
4.95893
4.95951
4.96005
4.96049
4.96111
4.94794
4.94848
4.94884
4.94919
4.94964
4.9502
4.95067
4.95118
4.95166
4.9521
4.95251
4.95299
4.9535
4.95397
4.9544
4.95491
4.95547
4.956
4.95652
4.957
4.95751
4.95806
4.95857
4.95909
4.95966
4.94699
4.94738
4.94778
4.94814
4.94852
4.94888
4.94932
4.94991
4.95042
4.95092
4.95147
4.95193
4.95231
4.95276
4.95326
4.95375
4.95422
4.95466
4.95517
4.95567
4.95619
4.95671
4.95719
4.95768
4.95815
4.94629
4.94675
4.94714
4.94749
4.94787
4.94824
4.94863
4.94912
4.94971
4.95018
4.95066
4.95117
4.95165
4.95202
4.95246
4.95299
4.95351
4.95404
4.95445
4.95494
4.95537
4.95583
4.95635
4.95697
4.95748
4.94505
4.94562
4.94605
4.94645
4.94687
4.94723
4.94759
4.94796
4.94838
4.94891
4.94951
4.94996
4.95039
4.95088
4.95135
4.95172
4.95213
4.9527
4.95319
4.95375
4.95421
4.95464
4.95511
4.95564
4.95604
4.94439
4.94483
4.94531
4.94581
4.9462
4.94659
4.94695
4.9473
4.94768
4.94813
4.94864
4.94922
4.94969
4.95011
4.95061
4.95109
4.95147
4.95191
4.95244
4.95292
4.95344
4.95391
4.95436
4.95483
4.95541
4.9434
4.94386
4.94419
4.94455
4.945
4.94548
4.94586
4.94631
4.94666
4.94701
4.9474
4.94786
4.94836
4.94893
4.94941
4.94982
4.95029
4.95075
4.95119
4.95165
4.95212
4.95263
4.95316
4.9536
4.95411
4.94296
4.94321
4.94359
4.94392
4.94426
4.94464
4.94514
4.94555
4.94598
4.94637
4.94672
4.94711
4.9476
4.94812
4.94868
4.94915
4.94955
4.94996
4.95041
4.95086
4.95134
4.95182
4.95229
4.95282
4.94204
4.94224
4.94267
4.943
4.94334
4.94365
4.94399
4.94435
4.94476
4.94515
4.94558
4.94601
4.94637
4.94677
4.94732
4.94789
4.94844
4.94891
4.94929
4.94969
4.95011
4.95056
4.95105
4.95153
4.95204
4.94139
4.94173
4.94208
4.94243
4.94276
4.94311
4.94342
4.94374
4.9441
4.94446
4.9448
4.9452
4.94565
4.94604
4.94645
4.94697
4.94756
4.94812
4.94858
4.94901
4.94942
4.94986
4.95029
4.95079
4.94058
4.94083
4.9412
4.9415
4.94184
4.94218
4.94251
4.94286
4.94318
4.9435
4.94389
4.94424
4.94454
4.94488
4.94529
4.94572
4.94615
4.94662
4.94719
4.94775
4.94823
4.94868
4.9491
4.94956
4.95
4.94004
4.94033
4.94066
4.94096
4.94128
4.9416
4.94194
4.94227
4.94261
4.94296
4.94327
4.94365
4.94401
4.94431
4.94463
4.94497
4.94539
4.94582
4.9463
4.94683
4.94734
4.94785
4.94837
4.94885
4.93922
4.93952
4.93982
4.9401
4.94043
4.94074
4.94105
4.94135
4.94168
4.94203
4.94237
4.94274
4.94307
4.94343
4.94379
4.94411
4.94441
4.94472
4.94508
4.94551
4.94597
4.94647
4.94696
4.94755
4.94804
4.9387
4.93901
4.9393
4.93958
4.93989
4.9402
4.94051
4.94081
4.94112
4.94145
4.94179
4.94211
4.94245
4.94282
4.94321
4.94359
4.94391
4.9442
4.9445
4.94485
4.94525
4.9457
4.94619
4.94669
4.93825
4.93853
4.93879
4.93908
4.93936
4.93966
4.93997
4.94028
4.94059
4.9409
4.94122
4.94157
4.94189
4.9422
4.94254
4.94293
4.94332
4.94365
4.94394
4.94428
4.94463
4.94501
4.94541
4.94592
4.93757
4.93779
4.93807
4.93831
4.93857
4.93884
4.93913
4.93943
4.93975
4.94006
4.94037
4.94068
4.94099
4.94133
4.94165
4.94196
4.94229
4.94268
4.94307
4.94342
4.94373
4.94405
4.94442
4.94483
4.9452
4.93711
4.93738
4.93763
4.93787
4.93811
4.93834
4.9386
4.93888
4.9392
4.93953
4.93986
4.94017
4.94047
4.94077
4.94108
4.9414
4.94172
4.94206
4.94243
4.9428
4.94315
4.94348
4.94381
4.94412
4.93662
4.93681
4.93716
4.93743
4.93768
4.93792
4.93814
4.93838
4.93865
4.93897
4.93931
4.93967
4.93998
4.94027
4.94057
4.94087
4.94118
4.94151
4.94184
4.94219
4.94255
4.94288
4.94324
4.94361
4.93609
4.93637
4.9366
4.93691
4.9372
4.93747
4.93773
4.93796
4.93819
4.93846
4.93876
4.93908
4.93945
4.93978
4.94006
4.94036
4.94066
4.94097
4.94128
4.9416
4.94195
4.9423
4.94268
4.93531
4.93559
4.93585
4.93611
4.93637
4.93666
4.93696
4.93726
4.93753
4.93777
4.938
4.93828
4.93855
4.93886
4.93922
4.93955
4.93984
4.94013
4.94044
4.94075
4.94104
4.94138
4.94171
4.94198
4.93472
4.93506
4.93534
4.93562
4.93587
4.93613
4.93642
4.93672
4.93703
4.93733
4.93758
4.93781
4.93806
4.93833
4.93864
4.93899
4.93931
4.93961
4.9399
4.9402
4.94054
4.94084
4.94117
4.94152
4.93428
4.93452
4.93482
4.9351
4.93537
4.93563
4.93589
4.93617
4.93648
4.93678
4.93711
4.93739
4.93762
4.93786
4.93813
4.93843
4.93875
4.93907
4.93937
4.93966
4.93997
4.94031
4.94056
4.93355
4.93373
4.93404
4.9343
4.93458
4.93484
4.93512
4.93538
4.93564
4.93592
4.93624
4.93654
4.93689
4.93721
4.93743
4.93767
4.93794
4.93823
4.93852
4.93882
4.93912
4.93943
4.93973
4.94006
4.93302
4.93326
4.93354
4.93381
4.93408
4.93434
4.93459
4.93486
4.93512
4.93536
4.93563
4.93597
4.93628
4.93663
4.93696
4.93721
4.93745
4.93772
4.938
4.93829
4.93859
4.9389
4.93919
4.93956
4.93244
4.93278
4.93307
4.93333
4.93359
4.93385
4.93411
4.93435
4.93461
4.93486
4.9351
4.93533
4.93567
4.936
4.93632
4.93665
4.93694
4.93719
4.93747
4.93776
4.93805
4.93834
4.93869
4.93904
4.93196
4.93228
4.93255
4.93284
4.93312
4.93338
4.93364
4.9339
4.93414
4.93439
4.93463
4.93487
4.9351
4.93542
4.93575
4.93604
4.93634
4.93664
4.93692
4.93721
4.93751
4.93784
4.93812
4.93124
4.93155
4.93173
4.93205
4.93232
4.93261
4.9329
4.93317
4.93345
4.93371
4.93395
4.93419
4.93441
4.93464
4.93488
4.93517
4.93548
4.93576
4.93605
4.93635
4.93664
4.93696
4.93725
4.93764
4.93088
4.93098
4.93131
4.93154
4.93182
4.9321
4.93238
4.93266
4.93295
4.93324
4.93352
4.93374
4.93395
4.93418
4.93442
4.93467
4.93495
4.93524
4.93551
4.93579
4.93609
4.93638
4.93671
4.93702
4.9302
4.93058
4.93078
4.93105
4.93132
4.9316
4.93188
4.93215
4.93242
4.93272
4.93302
4.93331
4.93354
4.93373
4.93397
4.93421
4.93445
4.93473
4.935
4.93526
4.93553
4.93582
4.9361
4.92985
4.93002
4.9303
4.93054
4.93082
4.9311
4.93139
4.93166
4.93192
4.93218
4.93247
4.93277
4.93306
4.93332
4.93353
4.93376
4.934
4.93424
4.9345
4.93475
4.93502
4.93529
4.93556
4.92927
4.92955
4.9298
4.93006
4.9303
4.93057
4.93087
4.93118
4.93147
4.93172
4.93197
4.93224
4.93252
4.93281
4.93307
4.93328
4.93352
4.93377
4.93402
4.93428
4.9345
4.93472
4.93508
4.92881
4.92906
4.9293
4.92954
4.9298
4.93005
4.93032
4.93061
4.93093
4.93123
4.9315
4.93175
4.93201
4.93227
4.93255
4.93281
4.93304
4.93328
4.93353
4.93378
4.93402
4.93426
4.9346
4.92836
4.92858
4.92881
4.92904
4.92928
4.92953
4.92979
4.93005
4.93034
4.93064
4.93092
4.9312
4.93149
4.93176
4.93202
4.93229
4.93255
4.9328
4.93305
4.9333
4.93355
4.93379
4.93398
4.92789
4.92811
4.92832
4.92854
4.92877
4.92901
4.92927
4.92954
4.9298
4.93007
4.93037
4.93064
4.93091
4.93121
4.93148
4.93176
4.93203
4.9323
4.93255
4.9328
4.93304
4.93329
4.93356
4.92727
4.92749
4.92767
4.92787
4.92807
4.92828
4.92849
4.92873
4.92901
4.92929
4.92955
4.92982
4.93008
4.93035
4.93063
4.93092
4.93121
4.93149
4.93176
4.93203
4.93228
4.93255
4.9328
4.92693
4.92708
4.9273
4.92748
4.92764
4.92783
4.92802
4.92821
4.92846
4.92875
4.92906
4.92933
4.92958
4.92984
4.93009
4.93037
4.93066
4.93094
4.93122
4.9315
4.93177
4.93203
4.93231
4.92642
4.92667
4.92686
4.92707
4.92725
4.92743
4.92761
4.9278
4.92798
4.92822
4.92852
4.92885
4.92913
4.92938
4.92962
4.92987
4.93014
4.93041
4.93069
4.93097
4.93124
4.93149
4.93177
4.92605
4.92622
4.92643
4.92663
4.92684
4.92703
4.92722
4.92741
4.92762
4.9278
4.928
4.92829
4.92861
4.9289
4.92917
4.92941
4.92965
4.92991
4.93017
4.93044
4.93071
4.93099
4.93127
4.92555
4.92581
4.92601
4.92621
4.92641
4.92662
4.92682
4.92702
4.9272
4.92743
4.92762
4.92781
4.92809
4.92838
4.92866
4.92894
4.92919
4.92942
4.92967
4.92992
4.93018
4.93047
4.93078
4.92505
4.9253
4.92553
4.92576
4.92599
4.9262
4.9264
4.9266
4.9268
4.92699
4.92721
4.92741
4.92762
4.92791
4.9282
4.92846
4.92871
4.92895
4.92919
4.92943
4.92968
4.92995
4.93022
4.92463
4.92477
4.92503
4.92526
4.92551
4.92575
4.92598
4.92619
4.92637
4.92654
4.92674
4.927
4.92723
4.92745
4.92772
4.92798
4.92823
4.92848
4.92872
4.92897
4.92923
4.92946
4.92972
4.92402
4.92429
4.92449
4.92474
4.925
4.92526
4.92552
4.92576
4.92598
4.92616
4.92633
4.92656
4.92682
4.92706
4.9273
4.92754
4.92779
4.92803
4.92826
4.9285
4.92876
4.92899
4.92922
4.9235
4.92378
4.92399
4.92424
4.92447
4.92474
4.92501
4.92528
4.92553
4.92577
4.92598
4.92618
4.92641
4.92664
4.92687
4.9271
4.92734
4.92758
4.92781
4.92803
4.92828
4.92854
4.9288
4.92306
4.92327
4.92351
4.92375
4.92398
4.92423
4.92449
4.92475
4.92501
4.92527
4.92553
4.92577
4.926
4.92623
4.92644
4.92665
4.92688
4.92712
4.92736
4.92759
4.92782
4.92804
4.92239
4.92253
4.92287
4.92305
4.92326
4.92351
4.92374
4.92399
4.92425
4.92449
4.92473
4.925
4.92528
4.92552
4.92578
4.926
4.92622
4.92644
4.92667
4.92691
4.92715
4.92738
4.92759
4.92172
4.92203
4.92227
4.92259
4.9228
4.923
4.92327
4.92351
4.92376
4.92402
4.92426
4.92448
4.92475
4.92504
4.9253
4.92556
4.92578
4.926
4.92623
4.92647
4.92671
4.92696
4.92717
4.92112
4.92148
4.92175
4.92204
4.92235
4.92256
4.92277
4.92303
4.92328
4.92353
4.92379
4.92403
4.92425
4.92453
4.9248
4.92505
4.92531
4.92554
4.92576
4.926
4.92627
4.92651
4.92675
4.92059
4.92091
4.92122
4.9215
4.92177
4.9221
4.92232
4.92253
4.9228
4.92306
4.92329
4.92354
4.92376
4.92397
4.92426
4.92453
4.92479
4.92505
4.9253
4.92554
4.92577
4.92604
4.92631
4.92015
4.92046