/*--------------------------------*- C++ -*----------------------------------*\
  =========                 |
  \\      /  F ield         | OpenFOAM: The Open Source CFD Toolbox
   \\    /   O peration     | Website:  https://openfoam.org
    \\  /    A nd           | Version:  8
     \\/     M anipulation  |
\*---------------------------------------------------------------------------*/
FoamFile
{
    version     2.0;
    format      ascii;
    class       volScalarField;
    location    "155";
    object      epsilon;
}
// * * * * * * * * * * * * * * * * * * * * * * * * * * * * * * * * * * * * * //

dimensions      [0 2 -3 0 0 0 0];

internalField   nonuniform List<scalar> 
12225
(
285.521
270.699
257.913
243.815
232.447
223.104
216.778
212.706
212.743
213.96
217.25
220.892
228.143
232.792
241.396
246.871
254.269
264.649
52.4856
91.907
106.947
114.787
124.808
136.84
152.654
169.972
191.124
211.015
235.329
255.594
281.315
299.512
325.306
339.711
365.808
374.722
20.3176
34.8714
44.6581
50.4915
55.3732
59.6378
64.6362
69.6807
76.2956
83.2356
91.4352
99.4016
108.201
117.097
125.622
135.633
142.808
154.592
15.3451
19.7036
24.103
27.5796
30.4857
32.8837
35.1426
37.3099
39.4906
41.938
44.3303
47.2309
49.6867
53.0847
55.4474
59.3147
61.5567
65.8569
14.6497
15.863
17.3635
19.0794
20.6329
22.032
23.2408
24.4378
25.4398
26.602
27.5217
28.7673
29.6359
30.9991
31.8285
33.2902
34.1202
35.711
14.7065
14.8767
15.2003
15.869
16.5641
17.2892
17.9215
18.5867
19.1178
19.7366
20.1933
20.8022
21.2109
21.8278
22.2049
22.8357
23.1948
23.8819
14.7421
14.6201
14.6247
14.737
14.929
15.22
15.4905
15.8098
16.0706
16.3835
16.6184
16.9215
17.1322
17.4294
17.619
17.9168
18.0881
18.416
14.7626
14.5867
14.4636
14.3814
14.3667
14.39
14.438
14.534
14.6184
14.7369
14.831
14.957
15.0483
15.1772
15.2624
15.3939
15.4729
15.624
14.7666
14.5909
14.4345
14.2964
14.1849
14.1044
14.0397
14.0067
13.9814
13.9786
13.9809
13.9918
14.0043
14.0299
14.0477
14.0803
14.1045
14.1478
14.7663
14.594
14.432
14.2821
14.1429
14.0219
13.9115
13.8193
13.737
13.6698
13.6102
13.5633
13.5181
13.4872
13.4517
13.4345
13.4026
13.4016
14.7658
14.5945
14.4321
14.2803
14.1361
14.0032
13.8782
13.7644
13.6581
13.5628
13.4735
13.3951
13.3197
13.256
13.1915
13.1408
13.0839
13.0453
14.7657
14.5943
14.4321
14.2798
14.1353
13.9999
13.8715
13.7518
13.6384
13.5336
13.434
13.3429
13.2556
13.177
13.1001
13.0327
12.9646
12.9074
14.7657
14.5941
14.432
14.2794
14.1349
13.9989
13.8698
13.7484
13.6331
13.5249
13.4219
13.3256
13.2337
13.1482
13.0662
12.9905
12.9171
12.8502
14.7657
14.5939
14.4318
14.279
14.1346
13.9983
13.8691
13.7472
13.6315
13.5222
13.4184
13.3203
13.227
13.1389
13.0549
12.9758
12.9002
12.8291
14.7657
14.5938
14.4317
14.2787
14.1342
13.9977
13.8686
13.7464
13.6307
13.521
13.417
13.3185
13.2248
13.136
13.0516
12.9714
12.8952
12.8228
14.7657
14.5938
14.4316
14.2785
14.1339
13.9973
13.8681
13.7458
13.63
13.5202
13.4161
13.3174
13.2237
13.1346
13.0501
12.9697
12.8932
12.8205
14.7657
14.5937
14.4315
14.2783
14.1337
13.997
13.8677
13.7453
13.6294
13.5196
13.4154
13.3166
13.2227
13.1337
13.049
12.9685
12.8919
12.8191
14.7657
14.5937
14.4314
14.2782
14.1335
13.9968
13.8674
13.745
13.629
13.5191
13.4149
13.316
13.2221
13.1329
13.0482
12.9676
12.891
12.8181
14.7657
14.5937
14.4314
14.2782
14.1335
13.9967
13.8673
13.7448
13.6288
13.5189
13.4146
13.3157
13.2218
13.1326
13.0478
12.9672
12.8905
12.8176
14.7657
14.5937
14.4314
14.2783
14.1336
13.9968
13.8675
13.745
13.629
13.5191
13.4148
13.3159
13.222
13.1328
13.048
12.9674
12.8908
12.8179
14.7657
14.5937
14.4315
14.2784
14.1338
13.997
13.8678
13.7453
13.6295
13.5196
13.4155
13.3167
13.223
13.1339
13.0494
12.9691
12.8928
12.8201
14.7657
14.5937
14.4316
14.2785
14.1341
13.9975
13.8685
13.7464
13.6312
13.5221
13.4191
13.3214
13.2294
13.1419
13.0596
12.9811
12.9075
12.8369
14.7658
14.5937
14.4318
14.2788
14.1353
14.0002
13.8742
13.756
13.6464
13.5435
13.4485
13.3592
13.2771
13.1993
13.1283
13.0602
12.9989
12.9387
14.7655
14.5928
14.4328
14.2844
14.1515
14.0321
13.929
13.8375
13.7593
13.6894
13.6307
13.5769
13.5328
13.4905
13.4574
13.423
13.3988
13.3693
14.7592
14.5932
14.4603
14.3602
14.3029
14.2766
14.2805
14.2921
14.321
14.3531
14.3958
14.4345
14.4823
14.5216
14.5718
14.6087
14.6614
14.6936
14.7213
14.6911
14.754
14.9176
15.1828
15.4611
15.7475
16.0119
16.2722
16.5036
16.7358
16.9383
17.1503
17.3305
17.5304
17.693
17.8882
18.0352
14.7477
15.5124
16.5473
17.6841
18.7043
19.5674
20.337
20.9965
21.619
22.1656
22.7182
23.21
23.739
24.2032
24.7314
25.1811
25.7232
26.164
15.9872
20.992
25.0238
27.7603
29.7845
31.3581
32.7765
34.0571
35.3584
36.6149
37.9736
39.2948
40.7587
42.1423
43.7136
45.1688
46.878
48.352
29.9032
47.218
54.8693
58.6728
61.6131
64.4304
67.5785
70.9743
74.7344
78.7086
82.9781
87.3352
91.8942
96.4367
101.085
105.604
110.156
114.555
165.798
160.075
154.899
149.564
144.479
139.677
135.614
132.108
129.27
126.973
125.319
124.043
123.338
122.822
122.838
122.955
123.279
123.822
1.32699
1.09897
1.80791
2.47467
3.14383
3.81394
4.48156
5.13732
5.768
6.35784
6.89045
7.34856
7.71476
7.97123
8.08476
8.07089
7.91306
7.67799
7.83801
8.23865
8.7127
39.6742
42.0771
41.2801
40.2463
40.6819
9.0566
40.7552
40.4917
45.3015
48.3043
52.17
56.0218
60.1125
64.3618
68.7917
73.3948
78.1797
83.1429
88.2916
93.6147
99.1235
104.815
110.703
116.782
123.068
129.555
136.261
143.177
150.322
157.686
165.289
173.119
181.196
189.507
198.074
206.88
215.947
225.256
234.833
244.653
254.743
265.077
275.684
286.532
297.653
309.011
320.64
332.501
344.632
356.988
369.61
382.45
395.55
408.857
422.417
436.172
450.173
464.359
478.784
493.381
508.208
523.192
538.396
553.735
569.274
584.929
600.762
616.699
632.776
648.951
665.179
681.435
697.68
713.897
730.065
746.234
762.51
778.862
795.162
811.434
827.629
843.721
859.665
875.414
890.937
906.172
921.093
935.617
949.714
963.288
976.298
988.638
1000.26
1011.06
1021
1029.97
1037.94
1044.73
1050.12
1054.08
1056.22
1056.34
1054.78
1052
1047.35
1040.78
1032.34
1021.77
1009.28
994.999
978.993
961.436
942.424
922.171
900.839
878.599
855.607
832.156
808.629
785.27
766.917
751.727
736.757
721.58
706.222
690.777
675.344
660.006
644.837
629.897
615.236
600.897
586.912
573.308
560.099
547.327
534.873
522.845
511.266
500.144
489.473
479.252
469.482
460.117
451.161
442.627
434.506
426.79
419.463
412.506
405.892
399.587
393.551
387.727
381.989
376.183
369.685
362.805
336.079
4.14566
2.41952
2.36465
2.61882
3.01218
3.48959
4.0249
4.59739
5.18881
5.78338
6.36813
6.93304
7.47101
7.97867
8.48775
9.07211
9.80894
10.8039
12.1817
14.0959
16.9275
21.43
22.7151
23.0527
23.145
23.0889
22.3971
26.6843
28.2986
30.2639
32.1198
34.1004
36.1399
38.2505
40.4261
42.6705
44.985
47.372
49.8323
52.3676
54.9775
57.6651
60.4317
63.2802
66.2117
69.229
72.333
75.5264
78.8097
82.1856
85.6541
89.2177
92.8763
96.6323
100.485
104.437
108.487
112.636
116.885
121.234
125.682
130.23
134.877
139.623
144.466
149.408
154.445
159.579
164.805
170.126
175.536
181.038
186.626
192.301
198.057
203.895
209.81
215.802
221.865
228.001
234.2
240.466
246.787
253.165
259.589
266.06
272.566
279.108
285.672
292.259
298.853
305.442
312.019
318.578
325.12
331.656
338.215
344.845
351.632
358.393
365.13
371.828
378.478
385.064
391.575
397.994
404.309
410.501
416.553
422.444
428.15
433.648
438.911
443.913
448.622
453.013
457.053
460.709
463.935
466.665
468.864
470.469
471.041
471.247
470.771
469.579
467.588
464.814
461.217
456.834
451.692
445.822
439.268
432.075
424.304
416.016
407.275
398.151
388.724
379.109
369.435
360.476
352.146
343.99
335.857
327.742
319.675
311.691
303.821
296.092
288.531
281.156
273.98
267.014
260.267
253.742
247.448
241.299
235.365
229.666
224.205
218.98
213.989
209.226
204.68
200.342
196.209
192.276
188.54
184.992
181.627
178.432
175.401
172.522
169.786
167.186
164.699
162.483
161.417
158.853
7.64693
3.9051
3.42238
3.47208
3.73161
4.11852
4.59609
5.14163
5.73788
6.3714
7.03289
7.71824
8.43012
9.18137
9.9812
10.8399
11.7911
12.8586
14.0668
15.4333
16.9626
18.5485
19.6899
20.6431
21.5904
22.6368
23.8881
25.6284
27.1698
28.7409
30.3391
31.9918
33.699
35.4619
37.2801
39.1547
41.0869
43.0805
45.1343
47.249
49.4256
51.6653
53.9695
56.3397
58.7772
61.2833
63.8591
66.506
69.2251
72.0174
74.8837
77.8251
80.8421
83.9357
87.1063
90.3545
93.6806
97.0849
100.567
104.129
107.768
111.485
115.28
119.152
123.1
127.124
131.223
135.395
139.639
143.954
148.337
152.789
157.304
161.884
166.523
171.22
175.973
180.778
185.633
190.535
195.479
200.463
205.483
210.535
215.614
220.718
225.84
230.978
236.128
241.286
246.447
251.608
256.766
261.922
267.08
272.246
277.429
282.641
287.872
293.081
298.262
303.409
308.513
313.567
318.562
323.489
328.339
333.1
337.759
342.303
346.715
350.976
355.068
358.968
362.652
366.094
369.265
372.134
374.663
376.811
378.529
379.79
380.333
380.547
380.198
379.277
377.744
375.594
372.815
369.422
365.43
360.863
355.751
350.131
344.046
337.544
330.673
323.488
316.048
308.441
300.783
293.327
286.102
278.99
271.935
264.934
258.008
251.183
244.483
237.923
231.531
225.318
219.292
213.459
207.824
202.39
197.157
192.101
187.232
182.558
178.078
173.792
169.695
165.782
162.047
158.48
155.071
151.824
148.733
145.794
143.001
140.347
137.827
135.436
133.171
131.036
129.036
127.237
126.053
124.757
11.2755
5.50572
4.6059
4.49706
4.67407
5.01248
5.46269
5.99922
6.60534
7.26868
7.98014
8.73367
9.5262
10.357
11.226
12.135
13.0886
14.0934
15.1484
16.2564
17.4128
18.59
19.7388
20.8908
22.0804
23.334
24.6805
26.138
27.6157
29.1291
30.6839
32.2858
33.937
35.6388
37.3916
39.1952
41.0484
42.9569
44.922
46.9448
49.0266
51.1684
53.3716
55.6373
57.9669
60.3615
62.8223
65.3506
67.9474
70.6139
73.3509
76.1593
79.0399
81.9934
85.0204
88.1216
91.2974
94.5481
97.874
101.275
104.751
108.303
111.929
115.629
119.402
123.248
127.166
131.154
135.21
139.334
143.523
147.775
152.087
156.459
160.885
165.365
169.894
174.469
179.088
183.745
188.439
193.164
197.917
202.693
207.49
212.302
217.125
221.957
226.794
231.633
236.472
241.307
246.138
250.964
255.786
260.607
265.428
270.245
275.046
279.817
284.554
289.249
293.898
298.494
303.03
307.501
311.898
316.212
320.434
324.551
328.549
332.415
336.129
339.671
343.021
346.151
349.035
351.641
353.936
355.883
357.444
358.571
359.115
359.301
358.963
358.088
356.649
354.634
352.038
348.867
345.133
340.857
336.065
330.794
325.08
318.967
312.502
305.743
298.754
291.613
284.411
277.265
270.216
263.241
256.328
249.485
242.732
236.094
229.589
223.227
217.043
211.046
205.242
199.634
194.226
189.02
184.015
179.2
174.574
170.136
165.887
161.821
157.933
154.22
150.674
147.287
144.053
140.968
138.026
135.223
132.553
130.011
127.593
125.296
123.119
121.07
119.16
117.44
116.128
114.923
14.7956
7.11232
5.80364
5.54651
5.64486
5.93833
6.36098
6.8813
7.48044
8.14512
8.86515
9.63259
10.4413
11.2867
12.1653
13.0751
14.0157
14.9888
15.9978
17.0462
18.1363
19.2655
20.4279
21.628
22.8728
24.1697
25.5244
26.9358
28.3918
29.8912
31.4342
33.0239
34.6625
36.3518
38.0933
39.8884
41.7395
43.6476
45.6132
47.6371
49.7205
51.8647
54.0709
56.3404
58.6746
61.0748
63.5424
66.0786
68.6849
71.3626
74.1131
76.9369
79.835
82.8083
85.8576
88.9838
92.1874
95.4691
98.8292
102.268
105.786
109.382
113.057
116.809
120.639
124.546
128.528
132.584
136.712
140.911
145.178
149.511
153.908
158.366
162.881
167.45
172.07
176.736
181.446
186.193
190.975
195.786
200.623
205.48
210.354
215.238
220.131
225.026
229.921
234.812
239.697
244.572
249.435
254.282
259.112
263.924
268.713
273.473
278.198
282.881
287.516
292.099
296.624
301.086
305.481
309.803
314.045
318.201
322.261
326.217
330.056
333.766
337.33
340.731
343.947
346.956
349.729
352.238
354.449
356.329
357.844
358.939
359.509
359.696
359.375
358.523
357.117
355.144
352.595
349.473
345.786
341.555
336.803
331.562
325.872
319.777
313.33
306.591
299.624
292.498
285.288
278.07
270.887
263.753
256.677
249.68
242.782
236.01
229.382
222.911
216.63
210.543
204.656
198.975
193.502
188.238
183.18
178.324
173.664
169.198
164.922
160.83
156.917
153.177
149.604
146.19
142.928
139.813
136.839
134.001
131.292
128.709
126.248
123.906
121.686
119.594
117.647
115.885
114.429
113.08
18.0873
8.64905
6.94732
6.54541
6.56477
6.81025
7.19932
7.69357
8.27118
8.91763
9.62212
10.3763
11.1735
12.0088
12.8788
13.7815
14.7162
15.6842
16.6879
17.7303
18.8142
19.9411
21.1113
22.3263
23.5881
24.8988
26.2599
27.6711
29.1309
30.6387
32.1951
33.8015
35.4592
37.1698
38.9349
40.7558
42.6342
44.5712
46.5679
48.6256
50.7456
52.9292
55.1779
57.4932
59.8766
62.3295
64.8536
67.4503
70.1211
72.8672
75.6901
78.5914
81.5724
84.6346
87.779
91.0067
94.3187
97.7157
101.198
104.767
108.423
112.165
115.993
119.908
123.908
127.993
132.161
136.411
140.741
145.15
149.635
154.193
158.821
163.516
168.274
173.091
177.964
182.887
187.856
192.866
197.912
202.988
208.089
213.211
218.346
223.49
228.638
233.785
238.926
244.057
249.174
254.271
259.345
264.391
269.405
274.381
279.315
284.201
289.035
293.81
298.522
303.167
307.74
312.236
316.652
320.982
325.222
329.366
333.407
337.338
341.148
344.826
348.359
351.73
354.921
357.908
360.668
363.17
365.384
367.275
368.809
369.937
370.561
370.781
370.495
369.674
368.294
366.335
363.788
360.651
356.93
352.641
347.808
342.465
336.652
330.419
323.82
316.916
309.769
302.446
295.014
287.535
280.054
272.603
265.205
257.888
250.677
243.599
236.677
229.929
223.374
217.024
210.886
204.965
199.264
193.783
188.519
183.468
178.625
173.984
169.54
165.287
161.219
157.329
153.609
150.053
146.652
143.401
140.293
137.322
134.483
131.77
129.182
126.716
124.375
122.167
120.107
118.231
116.604
115.033
21.0475
10.0569
7.98831
7.44114
7.38571
7.57977
7.93084
8.39326
8.94216
9.56188
10.2415
10.9727
11.7496
12.5676
13.4237
14.3165
15.2455
16.2115
17.216
18.261
19.3485
20.4801
21.6572
22.8811
24.1528
25.4736
26.8444
28.2658
29.7381
31.2619
32.8379
34.4673
36.1514
37.8917
39.6895
41.5465
43.464
45.4435
47.4865
49.5943
51.7686
54.0109
56.323
58.7066
61.1634
63.6952
66.3038
68.9912
71.759
74.609
77.5432
80.5633
83.671
86.8681
90.156
93.5362
97.0099
100.578
104.242
108.003
111.86
115.815
119.867
124.016
128.262
132.603
137.039
141.568
146.188
150.897
155.692
160.57
165.528
170.562
175.668
180.84
186.075
191.367
196.71
202.099
207.527
212.987
218.474
223.981
229.502
235.029
240.556
246.077
251.586
257.077
262.543
267.98
273.38
278.738
284.047
289.301
294.495
299.623
304.679
309.657
314.554
319.364
324.084
328.708
333.234
337.657
341.974
346.179
350.269
354.236
358.074
361.773
365.321
368.706
371.909
374.911
377.689
380.214
382.456
384.382
385.954
387.13
387.815
388.077
387.829
387.038
385.675
383.717
381.15
377.968
374.174
369.783
364.82
359.319
353.323
346.882
340.051
332.891
325.466
317.839
310.076
302.236
294.367
286.51
278.7
270.968
263.346
255.864
248.545
241.411
234.481
227.766
221.276
215.016
208.988
203.193
197.627
192.287
187.167
182.261
177.562
173.062
168.756
164.634
160.69
156.916
153.303
149.844
146.534
143.365
140.331
137.429
134.654
132.007
129.489
127.11
124.883
122.837
121.006
119.188
23.6076
11.293
8.89232
8.20562
8.0786
8.22197
8.53419
8.96338
9.48195
10.0733
10.7262
11.433
12.188
12.9872
13.8282
14.7094
15.6306
16.5922
17.595
18.6405
19.73
20.865
22.0468
23.2765
24.5555
25.8848
27.2656
28.6989
30.1856
31.7269
33.324
34.9781
36.6908
38.4635
40.2977
42.1953
44.1576
46.1866
48.2837
50.4509
52.69
55.0028
57.3914
59.8578
62.4041
65.0325
67.7451
70.5442
73.432
76.4108
79.4828
82.6502
85.9152
89.2799
92.7463
96.3161
99.991
103.773
107.662
111.661
115.769
119.988
124.318
128.758
133.308
137.968
142.736
147.61
152.589
157.669
162.849
168.124
173.491
178.945
184.482
190.095
195.78
201.53
207.338
213.197
219.101
225.041
231.01
237
243.003
249.01
255.013
261.005
266.977
272.923
278.834
284.702
290.519
296.279
301.972
307.592
313.131
318.584
323.942
329.202
334.356
339.4
344.329
349.139
353.827
358.39
362.823
367.125
371.291
375.316
379.197
382.926
386.494
389.89
393.1
396.108
398.891
401.425
403.678
405.619
407.211
408.412
409.138
409.422
409.192
408.41
407.043
405.066
402.457
399.209
395.322
390.81
385.697
380.017
373.812
367.132
360.032
352.574
344.821
336.838
328.689
320.434
312.127
303.815
295.539
287.337
279.246
271.298
263.52
255.935
248.563
241.418
234.51
227.844
221.424
215.25
209.319
203.626
198.165
192.93
187.914
183.107
178.503
174.092
169.867
165.819
161.939
158.221
154.656
151.238
147.961
144.821
141.814
138.94
136.201
133.606
131.166
128.906
126.838
124.749
25.7308
12.334
9.64363
8.82946
8.63492
8.73
9.00474
9.40184
9.89129
10.4554
11.083
11.7664
12.5003
13.2811
14.1064
14.9749
15.8862
16.8404
17.8383
18.8807
19.9689
21.1041
22.2875
23.5204
24.804
26.1398
27.5292
28.9735
30.4742
32.0327
33.6506
35.3296
37.0714
38.8778
40.7505
42.6916
44.7028
46.7862
48.9438
51.1778
53.4902
55.8835
58.3599
60.9218
63.5719
66.3127
69.1468
72.077
75.1059
78.2362
81.4708
84.8123
88.2632
91.8263
95.5039
99.2983
103.212
107.246
111.402
115.683
120.089
124.62
129.278
134.062
138.972
144.007
149.166
154.447
159.848
165.366
170.998
176.74
182.587
188.534
194.575
200.705
206.917
213.203
219.556
225.967
232.428
238.929
245.462
252.016
258.582
265.151
271.711
278.254
284.77
291.248
297.68
304.055
310.364
316.597
322.745
328.799
334.75
340.59
346.311
351.906
357.369
362.692
367.872
372.903
377.781
382.504
387.068
391.473
395.714
399.791
403.7
407.437
410.995
414.369
417.546
420.513
423.253
425.742
427.953
429.855
431.41
432.578
433.294
433.549
433.288
432.468
431.058
429.026
426.348
423.013
419.018
414.375
409.104
403.237
396.815
389.886
382.506
374.735
366.637
358.277
349.721
341.031
332.264
323.474
314.707
306.008
297.417
288.969
280.695
272.62
264.767
257.151
249.782
242.668
235.813
229.216
222.874
216.784
210.939
205.331
199.952
194.795
189.849
185.106
180.556
176.192
172.004
167.984
164.124
160.417
156.857
153.44
150.162
147.022
144.024
141.175
138.485
135.972
133.634
131.254
27.407
13.1721
10.24
9.31404
9.05778
9.1084
9.34825
9.71553
10.178
10.7172
11.3215
11.9833
12.6974
13.4604
14.27
15.1249
16.0247
16.9695
17.9598
18.9965
20.0807
21.2136
22.3963
23.6301
24.9164
26.2571
27.6539
29.1086
30.6226
32.1979
33.8367
35.5412
37.3135
39.1557
41.07
43.0587
45.124
47.2683
49.4939
51.8036
54.1998
56.6853
59.263
61.9356
64.7063
67.5781
70.5542
73.6377
76.8319
80.1402
83.5656
87.1116
90.7811
94.5773
98.503
102.561
106.754
111.084
115.553
120.164
124.916
129.812
134.852
140.036
145.364
150.834
156.445
162.196
168.084
174.106
180.257
186.533
192.929
199.439
206.057
212.775
219.586
226.48
233.45
240.485
247.575
254.709
261.877
269.067
276.267
283.466
290.651
297.812
304.935
312.01
319.024
325.966
332.824
339.587
346.243
352.782
359.192
365.464
371.589
377.556
383.357
388.986
394.436
399.701
404.777
409.66
414.349
418.84
423.134
427.229
431.126
434.821
438.314
441.6
444.672
447.522
450.135
452.494
454.574
456.346
457.775
458.821
459.437
459.581
459.209
458.279
456.765
454.629
451.844
448.393
444.27
439.482
434.046
427.991
421.355
414.182
406.527
398.449
390.011
381.279
372.32
363.198
353.974
344.706
335.447
326.245
317.145
308.186
299.402
290.821
282.468
274.359
266.507
258.921
251.604
244.557
237.778
231.262
225.003
218.992
213.221
207.68
202.361
197.254
192.348
187.635
183.106
178.752
174.564
170.536
166.661
162.934
159.353
155.916
152.626
149.489
146.514
143.715
141.079
138.389
28.6473
13.8109
10.688
9.66825
9.35751
9.36848
9.57661
9.91663
10.3546
10.8711
11.4541
12.0962
12.7923
13.5392
14.3337
15.1747
16.0621
16.9962
17.9775
19.0071
20.0859
21.2152
22.3964
23.6308
24.9201
26.2666
27.6723
29.1388
30.6678
32.2604
33.9217
35.6545
37.4613
39.3446
41.3069
43.3509
45.4793
47.6951
50.0011
52.4004
54.896
57.4913
60.1896
62.9944
65.9093
68.9378
72.0837
75.3509
78.743
82.264
85.9176
89.7076
93.6377
97.7114
101.932
106.303
110.827
115.506
120.344
125.342
130.501
135.823
141.308
146.956
152.767
158.74
164.873
171.163
177.607
184.202
190.943
197.824
204.84
211.984
219.248
226.624
234.102
241.673
249.326
257.05
264.833
272.663
280.526
288.41
296.301
304.185
312.047
319.875
327.654
335.37
343.01
350.559
358.005
365.333
372.53
379.582
386.478
393.204
399.749
406.102
412.252
418.189
423.907
429.397
434.654
439.675
444.456
448.995
453.294
457.351
461.169
464.749
468.092
471.198
474.066
476.69
479.064
481.174
483.001
484.52
485.701
486.507
486.894
486.816
486.222
485.091
483.392
481.083
478.135
474.525
470.242
465.291
459.682
453.439
446.596
439.194
431.283
422.92
414.167
405.089
395.753
386.224
376.568
366.845
357.113
347.425
337.829
328.368
319.08
309.996
301.142
292.538
284.198
276.132
268.345
260.837
253.608
246.651
239.961
233.529
227.347
221.404
215.691
210.198
204.913
199.829
194.935
190.222
185.682
181.307
177.09
173.028
169.117
165.356
161.746
158.294
155.006
151.892
148.932
145.917
29.4706
14.2599
10.999
9.90567
9.54795
9.52586
9.70522
10.0206
10.4365
10.9328
11.4965
12.1204
12.8
13.5329
14.3147
15.1445
16.0221
16.9477
17.9219
18.9456
20.0202
21.147
22.3278
23.5644
24.859
26.2139
27.6312
29.1133
30.6627
32.2784
33.9693
35.7383
37.5891
39.5245
41.5475
43.6615
45.8697
48.1756
50.5826
53.0945
55.715
58.4479
61.2974
64.2674
67.3621
70.586
73.9432
77.4381
81.0753
84.859
88.7936
92.8834
97.1324
101.545
106.124
110.874
115.797
120.897
126.176
131.635
137.277
143.102
149.111
155.303
161.677
168.232
174.965
181.874
188.954
196.2
203.608
211.17
218.879
226.728
234.707
242.807
251.017
259.326
267.721
276.189
284.717
293.291
301.895
310.515
319.135
327.738
336.309
344.831
353.289
361.667
369.949
378.119
386.162
394.062
401.802
409.368
416.745
423.917
430.871
437.592
444.068
450.287
456.24
461.917
467.311
472.417
477.231
481.752
485.98
489.917
493.564
496.927
500.01
502.817
505.351
507.615
509.607
511.32
512.743
513.859
514.64
515.06
515.066
514.613
513.667
512.226
510.239
507.667
504.478
500.648
496.163
491.02
485.225
478.796
471.76
464.152
456.018
447.408
438.383
429.004
419.338
409.45
399.407
389.273
379.109
368.972
358.914
348.981
339.215
329.65
320.314
311.23
302.414
293.877
285.625
277.661
269.981
262.583
255.46
248.602
242.001
235.647
229.53
223.639
217.963
212.492
207.218
202.13
197.219
192.479
187.903
183.485
179.223
175.116
171.165
167.374
163.748
160.297
156.994
153.638
29.9361
14.5417
11.189
10.0409
9.64492
9.59596
9.75094
10.0445
10.4411
10.9215
11.4704
12.0804
12.7461
13.4634
14.2306
15.0477
15.9144
16.8313
17.7992
18.8194
19.8937
21.0237
22.211
23.4581
24.768
26.1442
27.5871
29.0993
30.6837
32.3402
34.0782
35.9025
37.8168
39.8254
41.9325
44.143
46.4605
48.8889
51.4324
54.0956
56.8828
59.7988
62.8483
66.0361
69.367
72.8461
76.4783
80.2685
84.2217
88.3427
92.6364
97.1074
101.76
106.598
111.626
116.848
122.266
127.882
133.7
139.721
145.945
152.374
159.006
165.841
172.877
180.112
187.541
195.161
202.966
210.951
219.109
227.431
235.909
244.533
253.293
262.177
271.174
280.269
289.45
298.701
308.006
317.351
326.717
336.088
345.446
354.772
364.05
373.26
382.385
391.408
400.311
409.076
417.686
426.123
434.369
442.407
450.218
457.786
465.094
472.125
478.864
485.298
491.412
497.198
502.646
507.749
512.502
516.903
520.953
524.653
528.006
531.021
533.704
536.064
538.11
539.85
541.292
542.437
543.28
543.818
544.024
543.872
543.311
542.316
540.894
539.003
536.603
533.657
530.134
526.009
521.267
515.898
509.902
503.29
496.079
488.299
479.986
471.185
461.948
452.334
442.405
432.227
421.865
411.386
400.853
390.327
379.862
369.509
359.312
349.307
339.528
329.997
320.734
311.751
303.057
294.654
286.54
278.713
271.165
263.889
256.874
250.111
243.589
237.298
231.227
225.365
219.702
214.23
208.94
203.824
198.875
194.088
189.461
184.992
180.682
176.535
172.554
168.746
165.083
161.377
29.9602
14.64
11.2625
10.0853
9.66348
9.59524
9.73368
10.012
10.3933
10.8557
11.388
11.983
12.6361
13.3445
14.1063
14.9202
15.7864
16.7055
17.6786
18.7079
19.796
20.9433
22.152
23.4251
24.7657
26.176
27.6571
29.215
30.8546
32.5808
34.3992
36.3147
38.3323
40.4572
42.6944
45.0495
47.5282
50.1353
52.8759
55.7555
58.7797
61.9539
65.2836
68.7745
72.4321
76.2619
80.2695
84.4602
88.8392
93.4118
98.1828
103.157
108.338
113.731
119.339
125.164
131.21
137.478
143.97
150.686
157.626
164.789
172.174
179.778
187.597
195.627
203.864
212.301
220.931
229.747
238.739
247.898
257.214
266.674
276.267
285.979
295.796
305.703
315.685
325.725
335.806
345.91
356.019
366.113
376.174
386.181
396.114
405.955
415.683
425.28
434.727
444.005
453.095
461.977
470.633
479.042
487.184
495.04
502.59
509.815
516.699
523.223
529.374
535.139
540.506
545.468
550.018
554.153
557.874
561.181
564.08
566.579
568.689
570.425
571.799
572.825
573.529
573.909
573.975
573.747
573.165
572.21
570.912
569.238
567.167
564.673
561.721
558.279
554.318
549.815
544.754
539.123
532.914
526.128
518.773
510.866
502.435
493.514
484.148
474.386
464.286
453.909
443.32
432.586
421.771
410.938
400.144
389.443
378.882
368.5
358.333
348.408
338.745
329.359
320.26
311.451
302.933
294.702
286.753
279.077
271.664
264.505
257.59
250.907
244.445
238.195
232.146
226.29
220.618
215.121
209.794
204.632
199.631
194.791
190.111
185.596
181.246
177.07
173.036
168.972
29.8384
14.6322
11.2553
10.0667
9.63041
9.54677
9.66799
9.9305
10.2987
10.7528
11.2801
11.8728
12.5264
13.2384
14.0078
14.8331
15.7142
16.6521
17.6485
18.7051
19.8234
21.0041
22.2525
23.5727
24.969
26.4462
28.0086
29.6611
31.4094
33.2593
35.2168
37.2877
39.4781
41.7943
44.2424
46.8291
49.5611
52.445
55.4876
58.6959
62.0766
65.6362
69.3809
73.317
77.4502
81.7866
86.3317
91.0908
96.0691
101.271
106.702
112.364
118.262
124.399
130.776
137.396
144.258
151.364
158.713
166.302
174.131
182.195
190.491
199.014
207.758
216.716
225.881
235.245
244.797
254.527
264.425
274.479
284.676
295.003
305.445
315.987
326.613
337.308
348.053
358.832
369.625
380.415
391.18
401.901
412.558
423.128
433.592
443.928
454.117
464.138
473.973
483.603
493.006
502.163
511.053
519.654
527.945
535.902
543.507
550.736
557.57
563.99
569.98
575.524
580.611
585.23
589.375
593.041
596.229
598.94
601.177
602.954
604.28
605.181
605.67
605.764
605.526
604.921
603.97
602.721
601.156
599.265
597.05
594.503
591.612
588.356
584.712
580.654
576.156
571.2
565.768
559.846
553.421
546.484
539.029
531.061
522.594
513.647
504.256
494.459
484.303
473.844
463.145
452.27
441.284
430.25
419.229
408.275
397.439
386.764
376.286
366.037
356.038
346.309
336.858
327.693
318.815
310.22
301.905
293.86
286.078
278.547
271.259
264.202
257.365
250.74
244.315
238.082
232.033
226.16
220.456
214.918
209.542
204.327
199.274
194.384
189.659
185.107
180.695
176.271
29.4892
14.5382
11.1862
9.99183
9.5439
9.45162
9.56982
9.83234
10.2039
10.6655
11.2041
11.8121
12.4854
13.2214
14.0185
14.8737
15.7901
16.7698
17.8158
18.9311
20.1198
21.3854
22.7324
24.1658
25.6913
27.3151
29.0433
30.8823
32.8391
34.9208
37.1347
39.4882
41.9887
44.6439
47.4612
50.4476
53.6114
56.9616
60.5072
64.2576
68.2224
72.4076
76.8193
81.4632
86.3447
91.4691
96.8406
102.464
108.342
114.477
120.873
127.531
134.451
141.634
149.079
156.784
164.747
172.964
181.431
190.144
199.095
208.28
217.689
227.314
237.147
247.177
257.393
267.785
278.339
289.044
299.885
310.849
321.921
333.085
344.327
355.63
366.976
378.35
389.732
401.106
412.451
423.75
434.982
446.126
457.162
468.069
478.825
489.409
499.801
509.982
519.934
529.638
539.073
548.22
557.055
565.557
573.7
581.464
588.823
595.756
602.239
608.253
613.78
618.803
623.309
627.287
630.731
633.634
636
637.83
639.118
639.894
640.15
639.947
639.276
638.141
636.647
634.804
632.633
630.158
627.39
624.335
620.998
617.385
613.494
609.318
604.846
600.057
594.933
589.459
583.621
577.4
570.776
563.73
556.242
548.301
539.901
531.048
521.76
512.063
501.99
491.589
480.918
470.039
459.013
447.905
436.774
425.68
414.674
403.804
393.107
382.617
372.36
362.355
352.618
343.154
333.967
325.055
316.415
308.04
299.92
292.047
284.411
277.002
269.809
262.824
256.036
249.437
243.019
236.775
230.699
224.788
219.037
213.446
208.015
202.747
197.643
192.71
187.916
183.132
28.8054
14.31
11.0333
9.86727
9.43811
9.36365
9.50307
9.7901
10.1894
10.6809
11.2518
11.8981
12.6174
13.4085
14.2721
15.2095
16.2227
17.3148
18.49
19.7531
21.1099
22.5663
24.1289
25.8047
27.6014
29.5273
31.5906
33.8002
36.1655
38.6955
41.3999
44.2881
47.3695
50.6538
54.1503
57.8681
61.8165
66.0049
70.4425
75.1387
80.1038
85.3444
90.8646
96.6672
102.754
109.127
115.785
122.73
129.959
137.472
145.265
153.335
161.678
170.286
179.156
188.278
197.645
207.249
217.08
227.128
237.382
247.832
258.466
269.271
280.234
291.344
302.586
313.947
325.412
336.967
348.597
360.288
372.025
383.791
395.572
407.351
419.112
430.839
442.515
454.124
465.648
477.069
488.369
499.53
510.53
521.351
531.971
542.371
552.531
562.435
572.066
581.407
590.439
599.142
607.492
615.467
623.039
630.187
636.884
643.108
648.833
654.039
658.709
662.826
666.373
669.341
671.726
673.514
674.722
675.355
675.364
674.856
673.712
672.073
669.957
667.39
664.432
661.125
657.507
653.612
649.46
645.076
640.471
635.661
630.661
625.477
620.112
614.553
608.79
602.811
596.606
590.15
583.415
576.365
568.967
561.192
553.011
544.411
535.401
525.982
516.173
506.012
495.549
484.842
473.949
462.932
451.853
440.771
429.741
418.811
408.023
397.413
387.009
376.835
366.906
357.232
347.819
338.666
329.771
321.128
312.73
304.568
296.633
288.916
281.407
274.098
266.979
260.043
253.282
246.691
240.263
233.995
227.885
221.931
216.135
210.498
205.022
199.714
194.544
189.41
28.0479
14.0096
10.8523
9.7485
9.36843
9.34082
9.52526
9.85738
10.3095
10.866
11.5181
12.2613
13.0943
14.018
15.0353
16.1499
17.3665
18.691
20.1302
21.6919
23.3847
25.2178
27.2016
29.3466
31.6638
34.1648
36.8612
39.7654
42.8895
46.2455
49.8452
53.7
57.8211
62.2185
66.9017
71.8791
77.159
82.7483
88.6529
94.8775
101.426
108.313
115.531
123.071
130.927
139.089
147.552
156.305
165.339
174.646
184.213
194.028
204.08
214.357
224.843
235.527
246.395
257.432
268.626
279.961
291.425
303.003
314.681
326.445
338.282
350.179
362.12
374.093
386.084
398.079
410.066
422.03
433.96
445.841
457.659
469.403
481.058
492.611
504.049
515.356
526.52
537.525
548.356
558.998
569.432
579.641
589.607
599.31
608.733
617.863
626.686
635.185
643.346
651.148
658.566
665.574
672.147
678.26
683.887
689.004
693.584
697.607
701.056
703.921
706.176
707.81
708.836
709.209
708.991
708.142
706.607
704.506
701.817
698.587
694.86
690.686
686.125
681.233