/*--------------------------------*- C++ -*----------------------------------*\
  =========                 |
  \\      /  F ield         | OpenFOAM: The Open Source CFD Toolbox
   \\    /   O peration     | Website:  https://openfoam.org
    \\  /    A nd           | Version:  8
     \\/     M anipulation  |
\*---------------------------------------------------------------------------*/
FoamFile
{
    version     2.0;
    format      ascii;
    class       volScalarField;
    location    "155";
    object      k;
}
// * * * * * * * * * * * * * * * * * * * * * * * * * * * * * * * * * * * * * //

dimensions      [0 2 -2 0 0 0 0];

internalField   nonuniform List<scalar> 
12225
(
0.362835
0.343992
0.327742
0.309825
0.295381
0.283506
0.275472
0.270293
0.27034
0.271901
0.276053
0.280746
0.289897
0.295751
0.306894
0.312884
0.326063
0.323918
0.440284
0.468731
0.461615
0.448367
0.450349
0.458321
0.474447
0.498725
0.524308
0.552355
0.580748
0.606456
0.634018
0.654258
0.680245
0.693721
0.71982
0.725585
0.390418
0.41785
0.420243
0.416824
0.411638
0.4078
0.408009
0.41004
0.414508
0.421482
0.430716
0.439815
0.451245
0.461305
0.473031
0.483889
0.494014
0.506934
0.377048
0.387163
0.391467
0.391342
0.39026
0.387881
0.385659
0.384081
0.382875
0.382897
0.38336
0.38439
0.386298
0.388505
0.390975
0.394355
0.396731
0.401331
0.374435
0.376091
0.378429
0.378665
0.378275
0.3772
0.375488
0.373737
0.372008
0.370453
0.369253
0.368112
0.36738
0.366817
0.366454
0.366379
0.366416
0.366815
0.37378
0.372703
0.372659
0.372365
0.371773
0.370817
0.369553
0.368082
0.36657
0.364975
0.363524
0.362062
0.360751
0.35953
0.358395
0.357435
0.356452
0.355816
0.373775
0.371739
0.370388
0.369283
0.368235
0.367114
0.365914
0.364586
0.363236
0.361807
0.360419
0.359021
0.357673
0.356379
0.355116
0.353963
0.352792
0.351807
0.373819
0.371559
0.369635
0.367976
0.366501
0.365107
0.363775
0.362429
0.361106
0.359765
0.358448
0.357141
0.355859
0.354618
0.353395
0.352244
0.351092
0.350048
0.373832
0.371553
0.369449
0.367525
0.365776
0.364153
0.362644
0.361198
0.359816
0.358472
0.357167
0.3559
0.354663
0.35347
0.352302
0.351189
0.35009
0.349066
0.373831
0.37156
0.369418
0.367405
0.365529
0.363772
0.362132
0.360585
0.359121
0.357726
0.356392
0.355115
0.353885
0.352706
0.351564
0.350476
0.349414
0.348415
0.373829
0.371561
0.369413
0.367378
0.365458
0.363645
0.361937
0.360323
0.358798
0.357351
0.355977
0.35467
0.353421
0.352232
0.35109
0.350004
0.348955
0.347965
0.373828
0.371559
0.369409
0.367371
0.365439
0.363609
0.361875
0.360233
0.358677
0.3572
0.355798
0.354466
0.353198
0.351992
0.350839
0.349744
0.348692
0.347698
0.373827
0.371557
0.369405
0.367365
0.36543
0.363593
0.361851
0.360196
0.358625
0.357133
0.355714
0.354366
0.353083
0.351862
0.350698
0.349592
0.348533
0.34753
0.373826
0.371555
0.369402
0.36736
0.365422
0.363583
0.361837
0.360177
0.3586
0.3571
0.355673
0.354316
0.353023
0.351793
0.350621
0.349505
0.348439
0.347426
0.373826
0.371553
0.369398
0.367355
0.365416
0.363575
0.361826
0.360164
0.358584
0.357081
0.355651
0.354289
0.352992
0.351757
0.35058
0.349458
0.348388
0.347369
0.373826
0.371552
0.369396
0.367351
0.36541
0.363568
0.361817
0.360154
0.358572
0.357067
0.355634
0.354271
0.352972
0.351734
0.350555
0.34943
0.348357
0.347335
0.373825
0.371551
0.369394
0.367348
0.365406
0.363562
0.36181
0.360145
0.358562
0.357055
0.355622
0.354256
0.352956
0.351717
0.350536
0.34941
0.348335
0.347311
0.373825
0.371551
0.369393
0.367346
0.365403
0.363558
0.361806
0.360139
0.358555
0.357048
0.355613
0.354246
0.352945
0.351704
0.350522
0.349394
0.348319
0.347293
0.373825
0.37155
0.369393
0.367346
0.365402
0.363557
0.361804
0.360137
0.358552
0.357044
0.355609
0.354242
0.352939
0.351698
0.350515
0.349387
0.34831
0.347283
0.373825
0.371551
0.369393
0.367347
0.365404
0.363559
0.361806
0.36014
0.358555
0.357048
0.355612
0.354245
0.352943
0.351702
0.350519
0.349391
0.348314
0.347287
0.373825
0.371551
0.369395
0.367349
0.365407
0.363563
0.361811
0.360146
0.358563
0.357056
0.355622
0.354257
0.352956
0.351717
0.350536
0.349409
0.348335
0.34731
0.373826
0.371553
0.369397
0.367352
0.365412
0.363571
0.361823
0.360162
0.358584
0.357084
0.355657
0.3543
0.353008
0.351777
0.350604
0.349485
0.348419
0.3474
0.373826
0.371554
0.369399
0.36736
0.365429
0.363603
0.361876
0.360241
0.358691
0.357221
0.355824
0.354495
0.353228
0.35202
0.350868
0.349765
0.348713
0.347703
0.373828
0.371551
0.369412
0.367417
0.365556
0.36382
0.36219
0.360652
0.35919
0.357794
0.356457
0.355173
0.353937
0.352747
0.351602
0.350497
0.349438
0.348412
0.373823
0.371554
0.369605
0.367893
0.366339
0.364892
0.363495
0.362123
0.360762
0.359414
0.358082
0.356771
0.35549
0.354239
0.35303
0.351857
0.350736
0.349647
0.37378
0.37199
0.371113
0.370266
0.369361
0.368312
0.367049
0.36563
0.364121
0.362576
0.361031
0.359523
0.358074
0.356683
0.355382
0.354142
0.35301
0.351925
0.374297
0.375564
0.377778
0.377858
0.377291
0.375886
0.373835
0.371642
0.369505
0.367482
0.365664
0.364084
0.362709
0.361534
0.360609
0.359816
0.359287
0.358798
0.378732
0.394394
0.398294
0.396566
0.392559
0.387608
0.383641
0.380455
0.378265
0.37685
0.376493
0.376746
0.377394
0.37869
0.380434
0.382412
0.384815
0.387124
0.408344
0.427538
0.422423
0.411049
0.402226
0.39792
0.398552
0.401111
0.405976
0.413025
0.420979
0.429807
0.438808
0.44816
0.45727
0.466512
0.475276
0.484131
0.366033
0.353411
0.341988
0.330209
0.318982
0.308382
0.299408
0.291674
0.285402
0.280331
0.27668
0.273863
0.272306
0.271177
0.271169
0.271511
0.272143
0.273372
0.00452783
0.0171979
0.0283465
0.0388187
0.0493123
0.0598094
0.0702526
0.080495
0.0903271
0.09952
0.107859
0.115175
0.121367
0.12631
0.129722
0.132995
0.135593
0.137707
0.140411
0.140946
0.137572
0.127831
0.129175
0.132668
0.135876
0.139529
0.144368
0.13848
0.14453
0.156381
0.162939
0.171617
0.179866
0.188499
0.197225
0.206129
0.215176
0.224378
0.233724
0.243216
0.252833
0.262589
0.272478
0.282512
0.292685
0.303011
0.313482
0.324113
0.334893
0.345838
0.356935
0.3682
0.379617
0.391204
0.402943
0.41485
0.426906
0.439128
0.451492
0.464019
0.476681
0.489499
0.502443
0.515537
0.528745
0.542095
0.555546
0.569129
0.582801
0.596594
0.610465
0.624444
0.638488
0.652629
0.666818
0.681092
0.695399
0.709779
0.72418
0.738644
0.753113
0.767635
0.782148
0.796701
0.811227
0.825777
0.840284
0.854799
0.869264
0.883708
0.898094
0.912392
0.92658
0.940628
0.954522
0.968237
0.981794
0.995239
1.00872
1.02202
1.0352
1.0482
1.06101
1.07362
1.08598
1.09808
1.10989
1.12138
1.1325
1.14325
1.15354
1.16337
1.17266
1.18138
1.18946
1.19687
1.20355
1.20946
1.21455
1.21873
1.22192
1.2228
1.22454
1.22315
1.22089
1.2176
1.21287
1.20666
1.19895
1.18955
1.17868
1.16635
1.15265
1.13763
1.12143
1.10414
1.08587
1.06673
1.04687
1.02652
1.00584
0.986198
0.971514
0.957869
0.94409
0.930049
0.915776
0.901358
0.886872
0.872396
0.857987
0.843704
0.82959
0.815693
0.802039
0.788659
0.775566
0.762697
0.750146
0.737951
0.726125
0.714673
0.703612
0.692887
0.682519
0.672527
0.662928
0.653717
0.644887
0.63642
0.6283
0.620502
0.613002
0.605761
0.598727
0.591755
0.584727
0.576875
0.568659
0.539355
0.0142426
0.0389426
0.0547824
0.0672643
0.0786017
0.0896247
0.100564
0.111397
0.121983
0.13214
0.14169
0.150502
0.158517
0.165778
0.172501
0.179164
0.186222
0.193812
0.200994
0.206829
0.211443
0.215714
0.223148
0.233215
0.244898
0.258155
0.275284
0.288111
0.302885
0.317039
0.330535
0.344737
0.359319
0.374238
0.389453
0.404965
0.42077
0.436875
0.45329
0.470029
0.487026
0.504286
0.521816
0.539621
0.557708
0.576083
0.594753
0.613725
0.633004
0.652595
0.672503
0.692732
0.713283
0.734161
0.755365
0.776898
0.798756
0.820941
0.843448
0.866277
0.88942
0.912876
0.936636
0.960698
0.985049
1.00969
1.03459
1.05977
1.0852
1.11088
1.13679
1.16292
1.18927
1.21582
1.24256
1.26948
1.29656
1.3238
1.35118
1.3787
1.40635
1.43411
1.46198
1.48996
1.51802
1.54617
1.57439
1.6027
1.63106
1.65951
1.68801
1.71654
1.74509
1.77362
1.8021
1.8305
1.85876
1.88682
1.91461
1.94236
1.97008
1.99774
2.02532
2.0528
2.08014
2.10732
2.13429
2.161
2.18742
2.21347
2.23908
2.26418
2.28866
2.31242
2.33535
2.35733
2.37822
2.3979
2.41626
2.43323
2.44836
2.46141
2.47245
2.48063
2.4849
2.48735
2.48735
2.48409
2.4777
2.46814
2.45545
2.43967
2.4209
2.39926
2.37488
2.34793
2.31866
2.28727
2.254
2.21913
2.18306
2.14602
2.10856
2.07046
2.0318
1.99282
1.95376
1.91486
1.87628
1.83818
1.80069
1.7639
1.72791
1.69279
1.65858
1.62533
1.59301
1.56148
1.53095
1.50148
1.47308
1.44576
1.41949
1.39426
1.37004
1.34681
1.32455
1.30324
1.28283
1.26329
1.24458
1.22663
1.20942
1.19288
1.17694
1.16147
1.14631
1.1306
1.11368
1.07114
0.0263185
0.0603132
0.0797334
0.0945965
0.10778
0.120288
0.132529
0.144637
0.156603
0.168357
0.179819
0.190949
0.201775
0.212425
0.223128
0.234152
0.24566
0.257514
0.269386
0.28105
0.292732
0.305043
0.318595
0.333586
0.349703
0.366883
0.384705
0.402306
0.420171
0.438238
0.456474
0.475063
0.494026
0.513354
0.533032
0.553055
0.573417
0.594118
0.615155
0.63653
0.658238
0.680282
0.702671
0.72541
0.748507
0.77197
0.795806
0.820023
0.844626
0.869622
0.895015
0.920809
0.947008
0.973614
1.00063
1.02805
1.05587
1.08411
1.11274
1.14177
1.17118
1.20098
1.23116
1.2617
1.2926
1.32384
1.35541
1.3873
1.4195
1.45199
1.48475
1.51776
1.55102
1.5845
1.61818
1.65206
1.68609
1.72028
1.7546
1.78904
1.82357
1.85818
1.89285
1.92758
1.96233
1.99711
2.03188
2.06666
2.10141
2.13615
2.17086
2.20551
2.2401
2.27461
2.30904
2.34338
2.37763
2.41178
2.44582
2.47977
2.51363
2.54738
2.58099
2.61443
2.64769
2.68073
2.7135
2.74597
2.77808
2.80975
2.84091
2.87146
2.90129
2.93027
2.95826
2.9851
3.0106
3.03458
3.05683
3.07713
3.0952
3.1108
3.12374
3.1336
3.13902
3.14177
3.14134
3.13708
3.12896
3.11697
3.10112
3.08148
3.05813
3.03123
3.00096
2.96753
2.93119
2.8922
2.85085
2.8075
2.76263
2.71667
2.66987
2.62228
2.57407
2.5255
2.47684
2.42834
2.38023
2.33269
2.28588
2.23994
2.19497
2.15107
2.10829
2.06669
2.02629
1.98706
1.94905
1.91231
1.87683
1.84263
1.80967
1.77795
1.74743
1.7181
1.68992
1.66286
1.63688
1.61194
1.58799
1.56498
1.54287
1.52163
1.50117
1.48143
1.46228
1.44342
1.4248
1.38809
0.0388146
0.0802568
0.103279
0.120506
0.135459
0.149407
0.162923
0.176273
0.189559
0.202804
0.216005
0.229169
0.242345
0.255627
0.269149
0.283047
0.29739
0.312157
0.327258
0.342627
0.358351
0.374623
0.391645
0.409522
0.428207
0.447621
0.467608
0.487996
0.508752
0.529847
0.551262
0.573029
0.595167
0.617681
0.640571
0.663836
0.687475
0.711488
0.735879
0.760649
0.785803
0.811348
0.83729
0.863639
0.890402
0.917588
0.945206
0.973263
1.00177
1.03073
1.06014
1.09003
1.12038
1.1512
1.1825
1.21427
1.24651
1.27922
1.3124
1.34604
1.38013
1.41467
1.44965
1.48506
1.52088
1.5571
1.59371
1.63068
1.66801
1.70567
1.74364
1.78191
1.82044
1.85923
1.89823
1.93743
1.9768
2.01632
2.05597
2.09571
2.13552
2.17538
2.21526
2.25515
2.29501
2.33484
2.3746
2.41428
2.45387
2.49336
2.53274
2.57199
2.61109
2.65004
2.68884
2.72747
2.76593
2.80422
2.84232
2.88024
2.91795
2.95545
2.99271
3.02971
3.06643
3.10283
3.1389
3.17457
3.2098
3.24453
3.27867
3.31213
3.3448
3.37653
3.40719
3.4366
3.46455
3.49084
3.51523
3.53746
3.55727
3.57438
3.58857
3.59947
3.60589
3.60899
3.60848
3.60378
3.59481
3.58151
3.56389
3.54199
3.51592
3.48583
3.4519
3.41438
3.37352
3.32965
3.28315
3.23441
3.18389
3.13201
3.07903
3.02513
2.97056
2.91557
2.86048
2.80554
2.751
2.69708
2.64396
2.59179
2.54068
2.49076
2.44209
2.39473
2.34871
2.30405
2.26076
2.21886
2.17837
2.13927
2.10155
2.06518
2.03015
1.99641
1.96394
1.9327
1.90264
1.87374
1.84593
1.81918
1.79345
1.7687
1.74488
1.72196
1.69988
1.67856
1.65767
1.62507
0.0509302
0.0988369
0.12528
0.144837
0.16155
0.176914
0.191651
0.206135
0.220562
0.235032
0.249597
0.264299
0.279187
0.29433
0.309813
0.325716
0.342095
0.358963
0.376295
0.394084
0.412358
0.43119
0.450651
0.470779
0.491571
0.512998
0.535002
0.55752
0.580503
0.603913
0.627726
0.651939
0.676554
0.701574
0.727
0.752834
0.779077
0.805735
0.832813
0.860316
0.88825
0.916624
0.945445
0.974725
1.00447
1.03469
1.0654
1.09661
1.12832
1.16054
1.19329
1.22656
1.26036
1.2947
1.32957
1.36499
1.40094
1.43743
1.47446
1.51201
1.55009
1.58868
1.62777
1.66736
1.70742
1.74795
1.78892
1.83031
1.87211
1.91429
1.95683
1.9997
2.04287
2.08632
2.13001
2.17392
2.21801
2.26224
2.3066
2.35104
2.39552
2.44003
2.48452
2.52897
2.57334
2.61761
2.66175
2.70574
2.74955
2.79317
2.83659
2.87977
2.92271
2.9654
3.00781
3.04994
3.09178
3.13332
3.17454
3.21544
3.25601
3.29623
3.33608
3.37556
3.41464
3.4533
3.49152
3.52926
3.56647
3.60311
3.6391
3.67436
3.70878
3.74224
3.77458
3.80564
3.83522
3.8631
3.88903
3.91274
3.93395
3.95239
3.96777
3.97976
3.98743
3.99129
3.99126
3.98682
3.97781
3.96414
3.94581
3.92282
3.89529
3.86334
3.82718
3.78704
3.74325
3.69615
3.64614
3.59364
3.53908
3.48287
3.42532
3.3667
3.30728
3.24738
3.1873
3.12733
3.06773
3.00875
2.95059
2.89341
2.83736
2.78254
2.72906
2.67697
2.62632
2.57713
2.52942
2.4832
2.43848
2.39523
2.35346
2.31313
2.27421
2.23668
2.20049
2.16561
2.13199
2.0996
2.0684
2.03834
2.00938
1.98151
1.9547
1.92895
1.90426
1.88063
1.85757
1.82675
0.0622606
0.115638
0.145186
0.166926
0.185312
0.202026
0.217904
0.233407
0.248803
0.264255
0.279866
0.295706
0.311836
0.328318
0.345212
0.362578
0.380459
0.398882
0.417856
0.437386
0.457483
0.478166
0.499455
0.52136
0.543881
0.567004
0.590703
0.614946
0.6397
0.664938
0.690638
0.716789
0.743388
0.770433
0.797926
0.825869
0.854266
0.883123
0.912444
0.942237
0.97251
1.00327
1.03453
1.0663
1.0986
1.13142
1.16479
1.19871
1.23319
1.26825
1.30389
1.34012
1.37695
1.41438
1.45242
1.49107
1.53033
1.5702
1.61067
1.65175
1.69343
1.73569
1.77853
1.82193
1.86588
1.91036
1.95535
2.00083
2.04677
2.09315
2.13993
2.1871
2.23461
2.28243
2.33053
2.37886
2.42738
2.47607
2.52487
2.57374
2.62265
2.67154
2.72039
2.76914
2.81776
2.86621
2.91446
2.96248
3.01022
3.05768
3.10482
3.15161
3.19803
3.24406
3.28968
3.33487
3.37962
3.4239
3.46771
3.51104
3.55388
3.59621
3.63803
3.67933
3.72009
3.7603
3.79996
3.83903
3.87748
3.91528
3.95238
3.9887
4.02416
4.05865
4.09203
4.12416
4.15483
4.18384
4.21094
4.23587
4.25832
4.27802
4.29464
4.30786
4.31703
4.32206
4.32305
4.31948
4.31115
4.29794
4.27978
4.25668
4.22871
4.196
4.15875
4.11723
4.07176
4.02268
3.9704
3.91534
3.85793
3.79856
3.73759
3.67535
3.61215
3.54833
3.48422
3.42012
3.35634
3.29313
3.2307
3.16925
3.10894
3.04989
2.99221
2.93596
2.88121
2.82799
2.77631
2.72619
2.67762
2.6306
2.5851
2.54112
2.4986
2.45753
2.41786
2.37956
2.34258
2.30689
2.27244
2.2392
2.20715
2.17626
2.14656
2.11805
2.09079
2.0648
2.0395
2.00881
0.072455
0.130323
0.16257
0.186254
0.206162
0.22412
0.241047
0.25747
0.273713
0.289987
0.306434
0.323154
0.340224
0.357709
0.375664
0.394137
0.413166
0.432778
0.452988
0.473804
0.495232
0.517275
0.539936
0.563212
0.5871
0.611587
0.636658
0.662293
0.688472
0.715177
0.742393
0.770109
0.79832
0.827024
0.856223
0.885918
0.916115
0.946818
0.978035
1.00977
1.04205
1.07486
1.10822
1.14215
1.17666
1.21176
1.24746
1.28377
1.32072
1.3583
1.39653
1.43542
1.47499
1.51522
1.55614
1.59775
1.64004
1.68302
1.72669
1.77105
1.81608
1.86177
1.90813
1.95512
2.00274
2.05097
2.09978
2.14916
2.19906
2.24946
2.30033
2.35164
2.40333
2.45538
2.50774
2.56037
2.61321
2.66622
2.71935
2.77255
2.82576
2.87894
2.93202
2.98497
3.03774
3.09026
3.1425
3.19441
3.24596
3.2971
3.34779
3.39801
3.44771
3.49687
3.54546
3.59345
3.64081
3.68753
3.7336
3.779
3.82373
3.86776
3.9111
3.95375
3.99569
4.03693
4.07748
4.11731
4.15642
4.19478
4.23238
4.26916
4.30506
4.33999
4.37386
4.40652
4.43781
4.46753
4.49545
4.52132
4.54483
4.56569
4.58358
4.59813
4.6089
4.61546
4.6179
4.61574
4.60872
4.59665
4.57944
4.55708
4.5296
4.49715
4.4599
4.41809
4.37204
4.32208
4.26861
4.21203
4.15278
4.09125
4.02784
3.9629
3.89678
3.82986
3.76249
3.69499
3.6277
3.56087
3.49477
3.4296
3.36553
3.30271
3.24125
3.18124
3.12275
3.0658
3.01044
2.95667
2.90449
2.8539
2.80487
2.75738
2.71141
2.66692
2.62386
2.58222
2.54193
2.50298
2.46531
2.42892
2.39377
2.35986
2.32723
2.29592
2.26599
2.23748
2.2098
2.17808
0.0812778
0.1427
0.177199
0.202541
0.223778
0.242848
0.260726
0.277985
0.294986
0.311975
0.329125
0.346559
0.364371
0.38263
0.401395
0.420711
0.44061
0.461119
0.482253
0.504021
0.526426
0.549469
0.573146
0.597454
0.622384
0.647926
0.67407
0.700802
0.72811
0.755981
0.784406
0.813378
0.842893
0.87295
0.903549
0.934696
0.966394
0.998651
1.03147
1.06487
1.09886
1.13344
1.16864
1.20446
1.24092
1.27803
1.31581
1.35428
1.39343
1.4333
1.4739
1.51523
1.5573
1.60013
1.64372
1.68809
1.73322
1.77913
1.82582
1.87328
1.9215
1.97047
2.02019
2.07064
2.1218
2.17365
2.22617
2.27932
2.33308
2.38741
2.44227
2.49763
2.55344
2.60965
2.66621
2.72307
2.78017
2.83746
2.89487
2.95235
3.00982
3.06724
3.12454
3.18165
3.23851
3.29506
3.35124
3.40699
3.46227
3.51702
3.57119
3.62473
3.6776
3.72975
3.78116
3.83177
3.88157
3.93053
3.97862
4.02583
4.07215
4.11758
4.16209
4.20571
4.24843
4.29026
4.33122
4.37131
4.41054
4.44892
4.48644
4.52309
4.55884
4.59363
4.62739
4.66003
4.6914
4.72134
4.74965
4.77608
4.80036
4.82217
4.84119
4.85706
4.86939
4.87773
4.88192
4.88156
4.87634
4.866
4.85044
4.82961
4.80353
4.77229
4.73602
4.69496
4.64936
4.59955
4.54591
4.48882
4.42869
4.36596
4.301
4.23423
4.16601
4.09676
4.02683
3.95661
3.88641
3.81655
3.74729
3.67887
3.61148
3.54529
3.48042
3.41697
3.35502
3.29462
3.2358
3.17858
3.12296
3.06894
3.01649
2.96561
2.91626
2.8684
2.82201
2.77704
2.73346
2.69123
2.65033
2.61073
2.57243
2.53544
2.49979
2.46556
2.43282
2.4016
2.37131
2.3381
0.0886007
0.152723
0.189022
0.215726
0.238085
0.258117
0.276836
0.294842
0.312521
0.330142
0.347896
0.365924
0.384331
0.403195
0.422577
0.442523
0.463067
0.484232
0.506036
0.528487
0.55159
0.575347
0.599754
0.624807
0.650499
0.676824
0.703772
0.731337
0.759509
0.788283
0.817652
0.847613
0.878164
0.909307
0.941044
0.973381
1.00632
1.03988
1.07406
1.10887
1.14434
1.18046
1.21726
1.25474
1.29294
1.33185
1.37151
1.41192
1.4531
1.49508
1.53785
1.58145
1.62587
1.67114
1.71726
1.76423
1.81207
1.86078
1.91036
1.9608
2.01211
2.06426
2.11725
2.17106
2.22567
2.28107
2.33721
2.39408
2.45164
2.50984
2.56865
2.62801
2.68789
2.74822
2.80895
2.87001
2.93135
2.99289
3.05456
3.11631
3.17804
3.23968
3.30117
3.36242
3.42336
3.48391
3.54401
3.60357
3.66254
3.72085
3.77844
3.83524
3.8912
3.94626
4.00037
4.0535
4.10559
4.15662
4.20655
4.25537
4.30306
4.3496
4.39499
4.43925
4.48237
4.52439
4.56532
4.60519
4.64404
4.68188
4.71875
4.75466
4.78963
4.82363
4.85664
4.8886
4.91943
4.94899
4.97711
5.00359
5.02817
5.05055
5.07043
5.08742
5.10115
5.11121
5.1173
5.119
5.11597
5.10787
5.09458
5.07601
5.05213
5.02298
4.98864
4.9493
4.90516
4.85652
4.8037
4.74709
4.68708
4.62408
4.55851
4.49077
4.42129
4.35047
4.27873
4.20643
4.13396
4.06164
3.98975
3.91857
3.8483
3.77913
3.7112
3.64464
3.57952
3.51592
3.45386
3.39338
3.33448
3.27717
3.22142
3.16723
3.11456
3.06339
3.01368
2.9654
2.91852
2.873
2.82882
2.78597
2.74445
2.70428
2.66551
2.62822
2.5925
2.55837
2.52524
2.4899
0.0943861
0.16046
0.198137
0.225914
0.249182
0.270016
0.289451
0.308104
0.326375
0.344542
0.362809
0.381326
0.400205
0.419533
0.439373
0.459773
0.480771
0.50239
0.524649
0.54756
0.571131
0.595363
0.62026
0.645817
0.672031
0.698897
0.726412
0.754574
0.783377
0.812819
0.842899
0.873615
0.90497
0.936968
0.969613
1.00291
1.03688
1.07151
1.10684
1.14286
1.1796
1.21706
1.25527
1.29424
1.334
1.37455
1.41592
1.45813
1.5012
1.54514
1.58997
1.6357
1.68236
1.72996
1.7785
1.828
1.87846
1.92989
1.98228
2.03564
2.08995
2.14522
2.20142
2.25855
2.31657
2.37546
2.43519
2.49573
2.55705
2.61909
2.6818
2.74515
2.80906
2.87349
2.93836
3.0036
3.06915
3.13492
3.20083
3.26681
3.33277
3.39861
3.46426
3.52963
3.59461
3.65913
3.7231
3.78643
3.84905
3.91086
3.9718
4.03179
4.09076
4.14863
4.20536
4.26087
4.31513
4.36808
4.41968
4.4699
4.51873
4.56614
4.61213
4.6567
4.69988
4.74169
4.78216
4.82133
4.85927
4.89601
4.93162
4.96616
4.99966
5.03217
5.0637
5.09424
5.12378
5.15221
5.17944
5.20529
5.22954
5.25193
5.27216
5.28988
5.30471
5.31625
5.32416
5.32806
5.3275
5.32205
5.31151
5.29581
5.27485
5.2486
5.21709
5.1804
5.13871
5.09224
5.04129
4.98618
4.92729
4.86502
4.79979
4.73201
4.66213
4.59057
4.51777
4.44413
4.37005
4.29588
4.22193
4.1485
4.07583
4.00412
3.93353
3.8642
3.79623
3.7297
3.66465
3.60113
3.53914
3.47869
3.41978
3.36239
3.30649
3.25207
3.19909
3.14752
3.09733
3.0485
3.00102
2.95487
2.91007
2.86664
2.82465
2.78418
2.74531
2.70807
2.67189
2.63401
0.0986708
0.166054
0.204729
0.23331
0.257279
0.278747
0.298762
0.317947
0.336706
0.355323
0.374005
0.392906
0.412143
0.431807
0.451966
0.472669
0.493956
0.515856
0.538389
0.56157
0.585412
0.60992
0.6351
0.660954
0.687481
0.714682
0.742558
0.771112
0.800343
0.830252
0.860841
0.892113
0.924073
0.956729
0.990089
1.02416
1.05896
1.0945
1.13079
1.16786
1.20571
1.24436
1.28384
1.32417
1.36535
1.40743
1.45041
1.49431
1.53917
1.58499
1.6318
1.67961
1.72844
1.77831
1.82923
1.88121
1.93425
1.98836
2.04354
2.09979
2.15709
2.21545
2.27485
2.33526
2.39666
2.45903
2.52234
2.58653
2.65158
2.71742
2.78402
2.85131
2.91923
2.98771
3.05667
3.12605
3.19575
3.26569
3.33579
3.40594
3.47606
3.54604
3.61577
3.68517
3.75412
3.82252
3.89027
3.95727
4.02343
4.08864
4.15282
4.21588
4.27773
4.33829
4.39748
4.45523
4.51148
4.56617
4.61924
4.67065
4.72037
4.76838
4.81466
4.85923
4.90209
4.94328
4.98284
5.02082
5.0573
5.09235
5.12607
5.15855
5.18986
5.2201
5.24935
5.27765
5.30503
5.33149
5.35698
5.38137
5.4045
5.42617
5.44609
5.46396
5.47942
5.49207
5.50155
5.50757
5.50953
5.50705
5.49962
5.48728
5.46986
5.44725
5.41938
5.38627
5.34799
5.30472
5.25667
5.20412
5.14742
5.08692
5.02305
4.95621
4.88687
4.81546
4.74244
4.66824
4.59328
4.51794
4.44257
4.36748
4.29293
4.21916
4.14636
4.07467
4.00421
3.93508
3.86734
3.80103
3.73618
3.6728
3.6109
3.55045
3.49145
3.43387
3.37769
3.32289
3.26944
3.21732
3.16653
3.11706
3.06893
3.02218
2.97688
2.93312
2.89097
2.85047
2.81105
2.77034
0.101519
0.169684
0.209026
0.238166
0.262638
0.284573
0.305023
0.324612
0.343743
0.3627
0.381689
0.400865
0.420347
0.440226
0.460575
0.481446
0.50288
0.524909
0.54756
0.570851
0.594798
0.619412
0.644704
0.670679
0.697346
0.72471
0.752777
0.781553
0.811044
0.841255
0.87219
0.903858
0.936267
0.969429
1.00335
1.03806
1.07355
1.10986
1.147
1.18498
1.22384
1.26359
1.30425
1.34585
1.3884
1.43194
1.47648
1.52205
1.56866
1.61635
1.66512
1.71501
1.76602
1.81817
1.87148
1.92595
1.98159
2.03841
2.0964
2.15556
2.21588
2.27735
2.33995
2.40366
2.46845
2.53429
2.60115
2.66898
2.73773
2.80735
2.87778
2.94896
3.02081
3.09326
3.16624
3.23965
3.3134
3.3874
3.46155
3.53574
3.60987
3.68383
3.7575
3.83076
3.90351
3.97561
4.04696
4.11744
4.18695
4.25536
4.32258
4.3885
4.45302
4.51604
4.57747
4.63723
4.69523
4.75139
4.80566
4.85798
4.90829
4.95657
5.0028
5.04698
5.08911
5.12924
5.1674
5.20367
5.23813
5.27088
5.30204
5.33173
5.36009
5.38725
5.41335
5.4385
5.46281
5.48635
5.50914
5.53114
5.55226
5.57233
5.59116
5.60847
5.62391
5.63712
5.64775
5.65546
5.65988
5.66043
5.65654
5.64789
5.63451
5.61619
5.59274
5.56407
5.53018
5.49112
5.44705
5.39817
5.34476
5.28715
5.22572
5.16089
5.0931
5.02281
4.9505
4.8766
4.80158
4.72583
4.64974
4.57364
4.49782
4.42256
4.34804
4.27446
4.20195
4.13061
4.06053
3.99176
3.92433
3.85827
3.79359
3.73029
3.66835
3.60776
3.54851
3.49057
3.43393
3.37858
3.32451
3.27174
3.22028
3.17019
3.12154
3.07441
3.02889
2.98499
2.94221
2.89846
0.103132
0.171591
0.211278
0.240751
0.265539
0.287778
0.308517
0.328375
0.347752
0.366929
0.38611
0.40545
0.425065
0.445048
0.465469
0.486385
0.50784
0.529871
0.552507
0.575772
0.599688
0.624271
0.649537
0.675499
0.70217
0.729564
0.757692
0.786565
0.816196
0.846592
0.877763
0.909723
0.942484
0.976057
1.01046
1.0457
1.08182
1.11882
1.15675
1.19561
1.23544
1.27626
1.31809
1.36096
1.4049
1.44992
1.49606
1.54334
1.59177
1.64139
1.69221
1.74425
1.79752
1.85205
1.90784
1.96489
2.02322
2.08283
2.14371
2.20585
2.26925
2.33389
2.39974
2.46678
2.53498
2.6043
2.6747
2.74612
2.81853
2.89185
2.96603
3.04099
3.11665
3.19293
3.26975
3.34701
3.42461
3.50245
3.58042
3.6584
3.73628
3.81394
3.89125
3.96809
4.04431
4.1198
4.19443
4.26806
4.34058
4.41185
4.48176
4.5502
4.61704
4.68217
4.74549
4.80689
4.86627
4.92356
4.97865
5.03148
5.08198
5.13012
5.17586
5.21919
5.26012
5.29868
5.33492
5.3689
5.40073
5.43053
5.45843
5.48461
5.50922
5.53246
5.55452
5.57558
5.59584
5.61547
5.63457
5.65319
5.67132
5.68887
5.70571
5.72162
5.73628
5.74938
5.76059
5.76955
5.77594
5.77935
5.77916
5.77465
5.76571
5.75224
5.73391
5.71052
5.68195
5.64815
5.60916
5.5651
5.51616
5.46261
5.40479
5.34309
5.27795
5.20985
5.13924
5.06662
4.99243
4.91712
4.8411
4.76472
4.68833
4.6122
4.53657
4.46164
4.38757
4.31448
4.24247
4.17162
4.10196
4.03354
3.96637
3.90046
3.83581
3.77241
3.71026
3.64934
3.58964
3.53116
3.47391
3.41789
3.36315
3.30974
3.25772
3.2072
3.15824
3.11089
3.06466
3.01776
0.103228
0.171703
0.21159
0.241259
0.266227
0.288631
0.309526
0.329525
0.349026
0.368305
0.387562
0.406949
0.426582
0.446554
0.466937
0.48779
0.50916
0.531087
0.553606
0.576745
0.600532
0.62499
0.650142
0.676006
0.702604
0.729954
0.758075
0.786982
0.816695
0.847229
0.878601
0.910829
0.943927
0.97791
1.01279
1.04857
1.08531
1.12303
1.16178
1.20158
1.24245
1.28443
1.32753
1.3718
1.41724
1.4639
1.5118
1.56095
1.61138
1.66312
1.71617
1.77055
1.82629
1.88337
1.94183
2.00165
2.06284
2.1254
2.18931
2.25457
2.32115
2.38904
2.45821
2.52862
2.60023
2.67301
2.7469
2.82186
2.89781
2.9747
3.05244
3.13098
3.21021
3.29006
3.37043
3.45121
3.53231
3.61361
3.69499
3.77635
3.85754
3.93843
4.01891
4.09882
4.17803
4.2564
4.33378
4.41003
4.48502
4.55862
4.63069
4.7011
4.76973
4.83644
4.90111
4.96362
5.02387
5.08173
5.13711
5.18992
5.24008
5.28753
5.33223
5.37415
5.4133
5.4497
5.4834
5.51447
5.54301
5.56915
5.59307
5.61496
5.63502
5.65349
5.67063
5.68668
5.70192
5.71665
5.73107
5.74533
5.75949
5.77356
5.78748
5.80104
5.81391
5.82602
5.83711
5.84685
5.85489
5.86077
5.86407
5.86407
5.86009
5.85198
5.83941
5.82209
5.79977
5.77228
5.73949
5.70144
5.65819
5.60995
5.55696
5.49961
5.43832
5.37355
5.30575
5.23543
5.16307
5.08914
5.01406
4.93825
4.86204
4.78577
4.70969
4.63403
4.55897
4.48466
4.41122
4.33873
4.26726
4.19686
4.12755
4.05935
3.99228
3.92633
3.86151
3.79781
3.73524
3.67379
3.61349
3.55434
3.49641
3.43973
3.3844
3.3305
3.27812
3.2273
3.17759
3.12747
0.102814
0.171011
0.210782
0.240397
0.265335
0.287722
0.308601
0.328582
0.348057
0.3673
0.38651
0.405834
0.425388
0.445264
0.465534
0.486259
0.507487
0.529263
0.551624
0.574604
0.598236
0.622548
0.647568
0.673323
0.699838
0.727137
0.755248
0.784197
0.814007
0.844704
0.876313
0.908857
0.942354
0.976821
1.01228
1.04874
1.08626
1.12489
1.16466
1.20561
1.24777
1.29115
1.3358
1.38174
1.429
1.47761
1.5276
1.57897
1.63175
1.68595
1.74158
1.79865
1.85717
1.91714
1.97856
2.04143
2.10574
2.17147
2.23862
2.30715
2.37705
2.44828
2.5208
2.59458
2.66957
2.74572
2.82296
2.90125
2.98052
3.06068
3.14167
3.2234
3.30579
3.38873
3.47214
3.5559
3.63991
3.72405
3.80821
3.89225
3.97604
4.05946
4.14236
4.22459
4.30601
4.38647
4.46582
4.54391
4.62059
4.69572
4.76916
4.84076
4.91039
4.97791
5.04318
5.10605
5.1664
5.2241
5.27904
5.33111
5.3802
5.42625
5.46918
5.50898
5.54564
5.57917
5.60962
5.63705
5.66158
5.68333
5.70251
5.71934
5.73406
5.74693
5.75832
5.76846
5.77745
5.78591
5.79424
5.80276
5.81157
5.82079
5.83054
5.84067
5.8509
5.86137
5.8717
5.88157
5.89069
5.89893
5.90552
5.90988
5.9118
5.91068
5.90499
5.8951
5.88007
5.85994
5.83448
5.80366
5.76738
5.72573
5.67889
5.62718
5.571
5.51078
5.44698
5.3801
5.31065
5.23911
5.16595
5.0916
5.01644
4.94082
4.86503
4.78934
4.71394
4.63902
4.56471
4.49111
4.41831
4.34637
4.27533
4.20523
4.13609
4.06791
4.00072
3.93451
3.8693
3.80511
3.74194
3.67984
3.61885
3.55904
3.50049
3.4433
3.38754
3.33329
3.28013
3.22681
0.101616
0.169155
0.208529
0.237919
0.26268
0.284906
0.305635
0.325469
0.344797
0.363887
0.382936
0.40209
0.421463
0.441147
0.461217
0.481735
0.502752
0.524318
0.546476
0.569267
0.592732
0.616909
0.641833
0.667543
0.694075
0.721469
0.749753
0.778956
0.809113
0.840259
0.872434
0.905688
0.940003
0.975404
1.01192
1.04957
1.08836
1.12839
1.16971
1.21235
1.25634
1.30171
1.3485
1.39673
1.44645
1.49768
1.55042
1.60468
1.66047
1.71779
1.77663
1.83699
1.89888
1.96227
2.02716
2.09352
2.16134
2.2306
2.30125
2.37328
2.44663
2.52128
2.59716
2.67424
2.75246
2.83176
2.91207
2.99334
3.07547
3.15841
3.24207
3.32637
3.4112
3.49649
3.58213
3.66801
3.75403
3.84007
3.926
4.01172
4.09707
4.18193
4.26616
4.34961
4.43213
4.51356
4.59375
4.67254
4.74978
4.82531
4.89899
4.97068
5.04022
5.10747
5.17225
5.23443
5.29383
5.35034
5.40382
5.45412
5.50115
5.5448
5.58499
5.62168
5.65489
5.68461
5.71088
5.73377
5.75337
5.7698
5.78306
5.79353
5.80151
5.80731
5.81146
5.81422
5.81633
5.81826
5.82033
5.82302
5.82628
5.83042
5.83577
5.84212
5.84917
5.85728
5.86614
5.87554
5.8853
5.89551
5.90482
5.91304
5.91983
5.9249
5.92678
5.9247
5.91792
5.90686
5.89052
5.86889
5.84129
5.80768
5.76838
5.72369
5.674
5.61968
5.56116
5.49895
5.43357
5.36554
5.29533
5.22341
5.1502
5.07609
5.00139
4.9264
4.85135
4.77645
4.70185
4.62769
4.55407
4.48106
4.40873
4.33712
4.26626
4.19619
4.12693
4.05849
3.9909
3.92418
3.85835
3.79347
3.72959
3.66677
3.60511
3.54471
3.48565
3.42801
3.37143
3.31495
0.0992738
0.165931
0.204797
0.233817
0.258261
0.280202
0.300668
0.320258
0.339358
0.358234
0.377079
0.39604
0.41523
0.434745
0.454664
0.475053
0.495973
0.517478
0.53962
0.562449
0.586015
0.610363
0.635538
0.66159
0.688572
0.716544
0.74552
0.775534
0.806631
0.838854
0.872234
0.906774
0.942472
0.979417
1.01766
1.05727
1.09829
1.14075
1.18467
1.23009
1.27704
1.32554
1.37562
1.42728
1.48055
1.53543
1.59192
1.65001
1.70967
1.7709
1.83368
1.89798
1.96378
2.03105
2.09976
2.16987
2.24135
2.31416
2.38824
2.46356
2.54007
2.61771
2.69643
2.77617
2.85688
2.93849
3.02093
3.10413
3.18803
3.27255
3.35761
3.44312
3.52901
3.61519
3.70155
3.788
3.87444
3.96075
4.04683
4.13255
4.21779
4.30242
4.3863
4.46929
4.55123
4.63197
4.71136
4.78923
4.86543
4.9398
5.01219
5.08246
5.15044
5.21598
5.2789
5.33901
5.39615
5.45018
5.50093
5.54827
5.59205
5.63216
5.66852
5.70096
5.72949
5.75415
5.77499
5.79208
5.80552
5.81551
5.82246
5.82657
5.82791
5.82683
5.82423
5.81988
5.81468
5.80921
5.804
5.80016
5.79687
5.79491
5.79521
5.79709
5.8008
5.80622