/*--------------------------------*- C++ -*----------------------------------*\
  =========                 |
  \\      /  F ield         | OpenFOAM: The Open Source CFD Toolbox
   \\    /   O peration     | Website:  https://openfoam.org
    \\  /    A nd           | Version:  8
     \\/     M anipulation  |
\*---------------------------------------------------------------------------*/
FoamFile
{
    version     2.0;
    format      ascii;
    class       volScalarField;
    location    "155";
    object      nut;
}
// * * * * * * * * * * * * * * * * * * * * * * * * * * * * * * * * * * * * * //

dimensions      [0 2 -1 0 0 0 0];

internalField   nonuniform List<scalar> 
12225
(
4.14977e-05
3.93417e-05
3.7483e-05
3.54337e-05
3.37819e-05
3.24236e-05
3.1505e-05
3.09125e-05
3.09177e-05
3.10979e-05
3.15694e-05
3.21136e-05
3.31531e-05
3.38163e-05
3.51148e-05
3.56894e-05
3.76315e-05
3.56815e-05
0.000332405
0.00021515
0.000179322
0.000157622
0.000146251
0.000138156
0.000132711
0.0001317
0.000129449
0.000130127
0.000128986
0.000129506
0.000128603
0.000128625
0.000128021
0.000127498
0.000127479
0.000126448
0.000675194
0.000450625
0.000355912
0.000309691
0.000275407
0.000250967
0.000231796
0.000217161
0.000202679
0.000192084
0.000182604
0.000175142
0.00016937
0.000163559
0.000160308
0.000155371
0.000153804
0.000149609
0.00083381
0.000684675
0.000572219
0.000499766
0.00044963
0.000411775
0.000380904
0.000355847
0.00033409
0.000314629
0.00029837
0.000281553
0.000270301
0.000255898
0.000248119
0.000235969
0.000230123
0.000220114
0.000861325
0.000802498
0.000742288
0.000676374
0.000624162
0.000581208
0.000545989
0.000514414
0.000489591
0.000464297
0.000445877
0.000423938
0.000409879
0.000390653
0.000379722
0.000362901
0.000354144
0.000339105
0.000854998
0.000840351
0.000822267
0.000786378
0.000750983
0.000715793
0.00068584
0.000656038
0.000632583
0.000607431
0.000588981
0.000567153
0.000552203
0.000532971
0.000520616
0.000503528
0.000493008
0.000477117
0.000852914
0.000850686
0.000844248
0.000832824
0.000817455
0.000796948
0.000777922
0.00075669
0.000738907
0.000719099
0.000703505
0.000685558
0.000672051
0.000655821
0.000644172
0.000629359
0.000619277
0.000604861
0.000851926
0.000851809
0.00085018
0.000847386
0.000841462
0.000833725
0.0008249
0.000813396
0.000802805
0.000790447
0.000779692
0.0007675
0.000757373
0.000745712
0.000736445
0.000725404
0.000716991
0.000705835
0.000851753
0.000851538
0.000851039
0.000850334
0.000848882
0.000846166
0.000843037
0.000838298
0.000833398
0.00082735
0.0008212
0.000814751
0.000808378
0.000801483
0.000795182
0.000788341
0.00078207
0.000775124
0.000851771
0.000851388
0.000851048
0.000850631
0.000850248
0.000849366
0.000848406
0.000846778
0.000844953
0.000842525
0.000839916
0.000836788
0.000833778
0.000830129
0.00082694
0.000822884
0.000819848
0.000815229
0.000851788
0.000851358
0.000851012
0.000850613
0.000850329
0.000849904
0.000849525
0.000848928
0.000848301
0.00084739
0.000846462
0.000845171
0.000843982
0.00084234
0.000840981
0.000839011
0.000837615
0.000835329
0.000851789
0.000851359
0.000850996
0.000850605
0.000850292
0.000849938
0.000849645
0.000849279
0.000848954
0.000848503
0.000848096
0.000847504
0.000846993
0.000846238
0.000845634
0.000844711
0.000844046
0.000842962
0.000851786
0.000851363
0.000850986
0.000850604
0.000850269
0.000849926
0.00084963
0.000849313
0.000849042
0.000848727
0.00084846
0.000848124
0.000847841
0.000847462
0.000847152
0.000846721
0.000846382
0.000845896
0.000851783
0.000851364
0.000850978
0.000850602
0.000850256
0.000849916
0.000849607
0.000849299
0.000849022
0.00084874
0.000848487
0.000848223
0.000847987
0.000847733
0.000847506
0.000847256
0.000847031
0.000846781
0.000851781
0.000851364
0.000850973
0.000850598
0.000850246
0.000849909
0.000849592
0.000849286
0.000849
0.000848723
0.000848463
0.000848211
0.000847974
0.000847744
0.000847527
0.000847315
0.000847115
0.000846919
0.00085178
0.000851363
0.000850969
0.000850594
0.000850239
0.000849901
0.00084958
0.000849275
0.000848984
0.000848707
0.000848443
0.000848191
0.000847951
0.000847721
0.000847503
0.000847293
0.000847094
0.000846903
0.000851779
0.000851362
0.000850967
0.000850591
0.000850234
0.000849895
0.000849572
0.000849265
0.000848973
0.000848694
0.000848429
0.000848175
0.000847933
0.000847702
0.000847481
0.00084727
0.000847069
0.000846876
0.000851779
0.000851362
0.000850965
0.000850589
0.000850231
0.000849891
0.000849567
0.000849259
0.000848966
0.000848686
0.000848419
0.000848164
0.000847921
0.000847688
0.000847466
0.000847254
0.000847051
0.000846857
0.000851779
0.000851362
0.000850965
0.000850588
0.00085023
0.000849889
0.000849565
0.000849257
0.000848963
0.000848682
0.000848415
0.000848159
0.000847915
0.000847682
0.000847459
0.000847245
0.000847041
0.000846846
0.000851779
0.000851362
0.000850966
0.000850589
0.000850232
0.000849892
0.000849568
0.00084926
0.000848966
0.000848686
0.000848418
0.000848163
0.000847918
0.000847685
0.000847462
0.000847248
0.000847043
0.000846847
0.000851779
0.000851363
0.000850967
0.000850592
0.000850235
0.000849897
0.000849573
0.000849267
0.000848973
0.000848695
0.000848425
0.00084817
0.000847921
0.000847685
0.000847453
0.000847233
0.000847015
0.000846808
0.000851778
0.000851366
0.000850968
0.000850599
0.00085024
0.000849908
0.00084958
0.000849275
0.000848965
0.000848672
0.000848366
0.000848073
0.000847758
0.000847457
0.000847125
0.000846813
0.00084646
0.000846139
0.000851777
0.000851374
0.000850972
0.000850615
0.000850241
0.00084989
0.000849479
0.000849055
0.00084853
0.000847979
0.000847302
0.000846606
0.000845769
0.000844942
0.000843958
0.000843033
0.000841922
0.000840944
0.000851802
0.00085141
0.000850971
0.000850549
0.000849861
0.000848968
0.000847608
0.000845981
0.000843905
0.000841638
0.000838957
0.000836218
0.000833121
0.000830119
0.000826769
0.000823687
0.000820192
0.000817187
0.000852138
0.000851404
0.000850234
0.000848253
0.000844473
0.000839357
0.000832713
0.000825766
0.000817917
0.000810006
0.000801622
0.000793635
0.000785341
0.000777718
0.000769756
0.000762715
0.000755139
0.000748812
0.000854142
0.000847718
0.000840126
0.000827123
0.000808709
0.00078965
0.000769976
0.000751422
0.000733311
0.000716904
0.000700945
0.000686793
0.000672845
0.000660688
0.000648398
0.000637962
0.000626977
0.000618045
0.00085497
0.000818337
0.00077623
0.000726637
0.000684941
0.000649862
0.000618466
0.00059203
0.000568391
0.000548323
0.000529702
0.000514008
0.000498767
0.000486036
0.000473224
0.000462732
0.000451648
0.000442832
0.000807486
0.00066688
0.000570553
0.000509858
0.000465652
0.0004312
0.000404139
0.000382509
0.000364202
0.000349077
0.00033595
0.00032509
0.000314494
0.000306262
0.000297978
0.000291385
0.0002843
0.000278951
0.000501854
0.000348405
0.000292691
0.000259176
0.000236325
0.000221179
0.000211546
0.000204019
0.000198482
0.000195062
0.00019222
0.00019037
0.000188584
0.000187442
0.000186166
0.000185475
0.000184555
0.000184143
7.27285e-05
7.02231e-05
6.79539e-05
6.56136e-05
6.33827e-05
6.12765e-05
5.94928e-05
5.79571e-05
5.67101e-05
5.57026e-05
5.4977e-05
5.44176e-05
5.41076e-05
5.38855e-05
5.38756e-05
5.39596e-05
5.40688e-05
5.43191e-05
1.39045e-06
2.42219e-05
4.00004e-05
5.48035e-05
6.96137e-05
8.44127e-05
9.91146e-05
0.000113513
0.000127307
0.000140202
0.000151953
0.000162464
0.000171838
0.000180132
0.000187327
0.00019724
0.000209109
0.000222283
0.00022638
0.000217017
0.000195501
3.70687e-05
3.56906e-05
3.83737e-05
4.12857e-05
4.30693e-05
0.000207119
4.23481e-05
4.64295e-05
4.85846e-05
4.94661e-05
5.0809e-05
5.19734e-05
5.31978e-05
5.43923e-05
5.55887e-05
5.67762e-05
5.79575e-05
5.91322e-05
6.02987e-05
6.14562e-05
6.26063e-05
6.375e-05
6.4887e-05
6.60189e-05
6.71453e-05
6.82674e-05
6.93849e-05
7.04989e-05
7.16088e-05
7.27156e-05
7.38187e-05
7.49188e-05
7.60153e-05
7.71087e-05
7.81983e-05
7.92846e-05
8.03669e-05
8.14452e-05
8.25192e-05
8.35886e-05
8.46531e-05
8.57124e-05
8.67661e-05
8.78138e-05
8.88552e-05
8.98897e-05
9.09172e-05
9.1937e-05
9.29491e-05
9.39528e-05
9.49481e-05
9.59342e-05
9.69112e-05
9.78782e-05
9.88355e-05
9.97821e-05
0.000100719
0.000101644
0.000102559
0.000103462
0.000104354
0.000105235
0.000106104
0.000106961
0.000107807
0.00010864
0.000109463
0.000110274
0.000111073
0.00011186
0.000112633
0.000113392
0.000114136
0.000114863
0.00011557
0.000116254
0.00011691
0.000117578
0.000118225
0.00011886
0.000119479
0.000120084
0.000120674
0.000121248
0.000121805
0.000122346
0.000122869
0.000123374
0.000123859
0.000124324
0.000124766
0.000125184
0.000125577
0.00012594
0.000126274
0.000126573
0.00012684
0.000127078
0.000127296
0.000127483
0.000127409
0.000127758
0.000127655
0.000127521
0.000127397
0.000127208
0.000126937
0.000126617
0.000126181
0.000125665
0.000125061
0.00012437
0.000123595
0.000122737
0.000121798
0.000120784
0.000119696
0.000118529
0.00011728
0.000115954
0.000114136
0.000113001
0.000112081
0.000111169
0.000110233
0.000109265
0.000108271
0.000107255
0.000106223
0.00010518
0.000104131
0.000103079
0.000102029
0.000100982
9.99439e-05
9.89085e-05
9.78804e-05
9.68638e-05
9.5863e-05
9.48791e-05
9.39135e-05
9.29705e-05
9.20341e-05
9.11179e-05
9.02259e-05
8.93587e-05
8.85171e-05
8.76993e-05
8.69035e-05
8.61283e-05
8.53727e-05
8.4636e-05
8.39159e-05
8.32097e-05
8.25041e-05
8.17991e-05
8.10167e-05
8.02182e-05
7.79023e-05
4.40377e-06
5.64109e-05
0.000114224
0.000155491
0.000184598
0.000207169
0.000226135
0.000242928
0.000258093
0.000271723
0.000283731
0.000294039
0.000302701
0.000310002
0.000315526
0.000318445
0.000318186
0.000312911
0.000298471
0.000273131
0.000237704
0.000195424
0.000197295
0.000212341
0.000233214
0.000259777
0.000304518
0.000279966
0.000291765
0.000298912
0.00030613
0.000313661
0.000321525
0.000329534
0.000337669
0.0003459
0.000354214
0.000362606
0.000371094
0.00037969
0.000388294
0.000396903
0.00040552
0.000414145
0.000422786
0.000431445
0.000440129
0.00044884
0.000457589
0.000466375
0.000475207
0.000484085
0.000493016
0.000501999
0.00051104
0.000520135
0.000529291
0.000538502
0.000547773
0.000557098
0.000566479
0.00057591
0.000585393
0.00059492
0.000604493
0.000614102
0.000623748
0.00063342
0.00064312
0.000652836
0.000662572
0.000672317
0.000682074
0.000691832
0.000701596
0.000711353
0.000721109
0.000730853
0.000740593
0.00075032
0.000760045
0.00076976
0.00077948
0.0007892
0.000798934
0.000808682
0.00081846
0.000828272
0.00083814
0.000848071
0.000858092
0.000868204
0.000878405
0.00088868
0.000898994
0.000909274
0.000919387
0.000929138
0.000938241
0.000947424
0.00095667
0.000965999
0.000975415
0.000984923
0.000994522
0.00100421
0.00101399
0.00102386
0.0010338
0.00104381
0.00105387
0.00106396
0.00107406
0.00108413
0.00109412
0.00110401
0.00111373
0.00112325
0.00113258
0.00114184
0.00115066
0.00115899
0.00116799
0.00117522
0.00118046
0.00118579
0.00119084
0.00119481
0.00119794
0.00120012
0.00120133
0.00120156
0.00120079
0.00119905
0.00119632
0.00119262
0.00118803
0.00118258
0.00117628
0.00116908
0.00116101
0.00114983
0.00113629
0.00112158
0.00110624
0.00109055
0.00107468
0.00105875
0.00104285
0.00102706
0.00101141
0.000995966
0.000980766
0.000965855
0.000951252
0.000936985
0.000922989
0.000909409
0.000896234
0.000883455
0.000871068
0.000859068
0.000847456
0.000836204
0.000825337
0.000814856
0.000804749
0.000794992
0.000785557
0.000776417
0.000767548
0.000758923
0.000750526
0.000742324
0.000734253
0.000726204
0.000718052
0.000708027
0.000691533
0.000650034
8.15228e-06
8.3837e-05
0.000167184
0.000231954
0.000280171
0.000316187
0.000343934
0.000366184
0.000384673
0.000400376
0.00041379
0.000425167
0.000434654
0.000442328
0.00044892
0.000455213
0.000460636
0.000464141
0.000464297
0.000460629
0.000454664
0.0004515
0.000463955
0.000485156
0.000509777
0.00053516
0.000557592
0.000568372
0.000584802
0.000601398
0.000618118
0.000634901
0.000651816
0.000668827
0.000685917
0.000703064
0.000720246
0.000737406
0.00075458
0.000771769
0.000788962
0.000806162
0.000823375
0.00084061
0.000857878
0.000875189
0.000892554
0.000909983
0.000927487
0.000945075
0.000962754
0.000980533
0.000998417
0.00101641
0.00103452
0.00105274
0.00107107
0.00108952
0.00110808
0.00112675
0.00114552
0.00116439
0.00118336
0.00120241
0.00122155
0.00124075
0.00126002
0.00127933
0.00129869
0.00131809
0.0013375
0.00135694
0.00137637
0.0013958
0.00141522
0.00143462
0.00145398
0.00147331
0.0014926
0.00151184
0.00153104
0.00155018
0.00156928
0.00158834
0.00160735
0.00162633
0.00164528
0.00166421
0.00168313
0.00170206
0.001721
0.00173995
0.00175889
0.00177781
0.00179665
0.00181538
0.00183391
0.00185217
0.00187022
0.00188834
0.00190655
0.00192487
0.0019433
0.00196186
0.00198054
0.00199934
0.00201827
0.00203732
0.00205647
0.00207571
0.002095
0.00211432
0.0021336
0.00215279
0.00217183
0.00219062
0.00220907
0.0022271
0.00224463
0.00226157
0.00227782
0.0022932
0.00230903
0.00232231
0.0023325
0.00234225
0.00235112
0.00235817
0.00236346
0.00236693
0.00236852
0.0023682
0.00236597
0.00236184
0.00235584
0.00234802
0.00233847
0.00232724
0.0023144
0.0022999
0.00228367
0.00226445
0.00224233
0.00221825
0.0021929
0.0021667
0.00213995
0.00211286
0.0020856
0.00205836
0.00203115
0.0020041
0.00197732
0.0019509
0.0019249
0.00189935
0.00187427
0.00184984
0.00182603
0.00180284
0.00178026
0.00175827
0.0017369
0.0017161
0.00169592
0.00167636
0.00165747
0.00163914
0.00162133
0.00160399
0.00158708
0.00157057
0.00155443
0.0015386
0.00152298
0.00150735
0.00149139
0.00147373
0.00144943
0.00138999
1.20253e-05
0.000105291
0.000208427
0.000290625
0.000353316
0.000400802
0.000437324
0.000466143
0.000489593
0.00050926
0.00052621
0.000541202
0.000554868
0.000567835
0.000580769
0.000594183
0.000608137
0.000622264
0.000636295
0.000649922
0.00066373
0.000679442
0.000699368
0.000722507
0.000747382
0.000772813
0.000797357
0.000819979
0.000843526
0.000867396
0.00089135
0.000915344
0.000939391
0.000963492
0.000987652
0.00101189
0.00103624
0.00106058
0.00108491
0.00110923
0.00113354
0.00115786
0.00118218
0.00120654
0.00123093
0.00125539
0.00127992
0.00130453
0.00132924
0.00135406
0.00137901
0.00140408
0.0014293
0.00145467
0.00148019
0.00150587
0.0015317
0.00155769
0.00158382
0.0016101
0.00163653
0.00166309
0.00168978
0.00171658
0.00174349
0.00177049
0.00179758
0.00182474
0.00185196
0.00187922
0.00190651
0.00193381
0.00196112
0.00198842
0.00201569
0.00204292
0.0020701
0.00209722
0.00212426
0.00215123
0.0021781
0.00220489
0.00223157
0.00225815
0.00228463
0.00231101
0.00233728
0.00236346
0.00238954
0.00241553
0.00244143
0.00246723
0.00249292
0.00251847
0.00254387
0.00256907
0.00259405
0.00261884
0.00264354
0.00266824
0.00269299
0.0027178
0.00274268
0.00276764
0.00279268
0.00281782
0.00284305
0.00286836
0.00289375
0.0029192
0.00294468
0.00297014
0.00299555
0.00302083
0.0030459
0.00307068
0.00309505
0.00311891
0.00314214
0.00316461
0.00318616
0.00320679
0.00322739
0.00324535
0.00325999
0.00327359
0.00328587
0.00329594
0.00330373
0.00330914
0.0033121
0.00331257
0.00331052
0.00330595
0.00329891
0.00328943
0.00327761
0.00326351
0.0032472
0.00322868
0.00320785
0.00318415
0.00315761
0.0031288
0.00309829
0.00306653
0.00303384
0.00300048
0.0029667
0.00293282
0.00289872
0.00286459
0.0028306
0.00279687
0.00276349
0.00273053
0.00269804
0.00266617
0.00263495
0.00260439
0.00257451
0.00254531
0.00251679
0.00248897
0.00246185
0.00243544
0.00240977
0.00238479
0.00236045
0.00233673
0.00231358
0.00229094
0.0022688
0.00224706
0.00222561
0.00220421
0.00218246
0.00215924
0.00212962
0.00206814
1.57783e-05
0.000123615
0.00024339
0.000340393
0.000416103
0.000474353
0.000519688
0.000555747
0.000585298
0.000610376
0.000632464
0.000652665
0.000671857
0.000690786
0.000710095
0.000730258
0.00075149
0.000773706
0.000796601
0.000819957
0.000843804
0.000868559
0.000894744
0.000922273
0.000950815
0.000979948
0.00100925
0.00103856
0.00106821
0.00109812
0.00112819
0.00115832
0.00118847
0.00121861
0.00124871
0.00127877
0.00130875
0.00133865
0.00136851
0.00139834
0.00142816
0.00145798
0.00148783
0.0015177
0.00154763
0.00157763
0.00160771
0.0016379
0.00166819
0.00169862
0.00172917
0.00175988
0.00179076
0.00182181
0.00185305
0.00188446
0.00191606
0.00194784
0.0019798
0.00201193
0.00204422
0.00207668
0.00210928
0.00214202
0.00217488
0.00220785
0.00224092
0.00227407
0.00230728
0.00234054
0.00237382
0.00240712
0.00244041
0.00247367
0.00250689
0.00254005
0.00257314
0.00260612
0.002639
0.00267176
0.00270437
0.00273684
0.00276916
0.0028013
0.00283327
0.00286506
0.00289666
0.00292807
0.00295929
0.00299031
0.00302114
0.00305177
0.00308218
0.00311238
0.00314236
0.0031721
0.00320164
0.003231
0.00326024
0.00328942
0.00331857
0.0033477
0.00337684
0.00340599
0.00343517
0.00346439
0.00349365
0.00352297
0.00355233
0.00358172
0.00361113
0.00364053
0.00366986
0.00369908
0.00372811
0.00375686
0.00378523
0.0038131
0.00384035
0.00386681
0.00389231
0.00391689
0.00394117
0.00396296
0.00398182
0.00399902
0.00401469
0.00402802
0.00403881
0.00404696
0.00405234
0.0040549
0.00405459
0.00405139
0.00404533
0.00403642
0.00402474
0.00401034
0.0039933
0.00397364
0.0039513
0.00392611
0.00389812
0.00386771
0.00383528
0.00380124
0.00376591
0.00372957
0.00369247
0.00365497
0.00361695
0.00357868
0.00354035
0.0035021
0.00346405
0.00342628
0.0033889
0.00335201
0.00331569
0.00327998
0.00324491
0.0032105
0.00317678
0.00314375
0.00311144
0.00307987
0.00304904
0.00301893
0.00298953
0.00296081
0.00293273
0.00290526
0.00287836
0.00285196
0.00282594
0.0028001
0.00277405
0.00274678
0.00271391
0.0026559
1.92883e-05
0.000139148
0.00027307
0.000383135
0.000470795
0.000539378
0.000593583
0.000637295
0.000673575
0.00070476
0.000732608
0.000758441
0.000783262
0.000807847
0.000832793
0.000858517
0.000885241
0.000912994
0.000941659
0.000971081
0.00100117
0.00103193
0.00106346
0.00109572
0.00112864
0.00116208
0.00119588
0.00122996
0.00126428
0.00129877
0.00133338
0.00136801
0.00140264
0.00143722
0.00147173
0.00150618
0.00154053
0.00157482
0.00160904
0.00164323
0.00167738
0.00171153
0.00174569
0.00177987
0.0018141
0.0018484
0.00188278
0.00191727
0.00195188
0.00198664
0.00202155
0.00205662
0.00209187
0.00212729
0.0021629
0.00219869
0.00223467
0.00227084
0.0023072
0.00234373
0.00238043
0.0024173
0.00245432
0.00249149
0.00252878
0.00256618
0.00260369
0.00264127
0.00267891
0.00271659
0.0027543
0.002792
0.00282969
0.00286733
0.00290492
0.00294241
0.0029798
0.00301706
0.00305418
0.00309112
0.00312788
0.00316443
0.00320076
0.00323686
0.0032727
0.00330828
0.00334358
0.00337859
0.00341332
0.00344774
0.00348187
0.00351568
0.00354919
0.00358239
0.0036153
0.00364793
0.0036803
0.00371243
0.00374437
0.00377614
0.00380777
0.00383929
0.00387072
0.00390208
0.00393339
0.00396467
0.00399594
0.00402722
0.00405851
0.00408982
0.00412114
0.00415246
0.00418376
0.00421499
0.0042461
0.00427702
0.00430766
0.00433793
0.00436768
0.00439679
0.00442505
0.00445246
0.00447959
0.00450452
0.0045272
0.00454784
0.00456697
0.00458382
0.00459813
0.00460974
0.00461851
0.00462436
0.00462719
0.00462697
0.00462368
0.00461731
0.00460789
0.00459547
0.00458009
0.00456178
0.00454055
0.00451638
0.00448936
0.00445974
0.00442784
0.004394
0.00435851
0.00432165
0.00428369
0.00424488
0.00420536
0.00416532
0.00412495
0.00408443
0.00404387
0.0040034
0.00396313
0.00392318
0.00388362
0.00384454
0.00380599
0.00376801
0.00373063
0.00369389
0.00365781
0.00362241
0.00358771
0.00355372
0.00352043
0.00348782
0.00345589
0.0034246
0.00339393
0.00336383
0.00333421
0.00330492
0.00327562
0.00324539
0.00321054
0.00315717
2.24481e-05
0.000151992
0.000297763
0.00041958
0.000517925
0.000596412
0.000659367
0.00071083
0.000754035
0.000791509
0.000825189
0.000856536
0.000886646
0.000916328
0.000946167
0.00097656
0.00100774
0.00103979
0.00107271
0.00110641
0.00114081
0.00117586
0.0012115
0.0012477
0.00128439
0.0013215
0.00135894
0.00139663
0.0014345
0.0014725
0.00151055
0.0015486
0.00158661
0.00162456
0.00166242
0.00170018
0.00173785
0.00177543
0.00181293
0.00185037
0.00188777
0.00192514
0.00196251
0.00199988
0.0020373
0.00207476
0.0021123
0.00214994
0.00218769
0.00222558
0.0022636
0.00230179
0.00234015
0.00237868
0.00241739
0.00245629
0.00249538
0.00253465
0.00257412
0.00261377
0.00265359
0.00269359
0.00273374
0.00277404
0.00281447
0.00285501
0.00289566
0.00293639
0.00297717
0.003018
0.00305885
0.00309969
0.0031405
0.00318126
0.00322194
0.00326251
0.00330295
0.00334324
0.00338334
0.00342323
0.00346289
0.0035023
0.00354142
0.00358024
0.00361873
0.00365689
0.00369468
0.0037321
0.00376914
0.00380578
0.00384201
0.00387784
0.00391326
0.00394827
0.00398288
0.00401712
0.00405099
0.00408451
0.00411772
0.00415065
0.00418332
0.00421575
0.00424799
0.00428006
0.00431199
0.0043438
0.00437555
0.00440725
0.00443893
0.00447063
0.00450234
0.0045341
0.00456589
0.0045977
0.00462951
0.00466128
0.00469294
0.00472442
0.00475562
0.00478641
0.00481662
0.00484616
0.00487559
0.00490329
0.00492943
0.00495358
0.00497636
0.00499706
0.00501541
0.00503118
0.00504422
0.00505438
0.00506156
0.00506567
0.00506664
0.00506443
0.00505901
0.0050504
0.0050386
0.00502364
0.00500556
0.00498437
0.00496018
0.00493318
0.00490364
0.00487181
0.00483799
0.00480243
0.0047654
0.00472714
0.00468784
0.00464772
0.00460697
0.00456576
0.00452425
0.00448258
0.00444088
0.00439927
0.00435786
0.00431673
0.00427596
0.00423561
0.00419574
0.00415639
0.00411759
0.00407939
0.00404181
0.00400486
0.00396856
0.00393292
0.00389793
0.00386359
0.00382989
0.00379682
0.00376432
0.00373229
0.00370046
0.00366803
0.00363194
0.00358224
2.51846e-05
0.000162286
0.000317796
0.000449942
0.000557883
0.000645559
0.000716886
0.000775911
0.000825935
0.000869584
0.000908902
0.000945446
0.000980386
0.00101458
0.00104863
0.00108296
0.00111783
0.00115336
0.0011896
0.00122654
0.00126412
0.0013023
0.001341
0.00138017
0.00141974
0.00145965
0.00149981
0.00154017
0.00158065
0.0016212
0.00166176
0.00170228
0.00174273
0.00178309
0.00182333
0.00186346
0.00190347
0.00194336
0.00198316
0.00202288
0.00206252
0.00210212
0.00214169
0.00218126
0.00222084
0.00226046
0.00230013
0.00233989
0.00237974
0.00241972
0.00245982
0.00250007
0.00254049
0.00258107
0.00262183
0.00266277
0.0027039
0.00274522
0.00278673
0.00282843
0.0028703
0.00291235
0.00295457
0.00299694
0.00303945
0.00308208
0.00312482
0.00316765
0.00321055
0.00325349
0.00329645
0.00333941
0.00338234
0.00342521
0.00346799
0.00351066
0.00355318
0.00359552
0.00363766
0.00367955
0.00372118
0.0037625
0.00380349
0.00384413
0.00388438
0.00392421
0.00396361
0.00400255
0.00404101
0.00407898
0.00411644
0.00415339
0.00418983
0.00422574
0.00426114
0.00429603
0.00433043
0.00436436
0.00439784
0.0044309
0.00446357
0.00449587
0.00452786
0.00455955
0.004591
0.00462226
0.00465336
0.00468437
0.00471533
0.00474629
0.0047773
0.00480838
0.00483959
0.00487093
0.00490243
0.00493407
0.00496584
0.0049977
0.00502957
0.00506136
0.00509296
0.00512423
0.00515557
0.00518584
0.00521512
0.00524302
0.00526966
0.0052946
0.00531753
0.0053381
0.00535617
0.00537158
0.00538416
0.00539377
0.00540029
0.00540361
0.00540365
0.00540037
0.00539374
0.00538376
0.00537043
0.00535381
0.00533397
0.00531106
0.0052853
0.00525691
0.00522616
0.00519328
0.00515854
0.00512217
0.00508442
0.00504548
0.00500556
0.00496487
0.00492357
0.00488183
0.00483978
0.00479757
0.00475531
0.00471312
0.00467108
0.00462927
0.00458778
0.00454665
0.00450594
0.00446569
0.00442595
0.00438675
0.00434811
0.00431006
0.00427262
0.00423581
0.00419964
0.00416412
0.00412924
0.00409495
0.00406106
0.00402689
0.00398998
0.00394393
2.74576e-05
0.000170196
0.000333448
0.000474367
0.000590812
0.000686851
0.000765979
0.000832161
0.000888687
0.000938215
0.000982842
0.00102419
0.00106349
0.00110164
0.0011393
0.00117693
0.00121482
0.00125313
0.00129197
0.00133135
0.00137126
0.00141167
0.00145254
0.00149379
0.00153538
0.00157722
0.00161925
0.00166141
0.00170364
0.00174588
0.00178808
0.0018302
0.00187221
0.00191409
0.00195582
0.0019974
0.00203884
0.00208013
0.00212129
0.00216235
0.00220331
0.00224419
0.00228503
0.00232584
0.00236664
0.00240746
0.00244832
0.00248924
0.00253024
0.00257135
0.00261258
0.00265395
0.00269547
0.00273716
0.00277902
0.00282106
0.0028633
0.00290573
0.00294835
0.00299117
0.00303419
0.00307739
0.00312077
0.00316432
0.00320803
0.00325188
0.00329586
0.00333995
0.00338412
0.00342836
0.00347264
0.00351693
0.0035612
0.00360542
0.00364957
0.00369361
0.0037375
0.0037812
0.00382469
0.00386792
0.00391086
0.00395347
0.00399571
0.00403755
0.00407895
0.00411987
0.00416029
0.00420017
0.00423949
0.00427822
0.00431635
0.00435386
0.00439074
0.00442697
0.00446256
0.00449751
0.00453183
0.00456553
0.00459863
0.00463116
0.00466316
0.00469464
0.00472566
0.00475627
0.00478651
0.00481645
0.00484616
0.0048757
0.00490514
0.00493458
0.00496407
0.0049937
0.00502353
0.00505363
0.00508406
0.00511485
0.00514603
0.00517761
0.00520956
0.00524184
0.00527438
0.00530708
0.00534009
0.00537278
0.00540507
0.00543669
0.00546748
0.00549704
0.00552502
0.00555097
0.00557476
0.00559621
0.00561511
0.00563124
0.00564442
0.00565446
0.00566122
0.00566458
0.00566447
0.00566082
0.00565362
0.00564288
0.00562866
0.00561107
0.00559029
0.0055665
0.00553995
0.00551087
0.0054795
0.0054461
0.00541091
0.00537415
0.00533604
0.00529679
0.0052566
0.00521564
0.00517408
0.00513206
0.00508974
0.00504722
0.00500463
0.00496207
0.00491961
0.00487733
0.00483531
0.0047936
0.00475225
0.00471132
0.00467085
0.00463087
0.00459143
0.00455257
0.00451433
0.00447674
0.00443984
0.00440362
0.00436796
0.00433231
0.00429469
0.00425103
2.92548e-05
0.000175922
0.000345045
0.000493164
0.000616958
0.00072041
0.000806608
0.000879369
0.000941915
0.000996887
0.00104639
0.00109209
0.00113525
0.00117683
0.00121754
0.00125787
0.00129816
0.00133861
0.00137936
0.00142047
0.00146196
0.00150381
0.00154601
0.00158853
0.00163131
0.00167426
0.00171732
0.00176046
0.00180361
0.00184673
0.00188975
0.00193264
0.00197536
0.00201789
0.00206022
0.00210236
0.00214432
0.00218609
0.00222771
0.00226918
0.00231053
0.00235178
0.00239295
0.00243408
0.00247518
0.00251628
0.00255741
0.00259858
0.00263984
0.00268118
0.00272265
0.00276424
0.002806
0.00284792
0.00289002
0.00293232
0.00297483
0.00301754
0.00306048
0.00310363
0.003147
0.00319059
0.00323439
0.00327839
0.00332259
0.00336696
0.0034115
0.00345619
0.00350101
0.00354592
0.00359092
0.00363596
0.00368103
0.00372608
0.00377107
0.00381599
0.00386077
0.00390539
0.0039498
0.00399395
0.00403781
0.00408133
0.00412446
0.00416715
0.00420937
0.00425107
0.0042922
0.00433273
0.00437262
0.00441184
0.00445035
0.00448813
0.00452517
0.00456143
0.00459692
0.00463163
0.00466555
0.0046987
0.00473109
0.00476275
0.0047937
0.00482399
0.00485365
0.00488275
0.00491135
0.00493952
0.00496735
0.00499492
0.00502234
0.0050497
0.00507713
0.00510473
0.00513261
0.00516088
0.00518964
0.005219
0.00524903
0.0052798
0.00531133
0.00534365
0.00537671
0.00541049
0.00544496
0.00547989
0.00551512
0.0055504
0.00558537
0.00561985
0.00565329
0.00568515
0.0057152
0.00574336
0.00576935
0.00579289
0.00581368
0.00583148
0.00584604
0.00585718
0.00586475
0.00586862
0.00586872
0.00586502
0.00585754
0.00584636
0.00583159
0.00581343
0.00579206
0.00576772
0.00574065
0.0057111
0.00567932
0.00564556
0.00561004
0.005573
0.00553464
0.00549516
0.00545475
0.00541358
0.00537181
0.00532957
0.005287
0.00524421
0.0052013
0.00515838
0.00511552
0.00507279
0.00503028
0.00498803
0.00494611
0.00490457
0.00486348
0.0048229
0.00478288
0.0047435
0.00470482
0.00466688
0.00462962
0.00459261
0.00455426
0.00451205
3.05869e-05
0.000179688
0.000352946
0.000506712
0.000636636
0.000746438
0.000838844
0.000917461
0.000985399
0.00104524
0.00109909
0.0011486
0.00119506
0.00123945
0.00128261
0.00132507
0.00136716
0.00140912
0.00145112
0.00149326
0.00153559
0.00157812
0.00162087
0.00166382
0.00170692
0.00175011
0.00179333
0.00183656
0.0018798
0.00192306
0.00196613
0.00200894
0.0020515
0.0020938
0.00213584
0.00217762
0.00221916
0.00226048
0.0023016
0.00234254
0.00238334
0.00242401
0.00246459
0.0025051
0.00254558
0.00258605
0.00262654
0.00266709
0.00270771
0.00274843
0.00278928
0.00283028
0.00287146
0.00291282
0.0029544
0.0029962
0.00303824
0.00308053
0.00312308
0.00316589
0.00320897
0.00325233
0.00329595
0.00333983
0.00338397
0.00342835
0.00347296
0.00351778
0.00356279
0.00360797
0.00365329
0.00369872
0.00374423
0.00378979
0.00383534
0.00388086
0.0039263
0.0039716
0.00401673
0.00406163
0.00410624
0.00415052
0.00419441
0.00423786
0.0042808
0.0043232
0.00436498
0.0044061
0.00444652
0.00448618
0.00452504
0.00456307
0.00460024
0.00463651
0.00467186
0.00470628
0.00473976
0.00477231
0.00480392
0.00483462
0.00486444
0.00489341
0.00492158
0.00494901
0.00497578
0.00500197
0.00502767
0.00505301
0.00507809
0.00510305
0.00512805
0.00515322
0.00517872
0.00520471
0.00523136
0.0052588
0.00528719
0.00531666
0.0053473
0.00537918
0.00541234
0.00544678
0.00548249
0.00551942
0.00555747
0.00559617
0.00563526
0.0056747
0.00571376
0.00575203
0.00578877
0.00582415
0.00585784
0.0058895
0.00591871
0.00594514
0.00596846
0.00598837
0.00600465
0.00601709
0.00602556
0.00602994
0.00603022
0.00602642
0.00601863
0.00600699
0.00599169
0.00597295
0.00595099
0.00592608
0.00589847
0.00586842
0.00583619
0.005802
0.0057661
0.00572871
0.00569002
0.00565024
0.00560953
0.00556807
0.00552599
0.00548343
0.00544052
0.00539736
0.00535405
0.00531069
0.00526735
0.00522412
0.00518107
0.00513828
0.00509581
0.00505376
0.00501221
0.00497124
0.00493097
0.00489146
0.0048527
0.00481437
0.00477519
0.00473371
3.14738e-05
0.000181723
0.000357511
0.00051537
0.000650202
0.000765113
0.000862787
0.000946407
0.00101896
0.00108295
0.0011405
0.00119322
0.00124236
0.00128885
0.00133371
0.00137747
0.00142053
0.00146319
0.00150565
0.00154803
0.00159042
0.00163287
0.00167539
0.00171797
0.00176058
0.00180318
0.00184576
0.00188829
0.00193073
0.00197327
0.00201548
0.00205735
0.00209884
0.00213997
0.00218075
0.00222119
0.00226132
0.00230118
0.0023408
0.00238022
0.00241947
0.00245859
0.0024976
0.00253655
0.00257548
0.00261441
0.00265338
0.00269242
0.00273157
0.00277086
0.00281031
0.00284995
0.00288981
0.00292992
0.00297029
0.00301096
0.00305192
0.00309321
0.00313483
0.00317679
0.00321911
0.00326178
0.0033048
0.00334818
0.0033919
0.00343596
0.00348034
0.00352503
0.00357
0.00361523
0.00366069
0.00370636
0.00375219
0.00379814
0.00384417