/*--------------------------------*- C++ -*----------------------------------*\
  =========                 |
  \\      /  F ield         | OpenFOAM: The Open Source CFD Toolbox
   \\    /   O peration     | Website:  https://openfoam.org
    \\  /    A nd           | Version:  8
     \\/     M anipulation  |
\*---------------------------------------------------------------------------*/
FoamFile
{
    version     2.0;
    format      ascii;
    class       volScalarField;
    location    "155";
    object      p;
}
// * * * * * * * * * * * * * * * * * * * * * * * * * * * * * * * * * * * * * //

dimensions      [0 2 -2 0 0 0 0];

internalField   nonuniform List<scalar> 
12225
(
-0.512549
-2.70053
-3.80021
-4.12055
-4.30135
-4.46983
-4.60077
-4.69508
-4.77068
-4.83679
-4.89519
-4.94798
-4.99502
-5.03754
-5.07534
-5.10186
-5.13387
-5.07397
-3.675
-4.44361
-4.60398
-4.51136
-4.4984
-4.56572
-4.64263
-4.70754
-4.76616
-4.82234
-4.87539
-4.92426
-4.96949
-5.0109
-5.04918
-5.07915
-5.11421
-5.12414
-4.07565
-4.06127
-4.18849
-4.26653
-4.36099
-4.48065
-4.5872
-4.67126
-4.74209
-4.80623
-4.86482
-4.91779
-4.96645
-5.0108
-5.05224
-5.0876
-5.12908
-5.16271
-3.95425
-3.8975
-4.1389
-4.2969
-4.39821
-4.50389
-4.60092
-4.6802
-4.74798
-4.8099
-4.86701
-4.91923
-4.96758
-5.01224
-5.05463
-5.09374
-5.13775
-5.18366
-3.94434
-3.96862
-4.19643
-4.33765
-4.42084
-4.51237
-4.60295
-4.6799
-4.74653
-4.80764
-4.8644
-4.91673
-4.96553
-5.0112
-5.05515
-5.09759
-5.14391
-5.1952
-4.00248
-4.05118
-4.22518
-4.34874
-4.42983
-4.51714
-4.60456
-4.68033
-4.74642
-4.80708
-4.86362
-4.91609
-4.96529
-5.01182
-5.057
-5.10164
-5.14934
-5.20198
-4.06284
-4.10687
-4.24179
-4.35777
-4.4411
-4.52474
-4.60806
-4.68199
-4.74725
-4.8073
-4.86346
-4.91593
-4.9654
-5.01259
-5.05867
-5.10464
-5.15289
-5.20492
-4.11636
-4.15385
-4.26357
-4.37153
-4.45412
-4.53324
-4.61209
-4.68391
-4.7482
-4.80756
-4.86327
-4.91567
-4.96532
-5.01298
-5.05963
-5.10625
-5.15436
-5.20486
-4.1661
-4.19912
-4.28981
-4.38745
-4.46715
-4.54207
-4.6167
-4.68622
-4.74935
-4.80789
-4.86306
-4.91524
-4.96493
-5.0128
-5.05968
-5.10637
-5.15381
-5.20239
-4.21318
-4.24234
-4.31765
-4.40457
-4.48041
-4.55154
-4.62217
-4.68913
-4.75085
-4.80843
-4.8629
-4.9147
-4.96421
-5.01202
-5.05878
-5.10507
-5.15148
-5.19804
-4.25754
-4.28295
-4.34596
-4.42286
-4.49421
-4.56166
-4.62846
-4.69268
-4.75276
-4.80921
-4.86285
-4.91406
-4.96318
-5.01066
-5.05699
-5.10256
-5.14771
-5.19226
-4.29562
-4.3179
-4.37192
-4.4405
-4.50732
-4.57137
-4.63482
-4.69647
-4.75488
-4.81016
-4.86289
-4.91341
-4.96198
-5.00893
-5.05463
-5.09932
-5.1432
-5.18602
-4.33081
-4.35046
-4.39713
-4.45829
-4.52052
-4.58123
-4.64152
-4.70061
-4.75726
-4.81127
-4.86299
-4.91269
-4.96057
-5.00684
-5.05175
-5.09546
-5.13805
-5.17924
-4.3677
-4.38484
-4.42472
-4.47855
-4.53565
-4.59258
-4.64945
-4.70569
-4.76025
-4.8127
-4.86315
-4.91178
-4.95869
-5.00401
-5.04788
-5.09035
-5.13145
-5.17096
-4.40505
-4.41979
-4.45369
-4.50063
-4.55235
-4.60517
-4.65845
-4.71163
-4.76378
-4.81436
-4.86326
-4.91052
-4.95618
-5.00027
-5.04282
-5.08384
-5.12333
-5.16108
-4.44092
-4.45351
-4.48238
-4.52324
-4.56971
-4.61832
-4.66798
-4.718
-4.76755
-4.81599
-4.86309
-4.90872
-4.95286
-4.99544
-5.03646
-5.07587
-5.11366
-5.14967
-4.47239
-4.48325
-4.50818
-4.54409
-4.58594
-4.63065
-4.67691
-4.72391
-4.77083
-4.81705
-4.86218
-4.90601
-4.94843
-4.98935
-5.02869
-5.06642
-5.10249
-5.13683
-4.49513
-4.50479
-4.52706
-4.55954
-4.59802
-4.63972
-4.68327
-4.72777
-4.77243
-4.81661
-4.85986
-4.90192
-4.94263
-4.98187
-5.01955
-5.05563
-5.09006
-5.12284
-4.50223
-4.51141
-4.53267
-4.56388
-4.60106
-4.64146
-4.68367
-4.72682
-4.77013
-4.81295
-4.85484
-4.89552
-4.93482
-4.97265
-5.00891
-5.04358
-5.07663
-5.1081
-4.48638
-4.49618
-4.51883
-4.552
-4.59112
-4.63297
-4.67611
-4.71985
-4.76347
-4.80634
-4.84801
-4.88831
-4.92706
-4.96424
-4.99974
-5.03363
-5.06584
-5.0965
-4.45972
-4.47054
-4.49588
-4.533
-4.57591
-4.62058
-4.66586
-4.71131
-4.75621
-4.79984
-4.84194
-4.88237
-4.92112
-4.9581
-4.99335
-5.02686
-5.05871
-5.08892
-4.42465
-4.43649
-4.46592
-4.50961
-4.55803
-4.60618
-4.65419
-4.70214
-4.74894
-4.79381
-4.83664
-4.87751
-4.91646
-4.95348
-4.98863
-5.02196
-5.05356
-5.08351
-4.38421
-4.39614
-4.43066
-4.48405
-4.53974
-4.59186
-4.64295
-4.69362
-4.74238
-4.78853
-4.83224
-4.87373
-4.91303
-4.95022
-4.98536
-5.01865
-5.05011
-5.07994
-4.3406
-4.35159
-4.39344
-4.45797
-4.5203
-4.57715
-4.63297
-4.68705
-4.73756
-4.78465
-4.82905
-4.87102
-4.91057
-4.94783
-4.98297
-5.01616
-5.04752
-5.07719
-4.29376
-4.29925
-4.36198
-4.4403
-4.50238
-4.56081
-4.62215
-4.68073
-4.7335
-4.78181
-4.8271
-4.86965
-4.90947
-4.94679
-4.98189
-5.01499
-5.04625
-5.07583
-4.25054
-4.21413
-4.32374
-4.43483
-4.49722
-4.55268
-4.61509
-4.67506
-4.72852
-4.7775
-4.82348
-4.86656
-4.9067
-4.94421
-4.9794
-5.01254
-5.04382
-5.07339
-4.26466
-4.1057
-4.23472
-4.38892
-4.47918
-4.55073
-4.61986
-4.68099
-4.73403
-4.78257
-4.82812
-4.87064
-4.91021
-4.94715
-4.98178
-5.01441
-5.04526
-5.07455
-4.3874
-4.20744
-4.22173
-4.294
-4.38252
-4.48192
-4.57282
-4.64682
-4.70876
-4.76415
-4.81472
-4.86076
-4.90284
-4.9416
-4.97755
-5.01113
-5.0428
-5.07315
-4.09472
-4.68633
-4.77527
-4.65115
-4.59696
-4.6243
-4.67148
-4.71494
-4.75674
-4.79918
-4.84093
-4.88052
-4.91775
-4.95275
-4.98557
-5.01637
-5.04534
-5.07427
-1.10647
-2.86928
-3.87405
-4.17332
-4.32264
-4.46644
-4.58067
-4.66185
-4.72631
-4.78343
-4.83494
-4.88124
-4.92319
-4.96168
-4.99723
-5.02961
-5.05869
-5.08268
-6.05555
-6.05534
-6.05591
-6.05777
-6.06055
-6.06405
-6.06816
-6.07281
-6.07797
-6.08372
-6.09018
-6.09744
-6.10538
-6.11389
-6.12238
-6.13009
-6.13753
-6.14674
-6.15888
-6.17379
-6.19048
-6.20763
-6.22573
-6.2458
-6.26577
-6.28382
-6.30117
-6.31882
-6.33705
-6.3573
-6.37978
-6.40332
-6.42771
-6.45283
-6.47853
-6.50474
-6.5313
-6.5582
-6.58529
-6.61257
-6.63989
-6.66727
-6.69456
-6.72178
-6.74879
-6.77559
-6.80206
-6.8282
-6.85385
-6.87904
-6.90361
-6.92756
-6.95071
-6.97307
-6.99444
-7.01482
-7.03401
-7.05199
-7.06854
-7.08366
-7.09711
-7.10886
-7.11866
-7.12649
-7.13211
-7.13548
-7.13634
-7.13463
-7.13008
-7.12264
-7.11201
-7.09817
-7.08083
-7.05996
-7.03526
-7.00669
-6.97392
-6.9369
-6.89529
-6.84902
-6.79771
-6.74125
-6.67926
-6.61161
-6.53791
-6.458
-6.37144
-6.27804
-6.17748
-6.0696
-5.95428
-5.83121
-5.70002
-5.56024
-5.41135
-5.25277
-5.08388
-4.90411
-4.713
-4.51019
-4.29528
-4.06782
-3.82729
-3.57319
-3.30499
-3.02222
-2.72445
-2.41134
-2.08258
-1.73799
-1.37746
-1.00101
-0.608785
-0.201102
0.221577
0.658588
1.10903
1.57175
2.0454
2.52849
3.0193
3.51588
4.01602
4.51746
5.01783
5.51478
6.0059
6.48889
6.96145
7.42153
7.86717
8.29673
8.70871
9.10195
9.47549
9.82867
10.1609
10.4721
10.7625
11.0325
11.283
11.515
11.7289
11.925
12.1037
12.266
12.4127
12.5449
12.6634
12.7694
12.8639
12.9477
13.0219
13.0873
13.1447
13.1949
13.2386
13.2766
13.3094
13.3376
13.3619
13.3825
13.4001
13.415
13.4275
13.4381
13.4469
13.4544
13.4607
13.4662
13.471
13.4754
13.4797
13.4844
13.4902
13.4982
13.5112
13.5328
13.5791
13.6463
-6.05219
-6.05282
-6.05382
-6.05524
-6.05676
-6.05846
-6.06059
-6.06333
-6.06671
-6.07079
-6.07552
-6.08079
-6.08645
-6.09241
-6.09839
-6.1049
-6.11343
-6.12441
-6.13664
-6.14877
-6.16035
-6.17222
-6.18555
-6.19903
-6.214
-6.23191
-6.25263
-6.27588
-6.30112
-6.32672
-6.35129
-6.37586
-6.40078
-6.42614
-6.45191
-6.47806
-6.50451
-6.53122
-6.5581
-6.58512
-6.61218
-6.63927
-6.66628
-6.6932
-6.71993
-6.74645
-6.77267
-6.79854
-6.82398
-6.84895
-6.87334
-6.89711
-6.92014
-6.94236
-6.96366
-6.98397
-7.00314
-7.02111
-7.03771
-7.05287
-7.06643
-7.07829
-7.08826
-7.09628
-7.10214
-7.10575
-7.10691
-7.10552
-7.10136
-7.09431
-7.08415
-7.07078
-7.05397
-7.03362
-7.00952
-6.98155
-6.94946
-6.91313
-6.87232
-6.82688
-6.77655
-6.72115
-6.66038
-6.59407
-6.5219
-6.44362
-6.35889
-6.26742
-6.16888
-6.06308
-5.94977
-5.82866
-5.69932
-5.56132
-5.41418
-5.25744
-5.09068
-4.91349
-4.72545
-4.52607
-4.31488
-4.09138
-3.85508
-3.60545
-3.34199
-3.06421
-2.77171
-2.46411
-2.14111
-1.8025
-1.44813
-1.078
-0.692198
-0.291
0.125209
0.555808
0.999998
1.45668
1.92465
2.40244
2.88847
3.38082
3.87739
4.37592
4.87416
5.36974
5.86031
6.34353
6.81713
7.27899
7.72715
8.15986
8.57562
8.97315
9.35144
9.7098
10.0477
10.3647
10.6606
10.9359
11.191
11.4267
11.6441
11.8438
12.0263
12.1925
12.3433
12.4794
12.602
12.7119
12.8102
12.8978
12.9755
13.0443
13.1049
13.1582
13.2048
13.2454
13.2807
13.3113
13.3376
13.3602
13.3795
13.396
13.41
13.4218
13.4317
13.4402
13.4473
13.4534
13.4588
13.4637
13.4685
13.4737
13.4799
13.4884
13.502
13.523
13.5671
13.6232
-6.04357
-6.04604
-6.04943
-6.05221
-6.05415
-6.05576
-6.05749
-6.05962
-6.06226
-6.06552
-6.0694
-6.07381
-6.07862
-6.08377
-6.08932
-6.09576
-6.10395
-6.11426
-6.12615
-6.13879
-6.15159
-6.16461
-6.17807
-6.19174
-6.20609
-6.2222
-6.24041
-6.26083
-6.28311
-6.3065
-6.33022
-6.35429
-6.37875
-6.40362
-6.42885
-6.45443
-6.48026
-6.50634
-6.53258
-6.55895
-6.58538
-6.61183
-6.63824
-6.66456
-6.69073
-6.71671
-6.74241
-6.7678
-6.79279
-6.81733
-6.84133
-6.86473
-6.88743
-6.90935
-6.93039
-6.95047
-6.96945
-6.98725
-7.00374
-7.01882
-7.03234
-7.04419
-7.05422
-7.06231
-7.0683
-7.07207
-7.07345
-7.0723
-7.06846
-7.06177
-7.05206
-7.03917
-7.02291
-7.00315
-6.97969
-6.95238
-6.92103
-6.88548
-6.84551
-6.80097
-6.75163
-6.6973
-6.63776
-6.57278
-6.50211
-6.4255
-6.34266
-6.25327
-6.15704
-6.05369
-5.943
-5.8246
-5.69807
-5.56298
-5.41889
-5.26538
-5.10206
-4.92857
-4.74448
-4.54935
-4.34269
-4.12401
-3.89281
-3.64857
-3.3908
-3.11902
-2.83282
-2.53183
-2.21574
-1.88431
-1.53738
-1.17491
-0.796943
-0.40371
0.0044584
0.427007
0.863201
1.31206
1.77244
2.243
2.72222
3.20828
3.69921
4.19281
4.68693
5.17919
5.66734
6.14898
6.62193
7.08398
7.53321
7.96777
8.38615
8.78698
9.16921
9.53197
9.87477
10.1973
10.4996
10.7818
11.0445
11.2881
11.5134
11.7208
11.911
12.0847
12.2426
12.3858
12.515
12.6313
12.7356
12.8288
12.9119
12.9857
13.051
13.1085
13.1592
13.2035
13.2422
13.2758
13.3049
13.33
13.3516
13.3701
13.3858
13.3991
13.4105
13.42
13.4281
13.435
13.441
13.4465
13.4517
13.4572
13.4639
13.4727
13.4864
13.5059
13.5462
13.5828
-6.03004
-6.03461
-6.04128
-6.0464
-6.04974
-6.05218
-6.0543
-6.05643
-6.0588
-6.06158
-6.06487
-6.06869
-6.07301
-6.07786
-6.0833
-6.08964
-6.09728
-6.10652
-6.11723
-6.1291
-6.14179
-6.1552
-6.16936
-6.18429
-6.20008
-6.21705
-6.23534
-6.25503
-6.27598
-6.29794
-6.3206
-6.34384
-6.36757
-6.39175
-6.41632
-6.44124
-6.46643
-6.49187
-6.51748
-6.54324
-6.56907
-6.59495
-6.6208
-6.6466
-6.67227
-6.69778
-6.72304
-6.74802
-6.77264
-6.79683
-6.82052
-6.84364
-6.86609
-6.88779
-6.90865
-6.92857
-6.94744
-6.96516
-6.98161
-6.99667
-7.01021
-7.02212
-7.03224
-7.04046
-7.04662
-7.05059
-7.05221
-7.05134
-7.04782
-7.04149
-7.0322
-7.01978
-7.00406
-6.98488
-6.96206
-6.93544
-6.90483
-6.87005
-6.83093
-6.78726
-6.73886
-6.68553
-6.62706
-6.56322
-6.4938
-6.41854
-6.33719
-6.24943
-6.15496
-6.05356
-5.94492
-5.8287
-5.70449
-5.57187
-5.43042
-5.27974
-5.11945
-4.94916
-4.76846
-4.57691
-4.37403
-4.15932
-3.93229
-3.69243
-3.43924
-3.17227
-2.8911
-2.59535
-2.2847
-1.9589
-1.61778
-1.26126
-0.889376
-0.502295
-0.100331
0.316019
0.746059
1.1889
1.64346
2.10846
2.58244
3.06365
3.55019
4.03997
4.53085
5.02052
5.50671
5.98706
6.45937
6.92143
7.37128
7.80709
8.22731
8.63057
9.01584
9.3823
9.72942
10.0569
10.3647
10.6529
10.9219
11.1719
11.4036
11.6174
11.8138
11.9935
12.1574
12.3063
12.4411
12.5627
12.6721
12.7702
12.8578
12.9358
13.0051
13.0664
13.1205
13.168
13.2096
13.2459
13.2774
13.3047
13.3282
13.3484
13.3657
13.3803
13.3927
13.4032
13.4121
13.4196
13.4261
13.4319
13.4373
13.443
13.4496
13.458
13.4706
13.4868
13.52
13.5365
-6.01507
-6.02181
-6.03204
-6.03986
-6.04503
-6.04878
-6.05183
-6.05457
-6.05729
-6.06026
-6.06361
-6.06747
-6.07192
-6.07702
-6.08288
-6.08968
-6.09759
-6.10676
-6.11717
-6.12869
-6.14118
-6.1546
-6.16896
-6.18428
-6.20062
-6.21803
-6.23652
-6.25606
-6.27654
-6.29785
-6.31984
-6.34241
-6.3655
-6.38904
-6.41298
-6.43728
-6.46186
-6.48671
-6.51175
-6.53695
-6.56225
-6.58762
-6.61299
-6.63834
-6.66358
-6.68868
-6.71358
-6.73822
-6.76252
-6.78643
-6.80986
-6.83275
-6.85501
-6.87654
-6.89726
-6.91707
-6.93585
-6.95351
-6.96992
-6.98498
-6.99854
-7.01049
-7.02069
-7.02901
-7.0353
-7.03943
-7.04123
-7.04058
-7.0373
-7.03125
-7.02227
-7.01021
-6.9949
-6.97617
-6.95386
-6.9278
-6.89781
-6.86371
-6.82532
-6.78246
-6.73493
-6.68253
-6.62505
-6.56229
-6.49403
-6.42001
-6.34
-6.25369
-6.16083
-6.06111
-5.95432
-5.84005
-5.71794
-5.58757
-5.44855
-5.30047
-5.14294
-4.97555
-4.79787
-4.60948
-4.40988
-4.19859
-3.97508
-3.73888
-3.48946
-3.22638
-2.94921
-2.65757
-2.3511
-2.02955
-1.69271
-1.34047
-0.972858
-0.589987
-0.192159
0.220182
0.646366
1.08558
1.53676
1.99871
2.46992
2.94876
3.43328
3.92155
4.4113
4.90037
5.38632
5.86693
6.33982
6.80296
7.25422
7.6919
8.11434
8.52032
8.90867
9.2786
9.62945
9.96091
10.2728
10.5653
10.8385
11.0928
11.3286
11.5465
11.7469
11.9307
12.0984
12.2511
12.3896
12.5147
12.6275
12.7288
12.8194
12.9004
12.9723
13.0362
13.0925
13.1422
13.1858
13.2239
13.257
13.2857
13.3105
13.3318
13.35
13.3655
13.3786
13.3896
13.3989
13.4067
13.4134
13.4193
13.4246
13.43
13.4361
13.4436
13.4542
13.4663
13.4919
13.4908
-6.00173
-6.01048
-6.02378
-6.0341
-6.04115
-6.04641
-6.05066
-6.05436
-6.05785
-6.06144
-6.06534
-6.06971
-6.07467
-6.08035
-6.08684
-6.09425
-6.10269
-6.11222
-6.12285
-6.13453
-6.14718
-6.16078
-6.1753
-6.19077
-6.20718
-6.22457
-6.2429
-6.26214
-6.2822
-6.30301
-6.32445
-6.34649
-6.36902
-6.39201
-6.41541
-6.43917
-6.46323
-6.48756
-6.51211
-6.53683
-6.56168
-6.58662
-6.61159
-6.63655
-6.66144
-6.68622
-6.71082
-6.73519
-6.75925
-6.78295
-6.80619
-6.82892
-6.85103
-6.87246
-6.89308
-6.91282
-6.93155
-6.94918
-6.96559
-6.98066
-6.99425
-7.00626
-7.01653
-7.02495
-7.03135
-7.03561
-7.03758
-7.0371
-7.03402
-7.02821
-7.01948
-7.00771
-6.99271
-6.97434
-6.95243
-6.92682
-6.89734
-6.8638
-6.82604
-6.78387
-6.7371
-6.68554
-6.62899
-6.56723
-6.50006
-6.42723
-6.3485
-6.26359
-6.17221
-6.07414
-5.96907
-5.85668
-5.73656
-5.60834
-5.47162
-5.326
-5.17107
-5.00642
-4.8316
-4.64617
-4.44964
-4.24151
-4.02126
-3.78837
-3.54236
-3.28276
-3.00911
-2.72101
-2.4181
-2.10008
-1.7667
-1.41785
-1.05348
-0.67371
-0.278772
0.130897
0.554703
0.991843
1.44132
1.90191
2.37216
2.8504
3.33474
3.82322
4.3136
4.80362
5.29089
5.7731
6.24793
6.71323
7.16695
7.60734
8.03276
8.44188
8.83353
9.20683
9.56111
9.89598
10.2113
10.507
10.7834
11.0407
11.2794
11.5
11.7032
11.8895
12.0598
12.2149
12.3557
12.4831
12.598
12.7013
12.7939
12.8766
12.9503
13.0156
13.0734
13.1244
13.1691
13.2082
13.2423
13.2718
13.2973
13.3192
13.3379
13.3537
13.3671
13.3783
13.3877
13.3955
13.4021
13.4077
13.4127
13.4176
13.4228
13.4289
13.4371
13.4448
13.4638
13.4476
-5.99232
-6.00268
-6.01823
-6.03054
-6.03926
-6.04597
-6.05147
-6.05625
-6.06067
-6.06509
-6.06974
-6.07481
-6.08046
-6.0868
-6.09393
-6.10194
-6.1109
-6.12086
-6.1318
-6.14373
-6.1566
-6.1704
-6.18509
-6.20068
-6.21713
-6.23446
-6.25263
-6.27161
-6.29133
-6.31174
-6.33277
-6.35436
-6.37644
-6.39899
-6.42194
-6.44525
-6.46888
-6.4928
-6.51694
-6.54128
-6.56576
-6.59036
-6.61502
-6.63969
-6.66432
-6.68886
-6.71325
-6.73743
-6.76132
-6.78488
-6.80801
-6.83064
-6.85268
-6.87404
-6.89462
-6.91434
-6.93306
-6.9507
-6.96713
-6.98223
-6.99587
-7.00794
-7.01828
-7.02678
-7.03328
-7.03765
-7.03974
-7.0394
-7.03649
-7.03085
-7.02233
-7.01078
-6.99603
-6.97795
-6.95636
-6.93111
-6.90203
-6.86895
-6.83171
-6.79012
-6.744
-6.69318
-6.63744
-6.57659
-6.51042
-6.43869
-6.36116
-6.27755
-6.18761
-6.09106
-5.98766
-5.87704
-5.75882
-5.63263
-5.49809
-5.35479
-5.20231
-5.04022
-4.8681
-4.68544
-4.49179
-4.28659
-4.06936
-3.83954
-3.59666
-3.34021
-3.06975
-2.78481
-2.48502
-2.17003
-1.83959
-1.49352
-1.13174
-0.754329
-0.361484
0.0463975
0.468777
0.904862
1.35372
1.81407
2.28455
2.76335
3.24874
3.73857
4.23076
4.72284
5.21255
5.69736
6.17508
6.6434
7.10039
7.54408
7.97292
8.38541
8.78043
9.157
9.51449
9.85243
10.1707
10.4691
10.7481
11.0077
11.2486
11.4712
11.6762
11.8643
12.0362
12.1929
12.3352
12.4639
12.5801
12.6846
12.7783
12.862
12.9366
13.0028
13.0614
13.113
13.1583
13.1979
13.2324
13.2622
13.288
13.31
13.3287
13.3446
13.3579
13.369
13.3782
13.3858
13.392
13.3972
13.4017
13.4057
13.4098
13.4141
13.4198
13.4232
13.4364
13.4073
-5.98814
-5.99953
-6.01641
-6.03008
-6.04009
-6.04801
-6.05463
-6.06043
-6.06578
-6.07105
-6.07648
-6.0823
-6.08863
-6.09562
-6.10335
-6.11191
-6.12134
-6.13168
-6.14293
-6.1551
-6.16816
-6.18211
-6.19692
-6.21257
-6.22903
-6.24631
-6.26434
-6.28312
-6.30258
-6.32269
-6.34339
-6.36463
-6.38637
-6.40857
-6.43117
-6.45414
-6.47744
-6.50104
-6.52489
-6.54895
-6.57318
-6.59754
-6.62198
-6.64647
-6.67093
-6.69533
-6.71959
-6.74368
-6.76749
-6.79099
-6.81407
-6.83667
-6.8587
-6.88006
-6.90065
-6.92038
-6.93914
-6.95681
-6.97328
-6.98843
-7.00212
-7.01424
-7.02465
-7.03321
-7.03979
-7.04424
-7.04641
-7.04617
-7.04336
-7.03785
-7.02946
-7.01807
-7.00351
-6.98564
-6.96429
-6.93932
-6.91057
-6.87786
-6.84104
-6.79995
-6.7544
-6.70421
-6.64919
-6.58916
-6.52389
-6.45317
-6.37676
-6.29439
-6.20578
-6.11072
-6.0089
-5.89997
-5.78357
-5.65932
-5.52684
-5.38574
-5.23557
-5.07592
-4.90631
-4.72627
-4.53529
-4.33284
-4.11839
-3.89141
-3.65139
-3.39782
-3.1302
-2.84807
-2.55101
-2.23863
-1.91065
-1.56684
-1.20709
-0.831427
-0.440027
-0.0332185
0.388475
0.824315
1.27334
1.73435
2.20587
2.68621
3.17352
3.66569
4.16053
4.65559
5.14849
5.63676
6.11807
6.59009
7.05078
7.49816
7.93059
8.34656
8.74488
9.12459
9.48503
9.82572
10.1465
10.4472
10.7282
10.9896
11.232
11.456
11.6622
11.8514
12.0243
12.1818
12.3249
12.4544
12.5712
12.6763
12.7705
12.8546
12.9296
12.9961
13.0549
13.1067
13.1522
13.1918
13.2263
13.2561
13.2818
13.3036
13.3222
13.3378
13.3509
13.3616
13.3704
13.3775
13.3833
13.3878
13.3915
13.3946
13.3974
13.3998
13.4027
13.402
13.4101
13.37
-5.98952
-6.00133
-6.01868
-6.03303
-6.04388
-6.05266
-6.06015
-6.06678
-6.07293
-6.07895
-6.08509
-6.09155
-6.09849
-6.10604
-6.11428
-6.12328
-6.13309
-6.14375
-6.15525
-6.16762
-6.18083
-6.19488
-6.20975
-6.22543
-6.24187
-6.25908
-6.277
-6.29562
-6.31489
-6.33478
-6.35523
-6.37623
-6.39772
-6.41966
-6.44202
-6.46476
-6.48784
-6.51123
-6.53488
-6.55878
-6.58286
-6.60709
-6.63143
-6.65582
-6.68021
-6.70457
-6.7288
-6.75286
-6.77668
-6.80019
-6.8233
-6.84593
-6.86799
-6.8894
-6.91005
-6.92983
-6.94864
-6.96637
-6.98288
-6.99808
-7.01182
-7.02399
-7.03443
-7.04303
-7.04964
-7.05412
-7.05633
-7.05613
-7.05337
-7.04791
-7.03959
-7.02828
-7.01383
-6.99608
-6.9749
-6.95012
-6.9216
-6.88919
-6.85271
-6.81202
-6.76695
-6.71732
-6.66294
-6.60364
-6.53921
-6.46942
-6.39406
-6.31285
-6.22555
-6.13188
-6.03158
-5.92429
-5.80965
-5.68728
-5.55679
-5.41779
-5.26984
-5.11251
-4.9453
-4.76774
-4.57927
-4.3794
-4.16755
-3.94322
-3.70583
-3.45489
-3.18984
-2.91022
-2.61553
-2.30538
-1.97943
-1.63742
-1.27921
-0.904763
-0.514231
-0.107886
0.313761
0.750042
1.19994
1.66233
2.13564
2.61831
3.10828
3.60359
4.1018
4.60063
5.09741
5.58979
6.07519
6.55139
7.01608
7.4674
7.90349
8.32295
8.72446
9.10714
9.47022
9.81331
10.1361
10.4387
10.7212
10.9839
11.2273
11.4521
11.6589
11.8485
12.0218
12.1797
12.3229
12.4525
12.5694
12.6745
12.7687
12.8528
12.9277
12.9941
13.0527
13.1043
13.1495
13.1889
13.2231
13.2526
13.2778
13.2993
13.3175
13.3326
13.3452
13.3555
13.3637
13.3702
13.3753
13.3791
13.3819
13.3839
13.3852
13.3857
13.3858
13.3812
13.3848
13.3353
-5.9961
-6.00781
-6.02485
-6.03925
-6.05044
-6.05971
-6.06775
-6.07496
-6.0817
-6.08829
-6.09496
-6.10194
-6.10934
-6.11732
-6.12593
-6.13526
-6.14535
-6.15623
-6.16791
-6.18041
-6.19372
-6.20783
-6.22272
-6.23839
-6.2548
-6.27194
-6.28977
-6.30828
-6.32742
-6.34716
-6.36746
-6.3883
-6.40962
-6.43141
-6.45362
-6.47623
-6.49919
-6.52249
-6.54606
-6.56989
-6.59392
-6.61813
-6.64246
-6.66686
-6.69128
-6.71567
-6.73995
-6.76408
-6.78797
-6.81155
-6.83474
-6.85746
-6.8796
-6.90109
-6.92181
-6.94166
-6.96053
-6.97831
-6.99487
-7.0101
-7.02386
-7.03604
-7.04648
-7.05507
-7.06166
-7.06611
-7.06829
-7.06805
-7.06526
-7.05976
-7.05142
-7.04011
-7.02566
-7.00795
-6.98683
-6.96216
-6.93378
-6.90156
-6.86534
-6.82497
-6.78028
-6.73112
-6.67731
-6.61867
-6.555
-6.48609
-6.41171
-6.33161
-6.24553
-6.15323
-6.0544
-5.9487
-5.83577
-5.71522
-5.58667
-5.44972
-5.30392
-5.14881
-4.98391
-4.80871
-4.62266
-4.42522
-4.21584
-3.99397
-3.75905
-3.51051
-3.2478
-2.9704
-2.67779
-2.36954
-2.04526
-1.70466
-1.34754
-0.973862
-0.583699
-0.177312
0.244845
0.682086
1.13345
1.59774
2.07349
2.55904
3.05241
3.55147
4.05381
4.55696
5.05828
5.55522
6.0452
6.52584
6.99483
7.45016
7.89
8.31285
8.71744
9.10283
9.46829
9.81339
10.1379
10.4418
10.7253
10.9887
11.2327
11.4577
11.6646
11.8542
12.0273
12.1849
12.3278
12.4571
12.5736
12.6782
12.7719
12.8556
12.9299
12.9958
13.0539
13.105
13.1497
13.1885
13.2221
13.251
13.2757
13.2966
13.3142
13.3287
13.3407
13.3503
13.3579
13.3637
13.368
13.371
13.3728
13.3736
13.3734
13.3718
13.3693
13.361
13.3606
13.3031
-6.00708
-6.01824
-6.03435
-6.04824
-6.05932
-6.0687
-6.07696
-6.08447
-6.09154
-6.09848
-6.10551
-6.11281
-6.12052
-6.12876
-6.13762
-6.14715
-6.15741
-6.16842
-6.1802
-6.19277
-6.20611
-6.22023
-6.23512
-6.25076
-6.26713
-6.28421
-6.30198
-6.32041
-6.33947
-6.35914
-6.37936
-6.40012
-6.42137
-6.4431
-6.46526
-6.48784
-6.51078
-6.53408
-6.55767
-6.58154
-6.60562
-6.6299
-6.65431
-6.67881
-6.70333
-6.72783
-6.75223
-6.77649
-6.8005
-6.8242
-6.84751
-6.87033
-6.89258
-6.91416
-6.93495
-6.95486
-6.97378
-6.99158
-7.00815
-7.02337
-7.0371
-7.04922
-7.0596
-7.0681
-7.07459
-7.07893
-7.08098
-7.08062
-7.07769
-7.07206
-7.06359
-7.05216
-7.03762
-7.01983
-6.99867
-6.97399
-6.94565
-6.91352
-6.87746
-6.83731
-6.79293
-6.74416
-6.69083
-6.63277
-6.5698
-6.5017
-6.42825
-6.34921
-6.26432
-6.17332
-6.07593
-5.97178
-5.86051
-5.74173
-5.61508
-5.4801
-5.33638
-5.18341
-5.02074
-4.84779
-4.66405
-4.46892
-4.26188
-4.04232
-3.80969
-3.56335
-3.30277
-3.02734
-2.73656
-2.42992
-2.10702
-1.76751
-1.41117
-1.03791
-0.647781
-0.241013
0.18201
0.620573
1.07382
1.54047
2.01918
2.50815
3.00552
3.50892
4.016
4.52399
5.03034
5.5322
6.02709
6.51236
6.9858
7.44517
7.88873
8.31485
8.72235
9.11019
9.47771
9.82444
10.1502
10.455
10.739
11.0027
11.2466
11.4715
11.678
11.867
12.0395
12.1963
12.3385
12.4669
12.5825
12.6863
12.7792
12.862
12.9355
13.0006
13.0579
13.1081
13.152
13.19
13.2229
13.251
13.2749
13.2951
13.3119
13.3257
13.3369
13.3457
13.3526
13.3577
13.3611
13.3632
13.364
13.3635
13.3617
13.3581
13.353
13.3413
13.3373
13.273
-6.02144
-6.03169
-6.0464
-6.05933
-6.0699
-6.07902
-6.08719
-6.09471
-6.10187
-6.10893
-6.1161
-6.12355
-6.1314
-6.13976
-6.14871
-6.15833
-6.16864
-6.17968
-6.19148
-6.20405
-6.21737
-6.23148
-6.24633
-6.26193
-6.27826
-6.29531
-6.31304
-6.33144
-6.35047
-6.37012
-6.39033
-6.41109
-6.43236
-6.45412
-6.47632
-6.49896
-6.52198
-6.54536
-6.56906
-6.59305
-6.61727
-6.64169
-6.66625
-6.69091
-6.71559
-6.74026
-6.76483
-6.78923
-6.81339
-6.83723
-6.86066
-6.88359
-6.90592
-6.92756
-6.9484
-6.96833
-6.98723
-7.005
-7.02151
-7.03664
-7.05025
-7.06223
-7.07244
-7.08076
-7.08704
-7.09115
-7.09296
-7.09235
-7.08916
-7.08328
-7.07456
-7.06289
-7.04813
-7.03015
-7.00882
-6.98402
-6.95561
-6.92347
-6.88746
-6.84744
-6.80328
-6.75481
-6.7019
-6.64436
-6.58201
-6.51466
-6.44209
-6.36406
-6.2803
-6.19057
-6.09456
-5.99192
-5.88226
-5.76521
-5.64037
-5.50732
-5.36559
-5.21471
-5.05414
-4.88336
-4.7018
-4.50889
-4.30406
-4.0867
-3.8562
-3.61194
-3.35332
-3.07975
-2.79065
-2.4855
-2.16382
-1.82525
-1.46951
-1.09647
-0.706142
-0.298707
0.125464
0.56574
1.02122
1.49073
1.97285
2.46583
2.96766
3.47597
3.98819
4.50153
5.01321
5.52035
6.02029
6.51036
6.98821
7.45162
7.89875
8.32799
8.73812
9.12811
9.49731
9.84527
10.1718
10.477
10.7611
11.0246
11.2681
11.4922
11.6978
11.8859
12.0573
12.2129
12.3539
12.4811
12.5955
12.6981
12.7898
12.8714
12.9438
13.0078
13.064
13.1132
13.1561
13.1932
13.225
13.2522
13.2752
13.2945
13.3104
13.3234
13.3338
13.3418
13.3479
13.3521
13.3547
13.3558
13.3555
13.3537
13.3503
13.3447
13.3372
13.3224
13.3151
13.2451
-6.03804
-6.04717
-6.06014
-6.07176
-6.08151
-6.09006
-6.09783
-6.1051
-6.1121
-6.11906
-6.12616
-6.13356
-6.14137
-6.1497
-6.15861
-6.16818
-6.17845
-6.18944
-6.20119
-6.2137
-6.22698
-6.24104
-6.25585
-6.27142
-6.28773
-6.30476
-6.32249
-6.34089
-6.35993
-6.3796
-6.39986
-6.42069
-6.44205
-6.46391
-6.48624
-6.50901
-6.53218
-6.55572
-6.57959
-6.60377
-6.62817
-6.65279
-6.67754
-6.70238
-6.72725
-6.7521
-6.77682
-6.80138
-6.82566
-6.84961
-6.87311
-6.8961
-6.91845
-6.94008
-6.96088
-6.98074
-6.99954
-7.01717
-7.0335
-7.04842
-7.06179
-7.0735
-7.08341
-7.0914
-7.09733
-7.10107
-7.1025
-7.10149
-7.09791
-7.09163
-7.08253
-7.07048
-7.05537
-7.03707
-7.01546
-6.99042
-6.96184
-6.92958
-6.89353
-6.85355
-6.80952
-6.76129
-6.70871
-6.65162
-6.58985
-6.52321
-6.45147
-6.37439
-6.29173
-6.20323
-6.10858
-6.00741
-5.89932
-5.78397
-5.66091
-5.52975
-5.38998
-5.24114
-5.08266
-4.91402
-4.73461
-4.5439
-4.34123
-4.12605
-3.89765
-3.65544
-3.39875
-3.12697
-2.83946
-2.53568
-2.2151
-1.8773
-1.52197
-1.14892
-0.758125
-0.349696
0.0759686
0.518346
0.976455
1.44926
1.9352
2.43264
2.93933
3.45294
3.97062
4.48965
5.00689
5.51954
6.02457
6.51946
7.0016
7.4689
7.91935
8.35145
8.76386
9.15565
9.52609
9.87482
10.2017
10.5068
10.7905
11.0533
11.2958
11.5188
11.7231
11.9097
12.0796
12.2337
12.3731
12.4987
12.6116
12.7127
12.8029
12.8831
12.9541
13.0168
13.0717
13.1197
13.1614
13.1973
13.2281
13.2543
13.2763
13.2945
13.3095
13.3216
13.3311
13.3383
13.3435
13.3468
13.3485
13.3486
13.3472
13.3441
13.3392
13.3317
13.3218
13.3042
13.2938
13.2192
-6.05584
-6.06368
-6.07473
-6.08482
-6.09348
-6.1012
-6.10833
-6.11508
-6.12167
-6.1283
-6.13512
-6.14229
-6.14989
-6.15803
-6.16678
-6.17621
-6.18635
-6.19723
-6.20887
-6.2213
-6.2345
-6.2485
-6.26327
-6.27881
-6.29509
-6.31212
-6.32985
-6.34827
-6.36736
-6.3871
-6.40745
-6.4284
-6.44989
-6.47192
-6.49442
-6.51737
-6.54073
-6.56448
-6.58855
-6.61292
-6.63752
-6.66232
-6.68724
-6.71226
-6.73728
-6.76225
-6.78708
-6.81171
-6.83603
-6.85999
-6.88347
-6.90639
-6.92865
-6.95014
-6.97076
-6.9904
-7.00894
-7.02627
-7.04226
-7.05681
-7.06977
-7.08105
-7.09049
-7.09798
-7.1034
-7.10662
-7.1075
-7.10595
-7.10182
-7.095
-7.08537
-7.07282
-7.05723
-7.03849
-7.01649
-6.99112
-6.96226
-6.9298
-6.89362
-6.85362
-6.80966
-6.76161
-6.70933
-6.65267
-6.59145
-6.52549
-6.45457
-6.37848
-6.29693
-6.20968
-6.1164
-6.01671
-5.91024
-5.79659
-5.67536
-5.54609
-5.40833
-5.26152
-5.10515
-4.93865
-4.76143
-4.5729
-4.37244
-4.15939
-3.93308
-3.69284
-3.438
-3.16789
-2.88185
-2.57928
-2.25961
-1.92238
-1.56723
-1.19392
-0.802364
-0.392664
0.0348598
0.479638
0.940797
1.4172
1.90738
2.40952
2.92139
3.44048
3.9639
4.48871
5.0117
5.52981
6.03999
6.5395
7.02577
7.49659
7.95003
8.38456
8.79885
9.19194
9.56313
9.91212
10.2388
10.5434
10.8262
11.0878
11.3288
11.5502
11.7527
11.9375
12.1055
12.2577
12.3952
12.5189
12.63
12.7293
12.8178
12.8964
12.9659
13.027
13.0806
13.1272
13.1676
13.2023
13.2319
13.2569
13.2778
13.2951
13.3091
13.3202
13.3288
13.3352
13.3395
13.3419
13.3427
13.3418
13.3393
13.335
13.3285
13.3192
13.3071
13.2869
13.2737
13.1954
-6.07389
-6.08039
-6.08945
-6.09788
-6.10525
-6.11192
-6.11815
-6.12415
-6.1301
-6.13617
-6.14251
-6.14926
-6.1565
-6.16433
-6.17281
-6.18199
-6.19192
-6.20261
-6.2141
-6.22639
-6.23948
-6.25338
-6.26807
-6.28356
-6.29982
-6.31684
-6.33459
-6.35307
-6.37223
-6.39207
-6.41254
-6.43362
-6.45526
-6.47745
-6.50012
-6.52326
-6.5468
-6.57071
-6.59493
-6.61943
-6.64415
-6.66905
-6.69407
-6.71914
-6.74419
-6.76916
-6.79395
-6.8185
-6.84271
-6.86651
-6.88979
-6.91246
-6.93443
-6.95559
-6.97583
-6.99505
-7.01313
-7.02996
-7.04543
-7.0594
-7.07178
-7.08242
-7.09121
-7.09804
-7.10277
-7.10529
-7.10549
-7.10323
-7.09841
-7.09092
-7.08064
-7.06747
-7.05131
-7.03204
-7.00956
-6.98378
-6.95458
-6.92187
-6.88554
-6.84548
-6.80157
-6.7537
-6.70172
-6.64549
-6.58484
-6.5196
-6.44957
-6.37447
-6.2941
-6.20813
-6.11627
-6.01811
-5.91328
-5.80137
-5.68199
-5.55464
-5.41888
-5.27411
-5.11986
-4.95548
-4.78044
-4.59406
-4.39575
-4.18479
-3.9605
-3.72215
-3.46906
-3.20048
-2.91576
-2.61424
-2.2953
-1.95846
-1.60329
-1.22952
-0.836976
-0.425765
0.00388618
0.451334
0.915823
1.39604
1.89061
2.39753
2.91467
3.43924
3.96845
4.49893
5.02756
5.55091
6.06601
6.56984
7.05989
7.53378
7.98972
8.42611
8.84173
9.23553
9.60695
9.95564
10.2816
10.5851
10.8665
11.1264
11.3656
11.5849
11.7854
11.9679
12.1337
12.2837
12.419
12.5407
12.6497
12.7471
12.8338
12.9106
12.9784
13.0379
13.09
13.1352
13.1742
13.2076
13.236
13.2598
13.2796
13.2959
13.3089
13.3191
13.3268
13.3322
13.3357
13.3373
13.3372
13.3354
13.3318
13.3262
13.3183
13.3073
13.2931
13.2705
13.2546
13.1734
-6.09216
-6.09736
-6.10448
-6.11116
-6.11705
-6.12241
-6.12747
-6.13243
-6.13744
-6.14269
-6.14829
-6.15439
-6.16106
-6.16838
-6.17641
-6.18521
-6.19478
-6.20518
-6.2164
-6.22846
-6.24136
-6.2551
-6.26966
-6.28505
-6.30123
-6.31821
-6.33594
-6.35442
-6.3736
-6.39348
-6.41399
-6.43512
-6.45682
-6.47907
-6.50181
-6.52502
-6.54861
-6.57257
-6.59681
-6.6213
-6.64597
-6.6708
-6.6957
-6.72062
-6.74548
-6.77021
-6.79471
-6.81894
-6.84277
-6.86616
-6.88898
-6.91116
-6.93257
-6.95315
-6.97277
-6.99133
-7.00872
-7.02483
-7.03953
-7.05274
-7.0643
-7.07413
-7.08209
-7.08809
-7.09197
-7.09366
-7.09301
-7.08995
-7.08433
-7.07607
-7.06506
-7.05122
-7.03441
-7.01457
-6.99159
-6.96537
-6.93585
-6.90288
-6.86642
-6.82631
-6.78251
-6.73484
-6.68323
-6.62749
-6.5675
-6.50307
-6.43397
-6.35999
-6.28083
-6.19622
-6.10581
-6.00922
-5.90606
-5.79593
-5.6784
-5.55299
-5.4192
-5.2765
-5.12431
-4.96207
-4.78915
-4.60492
-4.4087
-4.19979
-3.97743
-3.74091
-3.48947
-3.22235
-2.93883
-2.63823
-2.31988
-1.98324
-1.62788
-1.25344
-0.859741
-0.446788
-0.0148777
0.435415
0.903203
1.38723
1.88601
2.39764
2.91981
3.44974
3.98439
4.52032
5.05412
5.58234
6.10184
6.60956
7.10285
7.57935
8.0372
8.47489
8.89116
9.28508
9.6561
10.004
10.3287
10.6306
10.9102
11.1679
11.4048
11.6218
11.8198
11.9999
12.1632
12.3108
12.4438
12.5632
12.6701
12.7654
12.8501
12.925
12.9911
13.049
13.0995
13.1433
13.1809
13.213