/*--------------------------------*- C++ -*----------------------------------*\
  =========                 |
  \\      /  F ield         | OpenFOAM: The Open Source CFD Toolbox
   \\    /   O peration     | Website:  https://openfoam.org
    \\  /    A nd           | Version:  8
     \\/     M anipulation  |
\*---------------------------------------------------------------------------*/
FoamFile
{
    version     2.0;
    format      ascii;
    class       surfaceScalarField;
    location    "155";
    object      phi;
}
// * * * * * * * * * * * * * * * * * * * * * * * * * * * * * * * * * * * * * //

dimensions      [0 3 -1 0 0 0 0];

internalField   nonuniform List<scalar> 
24170
(
3.12889e-06
5.95175e-08
3.04662e-06
8.22619e-08
2.97351e-06
7.31063e-08
2.90485e-06
6.86625e-08
2.84049e-06
6.43533e-08
2.78312e-06
5.73638e-08
2.73375e-06
4.9362e-08
2.69175e-06
4.2001e-08
2.65601e-06
3.57369e-08
2.62547e-06
3.05293e-08
2.59916e-06
2.63092e-08
2.57622e-06
2.29413e-08
2.55595e-06
2.02619e-08
2.53775e-06
1.81965e-08
2.52114e-06
1.66115e-08
2.50493e-06
1.62064e-08
2.48926e-06
1.56611e-08
2.41565e-08
2.46511e-06
3.45314e-06
2.36277e-08
3.45701e-06
7.83825e-08
3.45053e-06
7.9584e-08
3.43907e-06
8.01246e-08
3.42427e-06
7.91458e-08
3.40701e-06
7.46241e-08
3.38776e-06
6.86083e-08
3.36719e-06
6.25596e-08
3.346e-06
5.69256e-08
3.32476e-06
5.17633e-08
3.30396e-06
4.71082e-08
3.28386e-06
4.30355e-08
3.26466e-06
3.9461e-08
3.24637e-06
3.64814e-08
3.2291e-06
3.3877e-08
3.21272e-06
3.25923e-08
3.19762e-06
3.07536e-08
3.51445e-08
3.18663e-06
3.66826e-06
1.78866e-08
3.67918e-06
6.74603e-08
3.6854e-06
7.33579e-08
3.68943e-06
7.60937e-08
3.69101e-06
7.75617e-08
3.69002e-06
7.56078e-08
3.68686e-06
7.17685e-08
3.68198e-06
6.7432e-08
3.67579e-06
6.31186e-08
3.66859e-06
5.89555e-08
3.66068e-06
5.50247e-08
3.65227e-06
5.14344e-08
3.64357e-06
4.81654e-08
3.6347e-06
4.53442e-08
3.62573e-06
4.28456e-08
3.61702e-06
4.12996e-08
3.60801e-06
3.97646e-08
4.09234e-08
3.60223e-06
3.92587e-06
1.74047e-08
3.93591e-06
5.74192e-08
3.94255e-06
6.67163e-08
3.94807e-06
7.05643e-08
3.95247e-06
7.31631e-08
3.95539e-06
7.26806e-08
3.95704e-06
7.01247e-08
3.95763e-06
6.68321e-08
3.95737e-06
6.33741e-08
3.9564e-06
5.99228e-08
3.95485e-06
5.65721e-08
3.95284e-06
5.34445e-08
3.95045e-06
5.05533e-08
3.94778e-06
4.8011e-08
3.94486e-06
4.57645e-08
3.94199e-06
4.41654e-08
3.93895e-06
4.27998e-08
4.24559e-08
3.93742e-06
4.20819e-06
1.63404e-08
4.21597e-06
4.96341e-08
4.22166e-06
6.1027e-08
4.22675e-06
6.54747e-08
4.23148e-06
6.84332e-08
4.23542e-06
6.87326e-08
4.23856e-06
6.69857e-08
4.241e-06
6.43918e-08
4.24284e-06
6.15276e-08
4.24418e-06
5.85842e-08
4.24508e-06
5.5664e-08
4.24564e-06
5.28871e-08
4.2459e-06
5.02926e-08
4.24594e-06
4.79685e-08
4.2458e-06
4.59029e-08
4.24569e-06
4.42711e-08
4.24562e-06
4.28715e-08
4.18291e-08
4.24624e-06
4.51069e-06
1.47417e-08
4.51687e-06
4.34445e-08
4.52211e-06
5.57875e-08
4.52691e-06
6.06739e-08
4.5316e-06
6.37401e-08
4.53582e-06
6.45083e-08
4.53946e-06
6.33423e-08
4.54258e-06
6.12679e-08
4.54526e-06
5.88504e-08
4.54755e-06
5.62933e-08
4.5495e-06
5.37093e-08
4.55117e-06
5.12097e-08
4.55261e-06
4.88501e-08
4.55389e-06
4.66953e-08
4.55504e-06
4.47512e-08
4.55621e-06
4.309e-08
4.55749e-06
4.15925e-08
4.01761e-08
4.55914e-06
4.8343e-06
1.3157e-08
4.83962e-06
3.81298e-08
4.84473e-06
5.0673e-08
4.84941e-06
5.59867e-08
4.85402e-06
5.91277e-08
4.85831e-06
6.02167e-08
4.86215e-06
5.95015e-08
4.86558e-06
5.7841e-08
4.86865e-06
5.57807e-08
4.8714e-06
5.35355e-08
4.87388e-06
5.12258e-08
4.87614e-06
4.89548e-08
4.8782e-06
4.67854e-08
4.88013e-06
4.47655e-08
4.88197e-06
4.29049e-08
4.88384e-06
4.12205e-08
4.8858e-06
3.9628e-08
3.80052e-08
4.88797e-06
5.18103e-06
1.17094e-08
5.18574e-06
3.34146e-08
5.19073e-06
4.56811e-08
5.19536e-06
5.13511e-08
5.19993e-06
5.45626e-08
5.20426e-06
5.58834e-08
5.20822e-06
5.55367e-08
5.21183e-06
5.42278e-08
5.21514e-06
5.24719e-08
5.21818e-06
5.0494e-08
5.22098e-06
4.8419e-08
5.22359e-06
4.63445e-08
5.22604e-06
4.43345e-08
5.22837e-06
4.24267e-08
5.23065e-06
4.06291e-08
5.23293e-06
3.89333e-08
5.23529e-06
3.7274e-08
3.55469e-08
5.23774e-06
5.55268e-06
1.03662e-08
5.55687e-06
2.92179e-08
5.56167e-06
4.08847e-08
5.56626e-06
4.67582e-08
5.5708e-06
5.00192e-08
5.57518e-06
5.15043e-08
5.57925e-06
5.1463e-08
5.58301e-06
5.04638e-08
5.5865e-06
4.89789e-08
5.58975e-06
4.72403e-08
5.5928e-06
4.5375e-08
5.59566e-06
4.34764e-08
5.59839e-06
4.16067e-08
5.60102e-06
3.97983e-08
5.60359e-06
3.8057e-08
5.60615e-06
3.63667e-08
5.60875e-06
3.46765e-08
3.29154e-08
5.61138e-06
5.95103e-06
9.11064e-09
5.95477e-06
2.54752e-08
5.95933e-06
3.63221e-08
5.96387e-06
4.22179e-08
5.96839e-06
4.54922e-08
5.97281e-06
4.70846e-08
5.97698e-06
4.72891e-08
5.98088e-06
4.65617e-08
5.98454e-06
4.53217e-08
5.98797e-06
4.38016e-08
5.99122e-06
4.21293e-08
5.9943e-06
4.03938e-08
5.99725e-06
3.86544e-08
6.0001e-06
3.69413e-08
6.0029e-06
3.52602e-08
6.00567e-06
3.35962e-08
6.00843e-06
3.19123e-08
3.01679e-08
6.01118e-06
6.37798e-06
7.94442e-09
6.38133e-06
2.21196e-08
6.38565e-06
3.20042e-08
6.39011e-06
3.77471e-08
6.39462e-06
4.09874e-08
6.39906e-06
4.26361e-08
6.40332e-06
4.30269e-08
6.40735e-06
4.25314e-08
6.41116e-06
4.15114e-08
6.41477e-06
4.01919e-08
6.41819e-06
3.86994e-08
6.42147e-06
3.71184e-08
6.42462e-06
3.55055e-08
6.42766e-06
3.38901e-08
6.43064e-06
3.22797e-08
6.43357e-06
3.0665e-08
6.43646e-06
2.90217e-08
2.73338e-08
6.43929e-06
5.74176e-06
7.02137e-09
5.74433e-06
1.95428e-08
5.74779e-06
2.85431e-08
5.7515e-06
3.40307e-08
5.75529e-06
3.71997e-08
5.75906e-06
3.88616e-08
5.76272e-06
3.93648e-08
5.76622e-06
3.9032e-08
5.76955e-06
3.81787e-08
5.77272e-06
3.70156e-08
5.77575e-06
3.56663e-08
5.77866e-06
3.42117e-08
5.78146e-06
3.27057e-08
5.78417e-06
3.11779e-08
5.78681e-06
2.96382e-08
5.78939e-06
2.80832e-08
5.79191e-06
2.64979e-08
2.48823e-08
5.79436e-06
6.99914e-06
6.0408e-09
7.00186e-06
1.68165e-08
7.00561e-06
2.47878e-08
7.00976e-06
2.98759e-08
7.01407e-06
3.28946e-08
7.0184e-06
3.4525e-08
7.02265e-06
3.51103e-08
7.02676e-06
3.49269e-08
7.03069e-06
3.42399e-08
7.03447e-06
3.32405e-08
7.03808e-06
3.20461e-08
7.04156e-06
3.07325e-08
7.04491e-06
2.9351e-08
7.04816e-06
2.79312e-08
7.05131e-06
2.64865e-08
7.05437e-06
2.50196e-08
7.05735e-06
2.35241e-08
2.20132e-08
7.06021e-06
8.53188e-06
5.01046e-09
8.53472e-06
1.39674e-08
8.53874e-06
2.07652e-08
8.54333e-06
2.52889e-08
8.54817e-06
2.80524e-08
8.5531e-06
2.95871e-08
8.558e-06
3.02073e-08
8.56278e-06
3.01452e-08
8.56741e-06
2.96148e-08
8.57186e-06
2.8781e-08
8.57616e-06
2.77507e-08
8.5803e-06
2.6594e-08
8.58429e-06
2.53579e-08
8.58814e-06
2.40722e-08
8.59188e-06
2.27532e-08
8.59549e-06
2.14096e-08
8.59897e-06
2.00422e-08
1.86722e-08
8.60231e-06
1.04003e-05
3.93913e-09
1.04032e-05
1.1014e-08
1.04075e-05
1.6496e-08
1.04125e-05
2.02767e-08
1.04179e-05
2.26547e-08
1.04235e-05
2.40082e-08
1.04291e-05
2.45987e-08
1.04346e-05
2.46141e-08
1.044e-05
2.42191e-08
1.04453e-05
2.35461e-08
1.04503e-05
2.26871e-08
1.04552e-05
2.17034e-08
1.04599e-05
2.06371e-08
1.04645e-05
1.95167e-08
1.04689e-05
1.83604e-08
1.04731e-05
1.71808e-08
1.04772e-05
1.59835e-08
1.47939e-08
1.0481e-05
1.26779e-05
2.83138e-09
1.2681e-05
7.94962e-09
1.26855e-05
1.19769e-08
1.26909e-05
1.48314e-08
1.26969e-05
1.66711e-08
1.27032e-05
1.77361e-08
1.27095e-05
1.82167e-08
1.27159e-05
1.82523e-08
1.27222e-05
1.79601e-08
1.27283e-05
1.74369e-08
1.27342e-05
1.67538e-08
1.27399e-05
1.59604e-08
1.27455e-05
1.50915e-08
1.27508e-05
1.41721e-08
1.2756e-05
1.322e-08
1.27609e-05
1.22489e-08
1.27656e-05
1.12663e-08
1.02983e-08
1.27701e-05
1.54543e-05
1.67575e-09
1.54576e-05
4.72671e-09
1.54624e-05
7.14785e-09
1.54683e-05
8.88985e-09
1.5475e-05
1.00243e-08
1.5482e-05
1.06766e-08
1.54893e-05
1.09566e-08
1.54966e-05
1.0948e-08
1.55038e-05
1.07207e-08
1.55109e-05
1.03334e-08
1.55178e-05
9.83168e-09
1.55245e-05
9.24854e-09
1.5531e-05
8.60848e-09
1.55373e-05
7.92979e-09
1.55433e-05
7.22684e-09
1.5549e-05
6.51112e-09
1.55545e-05
5.78997e-09
5.08608e-09
1.55597e-05
1.88389e-05
4.3151e-10
1.88424e-05
1.21906e-09
1.88477e-05
1.83259e-09
1.88543e-05
2.25797e-09
1.88618e-05
2.51272e-09
1.88699e-05
2.62475e-09
1.88782e-05
2.61604e-09
1.88867e-05
2.50592e-09
1.88951e-05
2.31412e-09
1.89033e-05
2.05809e-09
1.89114e-05
1.75242e-09
1.89193e-05
1.40873e-09
1.89268e-05
1.03713e-09
1.89341e-05
6.45989e-10
1.89411e-05
2.42833e-10
1.89478e-05
-1.65562e-10
1.89541e-05
-5.75023e-10
-9.67787e-10
1.89602e-05
2.29648e-05
-1.00349e-09
2.29688e-05
-2.86397e-09
2.29751e-05
-4.3908e-09
2.29829e-05
-5.54346e-09
2.29917e-05
-6.34436e-09
2.30012e-05
-6.87973e-09
2.30111e-05
-7.2371e-09
2.3021e-05
-7.47117e-09
2.3031e-05
-7.61933e-09
2.30407e-05
-7.71288e-09
2.30503e-05
-7.77652e-09
2.30595e-05
-7.82472e-09
2.30684e-05
-7.86631e-09
2.30769e-05
-7.90531e-09
2.30851e-05
-7.94445e-09
2.30929e-05
-7.98316e-09
2.31004e-05
-8.02249e-09
-8.05061e-09
2.31075e-05
1.68118e-05
-2.13087e-09
1.6815e-05
-6.0457e-09
1.68199e-05
-9.23903e-09
1.68259e-05
-1.15665e-08
1.68326e-05
-1.30893e-08
1.68398e-05
-1.40351e-08
1.68471e-05
-1.45917e-08
1.68545e-05
-1.48631e-08
1.68618e-05
-1.49284e-08
1.6869e-05
-1.48602e-08
1.68759e-05
-1.47113e-08
1.68826e-05
-1.4515e-08
1.6889e-05
-1.42921e-08
1.68951e-05
-1.40568e-08
1.6901e-05
-1.38172e-08
1.69066e-05
-1.35781e-08
1.69119e-05
-1.33425e-08
-1.31032e-08
1.6917e-05
1.46357e-05
-3.21349e-09
1.46387e-05
-9.14309e-09
1.46435e-05
-1.39713e-08
1.46492e-05
-1.73351e-08
1.46556e-05
-1.94076e-08
1.46622e-05
-2.06387e-08
1.46689e-05
-2.12987e-08
1.46755e-05
-2.15238e-08
1.4682e-05
-2.14455e-08
1.46883e-05
-2.118e-08
1.46944e-05
-2.08036e-08
1.47003e-05
-2.03607e-08
1.47059e-05
-1.9882e-08
1.47112e-05
-1.93881e-08
1.47163e-05
-1.88925e-08
1.47211e-05
-1.84023e-08
1.47257e-05
-1.79223e-08
-1.74477e-08
1.473e-05
1.27411e-05
-4.22686e-09
1.27443e-05
-1.22799e-08
1.27491e-05
-1.8819e-08
1.27548e-05
-2.30043e-08
1.27608e-05
-2.54168e-08
1.2767e-05
-2.6831e-08
1.27732e-05
-2.75097e-08
1.27793e-05
-2.76026e-08
1.27851e-05
-2.73168e-08
1.27908e-05
-2.6818e-08
1.27962e-05
-2.61955e-08
1.28013e-05
-2.55013e-08
1.28062e-05
-2.47722e-08
1.28108e-05
-2.40339e-08
1.28152e-05
-2.33017e-08
1.28194e-05
-2.25835e-08
1.28234e-05
-2.18842e-08
-2.12004e-08
1.28271e-05
1.10918e-05
-5.07254e-09
1.1095e-05
-1.55103e-08
1.11001e-05
-2.39608e-08
1.11058e-05
-2.865e-08
1.11115e-05
-3.11775e-08
1.11174e-05
-3.2674e-08
1.11231e-05
-3.32709e-08
1.11287e-05
-3.31506e-08
1.1134e-05
-3.26155e-08
1.1139e-05
-3.1863e-08
1.11438e-05
-3.0985e-08
1.11483e-05
-3.00382e-08
1.11526e-05
-2.90656e-08
1.11567e-05
-2.80957e-08
1.11605e-05
-2.71436e-08
1.11642e-05
-2.62174e-08
1.11676e-05
-2.53206e-08
-2.44508e-08
1.11708e-05
9.65582e-06
-5.67525e-09
9.65925e-06
-1.89471e-08
9.66461e-06
-2.93213e-08
9.67012e-06
-3.41656e-08
9.6757e-06
-3.67569e-08
9.68128e-06
-3.82575e-08
9.68664e-06
-3.86308e-08
9.69169e-06
-3.82081e-08
9.69647e-06
-3.73922e-08
9.70098e-06
-3.63772e-08
9.70523e-06
-3.52419e-08
9.70924e-06
-3.4046e-08
9.71301e-06
-3.2837e-08
9.71656e-06
-3.16442e-08
9.71989e-06
-3.04826e-08
9.72303e-06
-2.93591e-08
9.72599e-06
-2.82759e-08
-2.72289e-08
9.72876e-06
8.4053e-06
-5.62454e-09
8.40964e-06
-2.32921e-08
8.41489e-06
-3.45707e-08
8.41993e-06
-3.92084e-08
8.42531e-06
-4.214e-08
8.43074e-06
-4.36855e-08
8.43584e-06
-4.37387e-08
8.44057e-06
-4.29388e-08
8.44497e-06
-4.17877e-08
8.44905e-06
-4.04617e-08
8.45284e-06
-3.90306e-08
8.45635e-06
-3.75569e-08
8.4596e-06
-3.609e-08
8.46261e-06
-3.46573e-08
8.4654e-06
-3.3274e-08
8.46798e-06
-3.19463e-08
8.47038e-06
-3.0676e-08
-2.94594e-08
8.47261e-06
7.3145e-06
-2.84409e-09
7.3212e-06
-2.99884e-08
7.32676e-06
-4.01348e-08
7.33172e-06
-4.41697e-08
7.33713e-06
-4.7552e-08
7.34247e-06
-4.90231e-08
7.34736e-06
-4.86353e-08
7.35179e-06
-4.73722e-08
7.35579e-06
-4.57878e-08
7.35937e-06
-4.40403e-08
7.36255e-06
-4.22108e-08
7.36536e-06
-4.03722e-08
7.36784e-06
-3.85765e-08
7.37003e-06
-3.68479e-08
7.37196e-06
-3.52014e-08
7.37365e-06
-3.36401e-08
7.37514e-06
-3.21641e-08
-3.07636e-08
7.37644e-06
6.36244e-06
4.78609e-09
6.3719e-06
-3.94573e-08
6.37933e-06
-4.75687e-08
6.38598e-06
-5.08178e-08
6.39227e-06
-5.38463e-08
6.3976e-06
-5.43506e-08
6.40191e-06
-5.29456e-08
6.4054e-06
-5.08702e-08
6.40822e-06
-4.86067e-08
6.41042e-06
-4.62445e-08
6.41208e-06
-4.38635e-08
6.41324e-06
-4.15398e-08
6.41399e-06
-3.93239e-08
6.41437e-06
-3.72345e-08
6.41445e-06
-3.52837e-08
6.41428e-06
-3.34698e-08
6.41391e-06
-3.17928e-08
-3.02319e-08
6.41338e-06
5.54129e-06
8.95553e-09
5.55033e-06
-4.84919e-08
5.55835e-06
-5.55893e-08
5.56606e-06
-5.85337e-08
5.57253e-06
-6.03183e-08
5.57687e-06
-5.86884e-08
5.57912e-06
-5.52006e-08
5.57969e-06
-5.14446e-08
5.57895e-06
-4.78696e-08
5.57718e-06
-4.44761e-08
5.57461e-06
-4.12875e-08
5.57141e-06
-3.83444e-08
5.56774e-06
-3.56544e-08
5.56371e-06
-3.32117e-08
5.55944e-06
-3.10079e-08
5.555e-06
-2.9032e-08
5.55049e-06
-2.72843e-08
-2.57111e-08
5.54596e-06
4.86019e-06
-2.36282e-08
4.86538e-06
-5.36868e-08
4.86524e-06
-5.5446e-08
4.86218e-06
-5.54784e-08
4.85701e-06
-5.51554e-08
4.84952e-06
-5.11966e-08
4.83984e-06
-4.55201e-08
4.82846e-06
-4.00653e-08
4.81589e-06
-3.5307e-08
4.80263e-06
-3.12137e-08
4.78904e-06
-2.77061e-08
4.77542e-06
-2.47238e-08
4.76195e-06
-2.21873e-08
4.74877e-06
-2.00309e-08
4.73596e-06
-1.81986e-08
4.72359e-06
-1.66668e-08
4.71178e-06
-1.54719e-08
-1.51248e-08
4.70119e-06
4.17905e-06
4.12536e-06
4.06991e-06
4.01444e-06
3.95928e-06
3.90808e-06
3.86256e-06
3.8225e-06
3.78719e-06
3.75598e-06
3.72827e-06
3.70355e-06
3.68136e-06
3.66133e-06
3.64313e-06
3.62646e-06
3.61099e-06
3.59586e-06
1.88688e-08
-1.89503e-08
3.42018e-08
-1.54388e-08
4.16679e-08
-7.54567e-09
4.11472e-08
4.49675e-10
3.37641e-08
7.323e-09
2.10177e-08
1.26877e-08
4.33315e-09
1.66336e-08
-1.51628e-08
1.94447e-08
-3.66455e-08
2.14386e-08
-5.95722e-08
2.28818e-08
-8.36099e-08
2.39986e-08
-1.08629e-07
2.49783e-08
-1.34639e-07
2.59734e-08
-1.61785e-07
2.71071e-08
-1.90236e-07
2.84163e-08
-2.20191e-07
2.99172e-08
-2.50954e-07
3.07302e-08
-2.80636e-07
2.96451e-08
-3.09288e-07
2.86217e-08
-3.39095e-07
2.97718e-08
-3.70167e-07
3.10445e-08
-4.03746e-07
3.35452e-08
-4.42089e-07
3.83147e-08
-4.82843e-07
4.0718e-08
-5.24872e-07
4.19958e-08
-5.73167e-07
4.82476e-08
-6.1994e-07
4.6725e-08
-6.59717e-07
3.97183e-08
-6.99608e-07
3.9842e-08
-7.39816e-07
4.01536e-08
-7.82832e-07
4.2972e-08
-8.2655e-07
4.36683e-08
-8.70514e-07
4.39239e-08
-9.14575e-07
4.40163e-08
-9.58619e-07
4.40081e-08
-1.00258e-06
4.39161e-08
-1.04637e-06
4.37632e-08
-1.08998e-06
4.35696e-08
-1.13336e-06
4.33496e-08
-1.17652e-06
4.31154e-08
-1.21942e-06
4.28724e-08
-1.26208e-06
4.26281e-08
-1.3045e-06
4.2386e-08
-1.34668e-06
4.21498e-08
-1.38863e-06
4.19193e-08
-1.43035e-06
4.16957e-08
-1.47185e-06
4.14769e-08
-1.51315e-06
4.12626e-08
-1.55422e-06
4.10496e-08
-1.5951e-06
4.08369e-08
-1.63575e-06
4.0621e-08
-1.67619e-06
4.04006e-08
-1.71639e-06
4.01727e-08
-1.75638e-06
3.99362e-08
-1.7961e-06
3.96883e-08
-1.83558e-06
3.94271e-08
-1.87477e-06
3.91505e-08
-1.91368e-06
3.88573e-08
-1.95226e-06
3.85459e-08
-1.99053e-06
3.82142e-08
-2.02843e-06
3.78618e-08
-2.06597e-06
3.74874e-08
-2.1031e-06
3.70908e-08
-2.13981e-06
3.66697e-08
-2.17607e-06
3.62248e-08
-2.21187e-06
3.57537e-08
-2.24715e-06
3.52586e-08
-2.28193e-06
3.47374e-08
-2.31614e-06
3.41935e-08
-2.34981e-06
3.36242e-08
-2.38285e-06
3.30331e-08
-2.4153e-06
3.24159e-08
-2.44709e-06
3.17757e-08
-2.47823e-06
3.11071e-08
-2.50866e-06
3.04147e-08
-2.5384e-06
2.96921e-08
-2.56736e-06
2.8945e-08
-2.59558e-06
2.81679e-08
-2.62295e-06
2.73663e-08
-2.64953e-06
2.65306e-08
-2.6752e-06
2.56674e-08
-2.7e-06
2.47675e-08
-2.72382e-06
2.38363e-08
-2.7467e-06
2.28594e-08
-2.76853e-06
2.18435e-08
-2.78931e-06
2.07745e-08
-2.80893e-06
1.96599e-08
-2.82736e-06
1.84816e-08
-2.8445e-06
1.72351e-08
-2.86027e-06
1.59103e-08
-2.87462e-06
1.44763e-08
-2.88741e-06
1.29219e-08
-2.89853e-06
1.12253e-08
-2.90779e-06
9.37032e-09
-2.91503e-06
7.32987e-09
-2.92002e-06
5.08795e-09
-2.9226e-06
2.67054e-09
-2.92275e-06
2.22352e-10
-2.92056e-06
-2.12939e-09
-2.91608e-06
-4.43624e-09
-2.90925e-06
-6.81387e-09
-2.89996e-06
-9.30615e-09
-2.88808e-06
-1.1926e-08
-2.87348e-06
-1.46848e-08
-2.856e-06
-1.75734e-08
-2.83551e-06
-2.06028e-08
-2.81183e-06
-2.37588e-08
-2.78486e-06
-2.70562e-08
-2.75442e-06
-3.04792e-08
-2.72041e-06
-3.40414e-08
-2.68267e-06
-3.77221e-08
-2.64112e-06
-4.153e-08
-2.59561e-06
-4.54392e-08
-2.54607e-06
-4.94511e-08
-2.4924e-06
-5.35345e-08
-2.43457e-06
-5.76835e-08
-2.37251e-06
-6.18668e-08
-2.30623e-06
-6.60724e-08
-2.23574e-06
-7.02615e-08
-2.16108e-06
-7.44165e-08
-2.08232e-06
-7.84875e-08
-1.99956e-06
-8.24744e-08
-1.91293e-06
-8.63258e-08
-1.82263e-06
-8.99584e-08
-1.72891e-06
-9.33767e-08
-1.63199e-06
-9.65628e-08
-1.53217e-06
-9.94807e-08
-1.42977e-06
-1.02068e-07
-1.32516e-06
-1.04314e-07
-1.21871e-06
-1.06178e-07
-1.11084e-06
-1.0766e-07
-1.00193e-06
-1.08727e-07
-8.92419e-07
-1.09399e-07
-7.82694e-07
-1.09656e-07
-6.73176e-07
-1.09537e-07
-5.64205e-07
-1.09039e-07
-4.56127e-07
-1.08239e-07
-3.49306e-07
-1.07053e-07
-2.44022e-07
-1.05621e-07
-1.40165e-07
-1.0426e-07
-3.75021e-08
-1.03103e-07
6.41307e-08
-1.02062e-07
1.6368e-07
-9.99458e-08
2.59757e-07
-9.64472e-08
3.51899e-07
-9.2486e-08
4.3989e-07
-8.83151e-08
5.23642e-07
-8.40511e-08
6.03123e-07
-7.97611e-08
6.78354e-07
-7.54897e-08
7.49379e-07
-7.12691e-08
8.16278e-07
-6.71242e-08
8.7914e-07
-6.30744e-08
9.38076e-07
-5.9135e-08
9.9321e-07
-5.53206e-08
1.04468e-06
-5.16406e-08
1.09261e-06
-4.81017e-08
1.13717e-06
-4.47108e-08
1.1785e-06
-4.14738e-08
1.21677e-06
-3.83954e-08
1.25213e-06
-3.54801e-08
1.28475e-06
-3.27292e-08
1.31479e-06
-3.01456e-08
1.34243e-06
-2.77303e-08
1.36784e-06
-2.54866e-08
1.39118e-06
-2.34155e-08
1.41263e-06
-2.15162e-08
1.43236e-06
-1.97854e-08
1.45053e-06
-1.82204e-08
1.46729e-06
-1.6811e-08
1.48279e-06
-1.55429e-08
1.49715e-06
-1.43904e-08
1.51043e-06
-1.33149e-08
1.52264e-06
-1.22476e-08
1.53369e-06
-1.10735e-08
1.54322e-06
-9.55622e-09
1.55043e-06
-7.22019e-09
1.5529e-06
-2.4826e-09
1.54513e-06
7.76693e-09
1.5138e-06
3.13222e-08
8.09946e-08
1.43278e-06
9.1685e-09
-2.81877e-08
9.43322e-09
-1.57758e-08
4.43605e-09
-2.59467e-09
-4.38824e-09
9.23555e-09
-1.65977e-08
1.95003e-08
-3.207e-08
2.8129e-08
-5.06331e-08
3.5169e-08
-7.20209e-08
4.08045e-08
-9.59147e-08
4.53069e-08
-1.22034e-07
4.8975e-08
-1.50154e-07
5.20942e-08
-1.80115e-07
5.49135e-08
-2.11795e-07
5.76307e-08
-2.45109e-07
6.03957e-08
-2.79988e-07
6.3273e-08
-3.16242e-07
6.61463e-08
-3.54137e-07
6.86039e-08
-3.94724e-07
7.02075e-08
-4.37621e-07
7.14984e-08
-4.81224e-07
7.33526e-08
-5.26006e-07
7.58065e-08
-5.71312e-07
7.88287e-08
-6.155e-07
8.24823e-08
-6.60636e-07
8.58289e-08
-7.07094e-07
8.84308e-08
-7.49575e-07
9.07015e-08
-7.93463e-07
9.05864e-08
-8.42386e-07
8.86136e-08
-8.90022e-07
8.74527e-08
-9.36675e-07
8.67802e-08
-9.80635e-07
8.69077e-08
-1.02384e-06
8.68527e-08
-1.06651e-06
8.65641e-08
-1.10865e-06
8.61381e-08
-1.1503e-06
8.56349e-08
-1.19149e-06
8.5083e-08
-1.23225e-06
8.45003e-08
-1.2726e-06
8.39012e-08
-1.31257e-06
8.32973e-08
-1.35217e-06
8.26985e-08
-1.39143e-06
8.21106e-08
-1.43036e-06
8.15375e-08
-1.46897e-06
8.09802e-08
-1.50728e-06
8.04391e-08
-1.54529e-06
7.99122e-08
-1.58301e-06
7.93975e-08
-1.62044e-06
7.88908e-08
-1.65758e-06
7.83888e-08
-1.69443e-06
7.78868e-08
-1.731e-06
7.73807e-08
-1.76726e-06
7.68655e-08
-1.80322e-06
7.63376e-08
-1.83886e-06
7.57924e-08
-1.87418e-06
7.52267e-08
-1.90915e-06
7.46359e-08
-1.94377e-06
7.40172e-08
-1.97801e-06
7.3367e-08
-2.01187e-06
7.26831e-08
-2.04531e-06
7.19621e-08
-2.07833e-06
7.12024e-08
-2.1109e-06
7.04019e-08
-2.143e-06
6.95594e-08
-2.1746e-06
6.86732e-08
-2.2057e-06
6.7742e-08
-2.23627e-06
6.67647e-08
-2.26628e-06
6.57407e-08
-2.29571e-06
6.46698e-08
-2.32455e-06
6.35518e-08
-2.35276e-06
6.23871e-08
-2.38033e-06
6.11751e-08
-2.40723e-06
5.99157e-08
-2.43344e-06
5.86076e-08
-2.45893e-06
5.72506e-08
-2.48368e-06
5.58426e-08
-2.50766e-06
5.43834e-08
-2.53086e-06
5.28705e-08
-2.55324e-06
5.13049e-08
-2.57477e-06
4.96835e-08
-2.59543e-06
4.80055e-08
-2.61518e-06
4.62657e-08
-2.63398e-06
4.4463e-08
-2.65182e-06
4.25904e-08
-2.66863e-06
4.06444e-08
-2.68439e-06
3.86147e-08
-2.69904e-06
3.64975e-08
-2.71255e-06
3.42815e-08
-2.72483e-06
3.19612e-08
-2.73584e-06
2.95204e-08
-2.74548e-06
2.69529e-08
-2.75373e-06
2.42337e-08
-2.76052e-06
2.13503e-08
-2.76581e-06
1.8287e-08
-2.76956e-06
1.5037e-08
-2.77173e-06
1.16047e-08
-2.77233e-06
7.99223e-09
-2.7714e-06
4.21551e-09
-2.76898e-06
2.90225e-10
-2.76493e-06
-3.78297e-09
-2.75898e-06
-8.04931e-09
-2.75087e-06
-1.2535e-08
-2.74043e-06
-1.72575e-08
-2.72752e-06
-2.22303e-08
-2.71203e-06
-2.74681e-08
-2.6938e-06
-3.29756e-08
-2.6727e-06
-3.87545e-08
-2.64856e-06
-4.48059e-08
-2.62126e-06
-5.11279e-08
-2.59064e-06
-5.77231e-08
-2.55657e-06
-6.45867e-08
-2.5189e-06
-7.17174e-08
-2.47752e-06
-7.91013e-08
-2.4323e-06
-8.67286e-08
-2.38313e-06
-9.45739e-08
-2.3299e-06
-1.02616e-07
-2.27255e-06
-1.10816e-07
-2.21099e-06
-1.19141e-07
-2.14521e-06
-1.27543e-07
-2.07518e-06
-1.35976e-07
-2.00092e-06
-1.44378e-07
-1.92251e-06
-1.52691e-07
-1.84e-06
-1.60836e-07
-1.75353e-06
-1.6878e-07
-1.66325e-06
-1.76421e-07
-1.56939e-06
-1.83635e-07
-1.4722e-06
-1.9037e-07
-1.37198e-06
-1.96593e-07
-1.26905e-06
-2.02221e-07
-1.16378e-06
-2.07164e-07
-1.05656e-06
-2.11369e-07
-9.47822e-07
-2.14784e-07
-8.37983e-07
-2.17382e-07
-7.27488e-07
-2.19137e-07
-6.16772e-07
-2.20055e-07
-5.06264e-07
-2.20139e-07
-3.96373e-07
-2.19432e-07
-2.87497e-07
-2.17954e-07
-1.79989e-07
-2.15817e-07
-7.39934e-08
-2.13161e-07
3.03022e-08
-2.10062e-07
1.32285e-07
-2.06415e-07
2.31132e-07
-2.02123e-07
3.26003e-07
-1.97106e-07
4.1697e-07
-1.91071e-07
5.0447e-07
-1.84104e-07
5.8842e-07
-1.76582e-07
6.68703e-07
-1.68743e-07
7.45243e-07
-1.60726e-07
8.17994e-07
-1.52644e-07
8.8695e-07
-1.44568e-07
9.52128e-07
-1.36568e-07
1.01358e-06
-1.28687e-07
1.07137e-06
-1.20972e-07
1.12558e-06
-1.13454e-07
1.17633e-06
-1.06165e-07
1.22372e-06
-9.91257e-08
1.26789e-06
-9.23564e-08
1.30897e-06
-8.58704e-08
1.3471e-06
-7.96835e-08
1.38244e-06
-7.38043e-08
1.41514e-06
-6.8244e-08
1.44536e-06
-6.30086e-08
1.47326e-06
-5.81048e-08
1.49902e-06
-5.35378e-08
1.5228e-06
-4.93118e-08
1.54478e-06
-4.54307e-08
1.56512e-06
-4.18914e-08
1.58399e-06
-3.8691e-08
1.60157e-06
-3.58181e-08
1.61799e-06
-3.32569e-08
1.63341e-06
-3.09745e-08
1.64793e-06
-2.89251e-08
1.66163e-06
-2.7028e-08
1.67453e-06
-2.51576e-08
1.68654e-06
-2.30914e-08
1.6974e-06
-2.04208e-08
1.70655e-06
-1.63632e-08
1.71318e-06
-9.11377e-09
1.71617e-06
4.7864e-09
1.71322e-06
3.42835e-08
9.65793e-08
1.69764e-06
-4.46712e-09
-2.37744e-08
-1.51867e-08
-5.10552e-09
-2.85183e-08
1.07069e-08
-4.37714e-08
2.44642e-08
-6.08184e-08
3.65265e-08
-7.97668e-08
4.70571e-08
-1.0077e-07
5.61539e-08
-1.23933e-07
6.39483e-08
-1.49277e-07
7.0633e-08
-1.76762e-07
7.64422e-08
-2.06306e-07
8.16204e-08
-2.37804e-07
8.63931e-08
-2.71132e-07
9.09421e-08
-3.06135e-07
9.53811e-08
-3.42603e-07
9.97251e-08
-3.80336e-07
1.03862e-07
-4.19324e-07
1.07577e-07
-4.59803e-07
1.1067e-07
-5.01639e-07
1.1332e-07
-5.44151e-07
1.1585e-07
-5.86796e-07
1.18437e-07
-6.29104e-07
1.21122e-07
-6.70444e-07
1.23808e-07
-7.10834e-07
1.26203e-07
-7.50389e-07
1.27972e-07
-7.88753e-07
1.29049e-07
-8.2724e-07
1.29057e-07
-8.66898e-07
1.28255e-07
-9.06735e-07
1.27273e-07
-9.4637e-07
1.26398e-07
-9.85171e-07
1.25693e-07
-1.02329e-06
1.24958e-07
-1.0609e-06
1.24161e-07
-1.09809e-06
1.2331e-07
-1.1349e-06
1.22427e-07
-1.17136e-06
1.21528e-07
-1.2075e-06
1.20626e-07
-1.24334e-06
1.19731e-07
-1.27891e-06
1.18851e-07
-1.31422e-06
1.17991e-07
-1.34927e-06
1.17154e-07
-1.38409e-06
1.16342e-07
-1.41868e-06
1.15553e-07
-1.45304e-06
1.14785e-07
-1.48717e-06
1.14033e-07
-1.52108e-06
1.13294e-07
-1.55476e-06
1.12562e-07
-1.58821e-06
1.1183e-07
-1.62143e-06
1.11094e-07
-1.65441e-06
1.10346e-07
-1.68713e-06
1.09581e-07
-1.7196e-06
1.08792e-07
-1.7518e-06
1.07975e-07
-1.78371e-06
1.07123e-07
-1.81532e-06
1.06232e-07
-1.84662e-06
1.05297e-07
-1.87758e-06
1.04313e-07
-1.9082e-06
1.03278e-07
-1.93844e-06
1.02188e-07
-1.9683e-06
1.01039e-07
-1.99774e-06
9.98288e-08
-2.02676e-06
9.85561e-08
-2.05532e-06
9.72185e-08
-2.08342e-06
9.58146e-08
-2.11101e-06
9.43428e-08
-2.13809e-06
9.28025e-08
-2.16463e-06
9.11929e-08
-2.19061e-06
8.95138e-08
-2.216e-06
8.77648e-08
-2.24078e-06
8.59454e-08
-2.26493e-06
8.4055e-08
-2.28843e-06
8.20923e-08
-2.31124e-06
8.00565e-08
-2.33336e-06
7.79459e-08
-2.35474e-06
7.57592e-08
-2.37538e-06
7.34945e-08
-2.39524e-06
7.11505e-08
-2.41429e-06
6.87241e-08
-2.4325e-06
6.62123e-08
-2.44986e-06
6.361e-08
-2.46631e-06
6.09128e-08
-2.48184e-06
5.81134e-08
-2.4964e-06
5.52044e-08
-2.50997e-06
5.2176e-08
-2.52249e-06
4.90192e-08
-2.53393e-06
4.57219e-08
-2.54423e-06
4.2273e-08
-2.55335e-06
3.86592e-08
-2.56123e-06
3.48643e-08
-2.56781e-06
3.08746e-08
-2.57308e-06
2.66679e-08
-2.57698e-06
2.22309e-08
-2.57947e-06
1.75606e-08
-2.58049e-06
1.26507e-08
-2.57996e-06
7.50378e-09
-2.57784e-06
2.11134e-09
-2.57399e-06
-3.53698e-09
-2.56827e-06
-9.4806e-09
-2.56056e-06
-1.57561e-08
-2.55071e-06
-2.23887e-08
-2.53859e-06
-2.93919e-08
-2.52407e-06
-3.67791e-08
-2.50703e-06
-4.45642e-08
-2.48731e-06
-5.27513e-08
-2.46478e-06
-6.13487e-08
-2.43929e-06
-7.03532e-08
-2.41069e-06
-7.97715e-08
-2.37885e-06
-8.95979e-08
-2.34363e-06
-9.98348e-08
-2.30489e-06
-1.10468e-07
-2.2625e-06
-1.21488e-07
-2.21635e-06
-1.32867e-07
-2.16632e-06
-1.4458e-07
-2.11231e-06
-1.5658e-07
-2.05425e-06
-1.68823e-07
-1.99208e-06
-1.81245e-07
-1.92577e-06
-1.93781e-07
-1.85531e-06
-2.06348e-07
-1.78074e-06
-2.1886e-07
-1.70212e-06
-2.31215e-07
-1.61954e-06
-2.43305e-07
-1.53316e-06
-2.55048e-07
-1.44314e-06
-2.66314e-07
-1.34972e-06
-2.76934e-07
-1.25316e-06
-2.86795e-07
-1.1538e-06
-2.95826e-07
-1.05197e-06
-3.03917e-07
-9.4807e-07
-3.10951e-07
-8.42488e-07
-3.1684e-07
-7.35661e-07
-3.21521e-07
-6.28018e-07
-3.24944e-07
-5.20006e-07
-3.27092e-07
-4.12053e-07
-3.27964e-07
-3.04587e-07
-3.27587e-07
-1.98005e-07
-3.26012e-07
-9.26336e-08
-3.23349e-07
1.11978e-08
-3.19693e-07
1.13029e-07
-3.1506e-07
2.12335e-07
-3.09457e-07
3.08714e-07
-3.02889e-07
4.01848e-07
-2.95354e-07
4.91467e-07
-2.86809e-07
5.77547e-07
-2.7723e-07
6.60153e-07
-2.66776e-07
7.39222e-07
-2.55716e-07
8.14689e-07
-2.44266e-07
8.86503e-07
-2.32596e-07
9.54648e-07
-2.20837e-07
1.01913e-06
-2.09097e-07
1.07999e-06
-1.97465e-07
1.13727e-06
-1.86013e-07
1.19107e-06
-1.74804e-07
1.24146e-06
-1.63888e-07
1.28857e-06
-1.53308e-07
1.33251e-06
-1.43102e-07
1.37342e-06
-1.33294e-07
1.41143e-06
-1.23913e-07
1.44669e-06
-1.14975e-07
1.47936e-06
-1.06499e-07
1.50959e-06
-9.84982e-08
1.53754e-06
-9.09855e-08
1.56338e-06
-8.39691e-08
1.58728e-06
-7.7459e-08
1.6094e-06
-7.14593e-08
1.62993e-06
-6.59754e-08
1.64902e-06
-6.10029e-08
1.66685e-06
-5.65361e-08
1.68357e-06
-5.25572e-08
1.69934e-06
-4.90415e-08
1.71429e-06
-4.59408e-08
1.72854e-06
-4.31866e-08
1.74216e-06
-4.06634e-08
1.75517e-06
-3.81918e-08
1.76753e-06
-3.54662e-08
1.77905e-06
-3.19529e-08
1.78936e-06
-2.66843e-08
1.79796e-06
-1.7728e-08
1.80431e-06
-1.5772e-09
1.80912e-06
2.94593e-08
9.01409e-08
1.81554e-06
-1.52282e-08
-8.59126e-09
-3.35915e-08
1.32208e-08
-5.30295e-08
3.01222e-08
-7.32697e-08
4.46859e-08
-9.43824e-08
5.76233e-08
-1.16558e-07
6.92169e-08
-1.40015e-07
7.95968e-08
-1.64947e-07
8.8866e-08
-1.91481e-07
9.71526e-08
-2.19666e-07
1.04613e-07
-2.49476e-07
1.11417e-07
-2.80817e-07
1.17719e-07
-3.13528e-07
1.23641e-07
-3.47404e-07
1.29242e-07
-3.82203e-07
1.34512e-07
-4.17723e-07
1.39369e-07
-4.53854e-07
1.43697e-07
-4.90614e-07
1.47418e-07
-5.27889e-07
1.50584e-07
-5.65391e-07
1.5334e-07
-6.02773e-07
1.55809e-07
-6.39708e-07
1.58046e-07
-6.75933e-07
1.60023e-07
-7.11363e-07
1.61621e-07
-7.46101e-07
1.62699e-07
-7.80274e-07
1.63209e-07
-8.14344e-07
1.63116e-07
-8.48633e-07
1.62531e-07
-8.83026e-07
1.61654e-07
-9.17304e-07
1.60663e-07
-9.5127e-07
1.59647e-07
-9.8492e-07
1.58595e-07
-1.01828e-06
1.57509e-07
-1.05138e-06
1.56397e-07
-1.08424e-06
1.55272e-07
-1.11687e-06
1.54147e-07
-1.14929e-06
1.53033e-07
-1.1815e-06
1.51937e-07
-1.21353e-06
1.50867e-07
-1.24538e-06
1.49825e-07
-1.27704e-06
1.48812e-07
-1.30854e-06
1.47827e-07
-1.33986e-06
1.46867e-07
-1.37102e-06
1.45927e-07
-1.40199e-06
1.45003e-07
-1.4328e-06
1.44089e-07
-1.46342e-06
1.43176e-07
-1.49386e-06
1.42258e-07
-1.5241e-06
1.41328e-07
-1.55414e-06
1.40376e-07
-1.58397e-06
1.39397e-07
-1.61357e-06
1.38383e-07
-1.64293e-06
1.37326e-07
-1.67204e-06
1.3622e-07
-1.70088e-06
1.3506e-07
-1.72943e-06
1.33838e-07
-1.75768e-06
1.32551e-07
-1.78561e-06
1.31193e-07
-1.8132e-06
1.2976e-07
-1.84042e-06
1.28249e-07
-1.86726e-06
1.26656e-07
-1.8937e-06
1.24979e-07
-1.91972e-06
1.23216e-07
-1.94528e-06
1.21365e-07
-1.97038e-06
1.19424e-07
-1.99498e-06
1.17392e-07
-2.01907e-06
1.15269e-07
-2.04263e-06
1.13054e-07
-2.06562e-06
1.10746e-07
-2.08803e-06
1.08344e-07
-2.10983e-06
1.05849e-07
-2.13101e-06
1.03259e-07
-2.15153e-06
1.00573e-07
-2.17138e-06
9.77886e-08
-2.19053e-06
9.49047e-08
-2.20896e-06
9.1919e-08
-2.22665e-06
8.88291e-08
-2.24356e-06
8.56313e-08
-2.25968e-06
8.23213e-08
-2.27497e-06
7.88933e-08
-2.2894e-06
7.5341e-08
-2.30295e-06
7.1656e-08
-2.31557e-06
6.78288e-08
-2.32725e-06
6.38484e-08
-2.33794e-06
5.97028e-08
-2.34759e-06
5.53784e-08
-2.35617e-06
5.08609e-08
-2.36364e-06
4.61341e-08
-2.36993e-06
4.11832e-08
-2.375e-06
3.59826e-08
-2.37883e-06
3.05192e-08
-2.38134e-06
2.47699e-08
-2.38249e-06
1.87236e-08
-2.38219e-06
1.23667e-08
-2.38036e-06
5.68692e-09
-2.3769e-06
-1.33655e-09
-2.3717e-06
-8.73073e-09
-2.36465e-06
-1.65351e-08
-2.35563e-06
-2.47832e-08
-2.34453e-06
-3.35026e-08
-2.33124e-06
-4.27139e-08
-2.31563e-06
-5.2434e-08
-2.29757e-06
-6.26791e-08
-2.27692e-06
-7.34564e-08
-2.25355e-06
-8.47768e-08
-2.22731e-06
-9.66401e-08
-2.19807e-06
-1.09054e-07
-2.16568e-06
-1.22014e-07
-2.13002e-06
-1.3552e-07
-2.09094e-06
-1.49554e-07
-2.04833e-06
-1.64102e-07
-2.00206e-06
-1.79126e-07
-1.95203e-06
-1.94591e-07
-1.89814e-06
-2.10437e-07
-1.84032e-06
-2.26601e-07
-1.77851e-06
-2.42999e-07
-1.71269e-06
-2.59541e-07
-1.64286e-06
-2.76113e-07
-1.56904e-06
-2.92598e-07
-1.49132e-06
-3.08856e-07