/*--------------------------------*- C++ -*----------------------------------*\
  =========                 |
  \\      /  F ield         | OpenFOAM: The Open Source CFD Toolbox
   \\    /   O peration     | Website:  https://openfoam.org
    \\  /    A nd           | Version:  8
     \\/     M anipulation  |
\*---------------------------------------------------------------------------*/
FoamFile
{
    version     2.0;
    format      ascii;
    class       volVectorField;
    location    "155";
    object      U;
}
// * * * * * * * * * * * * * * * * * * * * * * * * * * * * * * * * * * * * * //

dimensions      [0 1 -1 0 0 0 0];

internalField   nonuniform List<vector> 
12225
(
(9.85701 -0.886588 0)
(9.66627 -0.740732 0)
(9.45573 -0.42941 0)
(9.22438 -0.222148 0)
(9.0063 -0.106383 0)
(8.81405 -0.0457936 0)
(8.64699 -0.0151074 0)
(8.50469 0.000526662 0)
(8.38277 0.0084648 0)
(8.27979 0.0123694 0)
(8.19098 0.0140965 0)
(8.11439 0.0151407 0)
(8.04694 0.0155706 0)
(7.98706 0.0158393 0)
(7.9323 0.0161495 0)
(7.88411 0.0163063 0)
(7.82458 0.0194376 0)
(7.81467 0.0167171 0)
(10.0545 0.227685 0)
(10.1213 0.326996 0)
(10.1196 0.261656 0)
(10.0855 0.186622 0)
(10.0433 0.134723 0)
(9.99659 0.101176 0)
(9.94382 0.0793561 0)
(9.88494 0.0646404 0)
(9.82348 0.0543539 0)
(9.76077 0.0467925 0)
(9.69915 0.0410712 0)
(9.63905 0.0365829 0)
(9.58145 0.0330276 0)
(9.52663 0.0303304 0)
(9.47418 0.0280992 0)
(9.42606 0.0278454 0)
(9.37687 0.0254906 0)
(9.34415 0.0386098 0)
(10.0035 0.0581584 0)
(10.0305 0.0559551 0)
(10.056 0.0337965 0)
(10.0703 0.0329122 0)
(10.0769 0.0406796 0)
(10.0777 0.0465914 0)
(10.0723 0.0494242 0)
(10.0611 0.0503931 0)
(10.0457 0.0503252 0)
(10.0271 0.0496561 0)
(10.0064 0.0486758 0)
(9.98399 0.0476036 0)
(9.96055 0.0465547 0)
(9.9365 0.0457123 0)
(9.91201 0.0450048 0)
(9.88796 0.0453233 0)
(9.86368 0.0454993 0)
(9.84182 0.0503927 0)
(9.99772 0.0109536 0)
(10.0111 0.026632 0)
(10.035 0.0371477 0)
(10.0524 0.0481045 0)
(10.0642 0.0554912 0)
(10.0732 0.0582451 0)
(10.0792 0.0584413 0)
(10.0821 0.0577336 0)
(10.0823 0.0567288 0)
(10.0807 0.0555938 0)
(10.0774 0.0544056 0)
(10.0728 0.0532986 0)
(10.0671 0.0522859 0)
(10.0607 0.0515204 0)
(10.0535 0.0509518 0)
(10.0461 0.0511599 0)
(10.0386 0.051566 0)
(10.0318 0.0539417 0)
(9.99935 0.00710664 0)
(10.009 0.0317145 0)
(10.0274 0.0439408 0)
(10.0417 0.0499595 0)
(10.0527 0.0536705 0)
(10.0627 0.0553199 0)
(10.0713 0.0556323 0)
(10.078 0.0553832 0)
(10.083 0.0548942 0)
(10.0867 0.0542638 0)
(10.0893 0.0535562 0)
(10.0911 0.0528821 0)
(10.092 0.0522779 0)
(10.0923 0.0518627 0)
(10.0922 0.0516406 0)
(10.0918 0.0519284 0)
(10.0916 0.0524581 0)
(10.0918 0.0537202 0)
(10.0003 0.00915833 0)
(10.0083 0.0312359 0)
(10.0227 0.0409868 0)
(10.0349 0.0454495 0)
(10.0449 0.0491171 0)
(10.0546 0.0514803 0)
(10.0635 0.0524985 0)
(10.0711 0.0527791 0)
(10.0774 0.0527083 0)
(10.0829 0.05243 0)
(10.0876 0.0520301 0)
(10.0916 0.0516116 0)
(10.095 0.0512311 0)
(10.098 0.0509788 0)
(10.1007 0.0508808 0)
(10.1032 0.0510915 0)
(10.1059 0.0514726 0)
(10.1089 0.05203 0)
(10.0004 0.00893473 0)
(10.0071 0.0271418 0)
(10.019 0.0364669 0)
(10.0301 0.041464 0)
(10.0395 0.0455123 0)
(10.0485 0.0482098 0)
(10.057 0.0495207 0)
(10.0646 0.0500441 0)
(10.0713 0.0501879 0)
(10.0773 0.0501046 0)
(10.0827 0.0498819 0)
(10.0876 0.049611 0)
(10.092 0.0493543 0)
(10.0961 0.0491776 0)
(10.1 0.0491076 0)
(10.1038 0.0492059 0)
(10.1077 0.0493769 0)
(10.1119 0.0494862 0)
(10.0004 0.00791377 0)
(10.0059 0.0234241 0)
(10.0161 0.0327975 0)
(10.0262 0.0381888 0)
(10.035 0.0422123 0)
(10.0434 0.0449322 0)
(10.0515 0.0463899 0)
(10.0589 0.0470831 0)
(10.0655 0.0473822 0)
(10.0716 0.0474386 0)
(10.0773 0.0473402 0)
(10.0825 0.0471692 0)
(10.0874 0.0469868 0)
(10.092 0.0468411 0)
(10.0964 0.0467513 0)
(10.1008 0.0467288 0)
(10.1052 0.0466942 0)
(10.1098 0.0465005 0)
(10.0004 0.00696607 0)
(10.005 0.0204671 0)
(10.0136 0.0295224 0)
(10.0228 0.0349603 0)
(10.0311 0.0388449 0)
(10.039 0.0415481 0)
(10.0466 0.0431316 0)
(10.0537 0.0439703 0)
(10.0603 0.0443925 0)
(10.0663 0.0445545 0)
(10.072 0.0445454 0)
(10.0773 0.0444408 0)
(10.0823 0.0442972 0)
(10.0871 0.044151 0)
(10.0918 0.0440127 0)
(10.0964 0.0438707 0)
(10.101 0.0436561 0)
(10.1057 0.0432523 0)
(10.0004 0.00614092 0)
(10.0043 0.0179023 0)
(10.0116 0.0263511 0)
(10.0198 0.0316915 0)
(10.0276 0.0354549 0)
(10.035 0.0381271 0)
(10.0422 0.039795 0)
(10.049 0.0407416 0)
(10.0554 0.0412555 0)
(10.0613 0.0414951 0)
(10.0669 0.0415489 0)
(10.0723 0.0414863 0)
(10.0773 0.0413577 0)
(10.0822 0.041192 0)
(10.0869 0.0409935 0)
(10.0916 0.0407429 0)
(10.0962 0.0403831 0)
(10.1009 0.0398357 0)
(10.0003 0.00538486 0)
(10.0036 0.0155968 0)
(10.0099 0.0233197 0)
(10.0172 0.0284664 0)
(10.0244 0.0320918 0)
(10.0314 0.0346914 0)
(10.0382 0.0363884 0)
(10.0448 0.0374029 0)
(10.0509 0.0379807 0)
(10.0567 0.0382745 0)
(10.0622 0.0383708 0)
(10.0675 0.0383323 0)
(10.0725 0.0382039 0)
(10.0773 0.0380092 0)
(10.0821 0.0377504 0)
(10.0867 0.0374084 0)
(10.0912 0.0369397 0)
(10.0958 0.0362984 0)
(10.0003 0.00472232 0)
(10.0032 0.0136606 0)
(10.0086 0.0206796 0)
(10.0152 0.0255638 0)
(10.0218 0.0290264 0)
(10.0284 0.0315235 0)
(10.0349 0.0332043 0)
(10.0412 0.0342476 0)
(10.0471 0.0348602 0)
(10.0528 0.0351845 0)
(10.0582 0.0353035 0)
(10.0634 0.0352744 0)
(10.0683 0.0351373 0)
(10.0731 0.0349133 0)
(10.0778 0.0346041 0)
(10.0823 0.0341954 0)
(10.0867 0.0336552 0)
(10.0911 0.032963 0)
(10.0003 0.00410952 0)
(10.0027 0.0118957 0)
(10.0075 0.0181862 0)
(10.0134 0.0227314 0)
(10.0196 0.0259962 0)
(10.0258 0.0283646 0)
(10.0319 0.0299955 0)
(10.0379 0.031039 0)
(10.0437 0.0316664 0)
(10.0492 0.0320056 0)
(10.0545 0.032135 0)
(10.0595 0.0321069 0)
(10.0644 0.0319575 0)
(10.0691 0.0317059 0)
(10.0737 0.0313554 0)
(10.0781 0.0308973 0)
(10.0824 0.0303096 0)
(10.0867 0.0295908 0)
(10.0002 0.00347639 0)
(10.0024 0.0100617 0)
(10.0064 0.0155118 0)
(10.0117 0.0195928 0)
(10.0174 0.0225758 0)
(10.0231 0.0247551 0)
(10.0289 0.0262844 0)
(10.0346 0.027289 0)
(10.0401 0.0279043 0)
(10.0455 0.0282391 0)
(10.0506 0.0283649 0)
(10.0555 0.0283284 0)
(10.0603 0.0281614 0)
(10.0649 0.027882 0)
(10.0693 0.0274959 0)
(10.0736 0.0270002 0)
(10.0778 0.0263829 0)
(10.0818 0.0256564 0)
(10.0002 0.00281876 0)
(10.002 0.00815655 0)
(10.0055 0.0126657 0)
(10.0101 0.0161522 0)
(10.0152 0.0187505 0)
(10.0206 0.0206641 0)
(10.026 0.0220262 0)
(10.0313 0.0229382 0)
(10.0366 0.0235021 0)
(10.0417 0.0238046 0)
(10.0467 0.0239066 0)
(10.0515 0.0238488 0)
(10.0561 0.0236585 0)
(10.0606 0.0233529 0)
(10.0649 0.02294 0)
(10.069 0.0224227 0)
(10.073 0.0217968 0)
(10.0768 0.0210842 0)
(10.0002 0.00213572 0)
(10.0017 0.00618134 0)
(10.0047 0.00965537 0)
(10.0087 0.0124128 0)
(10.0134 0.0145058 0)
(10.0182 0.0160594 0)
(10.0233 0.0171732 0)
(10.0283 0.017924 0)
(10.0333 0.0183835 0)
(10.0382 0.0186154 0)
(10.0429 0.018667 0)
(10.0475 0.0185714 0)
(10.052 0.0183513 0)
(10.0563 0.0180221 0)
(10.0604 0.0175934 0)
(10.0644 0.017072 0)
(10.0682 0.0164589 0)
(10.0719 0.0157803 0)
(10.0002 0.00142396 0)
(10.0015 0.00412107 0)
(10.0041 0.00646287 0)
(10.0076 0.00835529 0)
(10.0118 0.00981047 0)
(10.0163 0.0108933 0)
(10.0209 0.011665 0)
(10.0257 0.0121745 0)
(10.0304 0.0124667 0)
(10.035 0.0125816 0)
(10.0396 0.0125514 0)
(10.044 0.0123991 0)
(10.0483 0.0121419 0)
(10.0524 0.0117917 0)
(10.0564 0.0113583 0)
(10.0602 0.0108489 0)
(10.0638 0.0102675 0)
(10.0672 0.00963979 0)
(10.0001 0.00066661 0)
(10.0013 0.00192271 0)
(10.0036 0.00301413 0)
(10.0069 0.00389699 0)
(10.0107 0.00457047 0)
(10.0149 0.00505728 0)
(10.0192 0.00538043 0)
(10.0237 0.00555962 0)
(10.0282 0.0056137 0)
(10.0327 0.00556006 0)
(10.037 0.00541307 0)
(10.0412 0.00518386 0)
(10.0453 0.00488125 0)
(10.0493 0.00451246 0)
(10.0531 0.00408374 0)
(10.0567 0.00360127 0)
(10.0602 0.00306819 0)
(10.0635 0.00250728 0)
(10.0001 -0.000179914 0)
(10.0013 -0.000536944 0)
(10.0035 -0.00086629 0)
(10.0066 -0.00115735 0)
(10.0103 -0.0014106 0)
(10.0143 -0.00164015 0)
(10.0186 -0.00186378 0)
(10.0229 -0.00209416 0)
(10.0273 -0.00233894 0)
(10.0316 -0.00260473 0)
(10.0358 -0.0028965 0)
(10.0399 -0.00321793 0)
(10.0438 -0.00357052 0)
(10.0476 -0.00395493 0)
(10.0513 -0.00437032 0)
(10.0547 -0.00481499 0)
(10.0581 -0.00528834 0)
(10.0612 -0.00577384 0)
(10.0001 -0.000990751 0)
(10.0013 -0.00289958 0)
(10.0037 -0.00460049 0)
(10.007 -0.00601193 0)
(10.0109 -0.00713172 0)
(10.0151 -0.00801967 0)
(10.0194 -0.00873753 0)
(10.0238 -0.00932747 0)
(10.0282 -0.00982447 0)
(10.0325 -0.0102603 0)
(10.0367 -0.0106608 0)
(10.0408 -0.0110428 0)
(10.0447 -0.0114186 0)
(10.0484 -0.0117959 0)
(10.052 -0.0121805 0)
(10.0554 -0.0125746 0)
(10.0586 -0.0129815 0)
(10.0617 -0.0133897 0)
(10.0002 -0.00169026 0)
(10.0015 -0.00496367 0)
(10.0041 -0.00786508 0)
(10.0078 -0.0101902 0)
(10.012 -0.0119613 0)
(10.0165 -0.0133286 0)
(10.0211 -0.0143984 0)
(10.0257 -0.0152281 0)
(10.0302 -0.015875 0)
(10.0346 -0.0163978 0)
(10.0388 -0.0168419 0)
(10.0429 -0.0172359 0)
(10.0468 -0.0176 0)
(10.0505 -0.0179477 0)
(10.0541 -0.0182892 0)
(10.0575 -0.0186296 0)
(10.0607 -0.018974 0)
(10.0637 -0.0193146 0)
(10.0002 -0.00235437 0)
(10.0017 -0.0070027 0)
(10.0047 -0.0111266 0)
(10.009 -0.0142754 0)
(10.0137 -0.0165506 0)
(10.0186 -0.0182632 0)
(10.0235 -0.0195734 0)
(10.0283 -0.0205524 0)
(10.033 -0.0212817 0)
(10.0375 -0.0218431 0)
(10.0419 -0.0222932 0)
(10.046 -0.0226693 0)
(10.0499 -0.0229978 0)
(10.0537 -0.0232989 0)
(10.0572 -0.0235854 0)
(10.0606 -0.0238658 0)
(10.0638 -0.0241449 0)
(10.0668 -0.0244189 0)
(10.0002 -0.00297537 0)
(10.0018 -0.00906714 0)
(10.0054 -0.0144102 0)
(10.0105 -0.0182833 0)
(10.0159 -0.0210104 0)
(10.0212 -0.0230158 0)
(10.0264 -0.0244551 0)
(10.0315 -0.0254535 0)
(10.0364 -0.0261656 0)
(10.0411 -0.0267015 0)
(10.0455 -0.0271179 0)
(10.0497 -0.0274509 0)
(10.0537 -0.0277299 0)
(10.0575 -0.0279776 0)
(10.061 -0.0282084 0)
(10.0644 -0.0284306 0)
(10.0676 -0.0286498 0)
(10.0706 -0.0288637 0)
(10.0001 -0.00352124 0)
(10.0018 -0.01153 0)
(10.0063 -0.0178584 0)
(10.0123 -0.0219427 0)
(10.0183 -0.0249953 0)
(10.0241 -0.0273912 0)
(10.0297 -0.0290163 0)
(10.0352 -0.0300141 0)
(10.0403 -0.0306552 0)
(10.0451 -0.0311045 0)
(10.0496 -0.0314298 0)
(10.0539 -0.031672 0)
(10.0579 -0.0318651 0)
(10.0617 -0.0320329 0)
(10.0653 -0.0321894 0)
(10.0686 -0.0323416 0)
(10.0718 -0.0324935 0)
(10.0747 -0.0326411 0)
(9.99991 -0.00336698 0)
(10.0016 -0.0149674 0)
(10.0073 -0.0227098 0)
(10.0143 -0.0262073 0)
(10.0207 -0.0287812 0)
(10.0269 -0.0311356 0)
(10.0332 -0.0328465 0)
(10.0391 -0.0339251 0)
(10.0446 -0.0346161 0)
(10.0496 -0.0350721 0)
(10.0543 -0.0353635 0)
(10.0586 -0.0355447 0)
(10.0626 -0.035662 0)
(10.0664 -0.0357463 0)
(10.0698 -0.0358157 0)
(10.073 -0.0358804 0)
(10.076 -0.035945 0)
(10.0787 -0.0360082 0)
(9.99859 -0.000375988 0)
(9.99904 -0.0157829 0)
(10.0076 -0.0274145 0)
(10.0166 -0.032462 0)
(10.0238 -0.0348292 0)
(10.0307 -0.0361771 0)
(10.0377 -0.0369214 0)
(10.0442 -0.0373816 0)
(10.05 -0.0377241 0)
(10.0552 -0.0379655 0)
(10.0598 -0.0381056 0)
(10.0639 -0.0381697 0)
(10.0675 -0.0381879 0)
(10.0707 -0.0381812 0)
(10.0735 -0.0381647 0)
(10.0759 -0.0381474 0)
(10.0781 -0.0381331 0)
(10.08 -0.0381196 0)
(9.99487 0.00140973 0)
(9.99288 -0.00811318 0)
(10.0061 -0.0203147 0)
(10.0202 -0.0322407 0)
(10.0307 -0.0404414 0)
(10.0393 -0.0441098 0)
(10.0468 -0.0450179 0)
(10.053 -0.0448696 0)
(10.0579 -0.0443989 0)
(10.0618 -0.0437989 0)
(10.0648 -0.0431509 0)
(10.067 -0.0425117 0)
(10.0685 -0.0419155 0)
(10.0694 -0.0413704 0)
(10.0697 -0.0408855 0)
(10.0696 -0.0404588 0)
(10.0692 -0.040087 0)
(10.0685 -0.0397438 0)
(9.9947 -0.0305746 0)
(9.99944 -0.0228425 0)
(10.0147 -0.00260731 0)
(10.0304 -0.00188343 0)
(10.0435 -0.0116312 0)
(10.0534 -0.0208933 0)
(10.0595 -0.0272485 0)
(10.062 -0.0314726 0)
(10.0616 -0.0342446 0)
(10.0592 -0.0359384 0)
(10.0552 -0.036868 0)
(10.05 -0.0373 0)
(10.0437 -0.0374243 0)
(10.0367 -0.0373614 0)
(10.0292 -0.0372 0)
(10.0213 -0.0369982 0)
(10.0132 -0.0368192 0)
(10.005 -0.0366305 0)
(10.0274 -0.183005 0)
(10.0766 -0.28832 0)
(10.0871 -0.247814 0)
(10.0777 -0.186548 0)
(10.0664 -0.140309 0)
(10.0538 -0.108225 0)
(10.0366 -0.085875 0)
(10.0146 -0.0704135 0)
(9.98949 -0.0596395 0)
(9.96248 -0.0518608 0)
(9.93454 -0.0460364 0)
(9.90626 -0.0415372 0)
(9.87812 -0.0379798 0)
(9.85045 -0.0351033 0)
(9.82349 -0.0327404 0)
(9.79736 -0.0308174 0)
(9.7723 -0.0293003 0)
(9.74834 -0.0284864 0)
(9.93575 0.689542 0)
(9.86829 0.609597 0)
(9.76461 0.38061 0)
(9.62667 0.217418 0)
(9.48596 0.11925 0)
(9.35731 0.0631701 0)
(9.24283 0.0315595 0)
(9.1413 0.0136093 0)
(9.05168 0.00325695 0)
(8.97275 -0.00280283 0)
(8.90289 -0.00635566 0)
(8.84076 -0.00847347 0)
(8.78511 -0.00971967 0)
(8.73504 -0.0104771 0)
(8.68966 -0.0109586 0)
(8.64835 -0.0112363 0)
(8.61019 -0.0114618 0)
(8.57488 -0.012102 0)
(0.0102016 -0.0208347 -5.4919e-19)
(0.025768 -0.0220146 3.10584e-19)
(0.0349983 -0.0129859 0)
(0.0381826 -0.00205856 0)
(0.0344934 0.00738038 0)
(0.0252664 0.0143404 -1.23121e-19)
(0.0119256 0.0189555 0)
(-0.0043524 0.0217458 0)
(-0.0226772 0.0232866 0)
(-0.0424734 0.0240749 0)
(-0.0633934 0.0244939 7.40767e-20)
(-0.08526 0.0248558 0)
(-0.108091 0.0254293 0)
(-0.131999 0.0264469 0)
(-0.156996 0.0278868 0)
(-0.182896 0.02956 6.07473e-20)
(-0.209763 0.0281504 0)
(-0.237468 0.02024 0)
(-0.263803 0.0135077 0)
(-0.289462 0.0149354 0)
(-0.31747 0.0183216 0)
(-0.346694 0.0288822 0)
(-0.377752 0.0479486 0)
(-0.413652 0.0589384 4.31046e-20)
(-0.452577 0.0669817 -4.30802e-20)
(-0.489462 0.089266 4.75481e-20)
(-0.532691 0.080414 6.24927e-20)
(-0.57599 0.0448978 0)
(-0.610932 0.0337707 0)
(-0.648406 0.0298484 -6.17813e-20)
(-0.683715 0.0372804 -5.93633e-20)
(-0.723776 0.0383226 0)
(-0.763693 0.0384272 0)
(-0.803805 0.0382973 -5.29505e-20)
(-0.843978 0.0380837 0)
(-0.884141 0.0377897 0)
(-0.924236 0.0374401 4.78874e-20)
(-0.964219 0.0370556 0)
(-1.00406 0.0366491 4.51167e-20)
(-1.04375 0.0362323 8.7754e-20)
(-1.08327 0.0358083 0)
(-1.12262 0.0353867 0)
(-1.1618 0.034971 0)
(-1.20082 0.034566 0)
(-1.23968 0.0341706 0)
(-1.27838 0.0337874 7.59025e-20)
(-1.31694 0.0334132 7.43091e-20)
(-1.35536 0.0330488 7.27979e-20)
(-1.39363 0.0326903 0)
(-1.43178 0.0323381 -6.9994e-20)
(-1.46978 0.031988 0)
(-1.50765 0.0316402 6.74398e-20)
(-1.54537 0.0312916 6.62436e-20)
(-1.58294 0.0309423 0)
(-1.62035 0.0305884 0)
(-1.65759 0.03023 0)
(-1.69465 0.0298645 6.18974e-20)
(-1.7315 0.0294924 0)
(-1.76814 0.0291108 0)
(-1.80454 0.0287203 0)
(-1.84069 0.0283196 0)
(-1.87657 0.0279093 0)
(-1.91215 0.0274879 0)
(-1.94742 0.0270559 0)
(-1.98235 0.0266125 0)
(-2.01692 0.0261582 -5.38579e-20)
(-2.05111 0.0256932 0)
(-2.08489 0.025218 0)
(-2.11824 0.0247334 5.14986e-20)
(-2.15113 0.0242397 5.07327e-20)
(-2.18355 0.0237385 0)
(-2.21548 0.0232305 -4.92233e-20)
(-2.24688 0.0227187 4.84771e-20)
(-2.27774 0.0222039 0)
(-2.30804 0.0216891 -4.69953e-20)
(-2.33774 0.0211734 0)
(-2.36683 0.020661 0)
(-2.39528 0.0201511 4.4787e-20)
(-2.42305 0.0196449 0)
(-2.45012 0.0191359 -4.33174e-20)
(-2.47646 0.0186234 0)
(-2.50203 0.0180974 4.1845e-20)
(-2.52681 0.0175533 4.11063e-20)
(-2.55075 0.0169771 4.03646e-20)
(-2.57382 0.0163646 7.92388e-20)
(-2.59597 0.0157019 -7.77382e-20)
(-2.61713 0.0149868 0)
(-2.63725 0.0142063 0)
(-2.65626 0.0133634 0)
(-2.67407 0.0124562 -7.15881e-20)
(-2.69064 0.0114837 -7.00075e-20)
(-2.70587 0.0104579 6.8412e-20)
(-2.71965 0.0093875 0)
(-2.73181 0.008283 -6.51827e-20)
(-2.74219 0.0071454 -6.35499e-20)
(-2.75062 0.00596926 -6.19023e-20)
(-2.75686 0.00476744 0)
(-2.76075 0.00359451 0)
(-2.76239 0.00248949 0)
(-2.76196 0.00141764 -5.49173e-20)
(-2.75937 0.000315935 0)
(-2.75451 -0.00083699 0)
(-2.74727 -0.00205045 4.90789e-20)
(-2.73751 -0.00333279 0)
(-2.72509 -0.00468444 0)
(-2.70987 -0.00611655 4.25165e-20)
(-2.69167 -0.00762903 0)
(-2.67037 -0.00923717 0)
(-2.64582 -0.0109409 -3.48709e-20)
(-2.61787 -0.0127561 -3.19952e-20)
(-2.58639 -0.0146805 0)
(-2.55124 -0.016728 2.56094e-20)
(-2.51231 -0.0188937 0)
(-2.46947 -0.0211882 -1.81797e-20)
(-2.42263 -0.0236033 0)
(-2.3717 -0.0261456 -9.42419e-21)
(-2.31663 -0.0288043 -4.44651e-21)
(-2.25737 -0.0315776 0)
(-2.19391 -0.0344372 0)
(-2.12626 -0.0373779 0)
(-2.05445 -0.0403443 0)
(-1.97855 -0.0433334 0)
(-1.89867 -0.0463373 0)
(-1.81496 -0.0493181 0)
(-1.72757 -0.0522685 5.63157e-20)
(-1.63676 -0.0551366 -6.73692e-20)
(-1.54277 -0.0578961 0)
(-1.44588 -0.0605084 0)
(-1.34642 -0.0629535 0)
(-1.24473 -0.0652075 0)
(-1.1412 -0.0672568 -2.78002e-19)
(-1.03622 -0.0690772 0)
(-0.930171 -0.0706697 3.54152e-19)
(-0.823463 -0.0720239 -3.97308e-19)
(-0.716476 -0.0731589 0)
(-0.609585 -0.0740712 0)
(-0.503135 -0.0747859 0)
(-0.397462 -0.0752301 6.13761e-19)
(-0.29292 -0.0753805 6.81967e-19)
(-0.189851 -0.0752956 0)
(-0.088319 -0.0748036 8.28843e-19)
(0.013335 -0.0730129 8.42371e-19)
(0.114335 -0.0699019 -8.11416e-19)
(0.212082 -0.0663054 0)
(0.306437 -0.0626604 0)
(0.397031 -0.0590717 -7.42659e-19)
(0.483689 -0.0555806 0)
(0.566335 -0.0522065 0)
(0.644949 -0.0489597 0)
(0.71955 -0.0458453 0)
(0.790184 -0.0428662 6.73101e-19)
(0.856921 -0.0400226 6.63103e-19)
(0.919847 -0.0373143 0)
(0.979066 -0.0347401 6.45733e-19)
(1.03469 -0.0322982 0)
(1.08686 -0.0299842 0)
(1.13568 -0.0277986 6.24854e-19)
(1.18131 -0.0257359 0)
(1.2239 -0.0237902 6.13606e-19)
(1.26359 -0.02196 0)
(1.30053 -0.0202421 0)
(1.33489 -0.0186325 5.99646e-19)
(1.36682 -0.0171275 0)
(1.39649 -0.0157256 5.91837e-19)
(1.42407 -0.0144253 0)
(1.44972 -0.0132195 0)
(1.47361 -0.0121053 0)
(1.49591 -0.0110806 -5.78631e-19)
(1.51677 -0.0101406 0)
(1.53635 -0.00927845 5.72776e-19)
(1.55476 -0.00848482 0)
(1.57212 -0.00774471 0)
(1.58846 -0.00703371 0)
(1.60372 -0.00631124 0)
(1.61774 -0.00549869 0)
(1.6297 -0.00444794 0)
(1.63917 -0.00267553 0)
(1.63913 0.000853077 -1.11844e-18)
(1.63264 0.00853879 0)
(1.5572 0.0238159 0)
(0.00527694 -0.0518663 1.19643e-18)
(0.00956141 -0.0360055 -4.89962e-19)
(0.00693759 -0.0146452 0)
(0.000767725 0.00489773 1.45753e-19)
(-0.00851528 0.0215137 0)
(-0.0208728 0.034809 5.36916e-20)
(-0.0360881 0.0449282 -9.74975e-20)
(-0.0539364 0.0523547 -9.01038e-20)
(-0.0741502 0.0577043 0)
(-0.0964666 0.0615833 -7.962e-20)
(-0.120676 0.0645165 -3.79984e-20)
(-0.146628 0.066934 0)
(-0.174231 0.0691745 0)
(-0.203348 0.0715187 0)
(-0.233831 0.0741208 0)
(-0.265507 0.0768862 -3.43928e-20)
(-0.298718 0.0793001 0)
(-0.334226 0.0806408 6.69554e-20)
(-0.371934 0.0815744 0)
(-0.410915 0.0835814 0)
(-0.450459 0.0863922 -5.91762e-20)
(-0.490866 0.0891109 0)
(-0.530864 0.0924165 5.60751e-20)
(-0.570961 0.0953025 -2.8152e-20)
(-0.612081 0.0966293 2.83877e-20)
(-0.652276 0.0981517 -2.89208e-20)
(-0.692959 0.0993563 -2.98227e-20)
(-0.734727 0.0996624 0)
(-0.778653 0.100364 0)
(-0.820837 0.100296 2.69772e-20)
(-0.861916 0.100512 -2.6019e-20)
(-0.901681 0.100429 0)
(-0.940851 0.0998488 0)
(-0.979553 0.0989823 2.43769e-20)
(-1.01784 0.0979474 0)
(-1.05575 0.0968076 0)
(-1.09331 0.0956032 -2.28572e-20)
(-1.13053 0.0943659 0)
(-1.16746 0.0931177 2.18015e-20)
(-1.20409 0.0918772 -4.31594e-20)
(-1.24045 0.0906532 0)
(-1.27655 0.0894536 0)
(-1.31241 0.0882806 -8.16099e-20)
(-1.34804 0.0871374 -8.03009e-20)
(-1.38345 0.0860216 -7.90518e-20)
(-1.41864 0.0849327 3.87538e-20)
(-1.45362 0.0838655 -3.85295e-20)
(-1.48839 0.0828179 -1.13589e-19)
(-1.52295 0.0817834 7.45514e-20)
(-1.5573 0.0807593 3.69345e-20)
(-1.59143 0.079739 0)
(-1.62534 0.0787199 -3.5958e-20)
(-1.65902 0.0776968 3.516e-20)
(-1.69246 0.0766676 0)
(-1.72565 0.0756272 0)
(-1.75857 0.0745736 0)
(-1.79121 0.0735029 -3.37378e-20)
(-1.82356 0.0724141 0)
(-1.8556 0.0713039 6.55215e-20)
(-1.88731 0.0701713 0)
(-1.91867 0.0690146 6.39356e-20)
(-1.94967 0.067834 0)
(-1.98028 0.0666278 -6.23892e-20)
(-2.01049 0.0653959 0)
(-2.04027 0.0641376 6.08704e-20)
(-2.0696 0.0628531 -2.99236e-20)
(-2.09848 0.0615434 0)
(-2.12686 0.0602092 -5.86224e-20)
(-2.15474 0.0588516 -2.90653e-20)
(-2.18209 0.0574705 -2.86896e-20)
(-2.20889 0.0560663 0)
(-2.23511 0.0546374 -2.76993e-20)
(-2.26073 0.0531841 -2.75559e-20)
(-2.28574 0.0517049 0)
(-2.3101 0.0502013 2.67903e-20)
(-2.3338 0.0486717 -5.2597e-20)
(-2.3568 0.0471194 0)
(-2.37908 0.0455431 -2.56206e-20)
(-2.40062 0.0439456 0)
(-2.42138 0.0423231 7.42853e-20)
(-2.44133 0.0406788 0)
(-2.46043 0.0390076 -7.18613e-20)
(-2.47866 0.0373102 -2.36024e-20)
(-2.49597 0.0355768 2.30134e-20)
(-2.51232 0.0338074 4.51927e-20)
(-2.52766 0.0319907 -4.43489e-20)
(-2.54194 0.0301247 0)
(-2.55509 0.0281919 0)
(-2.56704 0.0261841 0)
(-2.57774 0.0240816 1.23126e-19)
(-2.58714 0.0218639 4.02037e-20)
(-2.59519 0.0195166 -3.92635e-20)
(-2.60184 0.0170306 0)
(-2.60704 0.0144065 -3.71799e-20)
(-2.61079 0.0116439 3.63681e-20)
(-2.61309 0.00875968 3.53777e-20)
(-2.61398 0.00578811 0)
(-2.6135 0.00280166 0)
(-2.61141 -0.000180535 0)
(-2.60735 -0.00320752 3.11354e-20)
(-2.60116 -0.00633161 0)
(-2.59272 -0.0095741 -5.76126e-20)
(-2.58189 -0.0129449 -8.28858e-20)
(-2.56852 -0.016447 5.28004e-20)
(-2.55248 -0.0200754 0)
(-2.53361 -0.023831 2.38544e-20)
(-2.51177 -0.027706 0)
(-2.48681 -0.0317041 4.20986e-20)
(-2.45859 -0.0358162 -1.9655e-20)
(-2.42696 -0.0400447 -1.81234e-20)
(-2.39178 -0.0443753 0)
(-2.35292 -0.0488056 -4.36956e-20)
(-2.31025 -0.0533151 2.55779e-20)
(-2.26366 -0.057895 1.05666e-20)
(-2.21305 -0.062518 0)
(-2.15833 -0.0671691 6.16771e-21)
(-2.09944 -0.0718186 1.20859e-20)
(-2.03633 -0.0764472 0)
(-1.969 -0.0810219 -2.13228e-21)
(-1.89746 -0.085517 -7.9183e-21)
(-1.82176 -0.0898923 -1.40962e-20)
(-1.74198 -0.094138 0)
(-1.65827 -0.0981825 0)
(-1.57077 -0.101951 0)
(-1.47968 -0.105436 2.04857e-20)
(-1.38528 -0.10864 2.6806e-20)
(-1.28786 -0.111514 0)
(-1.18774 -0.114006 6.93222e-20)
(-1.08528 -0.116097 7.89191e-20)
(-0.980877 -0.117762 0)
(-0.874928 -0.118993 1.02183e-19)
(-0.767857 -0.119781 2.19944e-19)
(-0.660087 -0.120137 -1.241e-19)
(-0.55204 -0.120067 -1.29132e-19)
(-0.444124 -0.119605 0)
(-0.336735 -0.118766 0)
(-0.230232 -0.117594 0)
(-0.125022 -0.116125 -1.83223e-19)
(-0.020962 -0.114544 1.85838e-19)
(0.0815411 -0.112918 3.88991e-19)
(0.181521 -0.110963 -2.02187e-19)
(0.278146 -0.107949 2.01068e-19)
(0.371094 -0.103757 2.11167e-19)
(0.460645 -0.0989996 0)
(0.546972 -0.0940318 0)
(0.629951 -0.089009 -2.18481e-19)
(0.709467 -0.0840134 0)
(0.785445 -0.0791007 0)
(0.857844 -0.0743029 4.61798e-19)
(0.926659 -0.0696475 0)
(0.991909 -0.0651499 2.34689e-19)
(1.05364 -0.0608254 -2.40522e-19)
(1.11191 -0.0566812 0)
(1.16682 -0.0527265 2.41813e-19)
(1.21845 -0.0489634 0)
(1.26691 -0.0453949 0)
(1.31234 -0.0420207 -2.49642e-19)
(1.35485 -0.0388416 4.99973e-19)
(1.39459 -0.0358564 -2.5228e-19)
(1.4317 -0.0330641 0)
(1.46633 -0.030462 0)
(1.49863 -0.0280477 2.53835e-19)
(1.52878 -0.0258186 0)
(1.55693 -0.0237718 2.5557e-19)
(1.58324 -0.0219046 0)
(1.60789 -0.0202118 0)
(1.63105 -0.0186879 0)
(1.65288 -0.0173246 2.58596e-19)
(1.67354 -0.0161116 0)
(1.69319 -0.0150326 -2.58944e-19)
(1.71194 -0.0140657 0)
(1.7299 -0.0131762 0)
(1.74713 -0.0123112 5.17438e-19)
(1.76358 -0.0113812 -5.17382e-19)
(1.77911 -0.0102172 0)
(1.7932 -0.00850294 0)
(1.80542 -0.00536866 0)
(1.81334 0.000711598 1.56255e-18)
(1.82096 0.014224 0)
(1.80838 0.0417893 -1.06858e-18)
(-0.00383074 -0.0531171 -1.17513e-21)
(-0.00914038 -0.0227839 4.76624e-19)
(-0.0190172 0.00484789 0)
(-0.0315505 0.028896 -1.92424e-19)
(-0.0459331 0.0495503 0)
(-0.0619517 0.0669967 0)
(-0.0797203 0.0814257 -1.46418e-25)
(-0.0993779 0.093158 5.98915e-20)
(-0.12099 0.102652 5.67976e-20)
(-0.144555 0.110436 5.43687e-20)
(-0.170027 0.117038 0)
(-0.19733 0.122928 0)
(-0.226361 0.128479 -4.98839e-20)
(-0.256988 0.133935 -9.80659e-20)
(-0.289014 0.139374 9.66191e-20)
(-0.32223 0.144621 0)
(-0.356645 0.149247 9.32308e-20)
(-0.392396 0.152787 -4.53873e-20)
(-0.429498 0.15567 0)
(-0.46752 0.158541 8.48763e-20)
(-0.505793 0.161606 4.11487e-20)
(-0.54403 0.164991 -7.96136e-20)
(-0.581677 0.168505 -3.89186e-20)
(-0.618565 0.171468 0)
(-0.65466 0.173383 7.47569e-20)
(-0.690094 0.174445 7.37821e-20)
(-0.725159 0.173276 0)
(-0.760573 0.170466 7.09705e-20)
(-0.796571 0.167658 0)
(-0.832602 0.165255 6.74175e-20)
(-0.86836 0.163379 3.30351e-20)
(-0.903454 0.161431 0)
(-0.93804 0.159378 0)
(-0.972236 0.157249 0)
(-1.00611 0.155079 0)
(-1.0397 0.152893 0)
(-1.07303 0.150711 0)
(-1.10613 0.148549 5.75425e-20)
(-1.13901 0.146421 -8.4984e-20)
(-1.1717 0.144336 0)
(-1.2042 0.142301 0)
(-1.23652 0.140319 0)
(-1.26868 0.138388 1.85139e-22)
(-1.30067 0.136507 5.26862e-20)
(-1.33251 0.134669 1.03754e-19)
(-1.36418 0.13287 -1.02376e-19)
(-1.3957 0.131102 -5.04294e-20)
(-1.42706 0.129359 4.99762e-20)
(-1.45825 0.127634 -1.89287e-22)
(-1.48928 0.125919 4.8561e-20)
(-1.52013 0.124207 0)
(-1.55079 0.122493 4.74007e-20)
(-1.58126 0.120769 -1.87428e-22)
(-1.61153 0.119032 0)
(-1.64158 0.117275 0)
(-1.6714 0.115494 -4.52284e-20)
(-1.70097 0.113686 0)
(-1.73027 0.111848 0)
(-1.7593 0.109976 4.35111e-20)
(-1.78803 0.108068 8.63766e-20)
(-1.81645 0.106124 -4.28652e-20)
(-1.84453 0.104142 0)
(-1.87225 0.102121 4.18751e-20)
(-1.89961 0.100061 0)
(-1.92656 0.0979607 4.05649e-20)
(-1.9531 0.0958213 4.04005e-20)
(-1.97921 0.0936438 -7.95032e-20)
(-2.00486 0.0914286 -3.91079e-20)
(-2.03003 0.0891773 0)
(-2.0547 0.0868902 7.65561e-20)
(-2.07885 0.0845681 0)
(-2.10245 0.0822102 1.11991e-19)
(-2.12548 0.0798169 7.35604e-20)
(-2.14793 0.0773867 7.25461e-20)
(-2.16976 0.0749197 -7.15222e-20)
(-2.19095 0.0724148 1.05858e-19)
(-2.21148 0.0698726 0)
(-2.23133 0.0672912 0)
(-2.25046 0.06467 -6.73162e-20)
(-2.26884 0.0620051 -9.94608e-20)
(-2.28646 0.0592954 0)
(-2.30327 0.0565357 3.21179e-20)
(-2.31924 0.0537227 0)
(-2.33433 0.0508484 -9.27521e-20)
(-2.34852 0.0479089 -1.90393e-22)
(-2.36176 0.044895 1.85523e-22)
(-2.374 0.0418009 5.82667e-20)
(-2.38519 0.0386148 0)
(-2.39528 0.0353279 -5.58474e-20)
(-2.40421 0.0319258 -1.54406e-22)
(-2.41196 0.0283948 0)
(-2.41848 0.0247262 0)
(-2.42373 0.020921 0)
(-2.42764 0.0169835 4.95868e-20)
(-2.43017 0.0129209 0)
(-2.43123 0.00873674 0)
(-2.43075 0.00443003 0)
(-2.42861 -2.65713e-05 0)
(-2.42466 -0.00466317 0)
(-2.41875 -0.00948828 4.09468e-20)
(-2.41077 -0.0145088 0)
(-2.40057 -0.0197308 3.78271e-20)
(-2.38804 -0.0251606 3.61925e-20)
(-2.37303 -0.0307965 -3.45122e-20)
(-2.3554 -0.0366373 0)
(-2.335 -0.0426762 -3.09937e-20)
(-2.31169 -0.0489104 0)
(-2.28533 -0.055333 -2.7222e-20)
(-2.25576 -0.0619388 2.52225e-20)
(-2.22284 -0.0687162 6.98307e-20)
(-2.18644 -0.0756524 0)
(-2.14643 -0.0827277 5.65739e-20)
(-2.10268 -0.0899192 1.69387e-20)
(-2.05507 -0.0971974 0)
(-2.00352 -0.104528 2.29826e-20)
(-1.94793 -0.111872 1.74467e-20)
(-1.88824 -0.119186 -1.68028e-20)
(-1.82444 -0.126423 0)
(-1.7565 -0.133526 1.31808e-21)
(-1.68446 -0.14044 4.86894e-21)
(-1.60839 -0.147101 2.40428e-20)
(-1.52837 -0.153474 0)
(-1.44457 -0.159478 0)
(-1.35714 -0.165009 0)
(-1.26632 -0.170015 2.31358e-20)
(-1.17239 -0.174474 0)
(-1.07567 -0.178328 0)
(-0.97649 -0.181515 -4.05176e-20)
(-0.875233 -0.183996 -4.57914e-20)
(-0.772295 -0.185747 0)
(-0.668092 -0.186754 0)
(-0.563047 -0.18702 -1.24705e-19)
(-0.457585 -0.18656 0)
(-0.352125 -0.185402 1.47603e-19)
(-0.247068 -0.183587 1.55325e-19)
(-0.142808 -0.181168 0)
(-0.0395885 -0.178262 0)
(0.0622061 -0.174939 -1.85525e-19)
(0.16201 -0.171111 -3.7806e-21)
(0.259358 -0.166714 -3.68909e-21)
(0.353903 -0.161803 0)
(0.445327 -0.156397 -4.30665e-19)
(0.533484 -0.15044 0)
(0.618404 -0.144014 0)
(0.700079 -0.137311 0)
(0.77843 -0.130474 2.40876e-19)
(0.853383 -0.123601 0)
(0.924892 -0.116769 -4.97076e-19)
(0.992937 -0.110033 -2.55748e-19)
(1.05753 -0.103439 0)
(1.1187 -0.0970211 -2.64249e-19)
(1.1765 -0.0908085 0)
(1.23102 -0.0848217 0)
(1.28233 -0.0790796 -8.21772e-19)
(1.33055 -0.0735933 5.53218e-19)
(1.37578 -0.0683723 0)
(1.41816 -0.0634226 5.64933e-19)
(1.45782 -0.0587491 -2.86341e-19)
(1.4949 -0.0543537 0)
(1.52955 -0.0502382 0)
(1.56192 -0.0464023 0)
(1.59216 -0.0428449 -8.8165e-19)
(1.62045 -0.0395645 0)
(1.64695 -0.0365582 -2.97531e-19)
(1.67182 -0.033823 0)
(1.69523 -0.0313519 0)
(1.71736 -0.029137 0)
(1.73836 -0.0271664 0)
(1.7584 -0.0254243 0)
(1.77761 -0.0238859 0)
(1.79614 -0.0225175 -6.06537e-19)
(1.81408 -0.0212664 0)
(1.83148 -0.0200529 -3.04363e-19)
(1.84834 -0.0187444 9.134e-19)
(1.86455 -0.0171079 0)
(1.87975 -0.0147163 0)
(1.89372 -0.0106794 -6.1177e-19)
(1.90484 -0.00334568 -6.1512e-19)
(1.91643 0.0111229 6.18211e-19)
(1.91978 0.0405122 6.29685e-19)
(-0.011627 -0.0328252 -1.72358e-18)
(-0.0234548 0.00511988 -5.72021e-19)
(-0.0383327 0.0358496 -2.09561e-19)
(-0.0556664 0.0621388 -7.55646e-20)
(-0.0741087 0.0849647 0)
(-0.0933715 0.104812 1.09525e-19)
(-0.113654 0.121956 -5.00946e-20)
(-0.135181 0.136667 0)
(-0.15811 0.149277 -4.45066e-20)
(-0.182523 0.160182 0)
(-0.208439 0.169789 8.25349e-20)
(-0.235807 0.178469 0)
(-0.264513 0.186508 3.90469e-20)
(-0.294383 0.194059 7.63637e-20)
(-0.325198 0.201108 -7.47525e-20)
(-0.356746 0.207482 0)
(-0.388897 0.212912 -7.14144e-20)
(-0.421654 0.217212 0)
(-0.454993 0.220565 0)
(-0.48869 0.223351 -6.55045e-20)
(-0.522436 0.225831 0)
(-0.555935 0.228092 1.22932e-22)
(-0.588966 0.23007 0)
(-0.62137 0.231484 0)
(-0.653147 0.232022 -3.34185e-24)
(-0.684419 0.23157 -5.55921e-20)
(-0.715415 0.229919 -5.44252e-20)
(-0.746458 0.22732 -5.32493e-20)
(-0.777653 0.224296 0)
(-0.808894 0.221205 -1.01967e-19)
(-0.840014 0.21821 0)
(-0.870895 0.21522 -4.89346e-20)
(-0.901538 0.212214 0)
(-0.931966 0.209201 0)
(-0.962202 0.206203 4.62912e-20)
(-0.992266 0.203236 0)
(-1.02217 0.200314 -4.47497e-20)
(-1.05192 0.197448 -6.58621e-23)
(-1.08154 0.194646 8.6789e-20)
(-1.11104 0.191914 -8.54319e-20)
(-1.1404 0.189251 0)
(-1.16966 0.186657 0)
(-1.19879 0.184127 -4.08746e-20)
(-1.22782 0.181656 0)
(-1.25672 0.179236 -3.99742e-20)
(-1.28552 0.176859 3.94748e-20)
(-1.31419 0.174516 3.8992e-20)
(-1.34274 0.172198 0)
(-1.37116 0.169896 -3.80697e-20)
(-1.39944 0.1676 -3.76273e-20)
(-1.42757 0.165301 7.42198e-20)
(-1.45555 0.162993 -3.67738e-20)
(-1.48337 0.160666 -3.63603e-20)
(-1.511 0.158316 0)
(-1.53844 0.155934 0)
(-1.56567 0.153516 3.51612e-20)
(-1.59268 0.151058 0)
(-1.61944 0.148555 0)
(-1.64595 0.146004 -6.80125e-20)
(-1.67218 0.143403 -6.72552e-20)
(-1.69812 0.140749 0)
(-1.72374 0.138042 0)
(-1.74903 0.13528 0)