# vtk DataFile Version 2.0
track0
ASCII
DATASET POLYDATA
POINTS 12039 float
-0.0205 0.001 1e-05
-0.02052 0.000999985 1e-05
-0.02054 0.000999974 1e-05
-0.02056 0.000999965 1e-05
-0.02058 0.000999959 1e-05
-0.0206 0.000999956 1e-05
-0.0205 0.00367778 1e-05
-0.02052 0.00367778 1e-05
-0.02054 0.00367777 1e-05
-0.02056 0.00367777 1e-05
-0.02058 0.00367777 1e-05
-0.0206 0.00367777 1e-05
-0.0205 0.00635556 1e-05
-0.02052 0.00635555 1e-05
-0.02054 0.00635555 1e-05
-0.02056 0.00635555 1e-05
-0.02058 0.00635555 1e-05
-0.0206 0.00635555 1e-05
-0.0205 0.00903333 1e-05
-0.02052 0.00903333 1e-05
-0.02054 0.00903333 1e-05
-0.02056 0.00903333 1e-05
-0.02058 0.00903333 1e-05
-0.0206 0.00903333 1e-05
-0.0205 0.0117111 1e-05
-0.02052 0.0117111 1e-05
-0.02054 0.0117111 1e-05
-0.02056 0.0117111 1e-05
-0.02058 0.0117111 1e-05
-0.0206 0.0117111 1e-05
-0.0205 0.0143889 1e-05
-0.02052 0.0143889 1e-05
-0.02054 0.0143889 1e-05
-0.02056 0.0143889 1e-05
-0.02058 0.0143889 1e-05
-0.0206 0.0143889 1e-05
-0.0205 0.0170667 1e-05
-0.02052 0.0170667 1e-05
-0.02054 0.0170667 1e-05
-0.02056 0.0170667 1e-05
-0.02058 0.0170667 1e-05
-0.0206 0.0170667 1e-05
-0.0205 0.0197444 1e-05
-0.02052 0.0197444 1e-05
-0.02054 0.0197444 1e-05
-0.02056 0.0197444 1e-05
-0.02058 0.0197444 1e-05
-0.0206 0.0197444 1e-05
-0.0205 0.0224222 1e-05
-0.02052 0.0224222 1e-05
-0.02054 0.0224222 1e-05
-0.02056 0.0224222 1e-05
-0.02058 0.0224222 1e-05
-0.0206 0.0224222 1e-05
-0.0205 0.0251 1e-05
-0.02052 0.0250998 1e-05
-0.02054 0.0250997 1e-05
-0.02056 0.0250995 1e-05
-0.02058 0.0250995 1e-05
-0.0206 0.0250994 1e-05
-0.0205 0.001 1e-05
-0.0202034 0.00100022 1e-05
-0.0199069 0.00100067 1e-05
-0.0196103 0.00100133 1e-05
-0.0193137 0.00100219 1e-05
-0.0190172 0.00100326 1e-05
-0.0187132 0.00100467 1e-05
-0.0184093 0.00100589 1e-05
-0.0181054 0.00100711 1e-05
-0.0178015 0.00100832 1e-05
-0.0174976 0.00100954 1e-05
-0.0172058 0.00101083 1e-05
-0.016914 0.00101193 1e-05
-0.0166222 0.00101303 1e-05
-0.0163305 0.00101413 1e-05
-0.0160387 0.00101523 1e-05
-0.0157586 0.00101637 1e-05
-0.0154784 0.00101745 1e-05
-0.0151983 0.00101856 1e-05
-0.0149182 0.00101972 1e-05
-0.0146381 0.0010209 1e-05
-0.0143746 0.00102209 1e-05
-0.0141111 0.00102327 1e-05
-0.0138476 0.00102449 1e-05
-0.0135841 0.00102574 1e-05
-0.0133616 0.00102682 1e-05
-0.0133479 0.00102688 1e-05
-0.0133343 0.00102695 1e-05
-0.0133207 0.00102702 1e-05
-0.0133071 0.00102709 1e-05
-0.0132934 0.00102716 1e-05
-0.0130353 0.00102844 1e-05
-0.0127771 0.00102975 1e-05
-0.0125189 0.00103106 1e-05
-0.0122607 0.0010324 1e-05
-0.0120025 0.00103375 1e-05
-0.0117547 0.00103506 1e-05
-0.0115068 0.00103637 1e-05
-0.0112589 0.00103769 1e-05
-0.0110111 0.00103902 1e-05
-0.0107632 0.00104035 1e-05
-0.0105252 0.00104162 1e-05
-0.0102873 0.0010429 1e-05
-0.0100493 0.00104418 1e-05
-0.00981133 0.00104546 1e-05
-0.00957337 0.00104674 1e-05
-0.00934491 0.00104796 1e-05
-0.00911645 0.00104918 1e-05
-0.00888799 0.0010504 1e-05
-0.00865954 0.00105162 1e-05
-0.00843108 0.00105283 1e-05
-0.00821175 0.00105399 1e-05
-0.00799242 0.00105514 1e-05
-0.00777309 0.0010563 1e-05
-0.00755376 0.00105745 1e-05
-0.00733443 0.00105859 1e-05
-0.00712387 0.00105968 1e-05
-0.0069133 0.00106077 1e-05
-0.00670273 0.00106186 1e-05
-0.00649216 0.00106294 1e-05
-0.0062816 0.00106402 1e-05
-0.00607944 0.00106504 1e-05
-0.00587729 0.00106607 1e-05
-0.00567514 0.00106709 1e-05
-0.00547298 0.00106811 1e-05
-0.00527083 0.00106912 1e-05
-0.00507675 0.00107009 1e-05
-0.00488267 0.00107105 1e-05
-0.0046886 0.00107201 1e-05
-0.00449452 0.00107297 1e-05
-0.00430044 0.00107392 1e-05
-0.00411412 0.00107483 1e-05
-0.0039278 0.00107574 1e-05
-0.00374147 0.00107664 1e-05
-0.00355515 0.00107755 1e-05
-0.00336883 0.00107844 1e-05
-0.00318995 0.0010793 1e-05
-0.00301107 0.00108015 1e-05
-0.00283219 0.00108101 1e-05
-0.00265331 0.00108186 1e-05
-0.00247443 0.00108271 1e-05
-0.0023027 0.00108352 1e-05
-0.00213097 0.00108433 1e-05
-0.00195924 0.00108514 1e-05
-0.0017875 0.00108595 1e-05
-0.00161577 0.00108676 1e-05
-0.0014509 0.00108753 1e-05
-0.00128603 0.0010883 1e-05
-0.00112116 0.00108907 1e-05
-0.000956289 0.00108985 1e-05
-0.000791418 0.00109062 1e-05
-0.000633135 0.00109136 1e-05
-0.000474851 0.00109211 1e-05
-0.000316567 0.00109286 1e-05
-0.000158284 0.0010936 1e-05
0 0.00109435 1e-05
0.000105677 0.00109484 1e-05
0.000211355 0.00109534 1e-05
0.000317032 0.00109583 1e-05
0.00042271 0.00109632 1e-05
0.000528387 0.00109681 1e-05
0.000634886 0.00109729 1e-05
0.000741385 0.00109778 1e-05
0.000847885 0.00109826 1e-05
0.000954384 0.00109873 1e-05
0.00106088 0.0010992 1e-05
0.00116821 0.00109968 1e-05
0.00127554 0.00110014 1e-05
0.00138286 0.0011006 1e-05
0.00149019 0.00110106 1e-05
0.00159752 0.00110151 1e-05
0.00170568 0.00110195 1e-05
0.00181384 0.00110239 1e-05
0.001922 0.00110282 1e-05
0.00203016 0.00110324 1e-05
0.00213833 0.00110365 1e-05
0.00224733 0.00110406 1e-05
0.00235633 0.00110446 1e-05
0.00246533 0.00110485 1e-05
0.00257434 0.00110523 1e-05
0.00268334 0.0011056 1e-05
0.00279319 0.00110597 1e-05
0.00290304 0.00110633 1e-05
0.00301289 0.00110668 1e-05
0.00312274 0.00110703 1e-05
0.00323259 0.00110736 1e-05
0.00334329 0.00110769 1e-05
0.003454 0.00110801 1e-05
0.0035647 0.00110833 1e-05
0.0036754 0.00110864 1e-05
0.00378611 0.00110894 1e-05
0.00389767 0.00110923 1e-05
0.00400924 0.00110952 1e-05
0.0041208 0.0011098 1e-05
0.00423237 0.00111007 1e-05
0.00434393 0.00111033 1e-05
0.00445636 0.00111059 1e-05
0.00456879 0.00111084 1e-05
0.00468123 0.00111108 1e-05
0.00479366 0.00111131 1e-05
0.00490609 0.00111154 1e-05
0.0050194 0.00111176 1e-05
0.0051327 0.00111197 1e-05
0.00524601 0.00111218 1e-05
0.00535932 0.00111237 1e-05
0.00547262 0.00111256 1e-05
0.00558681 0.00111274 1e-05
0.005701 0.00111292 1e-05
0.00581518 0.00111309 1e-05
0.00592937 0.00111325 1e-05
0.00604356 0.0011134 1e-05
0.00615863 0.00111354 1e-05
0.00627371 0.00111368 1e-05
0.00638878 0.00111381 1e-05
0.00650386 0.00111394 1e-05
0.00661893 0.00111405 1e-05
0.0067349 0.00111416 1e-05
0.00685087 0.00111426 1e-05
0.00696684 0.00111435 1e-05
0.00708281 0.00111444 1e-05
0.00719878 0.00111452 1e-05
0.00729519 0.00111458 1e-05
0.00739161 0.00111463 1e-05
0.00748802 0.00111468 1e-05
0.00758444 0.00111472 1e-05
0.00767642 0.00111475 1e-05
0.00769776 0.00111476 1e-05
0.0077191 0.00111477 1e-05
0.00774045 0.00111478 1e-05
0.00776179 0.00111478 1e-05
0.00778313 0.00111479 1e-05
0.00790091 0.00111482 1e-05
0.00801869 0.00111484 1e-05
0.00813647 0.00111486 1e-05
0.00825425 0.00111487 1e-05
0.00837203 0.00111487 1e-05
0.00849073 0.00111486 1e-05
0.00860942 0.00111484 1e-05
0.00872812 0.00111482 1e-05
0.00884682 0.00111479 1e-05
0.00896551 0.00111475 1e-05
0.00908513 0.00111469 1e-05
0.00920475 0.00111464 1e-05
0.00932437 0.00111457 1e-05
0.00944398 0.0011145 1e-05
0.0095636 0.00111442 1e-05
0.00968415 0.00111432 1e-05
0.0098047 0.00111422 1e-05
0.00992525 0.00111411 1e-05
0.0100458 0.001114 1e-05
0.0101663 0.00111387 1e-05
0.0102878 0.00111373 1e-05
0.0104093 0.00111359 1e-05
0.0105308 0.00111343 1e-05
0.0106523 0.00111328 1e-05
0.0107738 0.00111311 1e-05
0.0108962 0.00111292 1e-05
0.0110186 0.00111273 1e-05
0.0111411 0.00111254 1e-05
0.0112635 0.00111233 1e-05
0.0113859 0.00111212 1e-05
0.0115093 0.00111188 1e-05
0.0116327 0.00111165 1e-05
0.0117561 0.00111141 1e-05
0.0118795 0.00111116 1e-05
0.0120028 0.0011109 1e-05
0.0121272 0.00111062 1e-05
0.0122515 0.00111034 1e-05
0.0123759 0.00111005 1e-05
0.0125002 0.00110975 1e-05
0.0126245 0.00110945 1e-05
0.0127498 0.00110912 1e-05
0.0128752 0.00110879 1e-05
0.0130005 0.00110845 1e-05
0.0131258 0.00110811 1e-05
0.0132511 0.00110775 1e-05
0.0133774 0.00110737 1e-05
0.0135036 0.001107 1e-05
0.0136299 0.00110661 1e-05
0.0137562 0.00110621 1e-05
0.0138825 0.00110581 1e-05
0.0140098 0.00110538 1e-05
0.014137 0.00110495 1e-05
0.0142643 0.00110452 1e-05
0.0143915 0.00110407 1e-05
0.0145188 0.00110362 1e-05
0.0146471 0.00110314 1e-05
0.0147753 0.00110266 1e-05
0.0149036 0.00110217 1e-05
0.0150318 0.00110167 1e-05
0.0151601 0.00110116 1e-05
0.0152893 0.00110064 1e-05
0.0154186 0.00110011 1e-05
0.0155478 0.00109956 1e-05
0.0156771 0.00109901 1e-05
0.0158063 0.00109845 1e-05
0.0159366 0.00109788 1e-05
0.0160668 0.00109729 1e-05
0.0161971 0.0010967 1e-05
0.0163274 0.00109609 1e-05
0.0164576 0.00109548 1e-05
0.0165889 0.00109485 1e-05
0.0167201 0.00109422 1e-05
0.0168514 0.00109357 1e-05
0.0169827 0.00109291 1e-05
0.0171139 0.00109224 1e-05
0.0172462 0.00109157 1e-05
0.0173785 0.00109088 1e-05
0.0175108 0.00109017 1e-05
0.0176431 0.00108946 1e-05
0.0177754 0.00108874 1e-05
0.0179087 0.00108802 1e-05
0.018042 0.00108727 1e-05
0.0181753 0.00108651 1e-05
0.0183087 0.00108575 1e-05
0.018442 0.00108497 1e-05
0.0185763 0.0010842 1e-05
0.0187107 0.0010834 1e-05
0.018845 0.00108259 1e-05
0.0189794 0.00108176 1e-05
0.0191137 0.00108094 1e-05
0.0192491 0.00108011 1e-05
0.0193845 0.00107926 1e-05
0.0195199 0.00107839 1e-05
0.0196553 0.00107751 1e-05
0.0197907 0.00107663 1e-05
0.0199272 0.00107575 1e-05
0.0200636 0.00107485 1e-05
0.0202001 0.00107392 1e-05
0.0203365 0.00107299 1e-05
0.020473 0.00107206 1e-05
0.0206105 0.00107112 1e-05
0.020748 0.00107017 1e-05
0.0208855 0.00106919 1e-05
0.021023 0.0010682 1e-05
0.0211606 0.00106721 1e-05
0.0212991 0.00106623 1e-05
0.0214377 0.00106522 1e-05
0.0215763 0.00106418 1e-05
0.0217149 0.00106313 1e-05
0.0218535 0.0010621 1e-05
0.0219931 0.00106106 1e-05
0.0221328 0.00105999 1e-05
0.0222724 0.0010589 1e-05
0.0224121 0.0010578 1e-05
0.0225517 0.00105671 1e-05
0.0226925 0.00105562 1e-05
0.0228332 0.0010545 1e-05
0.022974 0.00105335 1e-05
0.0231147 0.00105219 1e-05
0.0232555 0.00105105 1e-05
0.0233973 0.0010499 1e-05
0.0235391 0.00104872 1e-05
0.023681 0.00104752 1e-05
0.0238228 0.00104631 1e-05
0.0239647 0.0010451 1e-05
0.0241076 0.0010439 1e-05
0.0242505 0.00104267 1e-05
0.0243935 0.00104141 1e-05
0.0245364 0.00104014 1e-05
0.0246794 0.00103888 1e-05
0.0248234 0.00103762 1e-05
0.0249675 0.00103633 1e-05
0.0251115 0.00103502 1e-05
0.0252556 0.00103369 1e-05
[...]
POINT_DATA 12039
 FIELD attributes 2
p 1 12039 float
-4.91335 -4.91004 -4.90673 -4.90342 -4.90012 -4.89681
-5.06642 -5.06639 -5.06637 -5.06635 -5.06633 -5.06631
-5.24033 -5.2402 -5.24008 -5.23996 -5.23983 -5.23973
-5.33347 -5.33341 -5.33336 -5.33331 -5.33325 -5.3332
-5.3784 -5.37829 -5.37817 -5.37806 -5.37795 -5.37784
-5.38483 -5.38467 -5.38451 -5.38435 -5.38419 -5.38403
-5.35784 -5.35777 -5.3577 -5.35763 -5.35756 -5.35749
-5.28826 -5.28822 -5.28818 -5.28814 -5.2881 -5.28806
-5.16703 -5.16704 -5.16705 -5.16705 -5.16706 -5.16707
-2.95453 -2.97386 -2.99305 -3.01212 -3.03105 -3.04984
-4.91335 -4.91268 -4.90911 -4.90547 -4.90174 -4.89348 -4.90739 -4.92242 -4.93745 -4.95248 -4.97695 -4.99873 -5.02868 -5.05863 -5.08858 -5.12133 -5.137 -5.1587 -5.18041 -5.20213 -5.22546 -5.24435 -5.26526 -5.28617 -5.30708 -5.32474 -5.32582 -5.3269 -5.32798 -5.32905 -5.33013 -5.35179 -5.37346 -5.39513 -5.41679 -5.43819 -5.45695 -5.47552 -5.4941 -5.51267 -5.53068 -5.5463 -5.56165 -5.577 -5.59234 -5.60714 -5.62091 -5.63443 -5.64796 -5.66148 -5.67456 -5.68726 -5.6997 -5.71214 -5.72458 -5.7366 -5.74838 -5.75986 -5.77134 -5.78282 -5.79387 -5.80481 -5.81547 -5.82613 -5.83679 -5.84709 -5.85738 -5.86739 -5.8774 -5.88741 -5.89709 -5.90685 -5.91639 -5.92594 -5.93548 -5.94481 -5.9542 -5.96329 -5.97237 -5.98146 -5.99033 -5.99947 -6.00872 -6.01797 -6.02721 -6.03667 -6.04636 -6.05573 -6.0651 -6.07448 -6.08378 -6.09379 -6.10491 -6.11603 -6.12714 -6.13874 -6.1495 -6.16143 -6.17336 -6.18529 -6.1968 -6.20727 -6.21737 -6.22747 -6.23757 -6.24668 -6.2545 -6.26315 -6.27181 -6.28046 -6.28973 -6.29812 -6.30683 -6.31554 -6.32425 -6.33303 -6.34137 -6.34866 -6.35595 -6.36324 -6.36961 -6.37654 -6.38214 -6.38775 -6.39335 -6.39785 -6.40363 -6.40834 -6.41306 -6.41777 -6.42151 -6.42645 -6.43049 -6.43453 -6.43856 -6.44179 -6.44576 -6.44899 -6.45221 -6.45544 -6.45807 -6.46107 -6.46351 -6.46596 -6.4684 -6.47048 -6.47278 -6.47473 -6.47667 -6.47862 -6.48037 -6.48234 -6.4841 -6.48585 -6.4876 -6.48926 -6.49105 -6.49271 -6.49437 -6.49603 -6.49765 -6.49901 -6.50031 -6.50161 -6.50291 -6.50415 -6.50444 -6.50473 -6.50501 -6.5053 -6.50561 -6.50712 -6.50866 -6.51019 -6.51173 -6.51344 -6.51479 -6.51633 -6.51788 -6.51942 -6.52137 -6.52252 -6.52412 -6.52572 -6.52732 -6.52964 -6.5306 -6.53232 -6.53404 -6.53575 -6.53855 -6.53932 -6.54117 -6.54301 -6.54486 -6.54812 -6.54868 -6.55063 -6.55257 -6.55451 -6.55822 -6.55858 -6.56064 -6.56269 -6.56474 -6.56889 -6.56913 -6.57131 -6.57349 -6.57568 -6.58024 -6.58039 -6.58271 -6.58503 -6.58735 -6.59227 -6.59236 -6.59482 -6.59727 -6.59972 -6.60494 -6.60504 -6.60762 -6.61021 -6.61292 -6.61827 -6.61863 -6.62114 -6.62387 -6.62697 -6.63225 -6.63296 -6.63539 -6.63825 -6.64171 -6.6469 -6.64796 -6.65034 -6.65334 -6.65712 -6.66221 -6.66362 -6.666 -6.66913 -6.67316 -6.67816 -6.67991 -6.68232 -6.68558 -6.68983 -6.69473 -6.6968 -6.6993 -6.70269 -6.7071 -6.71192 -6.7143 -6.71689 -6.72041 -6.72495 -6.7297 -6.73236 -6.73509 -6.73872 -6.74337 -6.74806 -6.75098 -6.7539 -6.75768 -6.76233 -6.76698 -6.77015 -6.77332 -6.77721 -6.78184 -6.78647 -6.78988 -6.79328 -6.79729 -6.8019 -6.80651 -6.81014 -6.81377 -6.81787 -6.82244 -6.82701 -6.83083 -6.83465 -6.83882 -6.84335 -6.84788 -6.85185 -6.85582 -6.86006 -6.86456 -6.86907 -6.87316 -6.87725 -6.88155 -6.88607 -6.89059 -6.89478 -6.89897 -6.90334 -6.90788 -6.91242 -6.91668 -6.92097 -6.92539 -6.92993 -6.93449 -6.9388 -6.94316 -6.94763 -6.95217 -6.95675 -6.96111 -6.96552 -6.97002 -6.97457 -6.97918 -6.98356 -6.98802 -6.99254 -6.9971 -7.00172 -7.00612 -7.01062 -7.01515 -7.0197 -7.02433 -7.02873 -7.03325 -7.03778 -7.04232 -7.04694 -7.05133 -7.05586 -7.06038 -7.0649 -7.0695 -7.07389 -7.07839 -7.08289 -7.08738 -7.09194 -7.09632 -7.10078 -7.10524 -7.1097 -7.1142 -7.11855 -7.12297 -7.12738 -7.13179 -7.13623 -7.14053 -7.14488 -7.14923 -7.15358 -7.15793 -7.16218 -7.16644 -7.17071 -7.17497 -7.17924 -7.17965 -7.18007 -7.18049 -7.1809 -7.18132 -7.18508 -7.18884 -7.1926 -7.19637 -7.20014 -7.20421 -7.20828 -7.21235 -7.21642 -7.2205 -7.22446 -7.2284 -7.23235 -7.2363 -7.24026 -7.24409 -7.2479 -7.25171 -7.25552 -7.25934 -7.26303 -7.26667 -7.27032 -7.27396 -7.2776 -7.28113 -7.28458 -7.28803 -7.29148 -7.29492 -7.29826 -7.30152 -7.30477 -7.30801 -7.31123 -7.31437 -7.31743 -7.32046 -7.32347 -7.32644 -7.32935 -7.3322 -7.33498 -7.33772 -7.34043 -7.34308 -7.3457 -7.3482 -7.35063 -7.35305 -7.35542 -7.3578 -7.36 -7.36209 -7.36419 -7.36625 -7.36832 -7.37021 -7.37196 -7.37371 -7.37544 -7.37718 -7.37873 -7.38011 -7.38148 -7.38286 -7.38423 -7.38543 -7.38641 -7.38738 -7.38837 -7.38936 -7.39017 -7.39072 -7.39127 -7.39184 -7.39239 -7.39277 -7.39291 -7.393 -7.39313 -7.39318 -7.39309 -7.39283 -7.39243 -7.39209 -7.39159 -7.391 -7.39032 -7.38942 -7.38856 -7.38749 -7.38638 -7.38525 -7.3838 -7.3824 -7.38072 -7.37905 -7.37738 -7.37545 -7.3734 -7.37114 -7.36888 -7.36663 -7.3642 -7.36146 -7.35859 -7.35571 -7.35284 -7.3499 -7.34775 -7.34554 -7.34333 -7.34112 -7.339 -7.33769 -7.33639 -7.33508 -7.33377 -7.33243 -7.32833 -7.32419 -7.32005 -7.31591 -7.31161 -7.30696 -7.30211 -7.29727 -7.29243 -7.28728 -7.28207 -7.27649 -7.27091 -7.26534 -7.25931 -7.25347 -7.24718 -7.24085 -7.23438 -7.22755 -7.22093 -7.21404 -7.20692 -7.1995 -7.19186 -7.18444 -7.17693 -7.169 -7.16057 -7.15209 -7.14385 -7.13562 -7.12682 -7.11747 -7.10813 -7.09903 -7.08994 -7.08029 -7.07005 -7.05982 -7.04985 -7.03988 -7.02934 -7.0182 -7.00706 -6.99618 -6.98517 -6.97366 -6.96178 -6.94971 -6.93791 -6.92573 -6.91327 -6.90068 -6.88765 -6.8749 -6.8615 -6.84807 -6.83465 -6.82075 -6.80681 -6.79238 -6.77796 -6.76354 -6.74891 -6.73648 -6.72382 -6.71117 -6.69852 -6.68658 -6.68369 -6.68079 -6.6779 -6.675 -6.67207 -6.65578 -6.63945 -6.62313 -6.60681 -6.5902 -6.57312 -6.55575 -6.53839 -6.52103 -6.50309 -6.48516 -6.46679 -6.44837 -6.42972 -6.41065 -6.39164 -6.37248 -6.35299 -6.33294 -6.31277 -6.29268 -6.2726 -6.25194 -6.23066 -6.20938 -6.18819 -6.16701 -6.14519 -6.12279 -6.10038 -6.07807 -6.05559 -6.03256 -6.00924 -5.98569 -5.96226 -5.93827 -5.91409 -5.88992 -5.86525 -5.84048 -5.81513 -5.78979 -5.76446 -5.73898 -5.72813 -5.71711 -5.70608 -5.69506 -5.68435 -5.66885 -5.65334 -5.63785 -5.62235 -5.60669 -5.57919 -5.55158 -5.52398 -5.49639 -5.46833 -5.43984 -5.41106 -5.38227 -5.35328 -5.32392 -5.29424 -5.26449 -5.2345 -5.20398 -5.17341 -5.14253 -5.11166 -5.08033 -5.04856 -5.01678 -4.98469 -4.95257 -4.91989 -4.88697 -4.85398 -4.82068 -4.78698 -4.75307 -4.71917 -4.68495 -4.65025 -4.61509 -4.57994 -4.5448 -4.50961 -4.50321 -4.49674 -4.49026 -4.48379 -4.47739 -4.44753 -4.41768 -4.38783 -4.35799 -4.32777 -4.29047 -4.25293 -4.2154 -4.17778 -4.13951 -4.10108 -4.06249 -4.02371 -3.98438 -3.94486 -3.90519 -3.86554 -3.82535 -3.7846 -3.74384 -3.70294 -3.66197 -3.62033 -3.57845 -3.53645 -3.49431 -3.45158 -3.40869 -3.36582 -3.32268 -3.29065 -3.25823 -3.22581 -3.1934 -3.16248 -3.15051 -3.13855 -3.12659 -3.11462 -3.1025 -3.05737 -3.01216 -2.96695 -2.92176 -2.87581 -2.82974 -2.78342 -2.73702 -2.69012 -2.64289 -2.59563 -2.54838 -2.50061 -2.45222 -2.40381 -2.35537 -2.30685 -2.25763 -2.20822 -2.15866 -2.10907 -2.05878 -2.00841 -1.95806 -1.90752 -1.88699 -1.86621 -1.84543 -1.82465 -1.8044 -1.77364 -1.74289 -1.71214 -1.6814 -1.65026 -1.598 -1.54552 -1.49305 -1.44038 -1.38708 -1.33383 -1.28056 -1.22697 -1.17267 -1.11834 -1.06405 -1.00977 -0.954811 -0.89956 -0.844236 -0.788938 -0.733102 -0.677115 -0.62114 -0.564985 -0.542015 -0.518804 -0.495595 -0.472389 -0.449762 -0.415994 -0.38223 -0.348471 -0.314717 -0.28058 -0.223064 -0.165372 -0.107694 -0.0497621 0.0086229 0.0669298 0.125223 0.183866 0.242983 0.302151 0.361247 0.420454 0.480105 0.539812 0.599693 0.653193 0.707132 0.761061 0.81498 0.86603 0.873006 0.879982 0.886957 0.893933 0.90097 0.961867 1.02278 1.08368 1.14459 1.20605 1.2674 1.32877 1.39024 1.45214 1.5141 1.57597 1.63784 1.70007 1.76235 1.82474 1.88405 1.94365 2.00325 2.06283 2.11916 2.12284 2.12651 2.13019 2.13387 2.13756 2.20051 2.26346 2.32639 2.38933 2.45261 2.51577 2.57892 2.6421 2.70547 2.76892 2.83226 2.89561 2.95907 3.02251 3.08604 3.1281 3.1702 3.21229 3.25438 3.29496 3.3167 3.33843 3.36016 3.38189 3.40367 3.46725 3.53079 3.59432 3.65785 3.72149 3.78497 3.84844 3.91185 3.97517 4.03858 4.10186 4.16504 4.22817 4.29129 4.35448 4.36122 4.36795 4.37467 4.38139 4.38808 4.44435 4.50061 4.55686 4.61308 4.66926 4.73197 4.79466 4.85716 4.91946 4.98186 5.04407 5.10614 5.16802 5.22988 5.29169 5.31312 5.33444 5.35574 5.37703 5.39803 5.43821 5.47839 5.51857 5.5587 5.5987 5.6597 5.72057 5.78133 5.8417 5.90214 5.96231 6.02237 6.08206 6.14172 6.20122 6.22713 6.25286 6.27853 6.30421 6.32955 6.36289 6.39624 6.42958 6.46285 6.49594 6.55431 6.61248 6.67055 6.72811 6.78568 6.84293 6.90005 6.95666 7.01323 7.06957 7.09376 7.11774 7.14164 7.16554 7.18929 7.22106 7.25284 7.28462 7.31627 7.34765 7.40257 7.45732 7.51183 7.56559 7.61938 7.67293 7.72618 7.77888 7.83159 7.88405 7.89649 7.9088 7.92103 7.93327 7.94551 7.98497 8.02444 8.06391 8.10316 8.14197 8.19271 8.24346 8.29355 8.34299 8.39241 8.44141 8.48978 8.53786 8.58593 8.63493 8.63493 8.63494 8.63495 8.63496 8.63496 8.68228 8.72959 8.77692 8.82394 8.87029 8.9164 8.96251 9.00793 9.05268 9.09737 9.13223 9.16658 9.20069 9.23481 9.27002 9.27933 9.28863 9.29794 9.30719 9.3163 9.35903 9.40152 9.44401 9.48599 9.52749 9.56873 9.60997 9.65042 9.69041 9.73022 9.75756 9.78443 9.81114 9.83785 9.86573 9.8776 9.88948 9.90135 9.91316 9.92476 9.96264 10.0002 10.0378 10.0748 10.1115 10.1478 10.1841 10.2197 10.2548 10.2897 10.3184 10.3465 10.3744 10.4024 10.4323 10.4379 10.4434 10.4489 10.4544 10.4598 10.4927 10.5254 10.5581 10.5906 10.6224 10.6539 10.6854 10.7163 10.7466 10.7768 10.8067 10.8362 10.8653 10.8945 10.9233 10.934 10.9444 10.9548 10.9652 10.9761 10.9934 11.0108 11.0281 11.0454 11.0624 11.0892 11.1157 11.1422 11.1683 11.1941 11.2194 11.2448 11.2697 11.294 11.3184 11.3423 11.3659 11.3892 11.4125 11.4355 11.4488 11.4618 11.4749 11.4879 11.5019 11.5108 11.5196 11.5284 11.5373 11.546 11.5671 11.588 11.6089 11.6297 11.6502 11.6702 11.69 11.7097 11.7289 11.7482 11.767 11.7857 11.8042 11.8222 11.8403 11.8579 11.8754 11.8928 11.9102 11.9272 11.9437 11.9598 11.9759 11.9919 12.0079 12.0106 12.0135 12.0163 12.0192 12.0222 12.0352 12.0481 12.0611 12.074 12.0875 12.1023 12.1141 12.1259 12.1375 12.1448 12.1514 12.1628 12.176 12.1934 12.2156 12.2373 12.259 12.2669 12.2614 12.2559 12.249 12.2433 12.2406 12.2385 12.2383 12.2372 12.2351 12.2331 12.231 12.2286 12.2282 12.2278 12.2275 12.2271 12.2266 12.2216 12.2162 12.2107 12.2051 12.1981 12.1894 12.1804 12.1708 12.1601 12.1493 12.1368 12.1243 12.1105 12.0954 12.0802 12.0633 12.0454 12.0268 12.0081 11.9883 11.9714 11.9534 11.9354 11.9173 11.8963 11.8913 11.8863 11.8813 11.8763 11.8711 11.8429 11.8143 11.7857 11.757 11.7267 11.6936 11.6592 11.6242 11.5879 11.5507 11.5107 11.4707 11.4283 11.3839 11.3395 11.292 11.2443 11.1939 11.1416 11.0887 11.0324 10.9741 10.9148 10.8555 10.7939 10.7272 10.6583 10.5895 10.5206 10.4514 10.4449 10.4381 10.4313 10.4245 10.4176 10.3459 10.274 10.2022 10.1302 10.0564 9.96837 9.87793 9.78743 9.69653 9.60235 9.50291 9.40067 9.29646 9.18899 9.07962 8.96453 8.84938 8.73003 8.60718 8.48424 8.35515 8.22602 8.08752 7.93964 7.79167 7.63668 7.48166 7.32678 7.17149 7.016 6.85332 6.67258 6.47932 6.28197 6.06275 5.83531 5.63991 5.4445 5.2491 5.07086 4.83041 4.51893 4.20799 3.89757 3.57827 3.52943 3.49744 3.46552 3.43365 3.40497 3.20381 3.00189 2.79927 2.59597 2.48724 2.28624 1.8691 1.45878 0.987479 0