# vtk DataFile Version 2.0
track0
ASCII
DATASET POLYDATA
POINTS 12039 float
-0.0205 0.001 1e-05
-0.02052 0.000999985 1e-05
-0.02054 0.000999974 1e-05
-0.02056 0.000999965 1e-05
-0.02058 0.000999959 1e-05
-0.0206 0.000999956 1e-05
-0.0205 0.00367778 1e-05
-0.02052 0.00367778 1e-05
-0.02054 0.00367777 1e-05
-0.02056 0.00367777 1e-05
-0.02058 0.00367777 1e-05
-0.0206 0.00367777 1e-05
-0.0205 0.00635556 1e-05
-0.02052 0.00635555 1e-05
-0.02054 0.00635555 1e-05
-0.02056 0.00635555 1e-05
-0.02058 0.00635555 1e-05
-0.0206 0.00635555 1e-05
-0.0205 0.00903333 1e-05
-0.02052 0.00903333 1e-05
-0.02054 0.00903333 1e-05
-0.02056 0.00903333 1e-05
-0.02058 0.00903333 1e-05
-0.0206 0.00903333 1e-05
-0.0205 0.0117111 1e-05
-0.02052 0.0117111 1e-05
-0.02054 0.0117111 1e-05
-0.02056 0.0117111 1e-05
-0.02058 0.0117111 1e-05
-0.0206 0.0117111 1e-05
-0.0205 0.0143889 1e-05
-0.02052 0.0143889 1e-05
-0.02054 0.0143889 1e-05
-0.02056 0.0143889 1e-05
-0.02058 0.0143889 1e-05
-0.0206 0.0143889 1e-05
-0.0205 0.0170667 1e-05
-0.02052 0.0170667 1e-05
-0.02054 0.0170667 1e-05
-0.02056 0.0170667 1e-05
-0.02058 0.0170667 1e-05
-0.0206 0.0170667 1e-05
-0.0205 0.0197444 1e-05
-0.02052 0.0197444 1e-05
-0.02054 0.0197444 1e-05
-0.02056 0.0197444 1e-05
-0.02058 0.0197444 1e-05
-0.0206 0.0197444 1e-05
-0.0205 0.0224222 1e-05
-0.02052 0.0224222 1e-05
-0.02054 0.0224222 1e-05
-0.02056 0.0224222 1e-05
-0.02058 0.0224222 1e-05
-0.0206 0.0224222 1e-05
-0.0205 0.0251 1e-05
-0.02052 0.0250998 1e-05
-0.02054 0.0250997 1e-05
-0.02056 0.0250995 1e-05
-0.02058 0.0250995 1e-05
-0.0206 0.0250994 1e-05
-0.0205 0.001 1e-05
-0.0202034 0.00100022 1e-05
-0.0199069 0.00100067 1e-05
-0.0196103 0.00100133 1e-05
-0.0193137 0.00100219 1e-05
-0.0190172 0.00100326 1e-05
-0.0187132 0.00100467 1e-05
-0.0184093 0.00100589 1e-05
-0.0181054 0.00100711 1e-05
-0.0178015 0.00100832 1e-05
-0.0174976 0.00100954 1e-05
-0.0172058 0.00101083 1e-05
-0.016914 0.00101193 1e-05
-0.0166222 0.00101303 1e-05
-0.0163305 0.00101413 1e-05
-0.0160387 0.00101523 1e-05
-0.0157586 0.00101637 1e-05
-0.0154784 0.00101745 1e-05
-0.0151983 0.00101856 1e-05
-0.0149182 0.00101972 1e-05
-0.0146381 0.0010209 1e-05
-0.0143746 0.00102209 1e-05
-0.0141111 0.00102327 1e-05
-0.0138476 0.00102449 1e-05
-0.0135841 0.00102574 1e-05
-0.0133616 0.00102682 1e-05
-0.0133479 0.00102688 1e-05
-0.0133343 0.00102695 1e-05
-0.0133207 0.00102702 1e-05
-0.0133071 0.00102709 1e-05
-0.0132934 0.00102716 1e-05
-0.0130353 0.00102844 1e-05
-0.0127771 0.00102975 1e-05
-0.0125189 0.00103106 1e-05
-0.0122607 0.0010324 1e-05
-0.0120025 0.00103375 1e-05
-0.0117547 0.00103506 1e-05
-0.0115068 0.00103637 1e-05
-0.0112589 0.00103769 1e-05
-0.0110111 0.00103902 1e-05
-0.0107632 0.00104035 1e-05
-0.0105252 0.00104162 1e-05
-0.0102873 0.0010429 1e-05
-0.0100493 0.00104418 1e-05
-0.00981133 0.00104546 1e-05
-0.00957337 0.00104674 1e-05
-0.00934491 0.00104796 1e-05
-0.00911645 0.00104918 1e-05
-0.00888799 0.0010504 1e-05
-0.00865954 0.00105162 1e-05
-0.00843108 0.00105283 1e-05
-0.00821175 0.00105399 1e-05
-0.00799242 0.00105514 1e-05
-0.00777309 0.0010563 1e-05
-0.00755376 0.00105745 1e-05
-0.00733443 0.00105859 1e-05
-0.00712387 0.00105968 1e-05
-0.0069133 0.00106077 1e-05
-0.00670273 0.00106186 1e-05
-0.00649216 0.00106294 1e-05
-0.0062816 0.00106402 1e-05
-0.00607944 0.00106504 1e-05
-0.00587729 0.00106607 1e-05
-0.00567514 0.00106709 1e-05
-0.00547298 0.00106811 1e-05
-0.00527083 0.00106912 1e-05
-0.00507675 0.00107009 1e-05
-0.00488267 0.00107105 1e-05
-0.0046886 0.00107201 1e-05
-0.00449452 0.00107297 1e-05
-0.00430044 0.00107392 1e-05
-0.00411412 0.00107483 1e-05
-0.0039278 0.00107574 1e-05
-0.00374147 0.00107664 1e-05
-0.00355515 0.00107755 1e-05
-0.00336883 0.00107844 1e-05
-0.00318995 0.0010793 1e-05
-0.00301107 0.00108015 1e-05
-0.00283219 0.00108101 1e-05
-0.00265331 0.00108186 1e-05
-0.00247443 0.00108271 1e-05
-0.0023027 0.00108352 1e-05
-0.00213097 0.00108433 1e-05
-0.00195924 0.00108514 1e-05
-0.0017875 0.00108595 1e-05
-0.00161577 0.00108676 1e-05
-0.0014509 0.00108753 1e-05
-0.00128603 0.0010883 1e-05
-0.00112116 0.00108907 1e-05
-0.000956289 0.00108985 1e-05
-0.000791418 0.00109062 1e-05
-0.000633135 0.00109136 1e-05
-0.000474851 0.00109211 1e-05
-0.000316567 0.00109286 1e-05
-0.000158284 0.0010936 1e-05
0 0.00109435 1e-05
0.000105677 0.00109484 1e-05
0.000211355 0.00109534 1e-05
0.000317032 0.00109583 1e-05
0.00042271 0.00109632 1e-05
0.000528387 0.00109681 1e-05
0.000634886 0.00109729 1e-05
0.000741385 0.00109778 1e-05
0.000847885 0.00109826 1e-05
0.000954384 0.00109873 1e-05
0.00106088 0.0010992 1e-05
0.00116821 0.00109968 1e-05
0.00127554 0.00110014 1e-05
0.00138286 0.0011006 1e-05
0.00149019 0.00110106 1e-05
0.00159752 0.00110151 1e-05
0.00170568 0.00110195 1e-05
0.00181384 0.00110239 1e-05
0.001922 0.00110282 1e-05
0.00203016 0.00110324 1e-05
0.00213833 0.00110365 1e-05
0.00224733 0.00110406 1e-05
0.00235633 0.00110446 1e-05
0.00246533 0.00110485 1e-05
0.00257434 0.00110523 1e-05
0.00268334 0.0011056 1e-05
0.00279319 0.00110597 1e-05
0.00290304 0.00110633 1e-05
0.00301289 0.00110668 1e-05
0.00312274 0.00110703 1e-05
0.00323259 0.00110736 1e-05
0.00334329 0.00110769 1e-05
0.003454 0.00110801 1e-05
0.0035647 0.00110833 1e-05
0.0036754 0.00110864 1e-05
0.00378611 0.00110894 1e-05
0.00389767 0.00110923 1e-05
0.00400924 0.00110952 1e-05
0.0041208 0.0011098 1e-05
0.00423237 0.00111007 1e-05
0.00434393 0.00111033 1e-05
0.00445636 0.00111059 1e-05
0.00456879 0.00111084 1e-05
0.00468123 0.00111108 1e-05
0.00479366 0.00111131 1e-05
0.00490609 0.00111154 1e-05
0.0050194 0.00111176 1e-05
0.0051327 0.00111197 1e-05
0.00524601 0.00111218 1e-05
0.00535932 0.00111237 1e-05
0.00547262 0.00111256 1e-05
0.00558681 0.00111274 1e-05
0.005701 0.00111292 1e-05
0.00581518 0.00111309 1e-05
0.00592937 0.00111325 1e-05
0.00604356 0.0011134 1e-05
0.00615863 0.00111354 1e-05
0.00627371 0.00111368 1e-05
0.00638878 0.00111381 1e-05
0.00650386 0.00111394 1e-05
0.00661893 0.00111405 1e-05
0.0067349 0.00111416 1e-05
0.00685087 0.00111426 1e-05
0.00696684 0.00111435 1e-05
0.00708281 0.00111444 1e-05
0.00719878 0.00111452 1e-05
0.00729519 0.00111458 1e-05
0.00739161 0.00111463 1e-05
0.00748802 0.00111468 1e-05
0.00758444 0.00111472 1e-05
0.00767642 0.00111475 1e-05
0.00769776 0.00111476 1e-05
0.0077191 0.00111477 1e-05
0.00774045 0.00111478 1e-05
0.00776179 0.00111478 1e-05
0.00778313 0.00111479 1e-05
0.00790091 0.00111482 1e-05
0.00801869 0.00111484 1e-05
0.00813647 0.00111486 1e-05
0.00825425 0.00111487 1e-05
0.00837203 0.00111487 1e-05
0.00849073 0.00111486 1e-05
0.00860942 0.00111484 1e-05
0.00872812 0.00111482 1e-05
0.00884682 0.00111479 1e-05
0.00896551 0.00111475 1e-05
0.00908513 0.00111469 1e-05
0.00920475 0.00111464 1e-05
0.00932437 0.00111457 1e-05
0.00944398 0.0011145 1e-05
0.0095636 0.00111442 1e-05
0.00968415 0.00111432 1e-05
0.0098047 0.00111422 1e-05
0.00992525 0.00111411 1e-05
0.0100458 0.001114 1e-05
0.0101663 0.00111387 1e-05
0.0102878 0.00111373 1e-05
0.0104093 0.00111359 1e-05
0.0105308 0.00111343 1e-05
0.0106523 0.00111328 1e-05
0.0107738 0.00111311 1e-05
0.0108962 0.00111292 1e-05
0.0110186 0.00111273 1e-05
0.0111411 0.00111254 1e-05
0.0112635 0.00111233 1e-05
0.0113859 0.00111212 1e-05
0.0115093 0.00111188 1e-05
0.0116327 0.00111165 1e-05
0.0117561 0.00111141 1e-05
0.0118795 0.00111116 1e-05
0.0120028 0.0011109 1e-05
0.0121272 0.00111062 1e-05
0.0122515 0.00111034 1e-05
0.0123759 0.00111005 1e-05
0.0125002 0.00110975 1e-05
0.0126245 0.00110945 1e-05
0.0127498 0.00110912 1e-05
0.0128752 0.00110879 1e-05
0.0130005 0.00110845 1e-05
0.0131258 0.00110811 1e-05
0.0132511 0.00110775 1e-05
0.0133774 0.00110737 1e-05
0.0135036 0.001107 1e-05
0.0136299 0.00110661 1e-05
0.0137562 0.00110621 1e-05
0.0138825 0.00110581 1e-05
0.0140098 0.00110538 1e-05
0.014137 0.00110495 1e-05
0.0142643 0.00110452 1e-05
0.0143915 0.00110407 1e-05
0.0145188 0.00110362 1e-05
0.0146471 0.00110314 1e-05
0.0147753 0.00110266 1e-05
0.0149036 0.00110217 1e-05
0.0150318 0.00110167 1e-05
0.0151601 0.00110116 1e-05
0.0152893 0.00110064 1e-05
0.0154186 0.00110011 1e-05
0.0155478 0.00109956 1e-05
0.0156771 0.00109901 1e-05
0.0158063 0.00109845 1e-05
0.0159366 0.00109788 1e-05
0.0160668 0.00109729 1e-05
0.0161971 0.0010967 1e-05
0.0163274 0.00109609 1e-05
0.0164576 0.00109548 1e-05
0.0165889 0.00109485 1e-05
0.0167201 0.00109422 1e-05
0.0168514 0.00109357 1e-05
0.0169827 0.00109291 1e-05
0.0171139 0.00109224 1e-05
0.0172462 0.00109157 1e-05
0.0173785 0.00109088 1e-05
0.0175108 0.00109017 1e-05
0.0176431 0.00108946 1e-05
0.0177754 0.00108874 1e-05
0.0179087 0.00108802 1e-05
0.018042 0.00108727 1e-05
0.0181753 0.00108651 1e-05
0.0183087 0.00108575 1e-05
0.018442 0.00108497 1e-05
0.0185763 0.0010842 1e-05
0.0187107 0.0010834 1e-05
0.018845 0.00108259 1e-05
0.0189794 0.00108176 1e-05
0.0191137 0.00108094 1e-05
0.0192491 0.00108011 1e-05
0.0193845 0.00107926 1e-05
0.0195199 0.00107839 1e-05
0.0196553 0.00107751 1e-05
0.0197907 0.00107663 1e-05
0.0199272 0.00107575 1e-05
0.0200636 0.00107485 1e-05
0.0202001 0.00107392 1e-05
0.0203365 0.00107299 1e-05
0.020473 0.00107206 1e-05
0.0206105 0.00107112 1e-05
0.020748 0.00107017 1e-05
0.0208855 0.00106919 1e-05
0.021023 0.0010682 1e-05
0.0211606 0.00106721 1e-05
0.0212991 0.00106623 1e-05
0.0214377 0.00106522 1e-05
0.0215763 0.00106418 1e-05
0.0217149 0.00106313 1e-05
0.0218535 0.0010621 1e-05
0.0219931 0.00106106 1e-05
0.0221328 0.00105999 1e-05
0.0222724 0.0010589 1e-05
0.0224121 0.0010578 1e-05
0.0225517 0.00105671 1e-05
0.0226925 0.00105562 1e-05
0.0228332 0.0010545 1e-05
0.022974 0.00105335 1e-05
0.0231147 0.00105219 1e-05
0.0232555 0.00105105 1e-05
0.0233973 0.0010499 1e-05
0.0235391 0.00104872 1e-05
0.023681 0.00104752 1e-05
0.0238228 0.00104631 1e-05
0.0239647 0.0010451 1e-05
0.0241076 0.0010439 1e-05
0.0242505 0.00104267 1e-05
0.0243935 0.00104141 1e-05
0.0245364 0.00104014 1e-05
0.0246794 0.00103888 1e-05
0.0248234 0.00103762 1e-05
0.0249675 0.00103633 1e-05
0.0251115 0.00103502 1e-05
0.0252556 0.00103369 1e-05
[...]
POINT_DATA 12039
 FIELD attributes 1
U 3 12039 float
10.0004 	0.00734827 	0 10.0004 	0.00587862 	0 10.0003 	0.00440896 	0 10.0002 	0.00293931 	0 10.0001 	0.00146965 	0 10 	0 	0
10.0001 	0.000878549 	0 10 	0.000702839 	0 10 	0.000527129 	0 10 	0.000351419 	0 10 	0.00017571 	0 10 	0 	0
10.0001 	0.000466541 	0 10.0001 	0.000373044 	0 10.0001 	0.000279546 	0 10 	0.000186048 	0 10 	9.25497e-05 	0 10 	0 	0
10 	0.000266864 	0 10 	0.000213491 	0 10 	0.000160118 	0 10 	0.000106746 	0 10 	5.33728e-05 	0 10 	0 	0
10 	8.12549e-05 	0 10 	6.50039e-05 	0 10 	4.87529e-05 	0 10 	3.2502e-05 	0 10 	1.6251e-05 	0 10 	0 	0
10 	-2.54359e-05 	0 10 	-2.03487e-05 	0 10 	-1.52615e-05 	0 10 	-1.01744e-05 	0 10 	-5.08718e-06 	0 10 	0 	0
10 	-0.000215528 	0 10 	-0.000172423 	0 10 	-0.000129317 	0 10 	-8.62113e-05 	0 10 	-4.31056e-05 	0 10 	0 	0
10 	-0.000377269 	0 10 	-0.000301816 	0 10 	-0.000226362 	0 10 	-0.000150908 	0 10 	-7.54539e-05 	0 10 	0 	0
9.99999 	-0.000426257 	0 9.99999 	-0.000341005 	0 9.99999 	-0.000255754 	0 10 	-0.000170503 	0 10 	-8.52514e-05 	0 10 	0 	0
9.17387 	0.0871273 	0 9.1308 	0.0697018 	0 9.08741 	0.0522761 	0 9.04368 	0.0348501 	0 8.99963 	0.017424 	0 8.95524 	0 	0
10.0004 	0.00734827 	0 10.0024 	0.0152067 	0 10.0045 	0.0222288 	0 10.0065 	0.0292063 	0 10.0086 	0.0361397 	0 10.0136 	0.0463319 	0 10.0164 	0.0402129 	0 10.0208 	0.0401636 	0 10.0253 	0.0401145 	0 10.0297 	0.0400656 	0 10.0356 	0.0445243 	0 10.0385 	0.0378864 	0 10.0425 	0.0378433 	0 10.0464 	0.0378002 	0 10.0504 	0.037757 	0 10.0545 	0.0408589 	0 10.0567 	0.0387815 	0 10.0591 	0.0400913 	0 10.0616 	0.0414026 	0 10.064 	0.0427156 	0 10.0662 	0.0451742 	0 10.0677 	0.0452857 	0 10.069 	0.0464883 	0 10.0704 	0.047692 	0 10.0717 	0.0488969 	0 10.0728 	0.0499154 	0 10.0729 	0.0499782 	0 10.073 	0.0500409 	0 10.073 	0.0501037 	0 10.0731 	0.0501665 	0 10.0732 	0.0502198 	0 10.0737 	0.0508471 	0 10.0742 	0.0514684 	0 10.0748 	0.0520901 	0 10.0753 	0.0527124 	0 10.0758 	0.0531707 	0 10.0756 	0.053467 	0 10.0753 	0.0536578 	0 10.0749 	0.0538488 	0 10.0746 	0.0540399 	0 10.0741 	0.0539926 	0 10.0736 	0.0541383 	0 10.0725 	0.0541157 	0 10.0715 	0.0540931 	0 10.0704 	0.0540704 	0 10.0688 	0.0537787 	0 10.0684 	0.05386 	0 10.0668 	0.0537276 	0 10.0652 	0.0535951 	0 10.0635 	0.0534626 	0 10.061 	0.0530439 	0 10.061 	0.0530994 	0 10.059 	0.0529063 	0 10.0569 	0.0527132 	0 10.0549 	0.05252 	0 10.0514 	0.052028 	0 10.052 	0.0520829 	0 10.0497 	0.0518641 	0 10.0474 	0.0516452 	0 10.045 	0.0514263 	0 10.0404 	0.0509007 	0 10.0419 	0.0509766 	0 10.0394 	0.0507542 	0 10.0368 	0.0505317 	0 10.0343 	0.0503091 	0 10.0285 	0.0497668 	0 10.031 	0.0498709 	0 10.0284 	0.0496622 	0 10.0257 	0.0494534 	0 10.023 	0.0492445 	0 10.0161 	0.0487088 	0 10.0198 	0.0488516 	0 10.017 	0.048659 	0 10.0143 	0.0484664 	0 10.0115 	0.0482737 	0 10.0034 	0.047737 	0 10.0083 	0.0479202 	0 10.0055 	0.0477842 	0 10.0028 	0.0476482 	0 10 	0.0475122 	0 9.99078 	0.0470433 	0 9.99695 	0.0473053 	0 9.99424 	0.0471928 	0 9.99153 	0.0470802 	0 9.98881 	0.0469676 	0 9.97835 	0.0464663 	0 9.9859 	0.0467565 	0 9.98329 	0.0468177 	0 9.98068 	0.0468789 	0 9.97807 	0.0469402 	0 9.96646 	0.046675 	0 9.97553 	0.0470781 	7.87184e-22 9.97358 	0.047058 	5.17138e-21 9.97163 	0.047038 	9.55558e-21 9.96968 	0.0470179 	1.39398e-20 9.95764 	0.0465193 	1.18068e-20 9.96801 	0.0467029 	8.17849e-20 9.9663 	0.0464422 	7.59351e-20 9.96459 	0.0461815 	7.00828e-20 9.96288 	0.0459208 	6.42279e-20 9.95064 	0.0452573 	-1.30781e-20 9.96089 	0.0452019 	-3.54237e-20 9.95922 	0.04487 	-3.9386e-20 9.95755 	0.0445381 	-4.33468e-20 9.95588 	0.0442062 	-4.7306e-20 9.94379 	0.0435985 	-1.85083e-20 9.95358 	0.0433598 	-1.63001e-20 9.95171 	0.0427474 	-1.13359e-20 9.94984 	0.0421349 	-6.37217e-21 9.94797 	0.0415224 	-1.40881e-21 9.93601 	0.0406936 	6.16244e-21 9.9454 	0.0403717 	-4.85357e-21 9.94329 	0.0395347 	-2.10237e-20 9.94118 	0.0386976 	-3.71957e-20 9.93906 	0.0378603 	-5.33694e-20 9.92715 	0.0367466 	-7.62476e-20 9.93598 	0.0365112 	-1.0816e-19 9.93351 	0.0356794 	-9.74194e-20 9.93103 	0.0348474 	-8.66722e-20 9.92855 	0.0340152 	-7.59182e-20 9.91659 	0.0327726 	-2.59282e-20 9.92471 	0.03266 	3.05166e-20 9.92183 	0.0319085 	4.22461e-20 9.91895 	0.0311567 	5.39673e-20 9.91605 	0.0304048 	6.56803e-20 9.90411 	0.0291403 	3.19563e-20 9.91144 	0.0290619 	-4.14879e-20 9.90816 	0.0283451 	-4.678e-20 9.90487 	0.027628 	-5.20594e-20 9.90158 	0.0269107 	-5.73262e-20 9.88975 	0.025661 	-2.77124e-22 9.89616 	0.0255423 	5.36252e-20 9.89245 	0.0248332 	4.5456e-20 9.88874 	0.0241239 	3.72741e-20 9.88502 	0.0234143 	2.90796e-20 9.87337 	0.0222168 	-2.47544e-20 9.87868 	0.0220336 	-7.30172e-20 9.8745 	0.0213314 	-9.23317e-20 9.87032 	0.020629 	-1.11641e-19 9.86613 	0.0199263 	-1.30946e-19 9.85476 	0.0188095 	-1.18556e-19 9.85875 	0.0185591 	-1.3609e-19 9.85408 	0.017868 	-1.25278e-19 9.8494 	0.0171767 	-1.14462e-19 9.84472 	0.0164851 	-1.03642e-19 9.8338 	0.0154631 	-7.24072e-20 9.8362 	0.0151534 	-6.09318e-20 9.83104 	0.0144786 	-4.48407e-20 9.82588 	0.0138036 	-2.87512e-20 9.8207 	0.0131283 	-1.26632e-20 9.81047 	0.0122028 	1.88097e-21 9.81098 	0.011827 	0 9.80534 	0.0111631 	0 9.7997 	0.0104988 	0 9.79405 	0.00983427 	0 9.7848 	0.00899981 	0 9.78306 	0.00854342 	-1.42811e-20 9.77695 	0.00788498 	-3.079e-20 9.77084 	0.00722623 	-4.73004e-20 9.76472 	0.00656715 	-6.38124e-20 9.75682 	0.00582574 	-8.09844e-20 9.75355 	0.00538701 	-8.49754e-20 9.74814 	0.00484863 	-8.55058e-20 9.74272 	0.00431 	-8.6033e-20 9.73729 	0.00377113 	-8.65571e-20 9.73211 	0.00325682 	-8.70541e-20 9.7309 	0.00313678 	-8.73485e-20 9.72968 	0.00301673 	-8.76429e-20 9.72846 	0.00289666 	-8.79374e-20 9.72724 	0.00277659 	-8.82319e-20 9.72487 	0.00260375 	-8.82275e-20 9.71885 	0.00200169 	-6.42339e-20 9.71176 	0.00135115 	-3.88714e-20 9.70466 	0.000700201 	-1.35173e-20 9.69755 	4.88461e-05 	1.18283e-20 9.68292 	-0.000935715 	4.38521e-20 9.68231 	-0.00128171 	4.46457e-20 9.67478 	-0.00192824 	4.56337e-20 9.66725 	-0.00257521 	4.66197e-20 9.6597 	-0.00322263 	4.76039e-20 9.63842 	-0.00445403 	5.02874e-20 9.64307 	-0.00457595 	3.96611e-20 9.63513 	-0.00521836 	2.90325e-20 9.62718 	-0.00586124 	1.84029e-20 9.61921 	-0.00650461 	7.77217e-21 9.59164 	-0.00793712 	-8.85875e-22 9.60124 	-0.00787923 	-7.3345e-21 9.5929 	-0.00851804 	-1.74923e-20 9.58456 	-0.00915737 	-2.76491e-20 9.5762 	-0.00979722 	-3.78048e-20 9.54283 	-0.0113781 	-4.79734e-20 9.55697 	-0.0111915 	-4.81277e-20 9.54827 	-0.0118289 	-5.45545e-20 9.53957 	-0.0124668 	-6.09786e-20 9.53085 	-0.0131053 	-6.73998e-20 9.49229 	-0.0147783 	-8.35183e-20 9.51046 	-0.0145155 	-1.29795e-19 9.50143 	-0.0151515 	-1.21502e-19 9.49238 	-0.0157882 	-1.13221e-19 9.48333 	-0.0164254 	-1.04951e-19 9.44027 	-0.0181295 	-3.62423e-20 9.4619 	-0.0178406 	-2.33109e-20 9.45256 	-0.0184751 	-1.63771e-20 9.4432 	-0.0191102 	-9.44259e-21 9.43383 	-0.019746 	-2.50739e-21 9.38702 	-0.0214254 	0 9.41151 	-0.02116 	0 9.40189 	-0.0217944 	0 9.39225 	-0.0224296 	0 9.38259 	-0.0230654 	0 9.33278 	-0.0246683 	0 9.35954 	-0.0244759 	1.51508e-21 9.34965 	-0.0251117 	7.97488e-21 9.33976 	-0.0257482 	1.4434e-20 9.32985 	-0.0263854 	2.08924e-20 9.27777 	-0.0278607 	3.6448e-20 9.30622 	-0.0277904 	1.38662e-19 9.29611 	-0.0284271 	1.41229e-19 9.28598 	-0.0290645 	1.4381e-19 9.27584 	-0.0297026 	1.46405e-19 9.2222 	-0.0309979 	3.66149e-20 9.2518 	-0.0310913 	1.97135e-20 9.24149 	-0.0317275 	1.39258e-20 9.23115 	-0.0323644 	8.13726e-21 9.21895 	-0.0330203 	3.13268e-21 9.16626 	-0.034072 	1.52171e-20 9.1932 	-0.0343924 	9.18143e-20 9.18603 	-0.0349993 	9.96137e-20 9.17552 	-0.0356348 	1.00708e-19 9.15918 	-0.0362936 	8.87687e-20 9.11013 	-0.0370792 	3.46381e-21 9.13372 	-0.0376179 	-8.72175e-20 9.12998 	-0.0382319 	-1.12689e-19 9.11931 	-0.0388657 	-1.21659e-19 9.09955 	-0.0394759 	-1.12932e-19 9.05396 	-0.0400181 	-5.38806e-20 9.07441 	-0.0407537 	-1.56626e-19 9.07355 	-0.041418 	-1.90647e-19 9.06275 	-0.0420496 	-1.92668e-19 9.04022 	-0.0425665 	-1.52576e-19 8.99791 	-0.042889 	-4.13151e-20 9.01545 	-0.0437993 	-2.17863e-20 9.01694 	-0.0445511 	-9.66967e-21 9.00603 	-0.0451803 	-3.28485e-21 8.98136 	-0.045566 	0 8.94211 	-0.0456931 	0 8.95697 	-0.0467568 	0 8.96036 	-0.0476271 	0 8.94936 	-0.048254 	0 8.92308 	-0.0484771 	1.75381e-21 8.88669 	-0.0484325 	4.66972e-21 8.89908 	-0.0496282 	1.89091e-21 8.90397 	-0.050642 	0 8.89289 	-0.0512665 	0 8.8655 	-0.0513029 	2.10078e-21 8.83174 	-0.05111 	5.02045e-21 8.84191 	-0.0524186 	2.2413e-21 8.84793 	-0.0535954 	1.12184e-21 8.8368 	-0.0542175 	6.92283e-21 8.80871 	-0.0540489 	2.15139e-20 8.77737 	-0.0537293 	3.77831e-20 8.78552 	-0.0551317 	1.48357e-19 8.79237 	-0.0564846 	2.51963e-19 8.78122 	-0.0571046 	2.55048e-19 8.75278 	-0.0567196 	1.4881e-19 8.72367 	-0.0562946 	3.8242e-20 8.73 	-0.0577744 	2.22107e-20 8.73627 	-0.0592558 	6.18066e-21 8.72489 	-0.059834 	2.42318e-22 8.69779 	-0.0593227 	3.05526e-21 8.67071 	-0.058811 	5.86806e-21 8.6754 	-0.0603521 	3.19985e-21 8.68005 	-0.0618947 	5.32379e-22 8.66905 	-0.062442 	1.92622e-21 8.6438 	-0.0618615 	-1.51498e-21 8.61856 	-0.0612805 	-4.95532e-21 8.6218 	-0.0628681 	-4.32436e-20 8.62498 	-0.0644573 	-8.15353e-20 8.61441 	-0.0649753 	-8.27216e-20 8.59084 	-0.0643442 	-4.76918e-20 8.56728 	-0.0637127 	-1.26604e-20 8.56923 	-0.065343 	7.48886e-20 8.57112 	-0.066975 	1.62433e-19 8.56101 	-0.0674654 	1.69953e-19 8.53896 	-0.0667907 	9.70055e-20 8.51693 	-0.0661156 	2.40582e-20 8.51775 	-0.067777 	1.39869e-20 8.5185 	-0.06944 	3.91243e-21 8.50887 	-0.069903 	4.07309e-22 8.4882 	-0.0691966 	4.48458e-21 8.46754 	-0.0684896 	8.56337e-21 8.46736 	-0.0701676 	3.66016e-21 8.46712 	-0.0718473 	-1.24772e-21 8.458 	-0.0722842 	-1.83611e-20 8.43855 	-0.0715625 	-6.2604e-20 8.41913 	-0.0708402 	-1.06849e-19 8.41807 	-0.0725219 	-2.22633e-19 8.41696 	-0.0742052 	-3.38412e-19 8.40836 	-0.0746181 	-3.24909e-19 8.39002 	-0.073897 	-1.92183e-19 8.37171 	-0.0731753 	-5.94583e-20 8.36988 	-0.0748515 	5.0196e-20 8.36791 	-0.0765122 	1.58412e-19 8.35953 	-0.0768738 	1.5625e-19 8.3426 	-0.0762152 	8.00168e-20 8.32529 	-0.0755083 	3.07789e-22 8.32279 	-0.0771764 	-7.88163e-20 8.31936 	-0.0786469 	-1.4707e-19 8.31111 	-0.0790174 	-1.55228e-19 8.29628 	-0.0785363 	-1.01374e-19 8.27988 	-0.077851 	-3.26746e-20 8.27677 	-0.0795081 	-2.27592e-20 8.27216 	-0.080789 	-1.29313e-20 8.26405 	-0.0811694 	-3.3075e-21 8.25103 	-0.080868 	1.19579e-20 8.23547 	-0.0802093 	3.01792e-20 8.23182 	-0.0818533 	1.08473e-20 8.22626 	-0.0829481 	-2.2547e-21 8.21827 	-0.0833401 	-7.39103e-21 8.20684 	-0.0832188 	-3.2923e-21 8.19203 	-0.0825911 	9.91371e-21 8.18791 	-0.084222 	-4.75562e-21 8.1816 	-0.0851365 	-1.4158e-20 8.17373 	-0.0855418 	-1.98165e-20 8.16368 	-0.0855992 	-3.01805e-20 8.14955 	-0.0850058 	-4.9341e-20 8.14501 	-0.0866236 	4.6772e-20 8.13812 	-0.0873643 	7.4052e-20 8.13037 	-0.0877841 	7.61372e-20 8.12151 	-0.0880176 	6.20991e-20 8.10801 	-0.0874608 	-2.01828e-20 8.10309 	-0.0890659 	6.09622e-20 8.09578 	-0.0896399 	7.30249e-20 8.08812 	-0.0900755 	7.57912e-20 8.08029 	-0.0904816 	7.63545e-20 8.06737 	-0.0899634 	8.80808e-21 8.06204 	-0.0915194 	-5.84805e-22 8.0545 	-0.0919717 	-3.98008e-22 8.04694 	-0.0924243 	-2.11232e-22 8.03937 	-0.0928773 	-2.44768e-23 8.0276 	-0.092521 	1.53176e-20 8.0217 	-0.0938969 	0 8.01425 	-0.0943675 	0 8.00678 	-0.0948383 	0 7.99929 	-0.0953095 	0 7.98867 	-0.0951411 	1.25116e-20 7.98234 	-0.096345 	0 7.97497 	-0.0968349 	0 7.96758 	-0.0973251 	0 7.96017 	-0.0978156 	0 7.95056 	-0.0978308 	0 7.9439 	-0.0988707 	0 7.9366 	-0.099381 	0 7.92928 	-0.0998917 	0 7.92194 	-0.100403 	0 7.91321 	-0.100597 	-6.32352e-21 7.90632 	-0.101481 	0 7.89909 	-0.102013 	0 7.89183 	-0.102545 	0 7.88455 	-0.103077 	0 7.87658 	-0.103447 	-6.6835e-21 7.86955 	-0.104182 	0 7.86237 	-0.104736 	0 7.85517 	-0.105291 	0 7.84795 	-0.105846 	0 7.84065 	-0.106386 	-6.10202e-22 7.83994 	-0.10646 	-7.64114e-22 7.83923 	-0.106518 	-1.68021e-21 7.83852 	-0.106576 	-2.59632e-21 7.83781 	-0.106633 	-3.51244e-21 7.8371 	-0.106691 	-4.42454e-21 7.8305 	-0.107213 	-1.21165e-20 7.82388 	-0.107734 	-1.98074e-20 7.81724 	-0.108257 	-2.74972e-20 7.81059 	-0.108779 	-3.5186e-20 7.80466 	-0.109156 	-4.288e-20 7.7971 	-0.109892 	-4.08598e-20 7.78979 	-0.110496 	-4.02729e-20 7.78246 	-0.1111 	-3.96832e-20 7.7751 	-0.111705 	-3.90909e-20 7.76929 	-0.112008 	-4.15682e-20 7.76144 	-0.112911 	-3.23202e-20 7.75416 	-0.113541 	-2.30571e-20 7.74686 	-0.114172 	-1.37926e-20 7.73953 	-0.114802 	-4.52662e-21 7.73455 	-0.114979 	0 7.7264 	-0.116047 	-1.90844e-21 7.71914 	-0.116704 	-6.145e-21 7.71186 	-0.117361 	-1.03808e-20 7.70455 	-0.118018 	-1.46159e-20 7.70037 	-0.118076 	-1.8823e-20 7.69193 	-0.119304 	-4.61047e-20 7.68468 	-0.119988 	-6.35657e-20 7.67741 	-0.120672 	-8.10283e-20 7.67011 	-0.121357 	-9.84925e-20 7.66671 	-0.121304 	-8.79164e-20 7.65797 	-0.122688 	-6.63593e-20 7.65073 	-0.123402 	-5.64496e-20 7.64346 	-0.124117 	-4.65337e-20 7.63644 	-0.124779 	-3.86121e-20 7.63353 	-0.124673 	-6.00054e-20 7.62471 	-0.126109 	-7.23427e-20 7.61723 	-0.126957 	-6.03647e-20 7.60996 	-0.127702 	-4.41272e-20 7.60375 	-0.128245 	-2.45772e-20 7.60076 	-0.12819 	4.72672e-21 7.59196 	-0.12964 	8.51153e-21 7.58414 	-0.130657 	6.97452e-21 7.57686 	-0.131434 	2.48463e-21 7.57145 	-0.131863 	0 7.56837 	-0.13186 	0 7.55958 	-0.133325 	0 7.55142 	-0.134507 	0 7.54411 	-0.135317 	0 7.53947 	-0.135638 	0 7.5363 	-0.135688 	0 7.52751 	-0.137169 	0 7.519 	-0.138513 	-3.33384e-21 7.51166 	-0.139356 	-1.88655e-20 7.50776 	-0.139575 	-3.44551e-20 7.5045 	-0.139678 	-5.00558e-20 7.4957 	-0.141177 	-3.31416e-20 7.48684 	-0.142676 	-1.62214e-20 7.47964 	-0.143525 	3.57137e-21 7.47628 	-0.14368 	7.17404e-21 7.47292 	-0.143836 	1.07766e-20 7.46409 	-0.145354 	3.93441e-20 7.45522 	-0.146873 	6.79101e-20 7.44846 	-0.14775 	7.99639e-20 7.44498 	-0.147958 	6.68381e-20 7.4415 	-0.148167 	5.37105e-20 7.43266 	-0.149707 	3.25514e-20 7.42376 	-0.151247 	1.13844e-20 7.41741 	-0.152153 	3.78644e-21 7.41381 	-0.152414 	1.19743e-20 7.41021 	-0.152676 	2.01631e-20 7.40133 	-0.154238 	7.56767e-20 7.39239 	-0.155801 	1.31193e-19 7.38644 	-0.156738 	1.31804e-19 7.38271 	-0.157052 	7.68875e-20 7.37898 	-0.157367 	2.19691e-20 7.37006 	-0.158953 	1.45243e-20 7.36108 	-0.16054 	7.08272e-21 7.3555 	-0.161508 	7.16398e-21 7.35164 	-0.161876 	1.51384e-20 7.34776 	-0.162243 	2.31139e-20 7.33879 	-0.163855 	7.72112e-20 7.33022 	-0.165388 	1.24359e-19 7.32481 	-0.166364 	1.22322e-19 7.32053 	-0.166888 	7.848e-20 7.3165 	-0.167308 	2.50048e-20 7.30747 	-0.168946 	1.7797e-20 7.29966 	-0.170364 	1.05492e-20 7.29414 	-0.171381 	3.22527e-21 7.28935 	-0.172092 	0 7.28516 	-0.172564 	0 7.27606 	-0.174229 	0 7.26899 	-0.175537 	0 7.26333 	-0.176593 	0 7.25804 	-0.17749 	0 7.25367 	-0.178013 	0 7.2445 	-0.179706 	0 7.23814 	-0.180906 	0 7.23234 	-0.182003 	0 7.22655 	-0.183083 	4.49511e-22 7.222 	-0.183657 	1.42193e-20 7.21298 	-0.185337 	5.26599e-22 7.20707 	-0.186474 	8.01859e-21 7.20112 	-0.187611 	1.55127e-20 7.19513 	-0.188748 	2.3009e-20 7.19008 	-0.189497 	3.32988e-20 7.1818 	-0.191063 	8.5399e-20 7.17573 	-0.19224 	8.90987e-20 7.16962 	-0.193417 	9.27778e-20 7.16347 	-0.194593 	9.64362e-20 7.15788 	-0.195531 	5.49427e-20 7.1503 	-0.196987 	8.8772e-20 7.14407 	-0.198203 	7.82257e-20 7.13779 	-0.199419 	6.76584e-20 7.13147 	-0.200636 	5.70699e-20 7.12534 	-0.201761 	3.46927e-20 7.12082 	-0.20264 	3.32528e-20 7.1168 	-0.203427 	3.3522e-20 7.11277 	-0.204215 	3.37931e-20 7.10873 	-0.205003 	3.4066e-20 7.10483 	-0.205759 	3.43298e-20 7.1023 	-0.206232 	3.38954e-20 7.09977 	-0.206706 	3.34603e-20 7.09723 	-0.20718 	3.30245e-20 7.09468 	-0.207653 	3.2588e-20 7.09258 	-0.208077 	3.331e-20 7.08558 	-0.209419 	3.13911e-20 7.07879 	-0.210712 	3.05767e-20 7.07196 	-0.212004 	2.97571e-20 7.06508 	-0.213297 	2.89325e-20 7.05983 	-0.21441 	3.35835e-20 7.05193 	-0.215922 	3.59755e-20 7.04494 	-0.217253 	3.03822e-20 7.03791 	-0.218583 	2.47965e-20 7.03083 	-0.219914 	1.92185e-20 7.02662 	-0.220935 	2.03259e-21 7.01779 	-0.222617 	-2.29602e-22 7.0106 	-0.223984 	-1.53917e-22 7.00336 	-0.225352 	-7.8203e-23 6.99607 	-0.22672 	-2.46086e-24 6.9929 	-0.22765 	0 6.98333 	-0.22946 	0 6.97571 	-0.230903 	-1.05319e-20 6.96825 	-0.232307 	-2.21879e-20 6.96189 	-0.233592 	-3.29745e-20 6.95863 	-0.23455 	-4.13961e-20 6.94884 	-0.23639 	-3.10193e-20 6.94023 	-0.238006 	-1.91777e-20 6.93254 	-0.239446 	-6.16855e-21 6.92727 	-0.240632 	2.92851e-21 6.92376 	-0.241631 	9.13479e-21 6.91375 	-0.243499 	3.79222e-21 6.90412 	-0.245289 	1.8632e-21 6.8962 	-0.246762 	1.36759e-20 6.89201 	-0.247849 	3.08923e-20 6.88825 	-0.248888 	4.87829e-20 6.87802 	-0.250784 	3.00769e-20 6.86771 	-0.252679 	1.13675e-20 6.86006 	-0.254162 	-4.97265e-22 6.85609 	-0.255238 	-3.28908e-21 6.85207 	-0.256315 	-6.0821e-21 6.8416 	-0.258237 	-4.95765e-20 6.83105 	-0.26016 	-9.30721e-20 6.8237 	-0.26168 	-9.83527e-20 6.81946 	-0.262793 	-6.41882e-20 6.81518 	-0.263906 	-3.00238e-20 6.80446 	-0.265854 	-6.46811e-20 6.79366 	-0.267802 	-9.93451e-20 6.7866 	-0.269361 	-9.74994e-20 6.78209 	-0.270508 	-6.12274e-20 6.77754 	-0.271655 	-2.49541e-20 6.76656 	-0.273627 	-6.13104e-20 6.75644 	-0.275507 	-8.77639e-20 6.7495 	-0.277066 	-7.97935e-20 6.74395 	-0.278376 	-5.00918e-20 6.73912 	-0.279557 	-9.09604e-21 6.72788 	-0.281553 	-6.80623e-21 6.71896 	-0.283312 	-4.39424e-21 6.71175 	-0.284898 	-1.89303e-21 6.70501 	-0.286393 	0 6.69989 	-0.287605 	0 6.68838 	-0.289623 	0 6.68069 	-0.29126 	0 6.67319 	-0.292871 	0 6.66564 	-0.294483 	0 6.65982 	-0.295794 	0 6.64931 	-0.297708 	-8.04067e-22 6.64159 	-0.299344 	-3.40608e-21 6.63381 	-0.30098 	-6.00936e-21 6.62597 	-0.302615 	-8.61389e-21 6.61889 	-0.304115 	-7.75953e-21 6.61108 	-0.3056 	-2.13237e-20 6.60452 	-0.30696 	-1.90031e-20 6.59793 	-0.30832 	-1.66699e-20 6.59129 	-0.309679 	-1.4324e-20 6.58498 	-0.310963 	-1.2097e-20 6.58334 	-0.311276 	-1.16839e-20 6.5817 	-0.311589 	-1.12703e-20 6.58005 	-0.311903 	-1.08562e-20 6.57841 	-0.312216 	-1.04416e-20 6.57696 	-0.312503 	-1.22808e-20 6.56812 	-0.314209 	-5.50447e-21 6.55932 	-0.315885 	1.28207e-21 6.55046 	-0.317561 	8.06719e-21 6.54153 	-0.319237 	1.48509e-20 6.53385 	-0.320748 	2.02279e-20 6.52414 	-0.322626 	1.78114e-20 6.515 	-0.324322 	1.89809e-20 6.50581 	-0.326018 	2.01433e-20 6.49654 	-0.327714 	2.12984e-20 6.48968 	-0.329103 	3.17358e-20 6.47919 	-0.331117 	3.79139e-20 6.46958 	-0.332869 	3.71263e-20 6.46004 	-0.334583 	3.53484e-20 6.45143 	-0.336176 	2.75481e-20 6.44444 	-0.337562 	9.48237e-21 6.43359 	-0.339589 	2.53021e-20 6.42303 	-0.341518 	3.4316e-20 6.41315 	-0.343248 	2.94839e-20 6.40541 	-0.344712 	9.42856e-21 6.39809 	-0.346118 	-1.3935e-20 6.38688 	-0.348156 	-8.1695e-21 6.37559 	-0.350193 	-2.40583e-21 6.36586 	-0.351917 	-1.62824e-21 6.35827 	-0.35334 	-1.13123e-21 6.35062 	-0.354764 	-6.29689e-22 6.33904 	-0.356812 	5.38194e-22 6.32738 	-0.358859 	1.71261e-21 6.31791 	-0.360613 	3.2227e-21 6.30998 	-0.362053 	7.47711e-21 6.30199 	-0.363493 	1.17346e-20 6.29004 	-0.365549 	8.31934e-21 6.27868 	-0.367527 	4.90354e-21 6.26931 	-0.369267 	1.47928e-21 6.26053 	-0.370844 	0 6.2522 	-0.372298 	0 6.23986 	-0.374362 	0 6.22951 	-0.376191 	0 6.21978 	-0.37794 	0 6.20998 	-0.379687 	0 6.20121 	-0.381172 	0 6.1892 	-0.383163 	9.29037e-22 6.17918 	-0.38492 	4.53845e-21 6.16909 	-0.386676 	8.1502e-21 6.15892 	-0.388432 	1.17643e-20 6.14901 	-0.39011 	1.53846e-20 6.14411 	-0.390912 	1.48935e-20 6.13981 	-0.391645 	1.51798e-20 6.13549 	-0.392378 	1.5467e-20 6.13116 	-0.393111 	1.57549e-20 6.12695 	-0.393824 	1.60357e-20 6.12105 	-0.39486 	1.73191e-20 6.11513 	-0.395896 	1.86074e-20 6.10919 	-0.396932 	1.99007e-20 6.10322 	-0.397968 	2.1199e-20 6.09733 	-0.398907 	1.74792e-20 6.08734 	-0.400789 	1.51747e-20 6.077 	-0.402562 	1.041e-20 6.06659 	-0.404334 	5.65469e-21 6.05611 	-0.406105 	9.0877e-22 6.04583 	-0.407612 	-1.10495e-20 6.03589 	-0.409671 	-3.2642e-20 6.02522 	-0.411464 	-3.35415e-20 6.01443 	-0.41324 	-3.31938e-20 6.0037 	-0.414898 	-2.64885e-20 5.99309 	-0.416357 	-9.00782e-21 5.98277 	-0.418414 	1.85806e-20 5.97221 	-0.420404 	3.97324