/*--------------------------------*- C++ -*----------------------------------*\
| =========                 |                                                 |
| \\      /  F ield         | OpenFOAM: The Open Source CFD Toolbox           |
|  \\    /   O peration     | Version:  2312                                  |
|   \\  /    A nd           | Website:  www.openfoam.com                      |
|    \\/     M anipulation  |                                                 |
\*---------------------------------------------------------------------------*/
FoamFile
{
    version     2.0;
    format      ascii;
    arch        "LSB;label=64;scalar=64";
    class       volScalarField;
    location    "200";
    object      nut_ML_ND;
}
// * * * * * * * * * * * * * * * * * * * * * * * * * * * * * * * * * * * * * //

dimensions      [0 0 0 0 0 0 0];

internalField   nonuniform List<scalar> 
404911
(
0.240948
0.464597
0.0797863
0.0739042
0.46168
0.47204
0.51446
0.0744791
0.0739959
0.0738957
0.449554
0.454319
0.475412
0.442786
0.432795
0.0769093
0.443227
0.458807
0.424897
0.396604
0.439109
0.484008
0.403533
0.474275
0.568625
0.471878
0.493205
0.572472
0.56835
0.0823264
0.502502
0.567742
0.516909
0.481352
0.346756
0.533394
0.450112
0.162939
0.348766
0.533502
0.451332
0.0755696
0.3519
0.553345
0.532966
0.322028
0.0627185
0.533165
0.478349
0.140518
0.0982464
0.290104
0.339605
0.0756271
0.0824851
0.0873362
0.0739044
0.412718
0.391602
0.366896
0.517301
0.563461
0.542442
0.579751
0.573143
0.563531
0.571043
0.531183
0.56873
0.582035
0.573032
0.585857
0.574767
0.577675
0.584896
0.524273
0.132197
0.537343
0.579246
0.572535
0.580456
0.566627
0.585049
0.575781
0.570605
0.578329
0.524238
0.578014
0.385399
0.565442
0.537616
0.074989
0.577761
0.56152
0.56472
0.578131
0.572357
0.572205
0.580369
0.531726
0.300481
0.577624
0.569552
0.330281
0.339701
0.403568
0.509685
0.467925
0.506832
0.529959
0.541538
0.537116
0.537811
0.529592
0.0800589
0.444546
0.532109
0.0794668
0.35067
0.548374
0.545392
0.545805
0.539677
0.515365
0.331626
0.510803
0.533636
0.543373
0.551452
0.376026
0.441478
0.359677
0.550131
0.550396
0.54624
0.544287
0.528252
0.523935
0.521285
0.496133
0.349781
0.510617
0.538304
0.546009
0.546868
0.548977
0.54949
0.55403
0.442143
0.368525
0.550182
0.55073
0.541722
0.339839
0.405443
0.37561
0.521238
0.548017
0.55549
0.552604
0.548305
0.545892
0.546672
0.54768
0.548994
0.549456
0.548324
0.547811
0.542863
0.516237
0.507694
0.496745
0.486521
0.432717
0.466312
0.387051
0.361057
0.548273
0.545438
0.545967
0.545891
0.545612
0.544803
0.543066
0.532627
0.51633
0.522894
0.413437
0.506276
0.482766
0.409585
0.529538
0.527023
0.49216
0.360133
0.551308
0.546627
0.54579
0.544233
0.54365
0.539227
0.527586
0.318496
0.361366
0.527066
0.504614
0.508357
0.526169
0.529765
0.53029
0.492926
0.529896
0.526383
0.520417
0.380344
0.552628
0.547319
0.546913
0.545098
0.530951
0.464048
0.383424
0.469784
0.51755
0.553255
0.570103
0.557962
0.533832
0.532142
0.545639
0.53552
0.541897
0.541745
0.5596
0.55021
0.546799
0.535509
0.510021
0.311605
0.334922
0.518283
0.567119
0.553227
0.570149
0.572918
0.572457
0.5707
0.555793
0.547329
0.540828
0.566394
0.566287
0.525936
0.364721
0.547199
0.528241
0.314328
0.434664
0.545883
0.569766
0.54779
0.572192
0.573364
0.574558
0.575048
0.574457
0.572758
0.571951
0.569803
0.537062
0.480237
0.411065
0.364856
0.454053
0.460862
0.524595
0.551314
0.524282
0.569395
0.57277
0.572389
0.572825
0.572442
0.574191
0.575479
0.573877
0.556408
0.481144
0.37615
0.375635
0.216383
0.504367
0.543407
0.5532
0.569384
0.567948
0.571034
0.573262
0.574146
0.573213
0.572009
0.571363
0.572866
0.574295
0.551347
0.514232
0.43396
0.514879
0.350253
0.360875
0.377427
0.506241
0.54127
0.57705
0.580084
0.570518
0.572155
0.572969
0.573204
0.572395
0.571915
0.572358
0.573238
0.568216
0.51165
0.544817
0.472522
0.35012
0.523248
0.560442
0.545609
0.567302
0.567749
0.566934
0.582866
0.572252
0.573313
0.572329
0.580813
0.581045
0.570603
0.570679
0.566965
0.50171
0.515324
0.49065
0.548728
0.570622
0.578032
0.580172
0.573437
0.574017
0.57183
0.58309
0.57961
0.583618
0.583816
0.578628
0.575361
0.5601
0.539975
0.526955
0.361172
0.364348
0.517569
0.554945
0.572429
0.581776
0.584139
0.581947
0.576779
0.580659
0.580125
0.584692
0.576047
0.577988
0.574873
0.568136
0.563644
0.471457
0.341279
0.505202
0.560168
0.566895
0.569132
0.571319
0.580992
0.576998
0.58157
0.585008
0.584733
0.584653
0.580285
0.57656
0.571681
0.564686
0.555723
0.510234
0.379292
0.378967
0.440298
0.483083
0.563511
0.570128
0.578413
0.577249
0.579226
0.582473
0.583967
0.585564
0.584715
0.583969
0.578672
0.5602
0.53939
0.54649
0.501324
0.50549
0.5552
0.552449
0.569714
0.577994
0.580786
0.580801
0.580045
0.582377
0.57872
0.581072
0.585272
0.584041
0.580436
0.576672
0.558495
0.51041
0.408501
0.546486
0.571341
0.568438
0.581
0.579486
0.581447
0.582361
0.578628
0.576461
0.576705
0.577718
0.579913
0.581031
0.58037
0.564143
0.55252
0.507687
0.505039
0.564404
0.565471
0.575972
0.582122
0.584185
0.581045
0.582695
0.582811
0.580795
0.575427
0.57713
0.580349
0.575011
0.576892
0.560916
0.547761
0.354859
0.529855
0.571169
0.579509
0.583352
0.584308
0.58493
0.583881
0.57708
0.585341
0.585477
0.581913
0.579159
0.573908
0.571093
0.557773
0.549596
0.511336
0.346528
0.500105
0.54932
0.571309
0.580832
0.583336
0.584652
0.582368
0.582912
0.585276
0.584915
0.584558
0.584297
0.583442
0.580111
0.544642
0.563866
0.533867
0.350088
0.362475
0.528698
0.570272
0.567999
0.580653
0.583567
0.584339
0.585159
0.585565
0.583188
0.58567
0.582307
0.581586
0.582146
0.580051
0.574395
0.547754
0.504263
0.500741
0.557714
0.573071
0.581052
0.583013
0.583929
0.584353
0.584915
0.582082
0.585597
0.585642
0.585451
0.580902
0.578931
0.573292
0.559033
0.540817
0.348381
0.381166
0.532328
0.573204
0.580529
0.582399
0.583742
0.584319
0.584325
0.584349
0.585079
0.582229
0.582872
0.582879
0.584371
0.57948
0.574664
0.549263
0.514375
0.468975
0.560675
0.575593
0.582457
0.583341
0.584102
0.584468
0.584439
0.584395
0.584372
0.584875
0.585213
0.58508
0.584324
0.580602
0.563757
0.53504
0.500583
0.531778
0.573779
0.579133
0.582526
0.583662
0.584503
0.584636
0.584603
0.584554
0.584513
0.584551
0.584449
0.584059
0.582841
0.577049
0.564231
0.545408
0.491905
0.53878
0.566866
0.578759
0.584099
0.584047
0.584913
0.585387
0.585426
0.58476
0.584542
0.584571
0.584349
0.583673
0.580415
0.57504
0.563211
0.521066
0.338588
0.385171
0.553853
0.579461
0.58086
0.582683
0.584941
0.584811
0.585503
0.583504
0.58363
0.5849
0.584551
0.584087
0.583286
0.579873
0.561826
0.546669
0.507856
0.42194
0.559598
0.576936
0.583213
0.584941
0.585118
0.585029
0.584861
0.585482
0.584033
0.58531
0.585092
0.584072
0.582679
0.579898
0.562899
0.542743
0.335985
0.521553
0.566453
0.575535
0.582516
0.584915
0.585041
0.584851
0.584895
0.584722
0.584937
0.585351
0.585396
0.584391
0.582594
0.574797
0.566322
0.539265
0.327285
0.524179
0.572029
0.58068
0.583376
0.584987
0.582968
0.58311
0.58555
0.585016
0.584787
0.584526
0.584403
0.583849
0.581802
0.575962
0.561826
0.514429
0.381616
0.542636
0.572379
0.580396
0.58393
0.585076
0.585469
0.583523
0.583823
0.585737
0.585191
0.584852
0.584379
0.583618
0.581023
0.568765
0.552551
0.50944
0.50446
0.561367
0.57058
0.577023
0.583624
0.585652
0.585801
0.58576
0.583803
0.584371
0.58566
0.58534
0.584549
0.583645
0.580629
0.569089
0.544227
0.32684
0.522578
0.571522
0.5808
0.582546
0.584413
0.585624
0.583868
0.584527
0.583932
0.585768
0.58457
0.585542
0.58565
0.583619
0.580396
0.565553
0.527339
0.325962
0.393714
0.551601
0.575482
0.580364
0.583105
0.584169
0.585191
0.583706
0.584965
0.584995
0.58452
0.585774
0.584566
0.583924
0.584077
0.577524
0.566805
0.519477
0.403056
0.557472
0.577247
0.582323
0.583472
0.584329
0.584707
0.585261
0.583769
0.584653
0.585067
0.58541
0.585813
0.585042
0.582835
0.577091
0.55828
0.509746
0.41328
0.558155
0.577293
0.582831
0.583767
0.584185
0.584595
0.58487
0.5852
0.585738
0.58487
0.585693
0.585538
0.585409
0.581259
0.571544
0.551973
0.347096
0.4213
0.558631
0.577201
0.582679
0.583898
0.58411
0.584334
0.584706
0.585102
0.585277
0.585552
0.585604
0.585111
0.583524
0.581195
0.56532
0.526743
0.336478
0.526193
0.567266
0.576163
0.582106
0.583431
0.584136
0.584317
0.584465
0.584905
0.585735
0.585664
0.585788
0.585673
0.582605
0.580834
0.565829
0.520462
0.374042
0.53308
0.574792
0.581754
0.582347
0.583376
0.584126
0.584483
0.584578
0.584506
0.585025
0.585756
0.585569
0.58437
0.584238
0.581151
0.565006
0.521733
0.39549
0.558327
0.575416
0.579091
0.583251
0.583854
0.584498
0.584947
0.58495
0.584802
0.5846
0.584848
0.585391
0.583372
0.5814
0.578018
0.562983
0.519143
0.423796
0.560467
0.577944
0.583537
0.584565
0.58458
0.584513
0.585331
0.583928
0.584298
0.585063
0.584847
0.584548
0.584299
0.583089
0.577367
0.565684
0.515614
0.405142
0.559754
0.57754
0.583278
0.584762
0.584825
0.584721
0.584671
0.585455
0.584352
0.584808
0.58511
0.58475
0.584196
0.582754
0.576162
0.56453
0.514514
0.390159
0.55827
0.576238
0.582683
0.58462
0.584868
0.584899
0.584881
0.584788
0.584931
0.585344
0.585564
0.584981
0.584231
0.581703
0.576096
0.559146
0.514254
0.406701
0.55941
0.576374
0.582536
0.584527
0.584879
0.585034
0.585059
0.585037
0.584898
0.584714
0.584838
0.584695
0.584037
0.581404
0.570618
0.549987
0.350903
0.520809
0.560716
0.576438
0.582449
0.584629
0.585074
0.585231
0.585447
0.585463
0.585381
0.585127
0.584888
0.584626
0.584011
0.581297
0.570828
0.54755
0.342422
0.520796
0.562085
0.575571
0.582465
0.585117
0.585485
0.5856
0.585759
0.58538
0.58516
0.585702
0.585303
0.584755
0.584096
0.581303
0.570559
0.547811
0.339774
0.354387
0.535653
0.562716
0.574372
0.582065
0.582399
0.584063
0.585145
0.585204
0.585055
0.585293
0.58532
0.585736
0.58547
0.584225
0.581254
0.567721
0.54513
0.340383
0.35611
0.548478
0.570904
0.570971
0.581305
0.58464
0.583556
0.585764
0.584619
0.584464
0.58461
0.584455
0.585278
0.585042
0.584347
0.580634
0.567522
0.525522
0.548671
0.570874
0.580728
0.583571
0.584621
0.585106
0.58585
0.582168
0.583454
0.584502
0.583859
0.584375
0.585964
0.584565
0.578438
0.567706
0.521023
0.34388
0.541668
0.570721
0.581392
0.584111
0.5848
0.585056
0.585359
0.585759
0.584898
0.583067
0.583069
0.585065
0.586013
0.584384
0.577517
0.564525
0.512683
0.332433
0.543544
0.570155
0.581565
0.584227
0.584841
0.585311
0.585516
0.585579
0.58569
0.585021
0.584028
0.584972
0.585984
0.584713
0.578214
0.560995
0.513655
0.333314
0.543172
0.569302
0.581328
0.584173
0.584833
0.585308
0.585834
0.585237
0.585551
0.585668
0.585697
0.585775
0.586013
0.583999
0.576918
0.55915
0.35255
0.55505
0.567961
0.580742
0.584005
0.584809
0.585096
0.585518
0.584951
0.585517
0.585714
0.585814
0.585789
0.585429
0.582714
0.572573
0.551182
0.345316
0.348277
0.551516
0.582027
0.584168
0.584814
0.58513
0.585304
0.585575
0.584641
0.585341
0.585693
0.585654
0.584473
0.581194
0.570244
0.54723
0.335014
0.366425
0.501295
0.570969
0.579064
0.584912
0.585046
0.585251
0.585628
0.585742
0.585734
0.585298
0.58574
0.5859
0.584312
0.578713
0.568883
0.542766
0.32058
0.506904
0.570968
0.573342
0.581285
0.585517
0.585361
0.585394
0.585729
0.585238
0.585701
0.585716
0.585824
0.585757
0.584567
0.577694
0.564715
0.518106
0.513536
0.554891
0.577074
0.583403
0.58542
0.585756
0.585585
0.585633
0.585801
0.585736
0.585563
0.58514
0.585156
0.582873
0.57689
0.560538
0.512344
0.342243
0.525064
0.56666
0.57744
0.579994
0.580492
0.58169
0.58429
0.585871
0.585679
0.584815
0.584478
0.585722
0.585556
0.582103
0.570341
0.552387
0.343675
0.363327
0.544576
0.571692
0.581723
0.581491
0.582141
0.56511
0.573489
0.585048
0.584513
0.585665
0.585749
0.585733
0.585296
0.581354
0.566719
0.546091
0.328541
0.419679
0.564668
0.561278
0.576298
0.582102
0.583782
0.584627
0.58157
0.568512
0.584744
0.585404
0.585764
0.584928
0.584081
0.581001
0.568159
0.546876
0.332917
0.501609
0.571627
0.571924
0.580669
0.584162
0.5847
0.583497
0.585689
0.585659
0.582632
0.585266
0.585169
0.584198
0.583501
0.581475
0.570823
0.549143
0.33843
0.387284
0.53179
0.574968
0.579551
0.580355
0.585154
0.585188
0.580474
0.585885
0.582452
0.583345
0.583828
0.583883
0.583249
0.585123
0.580585
0.570006
0.503889
0.336346
0.471023
0.567122
0.568988
0.581587
0.581787
0.585273
0.582127
0.570459
0.577887
0.58569
0.583931
0.585703
0.585321
0.584866
0.583604
0.580338
0.569044
0.539072
0.327116
0.55227
0.579534
0.583313
0.58327
0.585761
0.581249
0.57084
0.574366
0.58192
0.585676
0.58569
0.58523
0.583987
0.582374
0.575112
0.56523
0.520855
0.308611
0.540274
0.581194
0.582319
0.583384
0.585896
0.573695
0.571465
0.580677
0.581737
0.585393
0.585609
0.585529
0.584185
0.582256
0.575471
0.560914
0.512671
0.53229
0.579319
0.581875
0.583733
0.58596
0.578254
0.567744
0.575307
0.584489
0.584617
0.585619
0.58578
0.584648
0.582494
0.575223
0.555898
0.509315
0.528607
0.556436
0.57939
0.583959
0.585936
0.5734
0.568347
0.57395
0.579675
0.584368
0.585723
0.585808
0.58479
0.581518
0.574693
0.552938
0.343844
0.453786
0.559736
0.573202
0.580728
0.583916
0.585839
0.580599
0.571182
0.577903
0.582583
0.585679
0.585521
0.584513
0.584489
0.580803
0.568018
0.544492
0.333259
0.49299
0.565553
0.573744
0.580917
0.583045
0.585818
0.573716
0.574171
0.579864
0.585113
0.585665
0.584782
0.583343
0.584281
0.57888
0.568078
0.522165
0.49784
0.579012
0.585603
0.583768
0.583313
0.585692
0.580132
0.571538
0.57735
0.58479
0.585353
0.584435
0.58556
0.583852
0.578165
0.56417
0.512113
0.499544
0.58071
0.585927
0.584376
0.583221
0.585641
0.575834
0.577296
0.584483
0.585729
0.585342
0.584385
0.585543
0.583501
0.577553
0.561332
0.512756
0.495777
0.579814
0.58545
0.585297
0.583699
0.58455
0.579465
0.578957
0.58392
0.585659
0.585018
0.584182
0.585212
0.582405
0.575677
0.557497
0.354025
0.495119
0.577425
0.583757
0.583864
0.584195
0.584149
0.58556
0.582771
0.583743
0.585264
0.5845
0.583721
0.584966
0.581992
0.570757
0.547736
0.346583
0.536576
0.577596
0.569856
0.581852
0.584943
0.585721
0.585697
0.585747
0.585502
0.585122
0.584239
0.585416
0.584335
0.581278
0.568889
0.542771
0.335777
0.513263
0.533414
0.57933
0.585384
0.585161
0.576313
0.582439
0.585766
0.584867
0.584128
0.585252
0.58342
0.577622
0.561332
0.526698
0.332626
0.513182
0.565792
0.57506
0.583971
0.576254
0.573522
0.578837
0.585643
0.58522
0.584416
0.583031
0.582826
0.576954
0.558997
0.50584
0.538812
0.542335
0.566644
0.57453
0.581199
0.577643
0.573959
0.579901
0.584918
0.585409
0.584452
0.585118
0.581564
0.57502
0.55519
0.50258
0.529948
0.575173
0.578372
0.572735
0.575409
0.585664
0.57819
0.581168
0.585789
0.584922
0.584082
0.581884
0.580547
0.56779
0.548623
0.348674
0.519355
0.571708
0.565792
0.573836
0.571064
0.574422
0.584345
0.585614
0.585382
0.583859
0.58327
0.578655
0.57394
0.552969
0.538642
0.348019
0.351455
0.521815
0.56013
0.578028
0.572573
0.570924
0.573367
0.57649
0.580768
0.575661
0.574183
0.576131
0.580311
0.570912
0.540992
0.46758
0.348272
0.537634
0.56689
0.571129
0.58297
0.57471
0.574687
0.577389
0.583442
0.581605
0.577323
0.573365
0.569571
0.567258
0.507024
0.532315
0.35976
0.542081
0.56084
0.569498
0.582835
0.576876
0.579003
0.578563
0.579716
0.580703
0.573753
0.569614
0.569676
0.566987
0.502967
0.406725
0.5093
0.561313
0.511464
0.560356
0.573927
0.584326
0.581787
0.583118
0.583354
0.5818
0.578737
0.578666
0.57353
0.551545
0.502219
0.383476
0.504843
0.480821
0.527595
0.569947
0.569091
0.576607
0.580588
0.575488
0.575905
0.577777
0.579579
0.574263
0.569617
0.551808
0.52391
0.495218
0.339803
0.385186
0.515084
0.568717
0.575037
0.575255
0.580471
0.581137
0.577187
0.573839
0.569802
0.567238
0.548182
0.550686
0.513106
0.334513
0.534509
0.415021
0.551922
0.572247
0.576918
0.580895
0.578253
0.574823
0.574108
0.57391
0.571476
0.568995
0.54895
0.531121
0.351395
0.339804
0.528454
0.555995
0.515849
0.549641
0.574232
0.581731
0.580366
0.575455
0.574023
0.571609
0.568216
0.559826
0.561997
0.511818
0.363301
0.481852
0.536372
0.55295
0.365171
0.525826
0.56977
0.57841
0.577707
0.574818
0.572695
0.571561
0.552983
0.573411
0.560662
0.513039
0.323419
0.501384
0.357209
0.524586
0.545141
0.574516
0.575614
0.57452
0.570646
0.568035
0.537506
0.562925
0.541289
0.371666
0.330558
0.392143
0.392841
0.500232
0.541412
0.533673
0.574013
0.57451
0.572159
0.5552
0.574696
0.563284
0.515478
0.339506
0.544043
0.559319
0.432587
0.52332
0.562334
0.532469
0.527879
0.572458
0.570585
0.553885
0.57193
0.551468
0.509689
0.325932
0.533576
0.556844
0.385572
0.385469
0.5345
0.562977
0.546288
0.534441
0.522445
0.527147
0.572581
0.552161
0.391456
0.316228
0.530937
0.40601
0.46964
0.427479
0.522792
0.555408
0.544199
0.564391
0.519938
0.499777
0.573674
0.556362
0.415895
0.306117
0.526304
0.369488
0.372214
0.399127
0.462212
0.542999
0.565261
0.572418
0.546024
0.512993
0.577003
0.540614
0.473215
0.334298
0.527818
0.543753
0.372383
0.370728
0.363343
0.479122
0.557101
0.556076
0.513787
0.577613
0.577173
0.541737
0.480466
0.304292
0.0666317
0.541126
0.5517
0.420894
0.469812
0.355031
0.51724
0.539056
0.511617
0.502035
0.579955
0.545787
0.554613
0.493264
0.507087
0.504205
0.570233
0.525088
0.513656
0.517402
0.534038
0.554558
0.561562
0.500698
0.501593
0.570713
0.574932
0.564546
0.500619
0.0740612
0.500328
0.559551
0.487688
0.507209
0.566199
0.54218
0.257728
0.386625
0.357065
0.350825
0.561808
0.559723
0.49001
0.355504
0.3169
0.557853
0.560433
0.515764
0.328169
0.327821
0.539428
0.558621
0.560541
0.495434
0.331131
0.540005
0.129683
0.274885
0.530482
0.522756
0.5505
0.55093
0.542611
0.54392
0.519884
0.523407
0.541141
0.526043
0.51245
0.392075
0.29504
0.0739721
0.414576
0.648745
0.744807
0.72303
0.522267
0.663139
0.734967
0.746793
0.731235
0.698976
0.666072
0.646387
0.664821
0.483881
0.572045
0.656292
0.708158
0.733197
0.744292
0.744281
0.736571
0.722587
0.703875
0.69129
0.673764
0.669032
0.670606
0.678156
0.480229
0.534789
0.61911
0.651302
0.672352
0.690404
0.711651
0.730921
0.742218
0.74235
0.735347
0.719095
0.705425
0.698651
0.69299
0.687944
0.685235
0.66548
0.621312
0.671733
0.66252
0.685286
0.474926
0.509463
0.577819
0.595185
0.612038
0.638982
0.658769
0.668291
0.679046
0.707428
0.72948
0.737734
0.734995
0.723322
0.670524
0.691335
0.699746
0.694202
0.68498
0.672766
0.647334
0.626267
0.63725
0.492444
0.527558
0.553687
0.568716
0.582304
0.590728
0.595146
0.618262
0.641652
0.65606
0.659175
0.665881
0.707779
0.723779
0.726334
0.720635
0.713963
0.670558
0.69571
0.688709
0.683283
0.673254
0.6548
0.629984
0.59177
0.516119
0.56495
0.57815
0.581695
0.56547
0.567016
0.452104
0.480652
0.451045
0.625778
0.640879
0.652749
0.654975
0.663646
0.705311
0.709269
0.707224
0.703429
0.703521
0.662413
0.676697
0.688747
0.680415
0.667304
0.636877
0.370269
0.508498
0.560918
0.563313
0.585118
0.583083
0.593581
0.584066
0.580107
0.586212
0.593633
0.564179
0.646969
0.653196
0.408298
0.643279
0.499396
0.694689
0.701172
0.706478
0.707126
0.666107
0.674279
0.689404
0.673805
0.392928
0.528496
0.561296
0.573445
0.583135
0.58568
0.587829
0.582951
0.596892
0.598028
0.586046
0.589861
0.596209
0.606166
0.589596
0.599312
0.531125
0.639775
0.642314
0.691993
0.695705
0.696744
0.699161
0.698409
0.679297
0.50779
0.425362
0.528053
0.571233
0.580203
0.580171
0.583439
0.584168
0.585261
0.58664
0.584291
0.593984
0.601451
0.591831
0.587504
0.598584
0.594938
0.611448
0.635533
0.666626
0.661329
0.678945
0.682163
0.684823
0.675765
0.647547
0.395431
0.510392
0.562009
0.56264
0.568744
0.581661
0.581489
0.584973
0.584051
0.584962
0.581865
0.583382
0.586491
0.590593
0.595359
0.598812
0.600928
0.602337
0.599024
0.594518
0.588162
0.610136
0.642403
0.662022
0.665947
0.596411
0.513134
0.535513
0.57396
0.560955
0.575916
0.581544
0.581346
0.585607
0.583018
0.582563
0.581942
0.583524
0.584718
0.585051
0.585317
0.590856
0.593709
0.596215
0.598574
0.599123
0.592912
0.583212
0.504181
0.497744
0.487802
0.356708
0.49363
0.386566
0.513467
0.562098
0.580674
0.582237
0.584446
0.583622
0.584897
0.584738
0.584376
0.584129
0.584366
0.584964
0.585108
0.585152
0.585197
0.588564
0.591569
0.593557
0.594356
0.591922
0.587417
0.499125
0.384242
0.448501
0.506211
0.577847
0.5832
0.582007
0.579297
0.582053
0.58571
0.586006
0.586324
0.585789
0.584655
0.584548
0.585261
0.585319
0.584624
0.584466
0.583161
0.585389
0.587415
0.586298
0.586699
0.571848
0.525192
0.522561
0.577326
0.568354
0.5816
0.58571
0.584902
0.583633
0.578882
0.582553
0.585379
0.585866
0.585438
0.58587
0.584798
0.586287
0.586398
0.586275
0.58499
0.583187
0.580584
0.574827
0.573006
0.576034
0.560408
0.51114
0.525028
0.576253
0.588557
0.588496
0.588889
0.587654
0.586112
0.58412
0.583224
0.581247
0.584756
0.585791
0.585961
0.582973
0.583048
0.585811
0.586205
0.585836
0.584607
0.58214
0.578439
0.573007
0.54297
0.550379
0.511376
0.533005
0.582113
0.57994
0.586416
0.587968
0.588278
0.58777
0.586823
0.585341
0.58522
0.585221
0.583822
0.584735
0.585238
0.584669
0.583482
0.585371
0.585976
0.58527
0.583417
0.581319
0.576142
0.564705
0.520842
0.345988
0.493869
0.532634
0.58095
0.581209
0.587206
0.587117
0.587568
0.587423
0.58726
0.586285
0.585796
0.5854
0.585437
0.585804
0.584557
0.584159
0.584855
0.585938
0.585883
0.585746
0.585663
0.583537
0.579881
0.572676
0.532345
0.489103
0.492263
0.53097
0.581588
0.580742
0.585738
0.586981
0.587579
0.587244
0.586529
0.585314
0.58422
0.584197
0.584113
0.584141
0.584634
0.585687
0.585863
0.585533
0.584877
0.58425
0.585725
0.585718
0.583068
0.577809
0.556546
0.511342
0.493687
0.552106
0.58343
0.578832
0.584912
0.586208
0.587107
0.586572
0.585258
0.584213
0.583399
0.582816
0.582949
0.583569
0.583898
0.584209
0.584586
0.585308
0.585766
0.585337
0.581736
0.581634
0.578679
0.572288
0.56086
0.511746
0.343761
0.475557
0.547226
0.583548
0.588101
0.587004
0.586573
0.586791
0.586423
0.584881
0.583779
0.583276
0.583223
0.583279
0.583082
0.583363
0.584025
0.584622
0.585324
0.585691
0.585827
0.585527
0.581457
0.577682
0.567323
0.540518
0.53387
0.330434
0.522412
0.580129
0.579387
0.586571
0.587428
0.587244
0.586629
0.584693
0.583204
0.582858
0.582972
0.583177
0.583442
0.583616
0.583662
0.583849
0.584338
0.585167
0.585752
0.58385
0.583135
0.580268
0.571941
0.546641
0.545672
0.502945
0.514662
0.569637
0.583724
0.587169
0.587458
0.587753
0.586792
0.584713
0.581849
0.580081
0.580495
0.581827
0.582839
0.583432
0.583797
0.583951
0.584011
0.584163
0.584754
0.585945
0.584914
0.582697
0.580533
0.564151
0.545698
0.499791
0.485741
0.552911
0.581708
0.584869
0.586861
0.587615
0.586966
0.584326
0.581638
0.579366
0.577386
0.577242
0.5786
0.580933
0.582632
0.583472
0.5839
0.584132
0.584425
0.58514
0.58616
0.585193
0.581803
0.576892
0.562748
0.510095
0.518785
0.575598
0.584515
0.587335
0.588095
0.586657
0.5831
0.579359
0.576933
0.575799
0.574921
0.574434
0.575427
0.577528
0.580332
0.582421
0.583435
0.584008
0.584679
0.585794
0.585957
0.584347
0.57821
0.559108
0.527431
0.507015
0.566807
0.57466
0.584319
0.58776
0.586757
0.582877
0.577778
0.573371
0.57165
0.571428
0.571229
0.571176
0.572229
0.574321
0.577252
0.580684
0.582796
0.584051
0.585401
0.586086
0.584632
0.581871
0.576459
0.559012
0.44158
0.473341
0.545794
0.576533
0.581804
0.58655
0.587507
0.584263
0.579177
0.573886
0.569411
0.567002
0.566612
0.567317
0.568551
0.570035
0.572383
0.575854
0.579282
0.582289
0.58498
0.586175
0.58488
0.581856
0.577645
0.56816
0.515946
0.470953
0.541915
0.575119
0.580217
0.584276
0.586748
0.586212
0.581469
0.576254
0.571718
0.56814
0.565587
0.564127
0.564287
0.565921
0.568837
0.572539
0.576524
0.581125
0.584349
0.586304
0.58479
0.582834
0.576187
0.551205
0.533811
0.38146
0.51498
0.569637
0.58117
0.584709
0.585614
0.587047
0.58489
0.579305
0.574302
0.570538
0.567891
0.566152
0.565016
0.564276
0.565247
0.568447
0.573562
0.579216
0.583712
0.586517
0.585251
0.581921
0.574461
0.544687
0.535158
0.422006
0.497196
0.557673
0.573437
0.584634
0.586739
0.58715
0.586405
0.583434
0.578091
0.573117
0.569859
0.567957
0.567022
0.566381
0.566357
0.566755
0.569096
0.574476
0.58059
0.585503
0.586832
0.584337
0.575787
0.546715
0.535061
0.418627
0.539776
0.578153
0.584693
0.587179
0.587813
0.586045
0.583321
0.580225
0.576085
0.572653
0.569953
0.568253
0.56781
0.568451
0.568748
0.569517
0.571568
0.576257
0.582912
0.586764
0.586905
0.583364
0.577747
0.541517
0.425522
0.492047
0.567038
0.582534
0.586017
0.587865
0.586212
0.582695
0.579418
0.57672
0.574412
0.571799
0.570164
0.568749
0.568481
0.569852
0.572285
0.574294
0.576303
0.580886
0.585431
0.587449
0.584849
0.579422
0.555166
0.517077
0.528606
0.575084
0.58456
0.586242
0.587501
0.583716
0.579207
0.575725
0.573462
0.571788
0.571234
0.570391
0.570293
0.56951
0.570487
0.574279
0.578315
0.581743
0.58533
0.587119
0.586386
0.581106
0.561967
0.541558
0.42114
0.433868
0.549846
0.58188
0.58539
0.586747
0.587023
0.5821
0.576399
0.572706
0.570878
0.569621
0.569226
0.569701
0.570335
0.571414
0.572344
0.575403
0.580818
0.584409
0.586809
0.586486
0.583073
0.579171
0.564205
0.441623
0.519709
0.571381
0.582073
0.585548
0.587502
0.586417
0.581081
0.574399
0.570755
0.56854
0.567568
0.567944
0.568909
0.570476
0.572682
0.575799
0.578606
0.582247
0.586008
0.587253
0.585019
0.580194
0.563012
0.533861
0.352853
0.499589
0.568218
0.582909
0.58645
0.58829
0.587454
0.583556
0.578134
0.571978
0.568243
0.566274
0.565601
0.565799
0.567506
0.569891
0.572784
0.577043
0.58154
0.584667
0.586949
0.586491
0.582976
0.569846
0.539801
0.380734
0.546844
0.571934
0.583987
0.587268
0.588156
0.585834
0.58151
0.575384
0.569924
0.566579
0.564879
0.564327
0.564818
0.566125
0.569148
0.572742
0.577028
0.581845
0.585767
0.586782
0.583417
0.577543
0.563992
0.514544
0.501292
0.567976
0.582334
0.586992
0.58821
0.58664
0.584006
0.579917
0.575052
0.570077
0.566385
0.564779
0.564439
0.564734
0.566006
0.569004
0.573532
0.577902
0.582783
0.586305
0.586566
0.582078
0.566387
0.531766
0.354236
0.535845
0.575808
0.584237
0.58755
0.587365
0.584634
0.581377
0.577483
0.573932
0.570833
0.568013
0.56587
0.565345
0.56608
0.567513
0.570034
0.574566
0.580328
0.584295
0.586902
0.58559
0.579161
0.55832
0.513866
0.497962
0.56734
0.581492
0.585544
0.587875
0.586095
0.582243
0.578285
0.574928
0.572045
0.570457
0.569459
0.568208
0.567587
0.568077
0.570384
0.573543
0.577125
0.581896
0.586353
0.587153
0.583565
0.578506
0.55582
0.372622
0.53622
0.575958
0.583685
0.586601
0.58756
0.584788
0.580584
0.576655
0.573383
0.570645
0.568763
0.568488
0.568889
0.569498
0.570651
0.572829
0.576888
0.58118
0.584634
0.587141
0.585754
0.579782
0.559968
0.525518
0.492591
0.567321
0.581378
0.585474
0.587581
0.586607
0.583249
0.579086
0.575439
0.57266
0.5703
0.56849
0.567566
0.568066
0.569681
0.572326
0.574815
0.578261
0.58266
0.586278
0.587048
0.583359
0.578225
0.558226
0.376397
0.534818
0.57674
0.584321
0.586539
0.587767
0.585373
0.581239
0.577351
0.574349
0.57218
0.570407
0.568747
0.567893
0.568099
0.569708
0.572708
0.576832
0.58043
0.583915
0.586676
0.585882
0.582248
0.561234
0.525735
0.54841
0.573192
0.584681
0.58773
0.587372
0.584079
0.57977
0.57592
0.573254
0.571559
0.570494
0.569585
0.568807
0.568798
0.570101
0.573204
0.577869
0.582408
0.585539
0.586873
0.583797
0.576496
0.563203
0.399621
0.479525
0.567888
0.582263
0.587066
0.588309
0.586518
0.582871
0.578443
0.574746
0.572316
0.570913
0.570147
0.56985
0.569827
0.570128
0.571297
0.573815
0.578106
0.583644
0.586473
0.586523
0.581762
0.561872
0.532073
0.351995
0.50484
0.571319
0.583998
0.588149
0.587881
0.585431
0.58167
0.577182
0.573501
0.571284
0.570218
0.569802
0.56974
0.570062
0.570944
0.572567
0.575198
0.579081
0.583325
0.586572
0.58598
0.580955
0.55538
0.396968
0.517093
0.574692
0.584814
0.588381
0.586634
0.583188
0.579687
0.57582
0.572294
0.569978
0.569034
0.569165
0.569599
0.570189
0.571273
0.573277
0.576601
0.580692
0.584657
0.586881
0.58402
0.577318
0.545455
0.365801
0.54598
0.573162
0.58506
0.588212
0.585672
0.581296
0.577294
0.574057
0.571365
0.569231
0.567921
0.567815
0.568948
0.57022
0.571656
0.573768
0.577262
0.581932
0.585839
0.586331
0.582386
0.564549
0.527773
0.48657
0.56318
0.57991
0.586686
0.587873
0.584582
0.579977
0.575772
0.572637
0.570452
0.56907
0.568105
0.567506
0.567921
0.569734
0.571888
0.574492
0.577918
0.582354
0.586245
0.585483
0.57712
0.563214
0.386303
0.513486
0.572223
0.584117
0.587915
0.587144
0.583562
0.578976
0.574671
0.571464
0.569481
0.568506
0.568249
0.568342
0.568663
0.569692
0.571833
0.574919
0.579165
0.583395
0.586583
0.584582
0.576271
0.542145
0.354542
0.546144
0.571112
0.583918
0.587896
0.586425
0.582134
0.577581
0.573636
0.5704
0.568108
0.567315
0.567557
0.568202
0.569148
0.570418
0.572363
0.575413
0.579633
0.584232
0.586781
0.583155
0.571367
0.531309
0.475909
0.566752
0.581553
0.58669
0.588012
0.585705
0.581159
0.576142
0.572202
0.569414
0.567278
0.56603
0.566158
0.567308
0.568785
0.570557
0.572877
0.576259
0.580781
0.585197
0.586503
0.582468
0.565527
0.519046
0.516535
0.573328
0.58394
0.586952
0.587611
0.584719
0.580314
0.575125
0.570768
0.56781
0.566177
0.565256
0.564963
0.565709
0.567785
0.570282
0.573104
0.576912
0.581671
0.585795
0.585568
0.577427
0.563793
0.39086
0.534205
0.578347
0.58479
0.587933
0.586813
0.582976
0.578585
0.574104
0.569911
0.566588
0.564575
0.563969
0.564379
0.564985
0.56653
0.569561
0.573351
0.577681
0.582836
0.586599
0.585336
0.57594
0.541166
0.355485
0.546191
0.572093
0.584769
0.588003
0.586331
0.582263
0.577565
0.573466
0.569898
0.566597
0.564144
0.562918
0.563086
0.564511
0.566462
0.569394
0.573605
0.578991
0.58408
0.586863
0.582509
0.575156
0.532532
0.402304
0.565611
0.582397
0.587404
0.587943
0.585134
0.581283
0.577093
0.573211
0.570112
0.567571
0.565063
0.563233
0.562553
0.563414
0.566119
0.569922
0.574541
0.580079
0.585542
0.586475
0.582117
0.559588
0.515986
0.483855
0.569543
0.582136
0.587337
0.587834
0.584684
0.580505
0.576591
0.573188
0.570349
0.5682
0.566506
0.564851
0.563501
0.563594
0.565699
0.569973
0.575718
0.581727
0.586316
0.585726
0.577033
0.562287
0.386922
0.503446
0.571786
0.583661
0.587386
0.587797
0.584716
0.580299
0.576219
0.573128
0.570728
0.568797
0.567204
0.566032
0.565371
0.565228
0.566748
0.570509
0.576522
0.583251
0.586954
0.583715
0.57752
0.53782
0.533859
0.578193
0.585392
0.588231
0.587375
0.584581
0.580383
0.576041
0.572824
0.570792
0.569363
0.568049
0.566617
0.565775
0.566354
0.568251
0.571705
0.577417
0.584009
0.586941
0.582096
0.563232
0.525286
0.536871
0.579541