/*--------------------------------*- C++ -*----------------------------------*\
| =========                 |                                                 |
| \\      /  F ield         | OpenFOAM: The Open Source CFD Toolbox           |
|  \\    /   O peration     | Version:  2312                                  |
|   \\  /    A nd           | Website:  www.openfoam.com                      |
|    \\/     M anipulation  |                                                 |
\*---------------------------------------------------------------------------*/
FoamFile
{
    version     2.0;
    format      ascii;
    arch        "LSB;label=64;scalar=64";
    class       volScalarField;
    location    "200";
    object      omega;
}
// * * * * * * * * * * * * * * * * * * * * * * * * * * * * * * * * * * * * * //

dimensions      [0 0 -1 0 0 0 0];

internalField   nonuniform List<scalar> 
404911
(
208.455
138.815
3432.65
1536.57
121.845
136.471
97.9808
602.479
340.892
281.609
214.217
273.631
123.865
180.366
384.675
1098.34
204.079
114.694
133.994
223.172
335.366
148.165
519.597
291.727
93.7854
903.824
228.159
76.5267
91.5424
967.915
220.941
68.9215
142.873
221.673
175.316
72.7032
138.814
399.762
186.651
71.3419
165.407
1001.66
185.96
69.8104
60.8871
353.174
305.61
69.5604
69.3284
376.127
376.806
350.894
122.713
1320.96
325.052
565.934
9402.12
90.769
296.23
196.881
129.541
74.0934
153.719
48.2004
74.354
118.403
83.5224
289.052
91.5513
41.5344
81.7999
28.5343
69.0841
51.5249
32.7139
580.289
2261.49
213.344
46.0274
67.9084
36.3782
76.985
25.706
49.1521
61.643
39.5705
178.88
34.9804
1119.75
56.5848
93.8792
2947.81
31.6641
52.777
63.4521
38.4967
56.5368
51.085
32.1653
203.414
585.729
33.672
45.3389
433.729
1132.34
392.177
156.897
568.991
238.106
172.762
122.775
124.802
116.955
128.932
2187.5
407.215
133.075
4446.48
496.833
100.593
102.902
103.023
105.923
167.987
1196.19
218.651
126.193
117.907
105.605
421.026
381.18
418.253
102.82
96.3522
104.496
97.7101
137.835
134.607
90.1561
189.097
1070.65
214.52
116.63
103.764
104.975
104.413
107.758
101.112
420.188
363.985
103.22
94.429
109.414
1684.23
189.708
881.875
169.695
99.4081
90.6801
98.2651
98.213
103.672
107.72
107.596
103.339
98.9303
98.1004
96.7028
105.994
167.529
303.98
487.276
357.017
332.686
353.981
348.082
423.11
103.646
108.027
101.351
101.061
99.1623
105.864
115.319
117.796
115.444
201.418
603.872
375.453
324.453
327.014
213.735
283.329
451.89
361.064
93.5846
99.0821
97.0653
104.087
109.858
114.18
139.111
1055.06
882.933
169.603
482.824
260.206
205.772
198.578
185.939
357.431
255.843
306.287
364.055
368.178
90.5035
102.042
106.965
105.44
124.384
392.379
754.748
495.001
191.743
112.578
83.7678
118.021
203.347
200.721
142.296
211.762
164.577
133.486
82.8257
105.681
107.041
121.764
202.64
1093.58
1110.29
193.649
71.1586
103.448
78.0794
76.2609
81.668
84.5035
128.945
148.34
178.763
91.8498
84.375
229.296
386.726
96.8385
130.271
1000.22
363.848
96.3336
63.1131
123.117
74.4942
71.7107
69.7609
73.8805
78.1106
86.694
78.5316
76.8216
176.674
304.585
371.664
434.353
331.898
372.222
128.263
91.3952
209.493
76.4496
72.6327
84.8091
74.8105
77.9859
83.5526
70.842
72.0354
103.42
287.14
346.84
377.514
1578.29
266.278
103.322
85.5171
53.6924
64.5345
71.7348
76.8694
71.022
71.9234
71.2572
73.0282
75.7964
72.0889
134.134
311.634
347.74
161.057
923.547
875.981
780.392
213.262
117.579
39.5503
33.993
73.6096
73.2908
76.8308
67.8028
67.9121
67.9181
73.2074
72.3802
94.314
278.442
114.653
446.946
1003.33
167.733
83.3156
131.401
72.5581
72.3428
64.8137
28.616
67.4119
62.9709
68.4324
36.553
33.52
71.1403
81.4894
88.2119
275.83
178.689
371.127
92.6174
64.8639
44.6033
39.0433
64.1411
57.2897
57.0373
29.6195
41.7688
29.7922
29.0573
38.0223
45.9051
75.2238
104.118
114.369
898.48
1033.32
179.439
85.421
58.4782
33.2051
29.0913
35.7864
52.832
35.6922
34.6775
25.1329
52.1254
44.1526
55.3472
64.1657
70.6527
307.208
780.003
260.573
81.1509
64.1661
66.6611
68.4722
39.5358
57.0394
37.4133
26.839
26.2353
25.4957
33.9895
44.5997
65.8961
82.6202
74.0973
190.144
609.094
995.926
788.24
247.438
94.674
72.0695
43.0761
53.8742
47.9015
38.6237
32.8272
24.7005
26.4154
26.7272
39.394
77.3766
98.3413
79.1652
342.797
337.693
98.9429
114.584
69.6063
49.6897
37.9648
39.6498
45.5828
38.5922
56.4218
43.7226
26.3084
28.9664
36.4245
45.5421
73.927
187.147
868.003
114.429
66.9963
78.2416
38.7999
40.3521
36.9408
35.8426
51.1372
62.3051
62.65
55.9841
43.8902
38.7663
38.1504
76.9883
84.7112
219.072
334.314
77.1615
82.5051
58.7498
35.0981
28.1745
35.346
32.4559
35.6226
41.9438
64.2165
56.4876
42.273
64.1173
52.9518
92.1965
98.4007
872.056
164.652
61.4526
45.3118
31.7108
29.7239
27.3615
28.9851
46.9905
24.3496
23.983
33.8134
40.4239
63.9488
71.7492
93.6588
94.4832
191.854
1065.79
363.349
101.529
64.9438
39.0854
30.6632
27.5077
33.9241
33.1607
25.7204
25.6371
25.7529
26.0126
27.9568
34.1821
95.0809
56.9381
107.573
898.01
1022.98
152.519
62.0061
74.0337
38.1369
29.6866
27.7467
25.7807
24.627
33.0403
23.58
32.1662
33.9811
30.833
34.9328
46.4245
84.6973
203.767
340.369
86.5034
61.4969
39.5943
31.3457
28.39
27.1076
26.1448
33.6114
24.4358
23.8708
24.483
37.0197
41.8719
55.8343
77.5102
103.22
891.473
1036.27
154.992
64.0789
48.822
35.2258
29.5831
27.4411
27.1031
26.8118
25.0922
33.3187
32.7781
33.1696
28.1484
39.8495
50.6906
103.697
180.83
802.204
92.0135
63.8084
43.1353
32.7739
28.8886
27.0121
26.9723
26.8967
26.5134
24.962
24.0019
24.9882
27.2076
35.0533
71.9367
119.969
230.543
183.434
69.1227
62.244
41.8202
32.0833
28.0314
26.8878
26.3325
26.2348
26.2152
25.5192
25.4685
26.4163
28.9505
43.9849
71.9575
93.1685
407.533
160.594
88.4838
70.4592
37.831
31.4223
26.9504
25.2719
24.3452
25.9331
25.6642
25.1508
25.6398
27.0614
34.0743
47.4661
66.1909
161.719
1010.59
1051.53
108.267
57.6177
53.9752
40.8373
28.7947
26.8459
24.3369
31.8538
31.4526
25.5698
24.9702
26.0526
27.698
34.551
76.9049
92.1886
360.244
828.91
96.8838
62.3618
37.5111
30.4785
27.8204
26.042
25.8578
23.951
30.768
25.8262
24.6162
26.2077
28.1916
33.3464
72.065
96.6314
955.26
203.706
79.9842
64.3314
38.0409
30.0879
28.6247
27.3995
26.0844
26.1545
25.0091
23.7557
23.7243
26.1079
28.6061
47.1857
57.2531
102.118
994.946
191.064
68.1227
46.3518
34.1832
28.7608
33.3801
33.8951
24.988
25.9456
25.8092
25.6481
25.7184
26.8845
29.9722
44.171
64.8197
180.175
933.869
126.185
66.9383
45.7563
32.0981
28.2827
26.3692
31.8515
32.4998
23.7364
25.195
25.1518
25.8248
27.0581
31.0749
61.7343
81.5638
348.58
340.608
85.6643
72.1897
55.8715
32.6861
26.74
25.155
24.4874
31.8578
31.0538
21.7028
25.2456
26.6382
27.5407
32.3577
59.6631
96.0098
902.468
197.114
68.5041
46.9828
35.1129
29.3456
26.2195
32.7819
31.6411
33.006
23.936
30.6282
26.0859
24.3726
28.1704
33.2828
66.8601
136.247
1034.1
952.343
112.296
63.1251
47.3092
33.1518
29.008
25.9805
31.7404
30.3711
31.6242
32.4525
23.0633
29.1587
30.899
27.8579
42.5715
61.1934
160.615
944.906
103.197
62.7256
40.3413
31.4419
28.0637
26.5281
25.4011
31.2898
31.9136
31.6729
28.9652
23.6847
26.5012
29.876
43.8365
71.3934
325.787
929.299
101.938
63.3374
38.0133
30.7236
27.7008
26.2683
25.8256
25.6252
23.6569
19.8531
27.1187
28.1391
26.4033
33.9307
57.539
83.0695
803.859
924.771
98.8394
62.1809
37.9365
30.0371
27.7681
26.463
25.9056
25.6055
25.758
24.3414
20.7922
28.5324
33.2056
35.1508
70.7926
135.454
1032.11
194.653
84.2683
63.6325
39.0503
31.0033
27.4849
26.2646
26.0377
25.3773
23.1215
21.1765
22.2614
24.0646
32.6464
35.502
68.1498
157.319
1053.32
174.439
68.9641
49.764
38.0902
31.248
27.7648
25.8599
25.4651
26.3168
24.6734
20.5701
25.3703
30.626
28.8636
34.6731
69.7994
152.53
1002.78
103.81
71.4464
57.3117
35.457
30.5998
27.26
25.6964
25.4016
25.1294
26.0393
24.7018
23.6794
30.0655
35.2276
43.6656
73.4347
165.89
881.766
100.938
64.1261
38.4263
31.4625
28.652
26.8517
24.3
29.2661
28.2464
25.1754
25.0296
25.7604
26.3545
28.8209
44.3116
63.7281
176.358
947.328
101.237
63.9607
37.8763
30.1966
28.3046
26.5236
25.751
23.6543
29.5418
28.4039
25.4542
25.9479
27.2299
29.8404
48.5837
66.5938
191.19
948.757
104.793
66.8217
38.1066
29.7563
27.9916
26.5376
25.6622
25.8817
25.5492
24.5303
23.5172
25.5221
27.1088
32.3485
49.0525
73.5183
329.58
881.355
97.8127
64.5131
37.6291
29.3105
27.3772
26.2035
25.954
25.6706
26.1749
26.0695
25.1838
25.9333
27.3989
32.5502
63.2205
94.0191
884.876
205.437
94.9102
63.5103
37.2787
29.1318
26.6392
25.7321
25.2111
25.4051
25.1311
25.4331
25.4164
26.0175
27.3471
32.5908
60.9097
95.8726
968.639
209.574
91.5268
61.6733
36.7871
28.9496
26.3806
24.9942
24.1664
21.1737
20.789
22.3304
25.3881
26.4652
27.1793
32.3898
62.1141
94.0029
936.77
1075.59
129.41
86.9116
62.7009
34.9219
34.293
32.8926
21.0933
21.7174
21.2816
22.7108
23.386
24.5379
25.5558
27.4164
32.1574
65.8141
104.653
922.693
963
98.1783
61.7117
70.7674
35.6121
26.9987
30.597
25.8351
21.8396
21.9397
21.7637
21.0156
22.778
29.9348
27.8744
34.3012
63.1672
142.489
103.123
63.3173
36.1152
29.1105
26.666
25.7515
23.05
17.4082
20.7893
23.4934
21.1719
19.8848
23.8684
27.4652
40.0927
59.8063
152.376
899.069
102.691
61.3929
33.0593
27.4693
26.2731
25.7917
25.2667
22.683
21.6906
20.4703
20.513
23.3747
23.5799
28.4722
43.2746
66.8489
193.376
940.486
95.5784
59.5707
31.2088
26.9077
26.3965
25.3239
24.9298
24.9672
22.3711
21.834
21.3399
23.1189
23.6329
28.0706
42.3568
71.3172
334.911
1038.09
94.4827
59.9107
31.1794
26.6554
26.0059
25.2919
23.1542
20.6607
21.832
21.8494
23.1213
25.8234
24.0632
28.9733
46.8396
76.6977
748.946
87.2522
68.396
33.3772
27.1662
25.824
25.7657
25.1164
20.0201
23.6312
24.8206
22.9517
23.8254
25.2723
30.8989
59.2449
93.2222
851.019
657.448
113.152
33.2251
27.2954
25.9516
25.7021
25.781
25.0611
19.4435
23.3367
24.1291
25.0783
26.6301
32.8674
62.8362
96.2625
950.051
2070.95
230.977
69.2278
45.4384
27.3291
25.9693
25.7502
24.9157
24.4565
24.4086
20.4564
25.2194
23.6359
27.5754
37.8993
61.709
111.239
999.178
191.499
54.4552
55.7001
36.4024
26.3114
26.3729
25.8655
24.6202
20.7885
23.5399
24.5352
22.6988
23.87
26.7187
41.4229
65.1825
173.271
177.181
77.832
41.8143
29.8459
27.0208
26.104
26.4297
25.8548
23.2601
24.3987
23.5746
29.0994
26.3761
29.5849
43.4026
68.6377
190.044
1083.69
147.667
64.3887
41.4516
36.1759
38.4315
41.1886
34.0876
25.2591
22.9305
20.1152
19.2883
22.4656
24.9292
31.6549
62.7116
83.2243
752.802
854.102
101.024
59.9818
32.4603
33.7146
34.258
71.9323
71.968
34.8397
21.0981
24.2401
26.626
23.2171
26.5719
33.423
70.1872
91.0771
882.587
726.114
69.0104
96.2247
50.6097
34.8405
33.4203
30.8411
36.3511
73.6256
36.927
24.1495
26.8723
32.0124
32.6768
38.1864
69.6587
93.5751
892.333
341.591
64.7929
64.9056
40.1471
32.7885
33.2158
41.1031
32.0447
29.5115
37.8424
31.1443
31.6484
33.4004
33.599
37.6586
71.1445
99.7356
928.426
908.349
149.37
65.4557
50.1023
42.6759
31.8034
25.01
17.3824
29.5056
49.553
41.3315
35.4832
33.1551
33.4728
26.2876
37.4795
68.7473
219.406
935.883
796.202
76.8313
77.8117
45.3618
41.1313
32.1776
19.7339
11.3455
15.6059
28.1448
36.9221
25.6488
25.998
26.0105
27.9075
33.7034
58.9439
108.128
964.887
132.955
59.729
40.8396
39.6037
30.5995
18.9702
11.6549
13.7319
19.8007
29.7058
23.2547
26.0678
27.3559
28.9029
45.7755
58.2657
150.991
1088.04
160.358
60.0266
52.2735
42.1285
30.5319
13.2479
12.0625
18.8237
19.5815
25.792
27.7994
25.3344
26.9274
28.881
43.9512
64.5775
187.5
164.348
64.4625
56.6543
43.2996
31.2064
16.8737
10.2349
14.4211
24.2666
23.0626
29.0773
24.0904
26.5105
28.6533
44.7489
68.6802
330.35
140.957
115.803
65.8911
42.025
31.3109
13.1796
10.6857
13.8091
17.6152
22.7648
27.1035
23.8808
26.9614
31.159
46.6587
72.8556
764.198
849.823
87.5903
75.1169
56.389
40.8937
30.4362
18.4782
11.9677
16.6266
20.7565
27.7618
30.1522
31.279
27.983
33.8682
63.6088
97.4289
867.203
804.849
95.9414
78.0758
57.0186
42.5643
30.3445
12.9401
13.6254
18.1079
25.6453
29.9916
31.4869
32.8669
27.7513
37.7614
60.385
163.431
745.544
80.0579
54.4745
48.4938
42.8153
32.5482
17.7706
11.8601
15.5628
24.1635
32.5953
32.987
25.536
27.9549
38.8851
64.4077
196.519
757.895
80.7763
53.5748
46.515
43.6073
32.7065
14.0697
15.45
24.7217
30.2433
31.7271
32.8591
25.2832
28.6488
40.9001
68.9499
197.466
768.732
83.9731
52.2492
39.7941
40.8935
36.5135
16.0397
16.273
22.4112
30.3191
31.917
32.777
26.1044
30.161
46.2852
73.7222
752.859
776.615
82.3789
54.7571
45.1521
40.3713
37.0301
31.0868
18.9834
20.7854
32.7979
33.3446
33.4202
26.1663
29.9497
57.9931
92.418
857.386
194.539
83.2862
99.9009
50.3829
36.3094
27.2627
25.8758
29.1692
32.1359
32.7382
33.1658
25.4869
26.5547
30.2679
58.2693
96.5371
933.432
247.877
173.746
54.2136
34.2234
25.499
13.9382
18.6302
28.4987
33.0467
32.981
25.7394
27.7689
36.4577
66.7127
133.011
1066.08
232.898
100.576
67.8497
40.5041
14.1636
12.6762
16.0913
27.7211
32.8635
33.4616
33.7165
29.2209
37.4014
62.4722
171.155
190.86
185.308
95.6996
71.1066
43.1811
14.6784
12.847
17.3148
24.298
32.9811
33.144
26.433
31.855
44.2237
64.2868
193.051
206.186
71.9092
64.1524
74.2483
60.1954
27.5441
14.6401
17.7747
29.3544
34.3342
34.3676
36.4604
35.9204
67.7977
83.5352
741.542
209.957
74.5448
89.6361
71.2496
81.8498
68.2712
32.7175
29.2143
30.6916
35.6423
34.7591
46.0047
60.3683
100.378
106.801
932.552
1053.1
187.299
90.1068
51.1364
72.3569
83.6072
78.5873
63.6819
39.5508
61.5913
65.768
55.3686
38.5491
66.4948
116.44
373.115
1099.89
118.664
66.2776
68.0581
32.9978
67.5401
69.3338
60.671
32.8509
37.5597
50.074
64.6809
74.6245
75.7867
172.226
152.138
868.521
112.144
78.7815
69.3597
32.1686
58.347
53.0934
57.8501
51.0052
40.6935
59.1756
68.3182
70.4438
81.4704
207.971
698.014
191.911
74.8914
255.832
88.9871
61.6728
30.7389
40.2631
37.9942
36.8031
37.0431
42.1159
38.4602
55.4184
94.1865
200.203
3966.42
201.614
429.109
170.194
83.9874
79.7374
53.0418
43.3936
68.6847
69.1941
51.9604
41.0061
60.1999
70.0267
101.259
190.221
673.894
944.516
513.169
213.499
84.8282
63.9395
64.897
40.9098
41.5945
59.5386
68.9809
82.4018
75.6801
119.591
111.422
217.3
1062.07
109.576
334.216
126.945
71.5299
58.5326
40.2285
49.7068
70.4607
72.5094
69.6334
79.9047
68.3548
108.279
138.558
1283.9
1051.33
124.393
82.6993
274.237
146.68
80.2009
40.6491
43.7311
68.7639
73.233
72.6774
78.4743
92.5794
80.6511
213.321
1116.83
456.343
118.468
85.4207
371.132
228.763
91.8001
52.2765
56.1252
73.1489
79.2003
78.5799
108.465
69.8869
90.6511
222.316
1009.63
426.298
358.685
265.827
152.123
68.3058
70.0402
70.065
82.4475
80.7956
127.481
85.6151
136.264
1020
591.654
401.147
341.13
290.458
129.549
215.352
76.789
69.1916
79.2929
108.636
71.748
94.1823
213.143
1036.84
111.977
86.3438
383.537
300.792
87.7341
222.528
301.153
81.0455
90.3866
127.192
88.3868
118.392
407.019
1095.31
120.419
90.4848
388.795
363.375
190.737
92.3784
131.019
188.536
243.494
242.365
95.3483
131.071
1070.33
1019.78
119.327
425.8
378.702
389.561
272.017
117.94
169.146
88.3156
247.411
388.365
99.001
138.925
1154.85
1083.71
118.703
439.289
379.759
389.144
362.14
123.828
101.69
79.253
156.132
393.183
104.18
211.946
1204.49
1035.45
128.639
96.7103
401.793
364.219
398.181
360.755
81.6697
91.4817
236.047
98.3702
115.482
215.16
1311.04
1315.39
1025.62
100.457
94.3868
380.747
378.327
492.912
294.668
132.666
256.348
402.741
120.327
232.454
101.137
409.249
365.679
372.697
90.8384
399.134
409.778
431.114
402.505
103.882
91.2529
363.974
438.291
104.22
122.098
186.155
1040.61
6163.4
477.917
90.059
376.347
408.851
128.051
263.358
2696.99
1976.56
378.826
657.652
121.463
142.16
1021.69
358.276
647.686
123.798
135.283
449.738
708.296
482.224
151.417
119.86
158.357
1020.31
1030.19
183.736
1821.97
695.924
396.563
227.346
107.258
102.2
129.594
130.424
515.191
171.745
111.355
252.546
557.618
1345.25
1184.96
6309.36
364.098
1466.27
603.215
637.259
1240.68
471.396
294.103
218.647
231.437
255.073
279.137
307.152
580.328
1224.77
452.045
259.631
181.19
173.418
161.099
156.869
172.288
207.299
250.077
285.121
305.585
338.827
384.47
439.121
1117.21
402.16
176.833
154.201
140.581
143.125
144.806
145.189
150.91
159.206
178.507
195.951
229.92
271.232
317.838
349.44
393.499
436.066
514.256
678.585
780.323
1551.79
811.126
367.585
158.54
135.73
129.997
124.254
125.24
133.808
141.067
143.105
145.825
150.218
162.122
156.174
514.681
581.881
283.23
326.906
339.115
391.743
435.069
544.58
1134.05
408.848
194.548
134.469
116.729
102.636
101.117
104.124
110.848
122.442
127.501
134.773
138.536
142.297
142.759
148.298
156.01
148.507
480.943
578.531
252.066
309.492
347.107
405.109
500.162
1770.53
291.592
101.127
71.1675
66.9102
92.4392
98.6999
463.226
498.574
586.667
94.7471
116.737
126.133
117.906
119.656
118.405
138.005
146.124
145.779
140.654
458.705
567.008
252.727
313.594
399.636
841.974
1354.39
271.032
125.045
113.961
61.1167
69.7806
61.6797
92.6675
102.117
90.3883
89.8403
237.978
97.858
113.594
939.705
145.983
531.561
121.439
144.458
164.385
178.62
524.639
584.552
296.617
695.544
1113.93
214.074
143.758
97.5883
47.8278
41.5171
37.8133
57.0115
48.7539
49.2858
88.4078
89.9789
83.6774
91.0486
204.51
213.361
369.959
139.276
201.856
133.309
150.063
162.365
184.062
230.425
536.313
298.274
1207.52
207.66
113.194
75.2296
59.6633
38.2827
38.0186
36.9707
36.6543
46.5649
49.5279
39.883
79.8085
101.527
74.8063
97.9856
89.9402
89.6479
78.5176
125.326
100.096
138.509
164.948
274.713
528.093
952.162
277.15
90.4989
99.4133
98.2597
52.178
48.7877
31.3073
33.462
32.0738
43.1391
39.375
37.4574
35.1326
31.5708
33.7276
37.9149
43.2948
58.8689
87.5647
136.331
102.518
105.893
113.621
147.245
419.816
1025.88
136.304
69.7762
99.49
70.379
46.9784
49.6475
29.8127
36.8671
38.6867
42.5029
39.0886
37.7786
37.325
37.4502
32.8191
33.0491
36.0828
40.4702
47.5796
65.5205
91.8735
443.373
405.82
522.964
4370.97
652.61
1251.73
205.122
91.1126
53.86
42.124
34.8003
39.6924
35.595
35.8906
37.5885
39.7537
39.458
38.2395
37.9541
38.3998
37.4611
36.3745
37.9418
43.1204
50.5867
62.456
73.7337
434.041
1500.03
1141.17
236.077
87.065
49.4973
40.6797
46.816
39.7614
29.778
28.6376
30.5392
33.7906
38.3492
40.5904
36.7187
35.5156
38.6802
38.777
41.3245
42.8362
49.012
59.3597
64.8986
110.984
323.129
331.978
103.868
142.328
97.0029
73.7455
44.1865
35.2825
44.4267
36.1298
30.928
27.3886
26.1565
26.6729
22.4185
30.2755
29.0398
29.3813
34.6642
38.8357
45.6721
60.2409
62.0257
63.1634
104.959
345.432
312.458
107.48
74.5391
67.1683
46.0486
41.5402
38.6597
37.7066
31.5556
35.7074
31.6865
30.1011
27.8303
20.2892
19.919
25.2425
27.0499
30.1313
33.2615
39.7335
51.5385
65.4951
117.605
93.8856
337.845
274.645
87.2115
91.5973
70.1193
46.8031
37.7211
33.854
31.1675
31.1193
27.1723
24.8098
30.4522
30.6629
32.8882
21.6076
20.152
23.7135
26.7912
31.0864
34.4056
39.1474
58.2751
83.8641
160.732
707.454
1013.77
262.928
83.788
82.5054
49.9363
41.2672
35.7149
32.2835
28.0685
23.5435
21.056
18.9939
18.6872
21.0341
29.1678
31.6476
31.5948
27.5453
25.5543
25.4118
22.9644
33.7055
44.6957
68.2867
140.181
299.689
991.655
256.628
76.0866
77.3978
47.6116
35.2232
29.2803
24.9304
23.533
21.9644
19.6164
17.8653
16.6328
16.2952
16.8246
18.8987
20.6881
22.2235
25.8045
30.7072
22.281
24.0062
34.6682
54.6561
123.424
326.281
884.48
154.172
73.6619
80.9911
48.7658
35.0485
27.6423
22.2312
19.4768
18.2627
17.9565
17.9227
17.0169
16.3765
16.0521
16.3259
16.7547
17.7158
18.7732
19.47
24.6449
26.4988
34.8353
51.2333
80.301
213.922
1203.43
1083.9
168.481
70.9646
54.2992
41.995
34.6927
29.3354
22.6588
18.6668
16.9202
16.4112
16.5563
17.0623
16.9887
16.5568
16.3988
16.6264
17.9544
19.7463
23.6365
22.4815
30.1874
38.8744
58.2674
86.4484
96.0657
1385.88
288.235
76.9097
82.0702
47.861
34.1862
29.2471
24.2675
19.8809
17.3604
16.1827
15.8715
15.9474
16.2321
16.5152
16.4755
16.2897
16.4075
17.429
20.6857
28.427
34.2811
42.5883
61.2015
94.5832
94.0632
313.796
332.507
100.907
66.0594
46.1409
36.313
30.0358
24.2308
20.8553
17.7429
16.1285
15.7211
15.8489
15.9225
16.0651
16.2375
16.3524
16.4405
16.6811
17.5154
19.9937
25.7961
31.5015
40.5156
65.3996
92.2007
326.711
860.445
138.022
64.423
53.1525
37.7033
31.7768
25.7178
20.7301
17.7395
16.2028
15.0966
15.016
15.3027
15.7074
15.911
16.1117
16.3599
16.6628
17.2058
18.4868
21.2885
28.157
38.7773
55.4257
73.389
278.57
279.737
74.6583
49.7484
33.6549
28.0125
23.2717
19.5654
16.415
14.7342
14.1034
13.7578
13.5908
14.0929
14.6398
15.2261
15.779
16.2597
16.8043
17.6907
20.2347
24.4887
30.4759
53.2994
93.2859
172.295
333.679
86.8005
79.3202
43.296
29.0356
22.2072
18.7222
15.2077
12.8617
12.059
11.9809
11.8666
11.8426
12.3753
13.3098
14.2468
15.3182
16.0843
16.9684
19.1815
23.289
29.5279
38.1243
57.8573
83.9392
689.072
810.326
126.987
64.813
53.1852
31.7662
24.0875
18.8048
15.592
12.966
10.9171
9.96657
9.86372
10.1449
10.6278
11.2553
12.2485
13.7155
15.2031
16.4713
18.6947
21.3931
29.3387
38.7347
54.5665
69.435
279.202
815.676
139.087
68.2018
58.3874
37.0867
28.4756
20.4953
16.2586
13.6415
11.7877
10.2874
9.31875
8.82944
8.91042
9.5341
10.6668
12.2165
13.92
16.146
18.8374
23.1092
30.8502
36.2871
62.162
106.641
146.099
945.366
291.253
83.1083
58.7183
37.9377
31.3969
24.3555
18.5211
14.6591
12.6794
11.2969
10.2399
9.49157
9.10162
8.86889
9.2488
10.4922
12.612
15.4471
18.57
23.6483
29.9827
41.9982
63.8266
105.359
128.805
781.375
655.148
109.032
81.2065
42.8442
30.737
25.4615
20.9377
16.8002
13.7693
11.9605
10.9318
10.1609
9.69693
9.36479
9.52907
9.78951
10.7444
13.0585
16.3098
20.9813
26.7002
34.9783
64.2617
103.239
126.122
769.715
147.75
66.0467
42.908
30.9982
23.9579
20.7023
17.482
14.473
12.4737
11.5251
10.7329
10.1032
9.71048
9.86096
10.1309
10.7965
11.8141
14.1284
18.4181
22.9919
29.4123
41.973
61.0604
113.76
765.475
652.938
78.8183
53.7975
34.9133
25.8482
19.9659
16.4955
14.7622
13.0566
11.6182
10.6663
10.3309
9.89451
9.72967
10.0815
11.0476
12.4645
13.9602
16.7886
20.6154
27.7897
37.8786
61.6941
105.154
264.513
160.681
66.1147
44.2038
33.1627
23.093
17.2294
14.1172
12.4559
11.7459
10.8804
10.4295
10.1095
10.2382
9.95598
10.2395
11.5728
13.4114
16.1064
20.2793
27.5312
31.6735
53.3979
99.7937
135.651
806.232
822.637
113.341
54.3324
38.2725
31.0303
22.2115
16.1872
12.7637
11.1313
10.4989
10.0932
9.83205
9.82315
10.0443
10.6166
11.1687
12.5193
14.9826
17.3141
21.1149
28.1305
38.5003
52.9434
79.5761
714.897
230.77
74.7618
54.7457
36.8069
28.4761
21.8798
15.9657
12.1781
10.6379
9.75779
9.34242
9.38293
9.56952
9.97034
10.8212
12.509
14.2763
16.3983
19.3288
23.519
30.7201
46.5585
87.9173
154.955
1079.55
614.964
75.604
49.4035
34.2895
26.9022
23.3122
18.6551
14.336
11.2738
9.95999
9.18766
8.89139
8.82213
9.1993
9.808
10.6811
12.4372
14.9698
17.3463
20.6623
25.5322
34.0951
69.3746
127.181
771.008
125.015
77.2378
41.2579
30.5574
23.7513
19.283
16.2599
12.9221
10.447
9.23957
8.7323
8.54654
8.74828
9.00426
9.7975
10.8785
12.4546
14.7629
18.0797
23.5512
31.9414
49.3801
66.9892
294.559
597.751
77.064
47.2666
30.4601
23.9528
20.1458
17.5075
14.6082
12.2717
10.3576
9.1014
8.701
8.64752
8.74677
9.11287
10.0271
11.5527
13.1821
15.8236
19.4026
25.1083
36.6206
72.0295
128.604
876.277
150.62
63.7724
38.234
28.0092
21.58
18.089
15.6677
13.2828
11.4905
10.311
9.42263
8.80376
8.80154
9.09624
9.61707
10.5907
12.304
14.9028
17.3357
21.2933
28.6718
48.5238
86.7897
280.536
606.879
76.0799
49.6371
33.8826
24.8737
19.404
15.989
13.6678
12.0957
10.7942
10.0742
9.71118
9.28217
9.10672
9.36533
10.3115
11.7656
13.4273
15.9288
20.2236
24.7063
34.7754
50.1328
85.6787
767.849
150.414
64.0954
40.5641
30.596
23.1196
18.0447
14.8166
12.7048
11.2863
10.2707
9.55978
9.38637
9.43251
9.53663
9.88175
10.6851
12.4367
14.8129
17.2856
21.0826
29.2523
47.329
87.0278
158.665
623.188
76.843
51.2064
34.6598
26.795
20.462
16.6927
13.8666
12.0118
10.856
10.0162
9.43391
9.11981
9.22952
9.70224
10.5528
11.3334
12.6625
14.9231
18.5349
23.4607
33.5367
49.0719
77.4742
727.804
157.294
61.6525
39.4788
32.1335
24.3938
18.862
15.1894
12.8694
11.4177
10.5368
9.95314
9.45623
9.20743
9.26361
9.77519
10.8221
12.3879
13.8742
15.8845
19.1964
26.214
34.7706
82.0123
153.376
123.951
74.9642
38.2783
28.5494
22.3293
17.7212
14.3805
12.1722
10.9098
10.209
9.8363
9.59496
9.42328
9.46361
9.92005
10.9942
12.8002
14.9806
17.4837
21.7212
30.1812
51.4253
67.9347
595.736
648.715
74.1628
45.5231
30.9405
24.7427
20.6335
16.8508
13.7324
11.6955
10.5445
9.95693
9.65806
9.54751
9.56507
9.71213
10.1621
11.1015
12.7992
15.8605
18.9616
23.2549
34.1514
77.7886
133.158
891.103
612.736
75.7719
39.7305
27.5403
22.8989
19.65
16.2067
13.1668
11.2326
10.215
9.73608
9.54297
9.48461
9.55934
9.855
10.4504
11.4699
13.1674
15.497
19.1064
24.6041
35.4741
83.8009
551.467
260.773
69.9974
37.4334
26.1725
20.6065
17.5717
15.1193
12.6007
10.7932
9.83864
9.43059
9.38047
9.44568
9.5872
9.93229
10.6546
12.0146
13.9739
16.6797
20.9731
29.4718
46.9991
96.249
684.788
124.099
74.2207
36.8695
24.9085
19.4397
16.077
13.6576
11.8009
10.4221
9.56981
9.16032
9.06644
9.30306
9.61093
10.0488
10.7924
12.2269
14.7443
18.3739
24.2318
33.0018
73.844
147.073
621.639
83.4918
53.8531
30.926
22.8971
18.3493
15.1083
12.777
11.136
10.0411
9.43669
9.12102
8.97298
9.05557
9.52401
10.1445
11.0278
12.4007
14.7832
18.9243
26.7696
49.3158
69.546
622.152
276.782
70.694
38.2277
26.6182
21.0004
17.3738
14.4644
12.2475
10.7231
9.74693
9.24092
9.0846
9.10072
9.21382
9.52331
10.1688
11.207
13.0149
15.4144
19.3132
28.4993
51.6449
102.14
870.976
120.371
78.7547
39.4378
26.4639
20.1465
16.2288
13.5808
11.6856
10.3378
9.40415
8.969
8.90605
9.01922
9.26898
9.67162
10.3195
11.4021
13.2307
16.1693
21.3698
31.3144
62.6702
139.749
657.53
77.0966
47.8572
30.6757
24.1891
19.3688
15.6367
12.8371
11.0203
9.88314
9.12667
8.68217
8.60597
8.82743
9.18224
9.68455
10.4363
11.7018
13.8518
17.2432
23.3457
32.8563
72.338
275.515
270.808
69.7412
39.2653
30.162
22.7899
18.4294
15.1632
12.3751
10.4885
9.33098
8.7181
8.41403
8.3228
8.48479
9.01827
9.70617
10.5668
11.9691
14.3239
18.0367
26.2509
48.311
69.1709
605.063
164.942
58.2693
36.1853
26.5837
20.6795
16.8093
14.0337
11.8132
10.1358
8.97193
8.27299
8.02024
8.12377
8.31618
8.77421
9.64764
10.8146
12.4079
15.1536
19.8201
26.6926
52.5533
107.313
885.31
130.213
81.3875
37.7832
25.8081
20.2182
16.32
13.442
11.4293
9.9884
8.90281
8.16674
7.77449
7.76546
8.14634
8.74077
9.67881
11.0739
13.2597
16.2838
21.691
33.6959
52.2048
119.998
819.838
80.4151
45.8825
30.0129
23.2898
18.8621
15.6782
13.1298
11.2342
9.95142
9.08211
8.34585
7.8498
7.66142
7.88284
8.65863
9.84906
11.464
13.907
18.1722
24.677
34.6008
83.1974
262.955
635.518
73.7588
46.7531
30.0305
23.0383
18.5826
15.2482
12.837
11.1252
9.94882
9.19648
8.68616
8.22017
7.85877
7.95788
8.63259
9.98852
12.0514
14.908
19.3145
27.2349
51.9649
72.7629
644.796
581.41
74.8491
41.3358
30.0754
23.2623
18.636
15.1395
12.625
11.0188
9.99676
9.33586
8.85614
8.51629
8.33052
8.33243
8.92059
10.242
12.5326
16.1435
21.3726
31.8652
48.3419
115.858
168.237
60.2722
35.4919
26.4252
22.0657
18.5282
15.1854
12.5286
10.8448
9.93688
9.43808
9.05848
8.66388
8.44429
8.6501
9.29971
10.553
12.8764
16.7214
23.0546
35.422
76.7268
159.59
160.64
57.0701
35.0146
27.2066
21.1628
17.5593
14.8881
12.4914
10.7382
9.77623
9.37306
9.18495
8.9751
8.76251
8.92127
9.64669
10.9839
13.0964
16.9376
24.2177
35.3656
84.0134
557.709
133.268
81.5576
38.2201
25.3224
19.9402
16.7545
14.2146
12.2649
10.7016
9.64613
9.18572
9.08723
9.10961
9.1512
9.36951
10.0358
11.4046
13.5716
16.9197
23.7675
46.7788
87.7869
595.394
129.757
52.2373
31.245
23.6584
19.0311
15.7421
13.438
11.7801
10.5754
9.64916
9.01577
8.83129
9.01473
9.2446
9.63544
10.3434
11.6301
13.8099
17.1647
23.9284
39.7788
89.0239
730.447
121.104
50.8186
30.4723
23.0909
18.5818
15.267
12.8837
11.3
10.2423
9.61127
9.18181
8.86663
8.84813
9.23002
9.73413
10.5428
11.8575
14.0053
17.0293
23.5397
42.3745
79.5769
833.343
792.672
84.2792
46.4054
29.6735
22.7048
18.2586
14.8894
12.4681
10.9066
9.93041
9.37203
9.13693
9.05173
9.02326
9.19165
9.73477
10.6308
12.1018
14.3697
17.8656
23.6376
41.2274
108.38
610.259
78.3044
52.0056
30.0349
22.3568
17.8403
14.4807
12.0458
10.5219
9.61623
9.12079
8.91522
8.91618
9.02629
9.25366
9.74135
10.6284
12.1302
14.5892
18.547
25.3638
45.2276
114.953
598.761
74.4146
37.5323
25.9111
20.7156
17.0733
13.9878
11.5788
10.0477
9.19817
8.72383
8.53226
8.57727
8.81461
9.17188
9.71369
10.604
12.1054
14.5582
18.6843
27.6524
45.8633
121.196
269.091
67.1389
35.9226
25.4867
19.9333
16.3459
13.4843
11.1365
9.49102
8.59883
8.13725
7.82423
7.84927
8.2292
8.88786
9.61147
10.5659
12.1111
14.5752
18.778
28.4516
61.6829
165.597
162.152
56.862
33.3561
24.1087
19.1817
15.8229
13.0373
10.827
9.03583
7.84014
7.31538
7.12733
7.05676
7.43643
8.2267
9.33719
10.5201
12.1653
14.8205
18.9976
29.139
64.204
532.96
166.253
57.3781
33.2483
23.3494
18.177
15.1079
12.6191
10.6485
9.0531
7.6096
6.64879
6.3199
6.40335
6.83575
7.69639
8.95172
10.4861
12.3685
15.2231
19.9013
29.6592
68.9259
567.596
135.139
56.7615
33.2553
22.9286
17.3919
14.0644
11.9095
10.38
9.21269
8.08441
6.84077
6.09331
5.99855
6.40664
7.36327
8.72471
10.4073
12.6254
15.778
21.3436
31.2047
68.5162
596.41
122.138
52.0955
30.3933
21.4474
16.4583
13.2973
11.3308
10.0651
9.16414
8.43789
7.5881
6.58338
6.11065
6.29569
7.14543
8.54264
10.3593
12.8104
16.0944
22.34
37.6288
71.6259
662.445
127.666
52.2882
29.355
20.2674
15.4152
12.5308
10.8444
9.79926
9.02108
8.42959
7.98817
7.46004
6.83835
6.75721
7.34221
8.59576
10.352
12.831
16.5747
22.9164
40.6565
104.019
854.911
119.721
53.6599
31.7121
20.9668
15.1165
12.0269
10.4417
9.56785
8.92932
8.28688
7.77959
7.61009
7.58042
7.53188
7.9596
8.98288
10.6347
13.019
16.6583
23.6794
42.8216
114.655
782.243
77.2414
49.3552
33.2739
21.3548
15.1628
11.8127
10.1818
9.37194
8.87645
8.4147
7.78748
7.41505
7.50435
8.00734
8.59942
9.51357
11.0615
13.4823
16.9662
23.6405
43.3631
117.77
598.845
90.5966
50.297
26.9502
19.0404
14.023
11.4171
9.97549
9.21799
8.75997
8.43049
8.11822
7.65403
7.52009
7.93934
8.82651
9.92506
11.5304
14.0103
17.832
24.2394
42.5461
123.541
605.014
74.7724
38.6978
24.6288
17.5339
13.0814
10.6586
9.61313
9.0265
8.61759
8.25618
7.99293
7.92435
7.85191
8.09719
8.89018
10.136
11.9894
14.6902
18.9972
27.9755
45.5659
114.725
278.493
71.126
37.731
25.3074
17.7211
12.796
10.3782
9.28941
8.77849
8.43812
8.08934
7.68208
7.52112
7.7761
8.32258
9.06194
10.3009
12.3686
15.47
20.3494
30.3316
61.5102
142.819
155.241
59.8606
36.7825
25.7041
18.7322
14.0029