/*--------------------------------*- C++ -*----------------------------------*\
| =========                 |                                                 |
| \\      /  F ield         | OpenFOAM: The Open Source CFD Toolbox           |
|  \\    /   O peration     | Version:  2312                                  |
|   \\  /    A nd           | Website:  www.openfoam.com                      |
|    \\/     M anipulation  |                                                 |
\*---------------------------------------------------------------------------*/
FoamFile
{
    version     2.0;
    format      ascii;
    arch        "LSB;label=64;scalar=64";
    class       volScalarField;
    location    "200";
    object      p;
}
// * * * * * * * * * * * * * * * * * * * * * * * * * * * * * * * * * * * * * //

dimensions      [0 2 -2 0 0 0 0];

internalField   nonuniform List<scalar> 
404911
(
9.54374
9.54364
9.54393
9.5434
9.54338
9.54356
9.54365
9.54357
9.54347
9.54343
9.5438
9.54331
9.54322
9.54356
9.54357
9.54359
9.54344
9.54346
9.54338
9.54348
9.54338
9.54316
9.54309
9.54363
9.54344
9.54246
9.54377
9.54375
9.54366
9.54385
9.54378
9.54383
9.54386
9.54397
9.54387
9.54386
9.54385
9.54395
9.54392
9.5439
9.54394
9.54399
9.54397
9.54394
9.5439
9.54383
9.544
9.54399
9.54396
9.54395
9.54399
9.544
9.54399
9.54396
9.54401
9.54401
9.54414
9.54308
9.54307
9.54326
9.54336
9.5434
9.54348
9.54337
9.54332
9.54342
9.54339
9.54335
9.54362
9.54343
9.54375
9.54369
9.54361
9.54378
9.54379
9.54376
9.54369
9.54384
9.54385
9.54392
9.54391
9.54397
9.54391
9.54392
9.54398
9.54396
9.544
9.54399
9.54399
9.54404
9.54402
9.54406
9.54408
9.5441
9.54414
9.54413
9.54411
9.54418
9.54418
9.54416
9.54423
9.54418
9.54416
9.54421
9.5393
9.53922
9.53926
9.53931
9.53934
9.53919
9.53939
9.53933
9.53929
9.53928
9.53923
9.53938
9.53935
9.53934
9.53934
9.53939
9.53939
9.53938
9.53937
9.53941
9.53954
9.5395
9.53947
9.53943
9.5394
9.53941
9.53941
9.5394
9.53942
9.53946
9.53946
9.53944
9.53942
9.5394
9.53942
9.53942
9.53961
9.53956
9.53954
9.53948
9.53946
9.53944
9.53943
9.53945
9.53945
9.53945
9.53944
9.53946
9.53949
9.53948
9.5394
9.53967
9.53964
9.5396
9.53952
9.53949
9.53948
9.53947
9.53946
9.53945
9.53944
9.53945
9.53943
9.53941
9.53943
9.53947
9.5396
9.53967
9.53964
9.53958
9.53952
9.53948
9.53946
9.53946
9.53947
9.53945
9.53944
9.53943
9.53942
9.53941
9.53941
9.53944
9.53975
9.53962
9.53953
9.53956
9.53959
9.53956
9.53954
9.5395
9.53944
9.53947
9.53947
9.53947
9.53945
9.53943
9.53942
9.53941
9.53939
9.5399
9.53987
9.53978
9.53968
9.53961
9.53956
9.53955
9.53956
9.53955
9.53953
9.53952
9.53947
9.53949
9.53949
9.53947
9.53946
9.53945
9.53946
9.53991
9.53993
9.53988
9.53977
9.53968
9.53963
9.53959
9.53957
9.53954
9.53955
9.53952
9.53948
9.5395
9.53951
9.53951
9.53949
9.53949
9.53945
9.53995
9.53994
9.53992
9.53993
9.53988
9.53979
9.53971
9.53966
9.53961
9.53957
9.53957
9.53955
9.53955
9.53953
9.53952
9.53952
9.53953
9.53952
9.53998
9.53999
9.53998
9.53996
9.53994
9.53989
9.53982
9.53976
9.53972
9.53966
9.53961
9.53959
9.53958
9.53958
9.5396
9.53956
9.53951
9.54006
9.54006
9.54002
9.54
9.54
9.53996
9.53995
9.53991
9.53986
9.53981
9.53976
9.53969
9.53965
9.53962
9.53959
9.53958
9.53959
9.54011
9.54013
9.54008
9.54011
9.54008
9.54006
9.54003
9.53999
9.53996
9.53994
9.53988
9.53982
9.53976
9.53968
9.53966
9.53963
9.53957
9.53956
9.54011
9.54006
9.54013
9.54015
9.54012
9.54015
9.54011
9.54007
9.54006
9.54002
9.54
9.53998
9.53991
9.53983
9.53976
9.53968
9.53965
9.53965
9.54022
9.54018
9.54014
9.54019
9.54015
9.54011
9.54012
9.54015
9.54015
9.54011
9.54008
9.54003
9.54005
9.54003
9.53996
9.53987
9.5398
9.53975
9.54023
9.54024
9.5402
9.54016
9.54016
9.54014
9.5401
9.54012
9.54014
9.54017
9.54014
9.54006
9.54003
9.54007
9.5401
9.54003
9.53994
9.53981
9.54037
9.54033
9.54022
9.54024
9.5402
9.54017
9.54016
9.54016
9.54013
9.54013
9.54017
9.54018
9.54016
9.54009
9.54003
9.54006
9.54009
9.54006
9.5404
9.5404
9.54031
9.54026
9.54023
9.54019
9.54018
9.54016
9.54017
9.54016
9.54015
9.54017
9.54018
9.54019
9.54016
9.5401
9.54007
9.54008
9.54041
9.54041
9.54046
9.54044
9.54034
9.5403
9.54027
9.54023
9.5402
9.54016
9.54015
9.54016
9.54015
9.54016
9.54016
9.54017
9.54013
9.54012
9.5405
9.54046
9.54054
9.54051
9.54046
9.54038
9.54034
9.5403
9.54024
9.54022
9.54017
9.54015
9.54016
9.54015
9.54016
9.54014
9.54012
9.54058
9.54055
9.54054
9.54045
9.54048
9.54048
9.54047
9.54042
9.54037
9.54032
9.54028
9.54024
9.54019
9.54016
9.54018
9.54017
9.54016
9.54016
9.54056
9.54057
9.54054
9.54055
9.54051
9.54051
9.54049
9.54047
9.54045
9.5404
9.54036
9.54032
9.54026
9.54021
9.54018
9.54018
9.54017
9.54018
9.54063
9.5406
9.54059
9.54059
9.54057
9.54052
9.54053
9.54052
9.5405
9.54047
9.54044
9.54039
9.54034
9.54028
9.54024
9.54022
9.54018
9.54019
9.54066
9.54065
9.54064
9.54062
9.54061
9.54061
9.54061
9.54055
9.54052
9.54051
9.54049
9.54047
9.54043
9.5404
9.54034
9.54028
9.54024
9.54018
9.54074
9.54073
9.54071
9.54065
9.54066
9.54063
9.54062
9.5406
9.54061
9.54057
9.54055
9.54053
9.54049
9.54047
9.54043
9.54041
9.54031
9.5403
9.54076
9.54075
9.54075
9.54071
9.54069
9.54066
9.54065
9.54064
9.54062
9.54057
9.54056
9.54055
9.54054
9.54049
9.54046
9.54043
9.5404
9.54034
9.5409
9.54085
9.54079
9.54076
9.54074
9.54072
9.5407
9.54067
9.54066
9.54066
9.54065
9.54059
9.54056
9.54053
9.54051
9.54048
9.5404
9.54046
9.54097
9.54092
9.54086
9.5408
9.54076
9.54074
9.54072
9.5407
9.54068
9.54067
9.54066
9.54064
9.54061
9.54056
9.54053
9.54053
9.54051
9.54048
9.54106
9.54103
9.54095
9.54086
9.5408
9.54076
9.54075
9.54074
9.54072
9.5407
9.54068
9.54065
9.54063
9.5406
9.54057
9.54054
9.54053
9.54054
9.54111
9.54107
9.54108
9.54097
9.54087
9.54081
9.54077
9.54075
9.54075
9.54074
9.54072
9.54069
9.54067
9.54064
9.54062
9.54058
9.54055
9.54056
9.54116
9.54118
9.54113
9.54107
9.54104
9.54096
9.54089
9.54085
9.54081
9.54078
9.54077
9.54076
9.54074
9.54072
9.54069
9.54065
9.54063
9.54062
9.5413
9.54119
9.54116
9.54112
9.54107
9.54102
9.54097
9.54092
9.5409
9.54086
9.54082
9.5408
9.54078
9.54076
9.54074
9.54071
9.5407
9.54067
9.54137
9.54131
9.54125
9.54118
9.54113
9.54107
9.54102
9.54098
9.54094
9.54091
9.54088
9.54085
9.54083
9.5408
9.54078
9.54076
9.54076
9.54072
9.54137
9.54137
9.54132
9.54126
9.5412
9.54115
9.54109
9.54102
9.541
9.54096
9.54093
9.5409
9.54087
9.54085
9.54082
9.5408
9.54078
9.54153
9.54142
9.54142
9.54137
9.54132
9.54126
9.54122
9.54118
9.54111
9.54104
9.54102
9.54099
9.54095
9.54092
9.5409
9.54087
9.54085
9.54084
9.54152
9.54154
9.54148
9.54144
9.54139
9.54132
9.54125
9.54121
9.5412
9.54114
9.54106
9.54103
9.54101
9.54098
9.54094
9.54092
9.5409
9.54088
9.54159
9.54158
9.54154
9.54152
9.54147
9.54142
9.54136
9.54128
9.5412
9.54119
9.54117
9.5411
9.54105
9.54103
9.541
9.54097
9.54094
9.54094
9.54172
9.54163
9.5416
9.54158
9.54156
9.54153
9.54151
9.54146
9.54139
9.5413
9.54122
9.54119
9.5412
9.54116
9.54109
9.54105
9.54102
9.54099
9.54172
9.54167
9.54166
9.54162
9.5416
9.54157
9.54155
9.54153
9.5415
9.54143
9.54135
9.54125
9.54119
9.54119
9.54117
9.54112
9.54107
9.54105
9.54176
9.54172
9.54169
9.54166
9.54163
9.5416
9.54158
9.54156
9.54154
9.54152
9.54147
9.5414
9.5413
9.54123
9.54121
9.54118
9.54115
9.5411
9.54173
9.54179
9.54174
9.54171
9.54168
9.54164
9.54162
9.5416
9.54158
9.54155
9.54152
9.54149
9.54144
9.54136
9.54128
9.54124
9.5412
9.54116
9.54187
9.54184
9.5418
9.54176
9.54173
9.5417
9.54166
9.54164
9.54163
9.54161
9.54157
9.54153
9.5415
9.54146
9.54139
9.54133
9.54127
9.542
9.54191
9.54189
9.54182
9.5418
9.54178
9.54175
9.54172
9.54169
9.54166
9.54165
9.54165
9.54164
9.54157
9.54151
9.54147
9.54142
9.54137
9.54201
9.54198
9.54193
9.5419
9.54185
9.54182
9.54179
9.54176
9.54173
9.5417
9.54168
9.54166
9.54166
9.54166
9.54162
9.54154
9.54149
9.54144
9.5421
9.54204
9.54198
9.54194
9.5419
9.54186
9.54183
9.54181
9.54177
9.54173
9.54171
9.54169
9.54167
9.54165
9.54163
9.5416
9.54155
9.5415
9.54215
9.5421
9.54205
9.54199
9.54195
9.54191
9.54188
9.54185
9.54184
9.54181
9.54176
9.54173
9.5417
9.54168
9.54165
9.54163
9.5416
9.54156
9.54226
9.54217
9.54212
9.54207
9.54201
9.54197
9.54193
9.5419
9.54187
9.54184
9.54182
9.54179
9.54175
9.54172
9.5417
9.54169
9.54164
9.54163
9.54234
9.54229
9.54223
9.54217
9.54211
9.54205
9.542
9.54196
9.54192
9.54189
9.54186
9.54184
9.54181
9.54178
9.54176
9.54172
9.5417
9.54166
9.54244
9.54238
9.54233
9.54227
9.5422
9.54215
9.5421
9.54204
9.54199
9.54195
9.54192
9.54189
9.54186
9.54184
9.54182
9.54179
9.54175
9.54171
9.54252
9.54245
9.54243
9.54237
9.5423
9.54224
9.54219
9.54214
9.54208
9.54201
9.54196
9.54194
9.54192
9.5419
9.54187
9.54185
9.54182
9.5418
9.54264
9.54259
9.54253
9.54251
9.54248
9.54243
9.54236
9.54228
9.54222
9.54218
9.54214
9.54206
9.54199
9.54198
9.54196
9.54194
9.54191
9.54189
9.54185
9.54269
9.54267
9.54263
9.54255
9.54253
9.5425
9.54248
9.54243
9.54235
9.54228
9.54221
9.54218
9.54213
9.54208
9.54204
9.54201
9.54198
9.54196
9.54272
9.54267
9.54264
9.5426
9.54256
9.54252
9.54249
9.54246
9.54241
9.54235
9.54228
9.54222
9.54219
9.54214
9.5421
9.54206
9.54203
9.54282
9.54277
9.54274
9.54269
9.54266
9.54262
9.54258
9.54255
9.54252
9.5425
9.54245
9.54239
9.54233
9.54227
9.54223
9.54219
9.54215
9.54211
9.54291
9.54285
9.5428
9.54276
9.54272
9.54268
9.54264
9.54261
9.54257
9.54255
9.54254
9.5425
9.54244
9.54237
9.54232
9.54228
9.54224
9.54221
9.54294
9.54293
9.54288
9.54283
9.54279
9.54275
9.54271
9.54267
9.54262
9.54259
9.54258
9.54258
9.54254
9.54247
9.54242
9.54238
9.54232
9.5423
9.54301
9.54294
9.5429
9.54286
9.54282
9.54277
9.54273
9.54271
9.54265
9.54259
9.54259
9.54257
9.54254
9.5425
9.54245
9.54241
9.54237
9.54316
9.54305
9.54296
9.54293
9.54289
9.54285
9.5428
9.54276
9.54274
9.54269
9.54263
9.54261
9.54259
9.54256
9.54252
9.54249
9.54245
9.54324
9.54328
9.54323
9.5431
9.54301
9.54297
9.54293
9.54288
9.54282
9.54278
9.54276
9.54272
9.54266
9.54263
9.54261
9.54259
9.54256
9.54252
9.54328
9.54328
9.54327
9.54322
9.54311
9.54305
9.543
9.54296
9.54291
9.54285
9.54277
9.54276
9.54274
9.54269
9.54266
9.54263
9.54262
9.54332
9.5433
9.54327
9.54324
9.5432
9.54312
9.54306
9.54303
9.54299
9.54295
9.54289
9.54281
9.54277
9.54275
9.54271
9.54268
9.54266
9.54342
9.54338
9.54334
9.54331
9.54327
9.54323
9.54322
9.54315
9.54308
9.54304
9.543
9.54297
9.54292
9.54286
9.54281
9.54277
9.54274
9.5427
9.54351
9.54345
9.54338
9.54335
9.5433
9.54323
9.54324
9.54328
9.54318
9.54311
9.54306
9.54302
9.54296
9.54293
9.54289
9.54285
9.54282
9.54277
9.54353
9.54351
9.54344
9.5434
9.54335
9.5433
9.54322
9.54327
9.54332
9.54321
9.54314
9.5431
9.54307
9.54302
9.54297
9.54293
9.5429
9.54287
9.54362
9.54361
9.54357
9.5435
9.54342
9.54336
9.54335
9.54326
9.54319
9.54317
9.54317
9.54316
9.54315
9.54312
9.54308
9.54304
9.54298
9.54295
9.54386
9.54379
9.54368
9.54365
9.5436
9.54352
9.54342
9.54331
9.54332
9.54331
9.54325
9.54324
9.54323
9.54321
9.54319
9.54316
9.54311
9.54307
9.54301
9.54389
9.54387
9.5438
9.54374
9.54368
9.5436
9.5435
9.54339
9.54333
9.54331
9.54329
9.5433
9.54328
9.54326
9.54323
9.54319
9.54316
9.54311
9.54308
9.54373
9.54387
9.54383
9.54379
9.5437
9.54359
9.54348
9.54341
9.5434
9.54338
9.54336
9.54333
9.5433
9.54328
9.54324
9.54321
9.54316
9.54314
9.54383
9.5438
9.54384
9.54384
9.5438
9.54372
9.5436
9.54352
9.5435
9.54346
9.54341
9.54339
9.54336
9.54333
9.5433
9.54326
9.54322
9.54393
9.54386
9.54383
9.54381
9.54382
9.54381
9.54373
9.54367
9.54363
9.54357
9.54352
9.54347
9.54343
9.5434
9.54336
9.54332
9.54329
9.54404
9.54396
9.54391
9.54384
9.54381
9.54383
9.54382
9.54377
9.54372
9.54368
9.54362
9.54355
9.54351
9.54347
9.54344
9.54339
9.54335
9.54404
9.54409
9.54408
9.54405
9.54396
9.54389
9.54385
9.54385
9.54385
9.54379
9.54375
9.54371
9.54366
9.5436
9.54355
9.5435
9.54347
9.54343
9.54408
9.54411
9.54408
9.54412
9.54408
9.54402
9.54394
9.54391
9.54389
9.54387
9.54381
9.54378
9.54375
9.5437
9.54364
9.54359
9.54354
9.544
9.54402
9.54404
9.54408
9.54409
9.54407
9.54401
9.54395
9.54392
9.5439
9.54387
9.54382
9.54378
9.54375
9.54372
9.54367
9.54363
9.54396
9.54397
9.54396
9.54399
9.54404
9.54405
9.54402
9.54399
9.54396
9.54393
9.54391
9.54388
9.54383
9.5438
9.54377
9.54373
9.54371
9.544
9.54395
9.54393
9.54389
9.54393
9.54402
9.54405
9.54403
9.54401
9.54399
9.54396
9.54393
9.54389
9.54386
9.54384
9.5438
9.54377
9.54411
9.54405
9.54396
9.54389
9.5439
9.54397
9.54404
9.54406
9.54405
9.54404
9.54403
9.544
9.54397
9.54393
9.5439
9.54387
9.54385
9.54428
9.54413
9.54407
9.54399
9.54395
9.54399
9.54405
9.54409
9.54411
9.54409
9.54408
9.54406
9.54404
9.544
9.54398
9.54396
9.54392
9.5442
9.54416
9.54413
9.54407
9.54406
9.54405
9.54406
9.54411
9.54413
9.54411
9.5441
9.54409
9.54406
9.54404
9.54401
9.544
9.5442
9.54428
9.54418
9.54417
9.54415
9.54413
9.5441
9.54413
9.54415
9.54415
9.54414
9.54413
9.54411
9.54409
9.54407
9.54411
9.54418
9.54421
9.54421
9.54421
9.5442
9.54419
9.54417
9.54414
9.54415
9.54415
9.54415
9.54416
9.54415
9.54413
9.54413
9.54414
9.54416
9.54412
9.54416
9.54419
9.54423
9.54422
9.54421
9.54423
9.54422
9.5442
9.54417
9.54413
9.54416
9.54418
9.54414
9.54415
9.54416
9.54415
9.54414
9.54415
9.54419
9.54422
9.54425
9.54424
9.54424
9.54427
9.54427
9.54422
9.54418
9.54421
9.54418
9.5442
9.54422
9.54417
9.54416
9.54418
9.54417
9.54418
9.54419
9.54421
9.54426
9.54428
9.54427
9.54426
9.54431
9.5443
9.54426
9.54411
9.54418
9.54419
9.54415
9.54414
9.54418
9.54419
9.54421
9.5442
9.54421
9.54425
9.54429
9.54429
9.54427
9.54426
9.54427
9.54407
9.5441
9.54413
9.54419
9.54416
9.54414
9.54416
9.54419
9.5442
9.5442
9.5442
9.54427
9.54432
9.54432
9.54431
9.5443
9.54404
9.54405
9.54403
9.54409
9.54414
9.54418
9.54417
9.54415
9.54415
9.54415
9.54418
9.54418
9.54423
9.54428
9.54434
9.54425
9.544
9.54398
9.54408
9.54406
9.54409
9.54411
9.54413
9.54414
9.54416
9.54414
9.54415
9.54416
9.5442
9.5442
9.54415
9.54425
9.54393
9.54396
9.54409
9.54413
9.54412
9.5441
9.54407
9.5441
9.54413
9.54413
9.54412
9.54414
9.5442
9.5442
9.54424
9.54394
9.54398
9.54402
9.5441
9.54414
9.54415
9.54413
9.5441
9.5441
9.54415
9.54417
9.54414
9.54414
9.5442
9.54425
9.54423
9.54398
9.54398
9.544
9.54408
9.5441
9.54414
9.54417
9.54418
9.54415
9.54415
9.54417
9.54424
9.54424
9.54422
9.5442
9.54431
9.54411
9.54402
9.544
9.54401
9.54408
9.5441
9.54411
9.54414
9.54417
9.54418
9.54417
9.54416
9.54418
9.54419
9.54424
9.54414
9.54402
9.54402
9.54401
9.54406
9.54409
9.54411
9.54412
9.54415
9.5442
9.54418
9.54418
9.54416
9.54415
9.54415
9.5441
9.54405
9.54402
9.54402
9.54404
9.54408
9.54409
9.5441
9.54412
9.54417
9.54416
9.54419
9.54399
9.54403
9.54407
9.54408
9.54409
9.54404
9.54404
9.54409
9.5441
9.54409
9.54408
9.54407
9.54413
9.54417
9.54394
9.54396
9.54401
9.54403
9.54406
9.54408
9.54405
9.54405
9.5441
9.54411
9.54406
9.54403
9.54407
9.5441
9.54387
9.5439
9.54393
9.54398
9.54399
9.54405
9.54404
9.54402
9.544
9.54405
9.54402
9.54402
9.54403
9.5441
9.54376
9.54383
9.54386
9.54387
9.54389
9.54397
9.54404
9.54406
9.54403
9.54397
9.54402
9.54393
9.54394
9.54406
9.54364
9.54371
9.54378
9.5438
9.54381
9.54381
9.54393
9.54404
9.5441
9.54405
9.54401
9.54406
9.54397
9.54391
9.54343
9.54352
9.54363
9.54375
9.54377
9.54376
9.54375
9.54381
9.54394
9.54401
9.54408
9.54408
9.54415
9.54372
9.54373
9.54376
9.54372
9.54372
9.5438
9.54391
9.5439
9.54402
9.54368
9.54375
9.54379
9.54376
9.5438
9.54379
9.54383
9.54384
9.54349
9.54367
9.54373
9.54381
9.54383
9.54377
9.54393
9.54326
9.54341
9.54356
9.54368
9.5438
9.5438
9.54369
9.54337
9.54348
9.54361
9.54372
9.54368
9.54316
9.54324
9.54334
9.5435
9.54362
9.54368
9.54247
9.54238
9.54305
9.54316
9.54338
9.54264
9.54272
9.54287
9.54303
9.54316
9.54285
9.54263
9.5431
9.54323
9.54325
9.5432
9.54276
9.54267
9.54305
8.99507
8.80004
8.54389
9.42971
9.39251
9.34076
9.2873
9.199
9.07005
8.89284
8.69597
8.08615
9.5079
9.49836
9.4841
9.46816
9.44316
9.41409
9.37558
9.32462
9.25856
9.17123
9.05217
8.87253
8.67779
8.4933
8.40939
9.52584
9.52271
9.51884
9.51293
9.5055
9.49422
9.47911
9.46065
9.43608
9.4038
9.36477
9.32881
9.26591
9.16783
9.03129
8.90389
8.76696
8.67948
8.57384
8.28306
7.44549
6.4411
9.53246
9.53123
9.53001
9.52834
9.526
9.52238
9.51716
9.51023
9.50173
9.49074
9.47544
9.45606
9.4331
9.41059
9.37643
9.3271
9.27325
9.2226
9.14418
9.05285
8.94643
8.77346
8.46171
9.53593
9.53519
9.53455
9.53356
9.53257
9.53137
9.53003
9.5282
9.52516
9.52126
9.51573
9.50984
9.50193
9.49178
9.47996
9.4649
9.44827
9.42647
9.40199
9.39415
9.36078
9.31021
9.25977
9.18832
9.09548
9.53707
9.53673
9.5364
9.53589
9.53503
9.53387
9.53311
9.53232
9.53126
9.53065
9.52877
9.52549
9.52105
9.51646
9.51519
9.51053
9.5049
9.49366
9.48008
9.47184
9.4609
9.45782
9.45062
9.43699
9.4327
9.53787
9.53765
9.53733
9.53715
9.53685
9.53649
9.53612
9.53543
9.53467
9.53415
9.53367
9.53278
9.53183
9.52991
9.52644
9.52676
9.5268
9.52301
9.51605
9.50984
9.50548
9.50163
9.51074
9.50626
9.50799
9.53836
9.53834
9.53809
9.53794
9.53777
9.53764
9.53739
9.53707
9.53683
9.53643
9.53588
9.53557
9.53541
9.53548
9.53596
9.53586
9.53418
9.53489
9.53473
9.53438
9.53311
9.53236
9.52959
9.53077
9.531
9.53862
9.53839
9.53844
9.53852
9.53841
9.53834
9.53829
9.53815
9.53808
9.53796
9.53777
9.53769
9.53762
9.53755
9.53763
9.53801
9.53883
9.53977
9.54
9.54035
9.54067
9.54481
9.54365
9.54328
9.54308
9.54197
9.53897
9.53884
9.53885
9.53871
9.53863
9.53865
9.53862
9.53861
9.53862
9.53853
9.5384
9.53839
9.53841
9.53862
9.53866
9.53867
9.53896
9.53944
9.54012
9.54056
9.54189
9.54301
9.54423
9.54635
9.54698
9.54781
9.54971
9.53911
9.53904
9.53892
9.53888
9.53882
9.53874
9.5387
9.5387
9.53872
9.53876
9.53874
9.53877
9.53882
9.53892
9.53928
9.53944
9.53959
9.5399
9.54041
9.54127
9.54193
9.54263
9.54386
9.54564
9.54853
9.53927
9.53918
9.53931
9.53921
9.53913
9.53905
9.53899
9.53886
9.53882
9.53881
9.53888
9.53893
9.53899
9.53909
9.53921
9.53936
9.53954
9.53992
9.54012
9.54044
9.54093
9.54151
9.54204
9.54223
9.54334
9.53923
9.53937
9.53924
9.53926
9.53928
9.53923
9.53915
9.53904
9.53892
9.53886
9.53893
9.53905
9.53908
9.53919
9.53937
9.53955
9.53979
9.54002
9.54046
9.54075
9.54121
9.54152
9.5419
9.54252
9.53917
9.53936
9.53927
9.5393
9.53931
9.53924
9.5393
9.53937
9.53932
9.53921
9.53913
9.53904
9.53898
9.53905
9.53918
9.53925
9.53935
9.53956
9.53978
9.54004
9.54038
9.54086
9.54115
9.54149
9.54181
9.53942
9.53928
9.53927
9.5393
9.53924
9.53924
9.53924
9.53924
9.53932
9.53944
9.53937
9.53929
9.53921
9.53918
9.53919
9.53923
9.53929
9.53942
9.53957
9.53977
9.53997
9.54024
9.54062
9.54092
9.54129
9.5394
9.53939
9.53932
9.53931
9.53929
9.53927
9.53928
9.53927
9.53925
9.53925
9.53931
9.5394
9.53942
9.53936
9.53926
9.53923
9.53921
9.53935
9.53943
9.53955
9.53968
9.53985
9.54011
9.5404
9.54064
9.53956
9.53936
9.53951
9.53941
9.53939
9.53934
9.53929
9.53931
9.53926
9.53932
9.53931
9.53929
9.5393
9.53937
9.5394
9.53944
9.53939
9.53929
9.53933
9.53932
9.53944
9.53953
9.53964
9.53978
9.53996
9.54022
9.53959
9.53967
9.53962
9.53951
9.5395
9.53943
9.53938
9.53936
9.53933
9.5393
9.53929
9.53935
9.53937
9.53937
9.5394
9.53944
9.53944
9.53946
9.53947
9.53941
9.53942
9.53946
9.53952
9.53962
9.53972
9.53986
9.53989
9.53963
9.53957
9.53959
9.5396
9.53953
9.53947
9.53943
9.5394
9.53938
9.53938
9.53934
9.53933
9.53939
9.53943
9.53945
9.53945
9.53943
9.53941
9.53943
9.53946
9.53944
9.53945
9.53951
9.53961
9.5397
9.5399
9.53971
9.53981
9.53972
9.53967
9.53965
9.53961
9.53956
9.53951
9.53947
9.53944
9.53942
9.53941
9.5394
9.5394
9.53939
9.53941
9.53946
9.5395
9.5395
9.53944
9.53936
9.53941
9.53945
9.53945
9.53947
9.53953
9.53965
9.53972
9.53976
9.53967
9.53967
9.53965
9.53963
9.53959
9.53953
9.53948
9.53946
9.53945
9.53944
9.53943
9.53942
9.53941
9.53939
9.5394
9.53944
9.5395
9.53956
9.53953
9.53946
9.53945
9.53945
9.53947
9.53951
9.53986
9.53976
9.53977
9.53972
9.53969
9.53964
9.53962
9.53962
9.53955
9.53948
9.53943
9.53943
9.53945
9.53945
9.53944
9.53943
9.53941
9.5394
9.53939
9.53939
9.53943
9.53944
9.53946
9.53947
9.53948
9.5395
9.53992
9.53984
9.5399
9.5398
9.53976
9.53972
9.53967
9.53962
9.5396
9.53959
9.53954
9.53949
9.53945
9.53942
9.53946
9.53947
9.53946
9.53944
9.53942
9.53941
9.53939
9.53939
9.53938
9.5394
9.53944
9.53947
9.53985
9.53989
9.53988
9.53985
9.53982
9.53976
9.53971
9.53965
9.53961
9.53959
9.53956
9.53954
9.53951
9.53947
9.53948
9.53948
9.53948
9.53947
9.53946
9.53944
9.53942
9.53941
9.53941
9.5394
9.53942
9.53991
9.53997
9.53989
9.53991
9.53988
9.53986
9.53983
9.53976
9.53969
9.53966
9.53962
9.53959
9.53956
9.53955
9.53953
9.5395
9.53951
9.53951
9.53951
9.53949
9.53948
9.53945
9.53944
9.53945
9.53945
9.53945
9.54003
9.54005
9.54002
9.53997
9.53994
9.53993
9.5399
9.53988
9.53984
9.53976
9.5397
9.53966
9.53964
9.5396
9.53957
9.53955
9.53956
9.53954
9.53952
9.53953
9.53953
9.53952
9.53949
9.53948
9.53947
9.53951
9.54017
9.54006
9.54007
9.54004
9.54004
9.54
9.53997
9.53995
9.53992
9.5399
9.53985
9.5398
9.53974
9.53969
9.53966
9.53963
9.5396
9.53956
9.53957
9.53959
9.53956
9.53954
9.53954
9.53952
9.53951
9.53949
9.53945
9.54002
9.5401
9.54009
9.54009
9.54007
9.54007
9.54003
9.54001
9.53998
9.53993
9.53991
9.53987
9.53983
9.53978
9.53973
9.53969
9.53967
9.53964
9.5396
9.53957
9.53957
9.53954
9.53953
9.53952
9.53951
9.53952
9.54019
9.54016
9.54008
9.54007
9.54008
9.5401
9.5401
9.54011
9.54009
9.54006
9.54001
9.53997
9.53995
9.53992
9.53987
9.53981
9.53974
9.53969
9.53967
9.53963
9.53959
9.53956
9.53954
9.53951
9.53945
9.5395
9.54018
9.54021
9.54015
9.54011
9.54008
9.54009
9.5401
9.54011
9.54015
9.54015
9.5401
9.54005
9.54001
9.54002
9.53998
9.5399
9.53983
9.53976
9.53971
9.53966
9.53962
9.53959
9.53956
9.53952
9.53951
9.54028
9.54028
9.54026
9.5402
9.54016
9.54012
9.54011
9.54011
9.5401
9.54011
9.54017
9.5402
9.54015
9.54008
9.54004
9.54005
9.54004
9.53993
9.53986
9.53979
9.53974
9.53968
9.53963
9.53961
9.53956
9.54033
9.54034
9.54031
9.54027
9.54022
9.54017
9.54015
9.54015
9.54015
9.54012
9.54013
9.54016
9.54019
9.54015
9.54007
9.54004
9.54005
9.54007
9.54001
9.53993
9.53983
9.53976
9.53971
9.53968
9.53967
9.54035
9.54036
9.54037
9.54036
9.54033
9.54028
9.54023
9.54018
9.54015
9.54016
9.54018
9.54016
9.54016
9.54018
9.54019
9.54014
9.54006
9.54005
9.54004
9.54004
9.54002
9.53996
9.5399
9.53982
9.53974
9.54041
9.5404
9.54038
9.54039
9.54038
9.54034
9.5403
9.54022
9.54017
9.54015
9.54013
9.54016
9.54017
9.54017
9.5402
9.5402
9.54016
9.54011
9.54009
9.54006
9.54005
9.54002
9.53999
9.53993
9.53988
9.54051
9.54049
9.54045
9.54042
9.54041
9.54043
9.54041
9.54036
9.54032
9.54025
9.54017
9.54014
9.54012
9.54014
9.54016
9.54017
9.54018
9.54016
9.54014
9.54011
9.54009
9.54009
9.54007
9.54004
9.54002
9.54056
9.54053
9.54052
9.54048
9.54045
9.54043
9.54046
9.54044
9.5404
9.54035
9.54028
9.54021
9.54015
9.54012
9.54014
9.54016
9.54017
9.54016
9.54015
9.54012
9.54011
9.5401
9.5401
9.5401
9.54064
9.54056
9.54057
9.54055
9.54053
9.5405
9.54048
9.54047
9.54047
9.54047
9.54044
9.5404
9.54032
9.54024
9.54018
9.54015
9.54015
9.54017
9.54017
9.54017
9.54015
9.54013
9.54012
9.54011
9.54014
9.54065
9.54063
9.54061
9.54058
9.54056
9.54055
9.54053
9.5405
9.54049
9.54049
9.54049
9.54048
9.54046
9.54038
9.54031
9.54022
9.54018
9.54017
9.54018
9.54019
9.54018
9.54016
9.54014
9.54015
9.54074
9.54068
9.54068
9.54064
9.54062
9.54059
9.54058
9.54057
9.54055
9.54052
9.54051
9.54051
9.5405
9.54048
9.54046
9.54041
9.54034
9.54026
9.54022
9.5402
9.54019
9.54019
9.54019
9.54018
9.54015
9.54076
9.54074
9.54071
9.54068
9.54066
9.54063
9.5406
9.54059
9.54058
9.54057
9.54054
9.54052
9.54051
9.54049
9.54047
9.54044
9.5404
9.54034
9.54028
9.54023
9.54021
9.5402
9.54021
9.54019
9.54084
9.5408
9.54077
9.54074
9.54072
9.5407
9.54067
9.54063
9.54061
9.5406
9.54058
9.54057
9.54055
9.54053
9.54052
9.54049
9.54047
9.54043
9.54038
9.54033
9.54028
9.54024
9.54022
9.54024
9.54023
9.54089
9.54086
9.54081
9.54078
9.54075
9.54073
9.5407
9.54067
9.54064
9.54062
9.54061
9.54059
9.54056
9.54055
9.54054
9.54052
9.54049
9.54046
9.54043
9.54039
9.54034
9.54029
9.54025
9.54024
9.54097
9.54092
9.54088
9.54083
9.54079
9.54076
9.54073
9.54071
9.54068
9.54065
9.54063
9.54062
9.5406
9.54057
9.54054
9.54053
9.54051
9.54048
9.54045
9.54043
9.5404
9.54035
9.54032
9.54029
9.54111
9.54105
9.54101
9.54095
9.5409
9.54084
9.5408
9.54077
9.54074
9.54072
9.54069
9.54066
9.54064
9.54062
9.54061
9.54058
9.54055
9.54053
9.54052
9.5405
9.54048
9.54045
9.54041
9.54037
9.54035
9.54119
9.54113
9.54108
9.54103
9.54098
9.54092
9.54086
9.54081
9.54077
9.54075
9.54073
9.54071
9.54068
9.54065
9.54063
9.54061
9.54059
9.54056
9.54054
9.54053
9.54051
9.54049
9.54047
9.54045
9.54127
9.54119
9.54115
9.54109
9.54104
9.54101
9.54095
9.54088
9.54083
9.54079
9.54077
9.54075
9.54073
9.5407
9.54068
9.54065
9.54063
9.54061
9.54058
9.54056
9.54054
9.54052
9.5405
9.54049
9.54133
9.54127
9.54122
9.54116
9.54111
9.54106
9.54101
9.54096
9.5409
9.54086
9.54082
9.54079
9.54078
9.54076
9.54074
9.54071
9.54069
9.54066
9.54064
9.54061
9.54058
9.54056
9.54056
9.54142
9.5414
9.54135
9.5413
9.54124
9.54117
9.54112
9.54108
9.54103
9.54098
9.54092
9.54088
9.54085
9.54082
9.54081
9.54079
9.54076
9.54074
9.54071
9.54069
9.54066
9.54063
9.54061
9.54056
9.54144
9.54143
9.54139
9.54136
9.54131
9.54125
9.54119
9.54114
9.54109
9.54105
9.541
9.54095
9.5409
9.54087
9.54084
9.54083
9.54081
9.54078
9.54076
9.54073
9.54072
9.54069
9.54066
9.54064
9.54152
9.54146
9.54144
9.5414
9.54136
9.54132
9.54126
9.54121
9.54116
9.54111
9.54106
9.54102
9.54098
9.54093
9.5409
9.54087
9.54085
9.54082
9.5408
9.54078
9.54075
9.54073
9.54068
9.5416
9.54154
9.54154
9.54149
9.54146
9.54142
9.54137
9.54132
9.54127
9.54122
9.54119
9.54114
9.54108
9.54105
9.54101
9.54096
9.54093
9.5409
9.54087
9.54085
9.54082
9.5408
9.54078
9.54075
9.54165
9.5416
9.54157
9.54155
9.54152
9.54148
9.54143
9.54138
9.54133
9.54127
9.54122
9.5412
9.54116
9.54111
9.54107
9.54103
9.54099
9.54096
9.54093
9.5409
9.54087
9.54084
9.54082
9.54083
9.54163
9.54165
9.54163
9.54159
9.54156
9.54153
9.5415
9.54146
9.5414
9.54134
9.54127
9.54121
9.5412
9.54118
9.54113
9.54108
9.54105
9.54101
9.54097
9.54094
9.54092
9.5409
9.54088
9.54086
9.54172
9.54167
9.54166
9.54164
9.54161
9.54158
9.54155
9.54152
9.54148
9.54143
9.54137
9.54129
9.54123
9.5412
9.54119
9.54115
9.5411
9.54106
9.54102
9.54099
9.54096
9.54095
9.54091
9.54178
9.54178
9.54173
9.54171
9.54167
9.54165
9.54162
9.54159
9.54156
9.54153
9.5415
9.54146
9.5414
9.54132
9.54125
9.54122
9.5412
9.54116
9.54112
9.54108
9.54104
9.54101
9.54097
9.54097
9.5419
9.54181
9.54179
9.54175
9.54173
9.54169
9.54166
9.54163
9.5416
9.54157
9.54155
9.54152
9.54148
9.54143
9.54136
9.5413
9.54125
9.54122
9.54118
9.54114
9.54109
9.54105
9.54102
9.54099
9.54191
9.5419
9.54184
9.5418
9.54177
9.54175
9.54171
9.54168
9.54164
9.54162
9.54159
9.54157
9.54154
9.5415
9.54145
9.5414
9.54134
9.54129
9.54124
9.5412
9.54116
9.54112
9.54105
9.54201
9.54195
9.5419
9.54186
9.54183
9.5418
9.54177
9.54174
9.5417
9.54167
9.54164
9.54161
9.54159
9.54156
9.54152
9.54147
9.54142
9.54138
9.54133
9.54128
9.54123
9.54117
9.54113
9.54204
9.54201
9.54197
9.54192
9.54187
9.54184
9.54181
9.54179
9.54176
9.54173
9.54169
9.54166
9.54164
9.54161
9.54158
9.54154
9.54149
9.54145
9.5414
9.54136
9.5413
9.54125
9.54122
9.5421
9.54206
9.54202
9.54198
9.54194
9.54189
9.54186
9.54182
9.5418
9.54177
9.54175
9.54171
9.54168
9.54165
9.54162
9.5416
9.54156
9.54151
9.54147
9.54142
9.54138
9.54133
9.54131
9.5422
9.54214
9.54209
9.54204
9.54199
9.54195
9.54191
9.54187
9.54184
9.54181
9.54178
9.54175
9.54173
9.54169
9.54166
9.54164
9.54161
9.54158
9.54153
9.54149
9.54144
9.5414
9.54134
9.54229
9.54223
9.54216
9.54211
9.54205
9.542
9.54196
9.54192
9.54188
9.54185
9.54182
9.54179
9.54176
9.54174
9.54171
9.54168
9.54165
9.54162
9.54159
9.54155
9.54151
9.54147
9.54142
9.54241
9.54235
9.5423
9.54226
9.54219
9.54213
9.54208
9.54202
9.54198
9.54194
9.54191
9.54187
9.54184
9.54181
9.54178
9.54176
9.54173
9.5417
9.54167
9.54164
9.5416
9.54157
9.54154
9.54253
9.54245
9.54239
9.54234
9.54229
9.54223
9.54217
9.54211
9.54206
9.54202
9.54198
9.54194
9.5419
9.54187
9.54184
9.54182
9.54179
9.54176
9.54173
9.5417
9.54166
9.54163
9.5416
9.54259
9.54254
9.54249
9.54243
9.54237
9.54232
9.54227
9.54222
9.54216
9.54211
9.54206
9.54202
9.54198
9.54195
9.54191
9.54188
9.54185
9.54182
9.54179
9.54176
9.54173
9.54169
9.54165
9.5427
9.54262
9.54257
9.54252
9.54246
9.54241
9.54236
9.54231
9.54226
9.54221
9.54216
9.54211
9.54206
9.54202
9.54199
9.54195
9.54192
9.54189
9.54186
9.54183
9.54179
9.54176
9.54172
9.54276
9.54272
9.54265
9.5426
9.54255
9.5425
9.54245
9.54241
9.54235
9.5423
9.54225
9.5422
9.54215
9.5421
9.54206
9.54202
9.54199
9.54196
9.54193
9.54189
9.54186
9.54183
9.54181
9.54281
9.54276
9.54272
9.54267
9.54262
9.54258
9.54253
9.54249
9.54245
9.5424
9.54234
9.54229
9.54223
9.54219
9.54215
9.54211
9.54207
9.54203
9.542
9.54197
9.54193
9.54189
9.54186
9.54292
9.54282
9.54278
9.54272
9.54268
9.54264
9.5426
9.54256
9.54251
9.54247
9.54243
9.54239
9.54233
9.54228
9.54223
9.5422
9.54216
9.54211
9.54208
9.54204
9.54201
9.54198
9.54194
9.54296
9.54291
9.54283
9.54279
9.54274
9.5427
9.54267
9.54263
9.54258
9.54254
9.5425
9.54247
9.54243
9.54238
9.54232
9.54228
9.54224
9.5422
9.54216
9.54212
9.54209
9.54206
9.54201
9.54302
9.54299
9.54292
9.54286
9.54281
9.54277
9.54273
9.54269
9.54265
9.54262
9.54258
9.54254
9.54251
9.54247
9.54242
9.54237
9.54232
9.54228
9.54224
9.5422
9.54217
9.54214
9.54211
9.54313
9.54307
9.543
9.54294
9.54288
9.54284
9.5428
9.54275
9.54271
9.54267
9.54264
9.54261
9.54257
9.54255
9.54251
9.54246
9.54241
9.54237
9.54233
9.54229
9.54226
9.54222
9.54328
9.54318
9.54317
9.5431
9.54302
9.54295
9.54291
9.54287
9.54282
9.54278
9.54273
9.5427
9.54266
9.54263
9.5426
9.54257
9.54253
9.54249
9.54245
9.54241
9.54238
9.54235
9.54231
9.54327
9.54325
9.5432
9.5432
9.54314
9.54304
9.54298
9.54294
9.5429
9.54286
9.54281
9.54276
9.54272
9.54269
9.54265
9.54262
9.54259
9.54256
9.54252
9.54249
9.54246
9.54242
9.54238
9.54329
9.54329
9.54327
9.54324
9.54323
9.54318
9.54309
9.54303
9.54298
9.54294
9.54289
9.54284
9.54279
9.54275
9.54272
9.54268
9.54265
9.54262
9.54258
9.54255
9.54253
9.54251
9.54248
9.54336
9.54334
9.54332
9.54329
9.54326
9.54325
9.5432
9.54313
9.54307
9.54302
9.54297
9.54292
9.54286
9.5428
9.54277
9.54274
9.5427
9.54267
9.54264
9.54261
9.54258
9.54255
9.54254
9.54341
9.5434
9.54336