/*--------------------------------*- C++ -*----------------------------------*\
  =========                 |
  \\      /  F ield         | OpenFOAM: The Open Source CFD Toolbox
   \\    /   O peration     | Website:  https://openfoam.org
    \\  /    A nd           | Version:  8
     \\/     M anipulation  |
\*---------------------------------------------------------------------------*/
FoamFile
{
    version     2.0;
    format      ascii;
    class       volScalarField;
    location    "70";
    object      epsilon;
}
// * * * * * * * * * * * * * * * * * * * * * * * * * * * * * * * * * * * * * //

dimensions      [0 2 -3 0 0 0 0];

internalField   nonuniform List<scalar> 
12225
(
285.505
270.738
257.889
243.847
232.44
223.146
216.8
212.802
212.873
214.151
217.593
221.355
228.873
233.663
242.873
247.642
258.669
260.371
52.4923
91.8914
107.007
114.802
124.97
136.974
153.054
170.424
192.002
212.066
237.047
257.708
284.45
303.292
330.66
346.616
374.685
394.584
20.5289
34.8683
44.6864
50.4748
55.4332
59.6487
64.7618
69.7672
76.5784
83.5416
92.0213
100.098
109.278
118.511
127.54
138.412
146.205
160.752
16.0015
19.4842
24.0873
27.5642
30.5121
32.8835
35.1924
37.3366
39.5826
42.0304
44.5037
47.4514
50.003
53.538
56.0241
60.1955
62.5981
67.7075
15.0383
15.7116
17.4017
19.0783
20.6455
22.0325
23.2607
24.4521
25.4743
26.644
27.5847
28.8586
29.7521
31.1756
32.0428
33.6202
34.4899
36.3584
14.7897
14.8255
15.2499
15.8677
16.5699
17.2903
17.9293
18.595
19.1321
19.758
20.2206
20.8456
21.2625
21.9076
22.3003
22.9804
23.3517
24.1466
14.7658
14.6146
14.641
14.7257
14.9355
15.2213
15.4934
15.814
16.0763
16.3941
16.6309
16.9427
17.1571
17.468
17.6652
17.9865
18.1616
18.5382
14.7687
14.5866
14.466
14.3799
14.3676
14.3896
14.44
14.5349
14.62
14.7411
14.836
14.9663
15.0595
15.1952
15.2842
15.4279
15.5061
15.684
14.768
14.591
14.4348
14.2961
14.1846
14.1041
14.0393
14.0066
13.981
13.9793
13.9821
13.9943
14.0076
14.0368
14.0555
14.0958
14.1152
14.1809
14.7666
14.5941
14.432
14.2819
14.1426
14.0214
13.9106
13.8185
13.7358
13.6687
13.6091
13.5625
13.5177
13.4877
13.4534
13.4377
13.4081
13.4103
14.7659
14.5946
14.4321
14.2802
14.1358
14.0028
13.8774
13.7634
13.6568
13.5612
13.4715
13.393
13.3175
13.2537
13.1895
13.1392
13.0829
13.0458
14.7657
14.5944
14.4321
14.2798
14.1351
13.9995
13.8708
13.7509
13.6372
13.532
13.432
13.3405
13.2529
13.174
13.0969
13.0295
12.9613
12.9044
14.7657
14.5942
14.432
14.2794
14.1348
13.9986
13.8693
13.7477
13.632
13.5235
13.4201
13.3235
13.2311
13.1453
13.0629
12.9869
12.9133
12.8463
14.7657
14.594
14.4319
14.279
14.1345
13.9981
13.8688
13.7467
13.6307
13.5211
13.417
13.3186
13.2249
13.1365
13.0522
12.9728
12.8969
12.8255
14.7657
14.5939
14.4317
14.2787
14.1342
13.9976
13.8684
13.7461
13.6302
13.5203
13.4161
13.3173
13.2234
13.1343
13.0497
12.9693
12.8929
12.8203
14.7657
14.5938
14.4316
14.2786
14.1339
13.9973
13.868
13.7456
13.6297
13.5198
13.4156
13.3168
13.2229
13.1338
13.0491
12.9686
12.8921
12.8194
14.7657
14.5937
14.4315
14.2784
14.1337
13.997
13.8677
13.7453
13.6293
13.5195
13.4153
13.3164
13.2226
13.1335
13.0489
12.9685
12.8921
12.8194
14.7657
14.5937
14.4314
14.2782
14.1336
13.9968
13.8675
13.7451
13.6292
13.5193
13.4152
13.3163
13.2226
13.1335
13.0491
12.9687
12.8924
12.8197
14.7657
14.5936
14.4314
14.2782
14.1335
13.9968
13.8675
13.745
13.6292
13.5193
13.4153
13.3165
13.2229
13.1339
13.0495
12.9692
12.893
12.8205
14.7657
14.5936
14.4314
14.2782
14.1337
13.9969
13.8677
13.7453
13.6296
13.5197
13.4158
13.3171
13.2236
13.1347
13.0504
12.9702
12.8942
12.8217
14.7657
14.5937
14.4315
14.2784
14.1338
13.9972
13.868
13.7458
13.63
13.5205
13.4166
13.3182
13.2248
13.1363
13.0522
12.9724
12.8966
12.8247
14.7657
14.5937
14.4316
14.2785
14.1341
13.9976
13.8688
13.7469
13.6319
13.5231
13.4204
13.3231
13.2314
13.1444
13.0625
12.9846
12.9115
12.8415
14.7658
14.5936
14.4318
14.2788
14.1355
14.0004
13.8746
13.7566
13.6472
13.5445
13.4498
13.3607
13.2789
13.2013
13.1306
13.0627
13.0017
12.9417
14.7661
14.5927
14.4329
14.2845
14.1516
14.0324
13.9292
13.8379
13.7597
13.6898
13.631
13.5771
13.5327
13.4902
13.4567
13.4219
13.3971
13.367
14.7641
14.5936
14.461
14.3604
14.303
14.2765
14.2793
14.2933
14.319
14.3512
14.3931
14.4308
14.4773
14.5152
14.5636
14.5987
14.649
14.679
14.757
14.692
14.7578
14.917
15.1819
15.46
15.7451
16.0088
16.267
16.4968
16.7263
16.9261
17.1344
17.3109
17.5059
17.6637
17.8525
17.9933
14.9575
15.4344
16.5687
17.6875
18.7022
19.5639
20.3294
20.9871
21.6039
22.1467
22.6915
23.1769
23.6953
24.1501
24.6646
25.1011
25.625
26.0481
16.2578
20.939
25.0136
27.7563
29.7772
31.3481
32.7558
34.0307
35.3152
36.5596
37.8939
39.1948
40.6239
41.9795
43.5019
44.9087
46.5516
47.9649
29.9424
47.2194
54.8592
58.6537
61.579
64.3798
67.4934
70.8589
74.5612
78.4751
82.6604
86.9222
91.3677
95.7768
100.283
104.645
109.024
113.235
165.791
160.071
154.899
149.562
144.476
139.68
135.603
132.109
129.247
126.955
125.27
123.989
123.243
122.71
122.663
122.771
123.021
123.508
12.2041
4.97616
6.47451
7.50108
8.04342
37.8041
38.2829
8.83564
41.7565
42.7222
38.7388
43.0269
46.457
46.3357
38.9818
8.5911
8.23522
8.16773
8.59993
9.02299
42.5941
45.6731
48.6097
52.435
57.7319
65.8564
77.1559
91.6034
109.119
129.491
152.436
176.851
202.531
229.184
256.247
283.687
311.145
338.657
365.947
393.152
420.024
446.786
473.198
499.544
525.579
551.633
577.441
603.367
629.124
655.101
680.982
707.172
733.332
759.878
786.455
813.476
840.547
868.101
895.709
923.825
951.95
980.579
1009.17
1038.23
1067.16
1096.48
1125.53
1154.86
1183.77
1212.79
1241.26
1269.61
1297.24
1324.51
1350.86
1376.64
1401.36
1425.5
1448.69
1471.59
1493.13
1513.72
1532.78
1550.67
1566.59
1580.33
1592.33
1602.09
1607.94
1611.71
1608.19
1607.88
1602.94
1595.49
1584.89
1570.86
1553.59
1533.16
1509.58
1482.99
1453.37
1420.94
1385.86
1348.85
1310.47
1270.94
1230.38
1189.09
1147.4
1105.52
1063.8
1022.38
981.456
940.162
898.59
858.465
819.676
782.309
746.468
712.116
679.373
648.375
619.34
594.816
575.484
557.851
541.172
525.228
510.03
495.518
481.709
468.542
456.033
444.121
432.809
422.014
411.851
401.998
392.39
383.174
374.391
366.018
358.058
350.497
343.303
336.464
329.904
323.576
317.482
311.616
305.978
300.555
295.354
290.344
285.498
280.801
276.255
271.859
267.607
263.491
259.506
255.655
251.934
248.341
244.867
241.498
238.232
235.046
231.921
228.824
225.745
222.585
219.401
215.897
212.45
207.935
204.055
197.254
191.907
177.34
23.0008
17.81
16.5802
16.048
16.1478
18.0898
18.7169
17.7515
19.5928
21.169
22.1372
23.8263
25.6817
27.1603
27.4554
26.2999
27.5987
30.8558
35.8024
42.6082
52.5392
60.8314
69.2155
78.368
88.4099
99.3392
110.983
123.182
135.778
148.508
160.635
172.628
184.568
195.568
206.294
216.753
226.986
237.086
247.06
256.984
266.843
276.702
286.535
296.396
306.251
316.153
326.063
336.028
346.007
356.048
366.106
376.225
386.359
396.556
406.763
417.021
427.273
437.562
447.824
458.098
468.316
478.522
488.639
498.709
508.648
518.497
528.168
537.702
547.014
556.141
565.002
573.63
581.953
590.01
597.751
605.236
612.466
619.559
626.571
633.669
640.948
647.901
654.423
660.505
666.019
670.947
675.275
678.909
681.794
683.447
684.327
683.532
682.873
681.049
678.172
674.086
668.827
662.397
654.785
646.01
636.078
625.04
612.946
599.931
586.139
571.6
556.109
540.047
523.64
507.014
490.264
473.496
456.754
440.034
423.378
407.1
391.225
375.812
360.889
346.481
332.602
319.304
306.703
295.137
284.758
275.139
266.048
257.405
249.176
241.345
233.895
226.81
220.075
213.674
207.591
201.805
196.304
190.96
185.805
180.869
176.16
171.671
167.396
163.315
159.422
155.713
152.166
148.764
145.491
142.343
139.315
136.402
133.599
130.899
128.289
125.761
123.31
120.935
118.632
116.397
114.226
112.119
110.073
108.086
106.157
104.28
102.451
100.665
98.9158
97.1901
95.4842
93.7767
92.0679
90.3033
88.5406
86.6492
84.6769
83.0884
82.1733
83.5373
42.6847
28.6695
24.2018
22.2069
21.1847
20.7898
20.7562
20.9717
21.6681
22.7911
24.2959
26.3232
28.9254
32.1213
35.9628
40.7631
46.6674
53.6684
61.5191
69.9515
78.6899
87.1017
95.2208
103.13
110.867
118.503
126.106
133.744
141.447
149.21
157.043
164.73
172.158
180
187.955
196.007
204.138
212.344
220.597
228.889
237.194
245.507
253.806
262.09
270.342
278.564
286.742
294.88
302.965
311.003
318.982
326.907
334.766
342.567
350.296
357.962
365.552
373.079
380.495
387.803
394.987
402.052
408.984
415.786
422.446
428.97
435.348
441.589
447.687
453.654
459.49
465.211
470.823
476.348
481.801
487.21
492.595
497.988
503.397
508.826
514.229
519.489
524.572
529.451
534.079
538.421
542.428
546.029
549.161
551.726
553.661
554.822
555.386
555.441
554.5
552.572
549.62
545.629
540.586
534.479
527.324
519.149
510.005
499.971
489.133
477.565
465.321
452.563
439.415
425.992
412.385
398.694
384.983
371.325
357.785
344.486
331.477
318.809
306.504
294.588
283.077
272.015
261.468
251.558
242.331
233.676
225.482
217.697
210.289
203.242
196.538
190.166
184.108
178.352
172.881
167.682
162.738
158.006
153.475
149.143
145.005
141.056
137.278
133.641
130.16
126.835
123.653
120.604
117.668
114.844
112.126
109.51
106.99
104.558
102.208
99.9324
97.726
95.5856
93.5077
91.4879
89.5228
87.6101
85.7479
83.9334
82.1645
80.4381
78.7503
77.0973
75.4746
73.8753
72.2933
70.7206
69.1501
67.5664
65.9707
64.3535
62.6751
61.1424
59.6479
59.6901
61.5688
38.0682
31.2456
28.4083
27.0483
26.4851
26.482
26.9612
27.9631
29.5395
31.7641
34.742
38.5675
43.3066
48.9735
55.5324
62.8159
70.5371
78.3357
85.8963
92.9978
99.5513
105.672
111.554
117.379
123.305
129.448
135.885
142.651
149.649
156.815
164.174
171.729
179.529
187.502
195.61
203.818
212.098
220.417
228.752
237.077
245.374
253.624
261.814
269.929
277.963
285.901
293.742
301.475
309.097
316.6
323.982
331.237
338.363
345.355
352.211
358.926
365.497
371.917
378.184
384.294
390.251
396.055
401.711
407.224
412.601
417.851
422.984
428.012
432.95
437.814
442.621
447.389
452.14
456.89
461.66
466.464
471.316
476.22
481.177
486.153
491.101
495.996
500.809
505.505
510.04
514.363
518.41
522.112
525.405
528.21
530.418
531.901
532.616
532.742
531.865
529.955
526.999
522.966
517.841
511.63
504.355
496.064
486.821
476.708
465.808
454.22
442.063
429.458
416.515
403.341
390.036
376.689
363.383
350.199
337.219
324.501
312.088
300.013
288.31
277.011
266.159
255.793
245.963
236.682
227.91
219.589
211.682
204.163
197.012
190.214
183.753
177.614
171.781
166.24
160.976
155.97
151.201
146.652
142.31
138.167
134.213
130.436
126.819
123.357
120.046
116.871
113.826
110.883
108.05
105.325
102.702
100.17
97.7253
95.3625
93.0749
90.8575
88.7062
86.6167
84.5843
82.6054
80.6769
78.7965
76.961
75.1681
73.4147
71.6975
70.0128
68.357
66.7238
65.1095
63.5083
61.9128
60.3167
58.7124
57.1061
55.4683
53.9158
52.3384
51.5755
79.9834
47.6915
39.0625
35.6145
34.0864
33.5658
33.7295
34.5145
35.9294
38.0309
40.8897
44.5718
49.1045
54.4549
60.5064
67.0622
73.8513
80.585
87.0176
93.0194
98.5899
103.85
108.986
114.192
119.613
125.345
131.433
137.882
144.662
151.764
159.179
166.869
174.806
182.968
191.312
199.799
208.392
217.059
225.766
234.486
243.191
251.858
260.464
268.993
277.426
285.751
293.954
302.026
309.955
317.735
325.357
332.817
340.108
347.226
354.166
360.927
367.505
373.902
380.118
386.151
392.001
397.672
403.169
408.501
413.676
418.706
423.604
428.386
433.067
437.666
442.202
446.696
451.167
455.637
460.124
464.646
469.219
473.855
478.565
483.353
488.207
493.109
498.043
502.985
507.904
512.759
517.499
522.059
526.373
530.363
533.942
537.006
539.459
541.001
541.765
541.819
540.763
538.61
535.314
530.851
525.211
518.409
510.485
501.497
491.528
480.667
469.026
456.721
443.88
430.623
417.072
403.335
389.522
375.725
362.036
348.528
335.27
322.313
309.709
297.498
285.719
274.401
263.576
253.264
243.471
234.173
225.342
216.946
208.965
201.378
194.169
187.32
180.816
174.639
168.773
163.201
157.908
152.872
148.078
143.51
139.156
135.004
131.04
127.253
123.632
120.168
116.847
113.669
110.614
107.677
104.852
102.131
99.4967
96.9534
94.4945
92.1132
89.805
87.5653
85.3892
83.2715
81.2086
79.197
77.2337
75.3155
73.4397
71.6032
69.8024
68.0339
66.2945
64.5772
62.8788
61.1959
59.5223
57.854
56.1836
54.5169
52.8373
51.2123
49.5823
48.3537
97.5615
58.0354
47.6394
43.6447
41.9968
41.5258
41.8199
42.811
44.4739
46.8338
49.9179
53.7296
58.2205
63.2817
68.7444
74.4056
80.0596
85.5471
90.7866
95.7943
100.665
105.541
110.569
115.87
121.521
127.559
133.992
140.807
147.982
155.497
163.328
171.446
179.818
188.417
197.204
206.148
215.212
224.363
233.569
242.8
252.025
261.219
270.356
279.414
288.372
297.213
305.918
314.476
322.871
331.095
339.134
346.984
354.634
362.08
369.316
376.339
383.144
389.731
396.097
402.246
408.184
413.917
419.454
424.803
429.977
434.989
439.854
444.591
449.217
453.753
458.22
462.64
467.035
471.428
475.84
480.293
484.805
489.393
494.072
498.845
503.721
508.7
513.777
518.933
524.143
529.368
534.558
539.648
544.568
549.236
553.555
557.404
560.666
563.206
564.647
565.441
565.151
563.7
561.028
557.09
551.863
545.352
537.589
528.631
518.556
507.465
495.473
482.71
469.309
455.406
441.135
426.624
411.989
397.34
382.773
368.378
354.236
340.414
326.968
313.945
301.38
289.305
277.74
266.698
256.181
246.174
236.656
227.604
218.998
210.82
203.049
195.669
188.662
182.008
175.691
169.693
163.996
158.581
153.43
148.528
143.858
139.408
135.164
131.113
127.243
123.542
120.001
116.611
113.358
110.236
107.236
104.35
101.567
98.8834
96.2869
93.7699
91.3295
88.9608
86.6581
84.4165
82.2321
80.1014
78.021
75.9875
73.9978
72.0485
70.1361
68.2571
66.4082
64.5827
62.7798
60.9949
59.2226
57.4593
55.6993
53.9456
52.1893
50.4683
48.7605
47.226
113.589
68.0743
56.1904
51.7584
50.0164
49.5619
49.9023
50.9424
52.6136
54.9021
57.7956
61.2578
65.2125
69.5466
74.1231
78.8089
83.4996
88.1436
92.7478
97.3725
102.108
107.055
112.297
117.896
123.884
130.272
137.054
144.217
151.74
159.606
167.791
176.272
185.021
194.011
203.211
212.591
222.118
231.76
241.484
251.259
261.053
270.837
280.583
290.266
299.859
309.343
318.694
327.896
336.932
345.786
354.446
362.9
371.137
379.15
386.93
394.474
401.775
408.832
415.644
422.213
428.542
434.637
440.504
446.153
451.596
456.845
461.917
466.829
471.599
476.25
480.802
485.281
489.71
494.114
498.52
502.953
507.438
512.001
516.664
521.446
526.362
531.421
536.625
541.962
547.414
552.946
558.513
564.05
569.485
574.735
579.696
584.236
588.224
591.521
593.92
595.216
595.624
594.814
592.702
589.223
584.342
578.051
570.369
561.354
551.082
539.661
527.211
513.874
499.793
485.122
470.003
454.58
438.982
423.338
407.76
392.356
377.213
362.408
348.001
334.042
320.57
307.613
295.191
283.314
271.979
261.18
250.898
241.114
231.809
222.965
214.561
206.579
198.999
191.803
184.97
178.482
172.32
166.465
160.899
155.603
150.562
145.76
141.183
136.816
132.647
128.664
124.854
121.208
117.715
114.365
111.15
108.059
105.085
102.221
99.4569
96.7852
94.1944
91.6771
89.2277
86.8418
84.516
82.2469
80.0312
77.8652
75.7456
73.6685
71.6303
69.6273
67.6561
65.7118
63.7913
61.8911
60.0066
58.1344
56.2699
54.4141
52.562
50.7339
48.9269
47.1662
127.326
76.9667
63.8647
59.0847
57.2615
56.7961
57.1128
58.0813
59.5945
61.6119
64.104
67.0311
70.3329
73.9343
77.7567
81.736
85.835
90.0514
94.4136
98.9728
103.788
108.914
114.394
120.255
126.509
133.157
140.191
147.601
155.372
163.491
171.938
180.697
189.744
199.057
208.609
218.374
228.32
238.418
248.635
258.939
269.299
279.683
290.06
300.402
310.68
320.87
330.945
340.884
350.665
360.271
369.683
378.887
387.869
396.616
405.119
413.369
421.36
429.086
436.544
443.733
450.654
457.311
463.707
469.851
475.751
481.421
486.873
492.125
497.195
502.104
506.875
511.532
516.102
520.612
525.091
529.57
534.079
538.651
543.315
548.1
553.029
558.12
563.38
568.809
574.393
580.108
585.91
591.741
597.531
603.198
608.635
613.707
618.27
622.179
625.289
627.184
628.086
627.825
626.189
623.101
618.506
612.383
604.743
595.634
585.138
573.362
560.437
546.51
531.738
516.281
500.301
483.957
467.402
450.777
434.209
417.812
401.681
385.9
370.533
355.634
341.244
327.392
314.098
301.371
289.21
277.609
266.551
256.023
246.004
236.476
227.419
218.814
210.64
202.877
195.504
188.502
181.85
175.529
169.519
163.803
158.363
153.182
148.245
143.537
139.043
134.752
130.65
126.726
122.969
119.369
115.915
112.599
109.412
106.345
103.39
100.539
97.7827
95.109
92.503
89.9621
87.4846
85.0674
82.7072
80.4004
78.143
75.9311
73.7607
71.6279
69.529
67.4597
65.4165
63.396
61.394
59.4072
57.4316
55.4664
53.5085
51.5674
49.6491
47.7019
138.088
84.0311
69.9534
64.8933
63.0024
62.5203
62.7963
63.6635
64.988
66.7166
68.8212
71.2781
74.0584
77.1291
80.4588
84.0258
87.8235
91.8615
96.1627
100.757
105.676
110.947
116.589
122.613
129.022
135.818
142.993
150.543
158.457
166.727
175.34
184.283
193.54
203.092
212.916
222.99
233.285
243.773
254.424
265.206
276.087
287.035
298.019
309.008
319.971
330.878
341.702
352.416
362.995
373.416
383.658
393.703
403.531
413.127
422.475
431.566
440.387
448.929
457.187
465.155
472.83
480.213
487.303
494.107
500.63
506.881
512.872
518.618
524.136
529.444
534.566
539.526
544.35
549.066
553.707
558.304
562.893
567.509
572.189
576.968
581.876
586.939
592.173
597.584
603.169
608.908
614.768
620.697
626.627
632.488
638.168
643.536
648.438
652.722
656.225
658.627
659.891
659.998
658.694
655.877
651.475
645.446
637.796
628.565
617.835
605.711
592.333
577.849
562.435
546.261
529.512
512.355
494.962
477.478
460.041
442.766
425.758
409.102
392.87
377.116
361.888
347.212
333.112
319.595
306.665
294.312
282.528
271.294
260.596
250.413
240.728
231.519
222.767
214.449
206.545
199.034
191.896
185.11
178.657
172.517
166.674
161.108
155.805
150.747
145.922
141.314
136.911
132.701
128.671
124.812
121.112
117.561
114.151
110.873
107.717
104.676
101.74
98.8991
96.1328
93.4329
90.7999
88.2317
85.7249
83.2755
80.8791
78.5314
76.228
73.9649
71.7381
69.5436
67.3776
65.2366
63.1167
61.0144
58.9258
56.8494
54.7819
52.7265
50.6921
48.591
145.464
88.8625
74.0438
68.7637
66.8284
66.3496
66.6224
67.4414
68.6554
70.2055
72.0701
74.2425
76.719
79.4958
82.5692
85.9381
89.6061
93.5819
97.8781
102.509
107.489
112.83
118.54
124.624
131.085
137.923
145.138
152.728
160.684
169.005
177.683
186.712
196.079
205.772
215.772
226.06
236.61
247.398
258.395
269.572
280.895
292.335
303.861
315.442
327.045
338.638
350.189
361.668
373.047
384.3
395.401
406.328
417.056
427.567
437.84
447.859
457.61
467.078
476.252
485.124
493.685
501.932
509.86
517.47
524.765
531.75
538.433
544.824
550.939
556.795
562.411
567.81
573.017
578.06
582.97
587.78
592.525
597.244
601.976
606.761
611.635
616.63
621.767
627.063
632.519
638.125
643.853
649.658
655.487
661.266
666.905
672.266
677.2
681.546
685.138
687.71
689.118
689.34
688.139
685.395
681.025
674.966
667.21
657.798
646.805
634.343
620.553
605.599
589.662
572.927
555.58
537.798
519.76
501.62
483.511
465.556
447.861
430.513
413.588
397.144
381.228
365.872
351.099
336.919
323.335
310.34
297.926
286.077
274.779
264.014
253.764
244.009
234.728
225.9
217.504
209.519
201.924
194.699
187.823
181.279
175.047
169.11
163.452
158.055
152.905
147.988
143.289
138.797
134.498
130.382
126.437
122.654
119.022
115.532
112.175
108.942
105.824
102.81
99.8804
97.0213
94.2347
91.5183
88.8682
86.2798
83.7485
81.2692
78.8373
76.4482
74.0978
71.7819
69.4969
67.2391
65.0046
62.7896
60.5904
58.4044
56.2282
54.061
51.9116
49.6757
149.394
91.3755
76.0528
70.6192
68.678
68.2413
68.5694
69.4298
70.6562
72.1836
73.9917
76.0812
78.4605
81.1395
84.1281
87.4337
91.063
95.0218
99.3166
103.953
108.938
114.275
119.968
126.021
132.44
139.23
146.396
153.946
161.852
170.122
178.76
187.768
197.138
206.862
216.927
227.317
238.012
248.99
260.225
271.687
283.346
295.165
307.133
319.217
331.381
343.589
355.807
368.001
380.139
392.196
404.141
415.947
427.587
439.036
450.27
461.268
472.009
482.476
492.652
502.522
512.074
521.299
530.187
538.734
546.938
554.799
562.32
569.508
576.373
582.928
589.191
595.179
600.916
606.426
611.737
616.88
621.888
626.8
631.654
636.491
641.352
646.271
651.277
656.387
661.61
666.94
672.356
677.821
683.284
688.691
693.955
698.951
703.537
707.555
710.842
713.156
714.362
714.344
712.91
709.936
705.353
699.057
691.037
681.34
670.042
657.263
643.141
627.848
611.56
594.464
576.741
558.567
540.138
521.603
503.089
484.719
466.593
448.806
431.429
414.525
398.138
382.307
367.054
352.394
338.326
324.849
311.95
299.62
287.844
276.608
265.894
255.685
245.958
236.695
227.874
219.475
211.478
203.862
196.607
189.696
183.111
176.834
170.847
165.136
159.684
154.477
149.501
144.742
140.189
135.83
131.652
127.647
123.802
120.109
116.558
113.14
109.844
106.66
103.567
100.554
97.6203
94.7635
91.9784
89.2598
86.6021
84
81.448
78.9413
76.4754
74.046
71.6492
69.2814
66.9388
64.6171
62.3127
60.0223
57.7421
55.4687
53.2098
50.8561
149.686
91.5105
76.0389
70.5707
68.6739
68.3211
68.7799
69.7846
71.1515
72.807
74.7246
76.9012
79.3428
82.0542
85.0659
88.3867
92.0235
95.9807
100.262
104.872
109.816
115.1
120.706
126.647
132.935
139.584
146.604
154.014
161.782
169.922
178.439
187.337
196.613
206.264
216.28
226.652
237.363
248.396
259.728
271.336
283.191
295.264
307.566
320.046
332.667
345.393
358.187
371.013
383.83
396.622
409.359
422.007
434.533
446.906
459.099
471.089
482.847
494.352
505.581
516.515
527.135
537.426
547.375
556.971
566.204
575.07
583.566
591.695
599.459
606.869
613.934
620.67
627.094
633.226
639.089
644.707
650.112
655.334
660.412
665.383
670.288
675.163
680.036
684.928
689.846
694.787
699.733
704.647
709.489
714.209
718.739
722.97
726.767
729.99
732.479
734.041
734.556
733.831
731.716
728.088
722.826
715.916
707.364
697.222
685.566
672.502
658.165
642.708
626.297
609.129
591.367
573.137
554.64
536.027
517.429
498.961
480.723
462.803
445.274
428.194
411.61
395.558
380.073
365.164
350.832
337.073
323.88
311.243
299.147
287.586
276.544
266.004
255.945
246.35
237.199
228.471
220.148
212.211
204.641
197.422
190.535
183.964
177.694
171.707
165.989
160.525
155.301
150.304
145.521
140.941
136.552
132.343
128.303
124.423
120.693
117.102
113.641
110.296
107.047
103.891
100.824
97.8394
94.9324
92.0965
89.3252
86.6126
83.9527
81.3402
78.7702
76.2382
73.7401
71.2722
68.8305
66.4109
64.0095
61.6226
59.2459
56.8747
54.5153
52.0599
147.981
90.2815
74.7693
69.2847
67.4484
67.2087
67.8363
69.007
70.5452
72.3702
74.4488
76.7729
79.3453
82.1708
85.2845
88.6769
92.3534
96.3171
100.572
105.125
109.984
115.161
120.639
126.435
132.561
139.029
145.846
153.017
160.543
168.44
176.721
185.394
194.463
203.928
213.787
224.035
234.66
245.651
256.991
268.658
280.627
292.867
305.358
318.077
330.994
344.077
357.292
370.605
383.982
397.427
410.882
424.309
437.666
450.913
464.031
476.992
489.762
502.312
514.616
526.648
538.385
549.805
560.889
571.621
581.983
591.966
601.559
610.758
619.561
627.97
635.99
643.629
650.898
657.811
664.382
670.631
676.577
682.247
687.668
692.877
697.908
702.794
707.561
712.225
716.791
721.252
725.584
729.755
733.719
737.444
740.863
743.894
746.416
748.316
749.463
749.637
748.602
746.317
742.759
737.835
731.49
723.739
714.592
703.995
692.01
678.728
664.276
648.79
632.425
615.365
597.76
579.717
561.518
543.242
524.987
506.851
488.926
471.289
454.011
437.14
420.734
404.782
389.355
374.47
360.131
346.332
333.069
320.331
308.106
296.398
285.193
274.474
264.224
254.425
245.06
236.112
227.563
219.395
211.591
204.138
197.018
190.218
183.721
177.512
171.576
165.9
160.469
155.272
150.294
145.526
140.955
136.57
132.361
128.317
124.429
120.685
117.074
113.581
110.198
106.919
103.736
100.642
97.6308
94.6944
91.826
89.0187
86.2662
83.5626
80.9027
78.2816
75.6952
73.1393
70.6102
68.1038
65.6159
63.1428
60.6797
58.2214
55.773
53.2321
143.457
87.2656
72.0158
66.6324
64.8961
64.7909
65.615
67.0215
68.8177
70.9088
73.2498
75.8208
78.6144
81.6274
84.8653
88.3418
92.0653
96.0393
100.268
104.757
109.508
114.521
119.803
125.373
131.245
137.433
143.95
150.809
158.027
165.624
173.605
181.983
190.764
199.955
209.556
219.569
229.988
240.807
252.015
263.598
275.541
287.825
300.424
313.315
326.471
339.862
353.456
367.217
381.098
395.063
409.092
423.155
437.216
451.246
465.238
479.131
492.878
506.451
519.82
532.956
545.828
558.411
570.68
582.609
594.177
605.364
616.154
626.534
636.496
646.033
655.145
663.831
672.093
679.937
687.369
694.396
701.028
707.281
713.17
718.723
723.966
728.926
733.619
738.052
742.22
746.107
749.686
752.913
755.746
758.145
760.054
761.414
762.116
762.025
760.838
758.639
755.54
751.57
746.492
740.218
732.705
723.974
713.917
702.625
690.167
676.631
662.12
646.754
630.654
613.968
596.819
579.264
561.566
543.8
526.063
508.445
491.029
473.882
457.069
440.632
424.626
409.06
394.028
379.506
365.481
351.945
338.894
326.317
314.202
302.554
291.376
280.654
270.375
260.522
251.082
242.04
233.381
225.09
217.152
209.555
202.287
195.334
188.682
182.317
176.225
170.393
164.807
159.457
154.33
149.414
144.699
140.174
135.827
131.649
127.629
123.756
120.018
116.409
112.92
109.542
106.268
103.087
99.993
96.9767
94.0306
91.1475
88.3203
85.5427
82.8092
80.1147
77.4548
74.8253
72.2224
69.642
67.0803
64.5331
61.9958
59.4628
56.9388
54.3289
136.885
83.0722
68.422
63.2532
61.6413
61.672
62.6666
64.2638
66.2756
68.5998
71.1805
73.9874
77.0061
80.2317
83.6536
87.2685
91.0768
95.0817
99.2887
103.703
108.335
113.199
118.308
123.675
129.314
135.241
141.475
148.034
154.936
162.201
169.844
177.879
186.32
195.176
204.454
214.161
224.296
234.86
245.846
257.246
269.049
281.242
293.803
306.715
319.951
333.487
347.294
361.341
375.596
390.035
404.619
419.312
434.074
448.852
463.608
478.313
492.936
507.485
521.88
536.088
550.081
563.827
577.294
590.45
603.267
615.715
627.771
639.412
650.623
661.39
671.701
681.548
690.925
699.824
708.241
716.168
723.606
730.549
737.005
742.98
748.498
753.563
758.184
762.346
766.033
769.214
771.855
773.89
775.286
775.987
775.923
775.117
773.08
769.972
766.325
761.819
756.428
749.947
742.466
734.005
724.574
714.199
702.888
690.689
677.655
663.859
649.373
634.286
618.683
602.665
586.321
569.741
553.027
536.272
519.553
502.947
486.517
470.322
454.411
438.824
423.599
408.719
394.289
380.304
366.76
353.658
340.99
328.748
316.899
305.534
294.605
284.09
273.975
264.25
254.902
245.92
237.293
229.008
221.048
213.412
206.093
199.078
192.355
185.911
179.734
173.812
168.133
162.687
157.462
152.448
147.635
143.011
138.565
134.288
130.168
126.201
122.379
118.691
115.129
111.684
108.347
105.106
101.954
98.881
95.8797
92.9418
90.06
87.2276
84.4387
81.6881
78.9713
76.2839
73.6222
70.9825
68.3609
65.7534
63.1555
60.562
57.977
55.3151
128.811
78.037
64.2193
59.3661
57.9154
58.0986
59.2513
61.0302
63.2516
65.8095
68.6391
71.6992
74.9636
78.4143
82.0372
85.8223
89.765
93.8638
98.1217
102.544
107.142
111.926
116.913
122.119
127.562
133.263
139.242
145.521
152.122
159.066
166.373
174.064
182.153
190.658
199.589
208.959
218.773
229.036
239.747
250.904
262.501
274.529
286.973
299.818
313.043
326.629
340.548
354.777
369.287
384.051
399.032
414.199
429.51
444.929
460.421
475.958
491.487
506.942
522.299
537.529
552.608
567.497
582.159
596.555
610.644
624.391
637.761
650.723
663.251
675.321
686.914
698.009
708.587
718.631
728.116
737.025
745.333
753.022
760.073
766.485
772.254
777.374
781.818
785.56
788.557
790.773
792.151
792.61
792.123
790.675
787.78
783.628
778.755
772.99
766.01
757.995
749.046
739.235
728.665
717.427
705.602
693.253
680.432
667.178
653.534
639.535
625.221
610.63
595.801
580.779
565.609
550.337
535.015
519.696
504.431
489.27
474.257
459.436
444.842
430.508
416.462
402.722
389.317
376.264
363.568
351.234
339.26
327.639
316.35
305.441
294.903
284.729
274.909
265.438
256.306
247.507
239.03
230.866
222.997
215.444
208.19
201.221
194.527
188.096
181.92
175.986
170.287
164.814
159.554
154.498
149.641
144.966
140.464
136.134
131.967
127.957
124.093
120.369
116.772
113.294
109.925
106.653
103.47
100.366
97.3337
94.3636
91.4483
88.5811
85.7558
82.9672
80.2107
77.4817
74.777
72.0931
69.4263
66.773
64.129
61.4897
58.8589
56.162
120.101
72.7268
59.9173
55.4766
54.2488
54.6207
55.959
57.9454
60.4051
63.2325
66.3563
69.7271
73.3119
77.0927
81.0326
85.1095
89.3124
93.6357
98.0793
102.647
107.347
112.193
117.198
122.382
127.765
133.368
139.216
145.332
151.742
158.47
165.54
172.976
180.797
189.025
197.676
206.765
216.303
226.299
236.758
247.681
259.066
270.91
283.201
295.93
309.08
322.634
336.571
350.872
365.515
380.475
395.718
411.213
426.925
442.82
458.861
475.012
491.227
507.455
523.633
539.75
555.768
571.663
587.396
602.914
618.171
633.115
647.708
661.904
675.674
688.976
701.787
714.067
725.791
736.915
747.407
757.22
766.313
774.643
782.172
788.874
794.723
799.676
803.681
806.683
808.616
809.447
809.117
807.638
804.532
799.763
793.799
786.684
778.05
768.09
756.9
744.662
731.583
717.874
703.744
689.372
674.91
660.463
646.103
631.859
617.745
603.751
589.867
576.068
562.339
548.66
535.026
521.427
507.87
494.364
480.929
467.584
454.356
441.265
428.338
415.595
403.059
390.744
378.671
366.852
355.296
344.01
332.997
322.256
311.788
301.604
291.711
282.109
272.799
263.778
255.044
246.594
238.422
230.524
222.882
215.519
208.425
201.591
195.01
188.676
182.579
176.709
171.061
165.629
160.398
155.361
150.517
145.855
141.366
137.051
132.9
128.904
125.054
121.341
117.755
114.286
110.923
107.656
104.474
101.369
98.3321
95.3556
92.4312
89.5521
86.7122
83.9062
81.1295
78.3777
75.6479
72.9372
70.2423
67.5599
64.8864
62.2182
59.5589
56.8453
111.961
67.828
56.0688
52.1181
51.2055
51.8589
53.4837
55.7835
58.5959
61.8307
65.3881
69.2074
73.2403
77.4336
81.7478
86.1842
90.7343
95.39
100.148
105.008
109.977
115.064
120.282
125.649
131.183
136.908
142.846
149.022
155.463
162.195
169.243
176.633
184.389
192.533
201.085
210.063
219.48
229.349
239.675
250.466
261.719
273.434
285.604
298.222
311.276
324.754
338.638
352.917
367.569
382.576
397.909
413.542
429.445
445.584
461.928
478.438
495.077
511.803
528.593
545.394
562.163
578.849
595.413
611.805
627.969
643.861
659.419
674.605
689.363
703.66
717.441
730.673
743.297
755.266
766.51
776.972
786.58
795.271
802.984
809.666
815.253
819.669
822.827
824.652
825.033
824.225
821.766
817.285
811.034
803.167
793.682
782.351
769.328
754.805
739.018
722.266
704.882
687.203
669.543
652.165
635.272
618.996
603.402
588.493
574.235
560.565
547.409
534.683
522.306
510.205
498.317
486.588
474.976
463.454