/*--------------------------------*- C++ -*----------------------------------*\
  =========                 |
  \\      /  F ield         | OpenFOAM: The Open Source CFD Toolbox
   \\    /   O peration     | Website:  https://openfoam.org
    \\  /    A nd           | Version:  8
     \\/     M anipulation  |
\*---------------------------------------------------------------------------*/
FoamFile
{
    version     2.0;
    format      ascii;
    class       volScalarField;
    location    "70";
    object      k;
}
// * * * * * * * * * * * * * * * * * * * * * * * * * * * * * * * * * * * * * //

dimensions      [0 2 -2 0 0 0 0];

internalField   nonuniform List<scalar> 
12225
(
0.362792
0.344032
0.327711
0.309864
0.295371
0.283559
0.275494
0.270411
0.270493
0.272146
0.276458
0.281319
0.290762
0.296888
0.308246
0.315954
0.325568
0.340759
0.440183
0.468723
0.461616
0.448474
0.450493
0.458563
0.474881
0.499368
0.525355
0.553753
0.582761
0.609049
0.637463
0.658552
0.685757
0.701599
0.728913
0.744945
0.390535
0.417873
0.420222
0.416835
0.411635
0.407862
0.408096
0.410187
0.414861
0.421732
0.431479
0.440437
0.452692
0.462663
0.475551
0.486707
0.498355
0.513687
0.377547
0.38698
0.391402
0.391342
0.390223
0.387904
0.385691
0.384101
0.382962
0.382989
0.38352
0.384554
0.38673
0.388881
0.391708
0.395348
0.398054
0.403779
0.374562
0.376091
0.378409
0.378664
0.37826
0.377196
0.375494
0.373724
0.372025
0.370453
0.369301
0.368122
0.367493
0.366922
0.366659
0.366717
0.366787
0.36767
0.373815
0.37271
0.372643
0.37238
0.371756
0.3708
0.369546
0.368058
0.36656
0.364945
0.363517
0.362033
0.360745
0.359529
0.35841
0.357503
0.356543
0.356034
0.373783
0.371742
0.370385
0.369281
0.368229
0.367098
0.365902
0.36456
0.363214
0.361769
0.360384
0.358974
0.357623
0.356328
0.355059
0.35392
0.352753
0.351803
0.373821
0.371559
0.369634
0.367971
0.366495
0.365093
0.363759
0.362402
0.361077
0.359724
0.358401
0.357084
0.355792
0.354543
0.35331
0.352155
0.350998
0.349958
0.373833
0.371553
0.369449
0.367521
0.365771
0.364141
0.362628
0.361174
0.359785
0.358431
0.357118
0.35584
0.354592
0.353388
0.352207
0.351084
0.349976
0.348945
0.373832
0.37156
0.369418
0.367401
0.365523
0.363761
0.362117
0.360562
0.359091
0.357687
0.356344
0.355056
0.353815
0.352624
0.35147
0.35037
0.349298
0.348289
0.37383
0.371561
0.369413
0.367376
0.365454
0.363636
0.361923
0.360303
0.358771
0.357316
0.355933
0.354616
0.353357
0.352156
0.351004
0.349906
0.348847
0.347846
0.373828
0.371559
0.369409
0.367369
0.365435
0.363601
0.361864
0.360216
0.358653
0.35717
0.35576
0.354419
0.353141
0.351925
0.350763
0.349658
0.348597
0.347593
0.373827
0.371557
0.369406
0.367364
0.365427
0.363588
0.361842
0.360183
0.358606
0.357108
0.355682
0.354326
0.353035
0.351806
0.350634
0.349519
0.348453
0.347441
0.373827
0.371555
0.369402
0.36736
0.365421
0.36358
0.361831
0.360167
0.358586
0.357081
0.355649
0.354285
0.352986
0.351749
0.350571
0.349448
0.348377
0.347358
0.373826
0.371554
0.369399
0.367355
0.365416
0.363573
0.361823
0.360158
0.358575
0.357068
0.355634
0.354268
0.352967
0.351727
0.350546
0.34942
0.348347
0.347324
0.373826
0.371553
0.369397
0.367352
0.36541
0.363567
0.361815
0.360151
0.358566
0.35706
0.355625
0.35426
0.352958
0.351719
0.350537
0.349412
0.348338
0.347315
0.373826
0.371552
0.369395
0.367349
0.365407
0.363562
0.36181
0.360145
0.358561
0.357054
0.35562
0.354254
0.352954
0.351715
0.350535
0.34941
0.348338
0.347316
0.373825
0.371551
0.369394
0.367346
0.365404
0.363559
0.361807
0.360141
0.358558
0.357051
0.355618
0.354252
0.352954
0.351715
0.350537
0.349413
0.348343
0.347322
0.373825
0.37155
0.369393
0.367345
0.365403
0.363558
0.361807
0.360141
0.358559
0.357052
0.35562
0.354256
0.352959
0.351722
0.350545
0.349423
0.348355
0.347335
0.373825
0.37155
0.369394
0.367346
0.365405
0.36356
0.36181
0.360145
0.358565
0.357059
0.355629
0.354266
0.352971
0.351735
0.350561
0.34944
0.348374
0.347357
0.373825
0.371551
0.369394
0.367349
0.365408
0.363566
0.361815
0.360154
0.358573
0.357072
0.355642
0.354284
0.352989
0.351759
0.350585
0.349469
0.348404
0.347392
0.373826
0.371552
0.369396
0.367352
0.365414
0.363574
0.361828
0.360171
0.358597
0.357102
0.355681
0.35433
0.353045
0.351823
0.350659
0.349551
0.348497
0.34749
0.373826
0.371553
0.369399
0.36736
0.365431
0.363607
0.361883
0.360251
0.358707
0.357241
0.355851
0.354527
0.35327
0.352069
0.350927
0.349833
0.348794
0.347795
0.373828
0.37155
0.369412
0.367418
0.365559
0.363825
0.362198
0.360663
0.359206
0.357816
0.356485
0.355207
0.353978
0.352797
0.35166
0.350566
0.349517
0.348503
0.373823
0.371554
0.369604
0.367894
0.366342
0.364898
0.363503
0.362135
0.360778
0.359435
0.358108
0.356803
0.355527
0.354284
0.353082
0.351917
0.350803
0.349724
0.373788
0.371991
0.371112
0.370266
0.369362
0.368318
0.367055
0.365642
0.364134
0.362593
0.361051
0.359546
0.358099
0.35671
0.355411
0.354172
0.35304
0.351954
0.374355
0.375573
0.377777
0.377858
0.377289
0.375889
0.373832
0.371644
0.3695
0.36748
0.365652
0.364064
0.362683
0.361494
0.360552
0.35974
0.359186
0.358672
0.379126
0.394302
0.398261
0.396585
0.392552
0.387613
0.383632
0.380436
0.378212
0.376791
0.376361
0.376574
0.377206
0.378387
0.380054
0.381935
0.384231
0.38642
0.408393
0.427525
0.422397
0.411015
0.402194
0.397807
0.398471
0.400736
0.405706
0.412557
0.420305
0.428931
0.437698
0.44679
0.455625
0.464546
0.47299
0.481476
0.366052
0.353411
0.341987
0.330207
0.318976
0.308387
0.299388
0.291668
0.285357
0.280294
0.276579
0.273748
0.272108
0.270932
0.270834
0.271066
0.271638
0.272709
0.0404688
0.0766188
0.101115
0.120138
0.132569
0.132384
0.137548
0.147451
0.146574
0.146631
0.146085
0.147315
0.148762
0.148526
0.140737
0.15057
0.151367
0.172323
0.174337
0.200885
0.173582
0.166622
0.168342
0.175021
0.186085
0.20287
0.224555
0.250908
0.280809
0.313915
0.349122
0.385082
0.4211
0.45714
0.492274
0.526821
0.560202
0.592791
0.624148
0.654717
0.684115
0.712821
0.740486
0.767597
0.793822
0.819651
0.844742
0.869586
0.893831
0.917961
0.94161
0.965251
0.988509
1.01184
1.03488
1.05805
1.08097
1.10407
1.12694
1.15001
1.17284
1.19588
1.21865
1.24161
1.26426
1.28703
1.30941
1.33184
1.35378
1.37567
1.39699
1.41809
1.43853
1.45857
1.47783
1.49655
1.51438
1.53163
1.54802
1.56397
1.57931
1.59389
1.60738
1.61995
1.63111
1.64103
1.6496
1.65669
1.66215
1.6649
1.66697
1.66407
1.66255
1.6581
1.65178
1.64332
1.63241
1.61926
1.60383
1.58618
1.56627
1.5442
1.51995
1.49376
1.46604
1.43709
1.407
1.37584
1.34385
1.31115
1.278
1.2445
1.21092
1.17724
1.14241
1.10749
1.07323
1.0396
1.00676
0.974705
0.943525
0.913436
0.884668
0.857659
0.83578
0.817127
0.799643
0.782778
0.766545
0.750857
0.735787
0.72125
0.707318
0.693904
0.681057
0.668694
0.656881
0.645526
0.634293
0.623393
0.612918
0.602854
0.593213
0.583989
0.575163
0.566709
0.558576
0.550691
0.543055
0.535662
0.52852
0.521613
0.514948
0.508502
0.502244
0.496152
0.490229
0.48447
0.478875
0.473431
0.468132
0.46298
0.457973
0.453107
0.448375
0.443765
0.439274
0.434879
0.430564
0.426287
0.422055
0.417734
0.413434
0.408735
0.40426
0.398281
0.393773
0.384104
0.379783
0.355647
0.076701
0.12765
0.16855
0.195738
0.214294
0.226393
0.235974
0.244285
0.249781
0.254531
0.259196
0.263132
0.268741
0.277753
0.293373
0.311838
0.333641
0.360228
0.387748
0.41502
0.436083
0.459061
0.48542
0.515137
0.547821
0.583598
0.622712
0.665223
0.710721
0.758862
0.808692
0.859047
0.909717
0.96058
1.01111
1.06136
1.11102
1.16005
1.20821
1.2555
1.30175
1.34701
1.39116
1.4343
1.47637
1.51751
1.55768
1.59704
1.63558
1.67347
1.7107
1.74745
1.78371
1.81965
1.85527
1.89073
1.92602
1.9613
1.99653
2.03188
2.06728
2.1029
2.13867
2.17473
2.21101
2.24761
2.28445
2.32162
2.35902
2.39672
2.43462
2.47274
2.51096
2.54926
2.58748
2.62556
2.66328
2.70056
2.73715
2.77294
2.80771
2.84192
2.8754
2.90803
2.93951
2.96967
2.9982
3.02487
3.04941
3.07164
3.0913
3.10784
3.12028
3.13025
3.13452
3.13699
3.13439
3.12685
3.11458
3.09753
3.07566
3.04899
3.01745
2.98092
2.93948
2.89432
2.84582
2.79437
2.74031
2.68413
2.6262
2.567
2.50688
2.44624
2.38533
2.32455
2.26425
2.20471
2.14611
2.08863
2.03238
1.97751
1.92432
1.873
1.82366
1.77614
1.73023
1.68594
1.64329
1.60231
1.56296
1.52521
1.48904
1.45437
1.42115
1.38932
1.35883
1.32936
1.30077
1.27325
1.24681
1.22143
1.19707
1.1737
1.15125
1.12968
1.10884
1.08861
1.069
1.05001
1.03162
1.01381
0.996569
0.979833
0.963532
0.947634
0.932135
0.917035
0.902322
0.887964
0.873946
0.860273
0.846935
0.833918
0.821208
0.808776
0.796599
0.784648
0.772872
0.761217
0.749636
0.738022
0.726311
0.714301
0.70209
0.688808
0.676105
0.65918
0.645625
0.620512
0.142858
0.203755
0.248239
0.278246
0.299804
0.316081
0.329197
0.340567
0.351063
0.361709
0.373491
0.38743
0.404806
0.426977
0.455125
0.488446
0.52632
0.567272
0.608911
0.649404
0.688123
0.726704
0.766176
0.807092
0.849908
0.895211
0.943472
0.994941
1.04953
1.10691
1.16658
1.22805
1.29078
1.35422
1.41807
1.48199
1.54557
1.60855
1.67065
1.73169
1.7915
1.85002
1.90715
1.9629
2.01726
2.07028
2.12197
2.17243
2.22168
2.26982
2.3169
2.36302
2.40821
2.45258
2.49616
2.53907
2.58132
2.62302
2.66419
2.70493
2.74527
2.78527
2.82498
2.86447
2.90376
2.94292
2.98198
3.02099
3.05997
3.09899
3.13806
3.17723
3.21651
3.25594
3.29552
3.33525
3.37511
3.41511
3.45516
3.49522
3.53513
3.57483
3.61415
3.65287
3.69073
3.72745
3.7627
3.79609
3.82728
3.85591
3.88159
3.90381
3.92194
3.93571
3.94241
3.94656
3.94609
3.9383
3.92423
3.90384
3.87716
3.84422
3.80516
3.76023
3.70973
3.65426
3.5943
3.53043
3.46314
3.39304
3.32064
3.24652
3.17116
3.09509
3.01874
2.94259
2.86699
2.79229
2.71872
2.64649
2.57575
2.50675
2.43975
2.3751
2.31284
2.25284
2.19491
2.13903
2.08518
2.03336
1.98354
1.93569
1.88975
1.84568
1.8034
1.76283
1.7239
1.68647
1.65042
1.61572
1.58234
1.5502
1.51927
1.48949
1.4608
1.43314
1.40635
1.38026
1.35495
1.33042
1.30665
1.2836
1.26126
1.23954
1.21834
1.19767
1.1775
1.15786
1.1387
1.11999
1.10171
1.08386
1.06644
1.04941
1.03276
1.01646
1.00048
0.984773
0.969294
0.953984
0.938772
0.923564
0.908265
0.892723
0.876878
0.860276
0.843565
0.824595
0.807492
0.786018
0.206966
0.277673
0.326873
0.36091
0.386157
0.40603
0.422715
0.437865
0.452834
0.468917
0.487297
0.509126
0.535411
0.566891
0.603752
0.645435
0.690661
0.737655
0.784579
0.830286
0.874651
0.918602
0.963414
1.01033
1.0603
1.11398
1.17164
1.23325
1.29847
1.36678
1.43754
1.51015
1.58402
1.65868
1.73364
1.80851
1.8829
1.95651
2.02908
2.10042
2.17037
2.23883
2.30572
2.37101
2.43466
2.49671
2.55715
2.61604
2.67339
2.72928
2.78374
2.83684
2.88862
2.93915
2.98848
3.03669
3.08382
3.12993
3.17509
3.21936
3.2628
3.30548
3.34746
3.38884
3.42966
3.47002
3.50999
3.54965
3.58908
3.62837
3.66759
3.70683
3.74616
3.78566
3.82538
3.86537
3.90565
3.94625
3.98713
4.02826
4.06955
4.11089
4.15213
4.19307
4.23344
4.27295
4.31125
4.34791
4.38251
4.41465
4.44378
4.46935
4.49074
4.50735
4.51722
4.52241
4.523
4.51584
4.50148
4.47991
4.4511
4.4151
4.37208
4.3223
4.26615
4.20413
4.13679
4.06475
3.98863
3.90908
3.82676
3.74231
3.65633
3.56942
3.48213
3.39497
3.30835
3.22264
3.13813
3.05513
2.9739
2.89474
2.8179
2.74359
2.67187
2.60269
2.53593
2.47154
2.40949
2.34975
2.2923
2.23708
2.18403
2.1331
2.0842
2.03726
1.99218
1.94884
1.90716
1.86704
1.82841
1.7912
1.75534
1.72075
1.68739
1.65517
1.62402
1.59381
1.56452
1.53611
1.50854
1.4818
1.45583
1.43054
1.40581
1.38168
1.35816
1.33523
1.31288
1.29101
1.26963
1.24876
1.22837
1.20842
1.18889
1.16976
1.15098
1.13251
1.1143
1.09629
1.0784
1.06055
1.04263
1.02451
1.00607
0.987065
0.967686
0.94691
0.927491
0.90372
0.269621
0.352253
0.407794
0.447136
0.476819
0.500543
0.520758
0.53939
0.558087
0.578338
0.60142
0.628381
0.659894
0.696177
0.736868
0.781086
0.827551
0.874961
0.922352
0.969485
1.01686
1.06557
1.11679
1.17156
1.23046
1.29373
1.36125
1.43268
1.50747
1.58504
1.66481
1.74621
1.82874
1.91194
1.99538
2.07868
2.16151
2.24357
2.32462
2.40444
2.48287
2.55978
2.63505
2.70863
2.78044
2.85048
2.91871
2.98515
3.0498
3.11269
3.17383
3.23327
3.29105
3.3472
3.40177
3.45481
3.50638
3.55652
3.6053
3.65279
3.69903
3.74413
3.78813
3.83115
3.87326
3.91456
3.95516
3.99515
4.03464
4.07375
4.1126
4.15128
4.18992
4.22862
4.26748
4.30658
4.34599
4.38577
4.42594
4.46652
4.50747
4.54872
4.59014
4.63157
4.67278
4.71346
4.75328
4.79179
4.82856
4.86309
4.89482
4.92307
4.94715
4.96646
4.97973
4.98646
4.98865
4.98297
4.96953
4.94822
4.91895
4.88174
4.83673
4.78417
4.72445
4.65806
4.5856
4.50771
4.42509
4.33844
4.24854
4.15605
4.06173
3.96619
3.87009
3.77394
3.67826
3.58347
3.48999
3.39818
3.30837
3.22083
3.13581
3.05347
2.9739
2.89705
2.8229
2.75136
2.68243
2.61603
2.55215
2.49072
2.43168
2.37494
2.32045
2.26809
2.21779
2.16942
2.1229
2.07811
2.03497
1.99339
1.95329
1.91459
1.87722
1.84111
1.80619
1.77235
1.73954
1.70771
1.67682
1.64683
1.61769
1.58934
1.5617
1.53477
1.50851
1.48292
1.45796
1.43349
1.40957
1.38621
1.36337
1.341
1.31908
1.29759
1.27648
1.2557
1.2352
1.21492
1.19478
1.1747
1.15457
1.13428
1.11369
1.09263
1.07111
1.04862
1.02711
0.998528
0.329529
0.423731
0.488239
0.53443
0.569453
0.597453
0.62118
0.642799
0.664151
0.686829
0.71212
0.740961
0.773824
0.810711
0.851174
0.894491
0.939863
0.986705
1.03481
1.08448
1.13635
1.19125
1.2499
1.31279
1.38006
1.45162
1.52713
1.60615
1.68816
1.77266
1.85915
1.94717
2.03628
2.12609
2.21622
2.30634
2.39613
2.48531
2.57363
2.66085
2.7468
2.83129
2.9142
2.99541
3.07481
3.15236
3.22799
3.30166
3.37335
3.44305
3.51075
3.57647
3.64021
3.70201
3.76189
3.81988
3.87601
3.93035
3.98293
4.03382
4.08307
4.13076
4.17697
4.22178
4.26529
4.30761
4.34885
4.38912
4.42856
4.46729
4.50545
4.54317
4.5806
4.61788
4.65514
4.6925
4.73009
4.76801
4.80637
4.84521
4.88457
4.92443
4.96472
5.00531
5.04603
5.08661
5.12671
5.16594
5.20381
5.23985
5.27342
5.30382
5.33028
5.35207
5.36842
5.37731
5.38153
5.37801
5.36635
5.34634
5.31781
5.2807
5.23511
5.18126
5.11952
5.05037
4.97442
4.89234
4.80488
4.71282
4.61695
4.51806
4.41693
4.31427
4.21076
4.10704
4.00371
3.90129
3.80025
3.70098
3.60384
3.5091
3.41702
3.32774
3.24135
3.15786
3.07725
2.99946
2.92447
2.85222
2.78267
2.71575
2.6514
2.58952
2.53005
2.47288
2.41792
2.36505
2.31417
2.26517
2.21796
2.17244
2.12851
2.0861
2.04512
2.0055
1.96716
1.93002
1.89402
1.85909
1.82518
1.79224
1.76023
1.72909
1.69876
1.66922
1.64043
1.61237
1.58501
1.55829
1.5322
1.50672
1.48181
1.45734
1.43336
1.40984
1.38669
1.36389
1.34139
1.31912
1.29701
1.27497
1.2529
1.23068
1.20818
1.18527
1.16187
1.1377
1.11403
1.08364
0.384268
0.490255
0.564241
0.617803
0.658569
0.691043
0.718198
0.742351
0.765457
0.789179
0.814847
0.843421
0.875429
0.911007
0.94998
0.992033
1.03687
1.08439
1.13469
1.18811
1.24508
1.306
1.37116
1.44063
1.5143
1.59192
1.67312
1.7575
1.84462
1.93407
2.02546
2.1184
2.21252
2.3075
2.40299
2.4987
2.59431
2.68956
2.78418
2.87793
2.97059
3.06197
3.15188
3.24019
3.32674
3.41144
3.49417
3.57489
3.6535
3.72997
3.80426
3.87636
3.94623
4.01388
4.07932
4.14255
4.20359
4.26247
4.31923
4.3739
4.42654
4.47722
4.52599
4.57296
4.61819
4.66181
4.70391
4.74464
4.78411
4.82248
4.85989
4.8965
4.93248
4.96798
5.00319
5.03827
5.07339
5.10871
5.14438
5.18054
5.21727
5.25462
5.29259
5.33112
5.37009
5.40928
5.44841
5.4871
5.52492
5.56138
5.59584
5.62757
5.65577
5.67964
5.69845
5.70998
5.71589
5.715
5.70562
5.68756
5.66058
5.62453
5.57943
5.52545
5.46291
5.3923
5.31421
5.22935
5.13847
5.04241
4.94199
4.83807
4.73146
4.62299
4.51342
4.4035
4.29389
4.18516
4.07781
3.97229
3.86893
3.76806
3.6699
3.57464
3.48235
3.39309
3.30683
3.22357
3.14325
3.06583
2.99125
2.91946
2.85036
2.78389
2.71996
2.65846
2.59929
2.54235
2.48752
2.4347
2.38377
2.33465
2.28722
2.24141
2.19712
2.15428
2.11281
2.07264
2.03369
1.9959
1.95922
1.92357
1.88893
1.85523
1.82242
1.79047
1.75933
1.72899
1.69941
1.67056
1.64241
1.61492
1.58806
1.56176
1.53598
1.5107
1.48576
1.4612
1.43693
1.41289
1.38902
1.36523
1.34142
1.31746
1.29324
1.26861
1.24348
1.21765
1.19186
1.16011
0.431442
0.54782
0.630592
0.691266
0.737735
0.774721
0.805318
0.831918
0.856549
0.88095
0.90655
0.934457
0.965415
0.999853
1.03794
1.07972
1.1252
1.17443
1.22754
1.28468
1.346
1.4116
1.48146
1.55546
1.63339
1.71496
1.79985
1.88771
1.9782
2.07101
2.16579
2.26225
2.36008
2.45899
2.55867
2.65886
2.75925
2.85958
2.95958
3.05899
3.15758
3.25513
3.35142
3.44626
3.53949
3.63095
3.72051
3.80804
3.89346
3.97666
4.05758
4.13616
4.21234
4.2861
4.35741
4.42624
4.49259
4.55647
4.61788
4.67685
4.7334
4.78759
4.83946
4.88909
4.93655
4.98193
5.02534
5.0669
5.10674
5.14501
5.18186
5.21748
5.25202
5.28569
5.31868
5.3512
5.38346
5.41567
5.44804
5.48077
5.514
5.54787
5.58244
5.61772
5.65366
5.69013
5.7269
5.76366
5.80002
5.83553
5.86959
5.90146
5.93031
5.95531
5.9756
5.98963
5.99725
5.99852
5.99142
5.97556
5.95055
5.91615
5.87228
5.81905
5.75673
5.68576
5.60674
5.52035
5.42737
5.32863
5.22501
5.11741
5.00676
4.89395
4.77983
4.66518
4.55071
4.43704
4.32471
4.21416
4.10577
3.99986
3.89669
3.79643
3.69919
3.60506
3.51402
3.42608
3.34119
3.2593
3.18037
3.10432
3.03108
2.96056
2.89268
2.82735
2.76444
2.70386
2.64549
2.58922
2.53494
2.48255
2.43194
2.38303
2.33573
2.28996
2.24564
2.20268
2.16103
2.12062
2.08138
2.04326
2.0062
1.97016
1.93508
1.90092
1.86764
1.8352
1.8036
1.77278
1.74271
1.71336
1.68469
1.65663
1.62915
1.6022
1.57568
1.54958
1.52376
1.49817
1.47274
1.44738
1.422
1.39647
1.37066
1.34443
1.31767
1.29019
1.26237
1.22927
0.468746
0.593094
0.683058
0.749932
0.801682
0.843096
0.877299
0.9067
0.933355
0.959057
0.985343
1.01348
1.04443
1.07887
1.11724
1.15978
1.20662
1.25783
1.31344
1.37346
1.43782
1.50646
1.5792
1.65586
1.73621
1.81998
1.9069
1.99671
2.08913
2.18392
2.28081
2.37956
2.47991
2.5816
2.68437
2.78795
2.89208
2.9965
3.10092
3.2051
3.30877
3.41169
3.51363
3.61438
3.71371
3.81146
3.90744
4.0015
4.0935
4.18331
4.27081
4.35592
4.43854
4.51861
4.59605
4.67082
4.74289
4.81221
4.87878
4.94259
5.00363
5.06194
5.11752
5.17044
5.22075
5.26852
5.31383
5.35681
5.39757
5.43625
5.473
5.508
5.54143
5.57349
5.6044
5.63439
5.6637
5.69259
5.72131
5.75011
5.77921
5.8088
5.83902
5.86997
5.90167
5.93407
5.96703
6.00031
6.0336
6.06654
6.09857
6.129
6.15701
6.18174
6.20229
6.21751
6.22629
6.22904
6.22375
6.20984
6.1868
6.15426
6.11205
6.06016
5.99881
5.92839
5.84947
5.76271
5.66889
5.56883
5.4635
5.35383
5.24079
5.1253
5.00825
4.89046
4.77268
4.65557
4.53969
4.42549
4.31339
4.20369
4.09669
3.99256
3.89146
3.79346
3.69861
3.60688
3.51827
3.43271
3.35017
3.27057
3.19384
3.1199
3.04866
2.98003
2.9139
2.85016
2.7887
2.72941
2.67218
2.6169
2.56347
2.51181
2.46181
2.41341
2.36652
2.32107
2.27698
2.2342
2.19265
2.15228
2.11305
2.07488
2.03775
2.00159
1.96638
1.93207
1.89863
1.86603
1.83423
1.80319
1.77286
1.74319
1.71414
1.68564
1.65764
1.63007
1.60285
1.57591
1.54911
1.52237
1.49559
1.46862
1.44134
1.41361
1.38529
1.35621
1.32647
1.29195
0.494766
0.624185
0.719262
0.791008
0.847348
0.89301
0.931064
0.963866
0.993441
1.02158
1.04985
1.07961
1.11194
1.14765
1.18732
1.23129
1.27973
1.33269
1.39013
1.45197
1.51807
1.58826
1.66234
1.74013
1.8214
1.90595
1.99355
2.08401
2.17712
2.27269
2.37051
2.4704
2.57212
2.67547
2.78021
2.8861
2.9929
3.10035
3.20817
3.31613
3.42394
3.53136
3.63813
3.74401
3.84878
3.9522
4.05409
4.15424
4.25247
4.34863
4.44255
4.53412
4.62319
4.70966
4.79342
4.8744
4.95252
5.0277
5.0999
5.16908
5.23519
5.29824
5.35821
5.41512
5.469
5.51989
5.56786
5.613
5.6554
5.69519
5.73252
5.76753
5.80043
5.83139
5.86065
5.88845
5.91503
5.94069
5.9657
5.99037
6.01497
6.03975
6.06493
6.09065
6.11704
6.14411
6.17183
6.20003
6.22854
6.25705
6.28516
6.31221
6.33746
6.36006
6.37913
6.39365
6.40239
6.40542
6.40094
6.38823
6.36666
6.33576
6.29522
6.24493
6.185
6.11581
6.03789
5.95194
5.85865
5.75886
5.6535
5.54352
5.42987
5.31348
5.19526
5.07605
4.95667
4.83779
4.71997
4.60368
4.48934
4.37728
4.26779
4.16108
4.05732
3.95663
3.85905
3.76459
3.67323
3.58492
3.49962
3.41728
3.33781
3.26116
3.18723
3.11594
3.04718
2.98084
2.91681
2.85499
2.79527
2.73753
2.68169
2.62765
2.57533
2.52465
2.47553
2.42789
2.38167
2.3368
2.29322
2.25088
2.20971
2.16968
2.13073
2.09282
2.05589
2.01993
1.98488
1.95071
1.91738
1.88484
1.85305
1.82195
1.79149
1.76162
1.73226
1.70336
1.67484
1.64662
1.6186
1.59066
1.56263
1.53436
1.50573
1.47659
1.4468
1.41615
1.3846
1.34867
0.509067
0.640703
0.738723
0.813882
0.873999
0.923635
0.965717
1.00248
1.03586
1.06754
1.09905
1.13172
1.16663
1.20462
1.24631
1.29206
1.34206
1.39638
1.45495
1.51768
1.5844
1.65496
1.72917
1.80686
1.88785
1.97199
2.05912
2.1491
2.24178
2.33702
2.43466
2.53456
2.63654
2.74042
2.846
2.95308
3.06142
3.17079
3.28093
3.3916
3.50252
3.61345
3.7241
3.83425
3.94362
4.05199
4.15911
4.26477
4.36875
4.47086
4.5709
4.6687
4.7641
4.85694
4.9471
5.03444
5.11885
5.20022
5.27846
5.35348
5.42522
5.49362
5.55865
5.62027
5.67849
5.73331
5.78476
5.83291
5.87781
5.91958
5.95833
5.99419
6.02734
6.05796
6.08625
6.11245
6.13681
6.15962
6.18119
6.20183
6.22188
6.24163
6.26134
6.28122
6.30145
6.32213
6.3433
6.3649
6.38685
6.40902
6.43108
6.45254
6.47279
6.49097
6.50629
6.51773
6.52424
6.5253
6.51968
6.50659
6.48535
6.45537
6.41622
6.36772
6.30979
6.24283
6.16717
6.08332
5.99204
5.89416
5.79052
5.68205
5.56967
5.4543
5.33681
5.21802
5.09886
4.98005
4.86208
4.74543
4.63051
4.51767
4.40721
4.29937
4.19433
4.09226
3.99319
3.89717
3.80416
3.71415
3.62708
3.54291
3.46158
3.38303
3.30718
3.23395
3.16324
3.09494
3.02895
2.96516
2.90347
2.84378
2.786
2.73003
2.67581
2.62325
2.57227
2.52281
2.4748
2.42817
2.38288
2.33885
2.29605
2.25442
2.21392
2.17451
2.13613
2.09876
2.06233
2.02683
1.99219
1.95838
1.92533
1.89301
1.86135
1.83029
1.79976
1.76969
1.74001
1.71064
1.68148
1.65243
1.62331
1.59387
1.56399
1.53355
1.50236
1.47022
1.43697
1.39966
0.511436
0.643096
0.7423
0.819628
0.882754
0.936023
0.982152
1.02313
1.06084
1.09682
1.13244
1.16889
1.20717
1.24808
1.29219
1.33987
1.39133
1.44663
1.50576
1.56863
1.63514
1.70514
1.77851
1.85513
1.93486
2.01761
2.10327
2.19177
2.28298
2.37683
2.4732
2.57202
2.67313
2.77641
2.88169
2.98879
3.09751
3.20764
3.31895
3.4312
3.54412
3.65747
3.77098
3.8844
3.99746
4.1099
4.22147
4.33193
4.44104
4.54855
4.65425
4.75793
4.85938
4.95843
5.05491
5.14864
5.23946
5.32724
5.41182
5.49309
5.57092
5.64524
5.71594
5.78298
5.84629
5.90585
5.96165
6.0137
6.06204
6.10673
6.14786
6.18554
6.21989
6.25107
6.27927
6.30468
6.32756
6.34816
6.3668
6.38381
6.39955
6.41433
6.42846
6.44218
6.45569
6.46915
6.48267
6.49629
6.51001
6.52388
6.53768
6.55094
6.56279
6.57287
6.58071
6.58557
6.58668
6.58325
6.57443
6.55944
6.53723
6.50708
6.4685
6.42125
6.36511
6.30085
6.22847
6.14831
6.06095
5.96706
5.86741
5.76283
5.65415
5.54227
5.42795
5.312
5.19535
5.07862
4.96245
4.84731
4.73362
4.62175
4.51198
4.40459
4.29977
4.19777
4.09861
4.00233
3.90893
3.81837
3.73063
3.64567
3.56345
3.48392
3.40701
3.33266
3.26076
3.19123
3.12396
3.05885
2.9958
2.93472
2.87553
2.81815
2.7625
2.70851
2.65612
2.60524
2.55583
2.50782
2.46116
2.41579
2.37168
2.32877
2.28702
2.24639
2.20684
2.16832
2.13079
2.0942
2.05851
2.02366
1.98961
1.95629
1.92364
1.89161
1.86011
1.82907
1.79841
1.76805
1.73788
1.70781
1.67768
1.64719
1.61617
1.5845
1.55201
1.51848
1.48366
1.44504
0.506485
0.636055
0.734586
0.81245
0.877163
0.932878
0.982213
1.02722
1.06945
1.11008
1.15016
1.19078
1.2328
1.27691
1.32358
1.37318
1.42593
1.48191
1.54117
1.60366
1.66932
1.73808
1.80985
1.88459
1.96224
2.04277
2.12614
2.21231
2.3011
2.39254
2.48661
2.58326
2.6824
2.78395
2.88777
2.99373
3.10165
3.21136
3.32264
3.43528
3.54905
3.66369
3.77896
3.89459
4.01032
4.12589
4.24101
4.35545
4.46891
4.58116
4.69194
4.801
4.90808
5.01301
5.11559
5.21561
5.31284
5.40711
5.49822
5.58601
5.67031
5.751
5.82793
5.90101
5.97012
6.03519
6.09616
6.15299
6.20569
6.25427
6.29878
6.33927
6.37584
6.4086
6.43768
6.46326
6.48552
6.50471
6.52112
6.53507
6.54694
6.55707
6.56577
6.57328
6.57976
6.58542
6.59043
6.59489
6.59878
6.60192
6.60429
6.60607
6.60733
6.60807
6.60728
6.60439
6.59868
6.58938
6.57579
6.55682
6.5319
6.50035
6.46166
6.41544
6.36141
6.29974
6.23056
6.15411
6.07086
5.98134
5.88621
5.7862
5.68207
5.57462
5.46456
5.35241
5.24025
5.12798
5.01599
4.90469
4.7945
4.68576
4.57876
4.47383
4.37102
4.27066
4.17291
4.0778
3.98535
3.89553
3.80833
3.72371
3.64164
3.56214
3.48515
3.41058
3.33836
3.26839
3.2006
3.13488
3.07115
3.00932
2.94932
2.89109
2.83456
2.77965
2.72632
2.67449
2.62411
2.57513
2.5275
2.48117
2.4361
2.39225
2.34959
2.30806
2.26764
2.22828
2.18993
2.15254
2.11606
2.08045
2.04564
2.01158
1.97819
1.94541
1.91316
1.88136
1.84992
1.81874
1.78773
1.75678
1.72572
1.69424
1.66218
1.62941
1.59572
1.56089
1.52463
1.48482
0.492692
0.618755
0.715698
0.793611
0.859735
0.91793
0.970475
1.0189
1.06464
1.10897
1.15302
1.19768
1.24343
1.2907
1.33984
1.39122
1.44507
1.50151
1.5606
1.62238
1.68685
1.75386
1.82344
1.89565
1.97052
2.04809
2.12841
2.21159
2.29746
2.38601
2.47722
2.57107
2.66753
2.76654
2.86802
2.97186
3.07794
3.18611
3.2962
3.40803
3.52138
3.63604
3.75177
3.86832
3.98544
4.10286
4.22031
4.33752
4.45422
4.57014
4.68501
4.79857
4.91063
5.021
5.12935
5.2354
5.3389
5.43962
5.53731
5.63176
5.72276
5.81015
5.89374
5.97336
6.04887
6.12012
6.187
6.24944
6.30737
6.36075
6.40959
6.45389
6.49369
6.52904
6.56001
6.58672
6.6093
6.62793
6.64287
6.65444
6.66301
6.66893
6.67253
6.674
6.67332
6.6708
6.66648
6.66011
6.65215
6.64317
6.63388
6.62395
6.61341
6.60144
6.58817
6.57336
6.55663
6.53751
6.51545
6.4898
6.45993
6.42523
6.38515
6.33924
6.28715
6.22872
6.16389
6.09275
6.01552
5.93255
5.8443
5.75135
5.65432
5.5539
5.45071
5.34531
5.23888
5.13195
5.025
4.91849
4.81279
4.70824
4.60513
4.50382
4.40443
4.30752
4.21296
4.12073
4.03084
3.9433
3.85808
3.77517
3.69448
3.61611
3.54006
3.46626
3.39463
3.32511
3.25762
3.19208
3.1284
3.06651
3.00636
2.94791
2.89108
2.83583
2.78209
2.72982
2.67896
2.62947
2.5813
2.53442
2.48879
2.44438
2.40116
2.35909
2.31814
2.27825
2.23939
2.2015
2.16454
2.12844
2.09316
2.05862
2.02476
1.99149
1.95872
1.92638
1.89436
1.86256
1.83088
1.79918
1.76729
1.73493
1.70194
1.66816
1.63339
1.59739
1.55984
1.51895
0.471231
0.59365
0.688356
0.765442
0.831959
0.891601
0.946555
0.998362
1.04807
1.0965
1.14427
1.19205
1.24052
1.29014
1.34124
1.39415
1.4489
1.50558
1.56427
1.62504
1.688
1.75317
1.82058
1.89027
1.96229
2.03671
2.11354
2.19275
2.27443
2.35871
2.44566
2.53534
2.62775
2.72289
2.82073
2.92121
3.02424
3.12972
3.23752
3.34749
3.45944
3.57319
3.6885
3.80517
3.92293
4.04153
4.1607
4.28018
4.39967
4.51889
4.63753
4.7553
4.87179
4.9868
5.10009
5.21142
5.32049
5.42705
5.53084
5.63163
5.72934
5.82358
5.91408
6.0006
6.08294
6.1609
6.23429
6.30298
6.36686
6.42584
6.47984
6.52883
6.57276
6.61162
6.64541
6.67414
6.69789
6.71675
6.73093
6.7407
6.74648
6.74859
6.74746
6.74307
6.73497
6.72348
6.70895
6.69195
6.6726
6.65136
6.62791
6.60281
6.57634
6.54854
6.51961
6.48965
6.45872
6.42671
6.3934
6.35843
6.32134
6.28164
6.23876
6.19223
6.14152
6.08628
6.02619
5.96111
5.89098
5.8159
5.73611
5.65198
5.56396
5.47258
5.3784
5.28203
5.18414
5.08533
4.98608
4.88686
4.78803
4.68995
4.59287
4.49714
4.40274
4.3103
4.21982
4.13135
4.04493
3.96057
3.87825
3.79798
3.71971
3.64371
3.56981
3.49793
3.42799
3.35994
3.29372
3.22926
3.16649
3.1053
3.04572
2.98772
2.93125
2.87625
2.82269
2.77052
2.71969
2.67019
2.62196
2.57496
2.52921
2.48465
2.44128
2.39904
2.35792
2.31786
2.27882
2.24076
2.20362
2.16735
2.13189
2.09716
2.06309
2.02959
1.99656
1.9639
1.93153
1.8993
1.86711
1.83482
1.80221
1.7691
1.73531
1.70066
1.66493
1.62788
1.58919
1.54738
0.44448
0.562865
0.654821
0.730482
0.796692
0.856997
0.913447
0.967394
1.01978
1.07132
1.12259
1.17393
1.22566
1.27798
1.33108
1.38519
1.44051
1.49717
1.55525
1.61482
1.67591
1.73852
1.80277
1.86882
1.9368
2.00683
2.07904
2.15358
2.23059
2.31017
2.3924
2.47737
2.56513
2.65573
2.74918
2.84547
2.94458
3.04643
3.15094
3.25799
3.36744
3.47913
3.59286
3.70844
3.82562
3.94419
4.06386
4.18439
4.30549
4.42686
4.54822
4.66928
4.78973
4.90928
5.0276
5.1444
5.25935
5.37216
5.48247
5.58995
5.69419
5.79503
5.89223
5.98552
6.07465
6.15942
6.23971
6.3152
6.38564
6.45088
6.51075
6.56515
6.61397
6.65711
6.69444
6.7259
6.75145
6.77107
6.78484
6.79297
6.79583
6.79449
6.78909
6.77859
6.76308
6.7429
6.71841
6.68935
6.65617
6.61937
6.57935
6.53659
6.4916
6.44493
6.39718
6.3489
6.3006
6.25263
6.20522
6.15835
6.11185
6.06537
6.01845
5.97048
5.92086
5.86895
5.81418
5.75607
5.69427
5.62857
5.55894
5.48548
5.40844
5.32817
5.24511
5.15972
5.07252
4.98401
4.89465
4.80486
4.71501
4.62543
4.5364
4.44822
4.36108
4.27525
4.19087
4.10804
4.02683
3.94728
3.8694
3.7932
3.71859
3.64583
3.57488
3.50568
3.43818
3.37235
3.30813
3.24548
3.18431
3.12455
3.06635
3.00959
2.95421
2.90018
2.84746
2.79602
2.74584
2.69688
2.64912
2.60253
2.55711
2.51285
2.46973
2.42773
2.38682
2.34696
2.3081
2.27021
2.23322
2.19709
2.16175
2.12712
2.09311
2.05963
2.02658
1.99384
1.96131
1.92884
1.8963
1.86353
1.83038
1.79667
1.76222
1.72683
1.69027
1.65231
1.61263
1.57003
0.415495
0.529943
0.618969
0.692809
0.758129
0.818355
0.875439
0.930613
0.984688
1.03822
1.0916
1.14507
1.19882
1.25298
1.30768
1.36289
1.41869
1.47514
1.53233
1.59035
1.64932
1.7094
1.77076
1.83352
1.89785
1.96392
2.03189
2.10194
2.17426
2.24899
2.32628
2.40626
2.48904
2.5747
2.66331
2.75491
2.84951
2.94709
3.0476
3.15097
3.25708
3.36582
3.47702
3.59051
3.70608
3.82351
3.94258
4.06301
4.18455
4.30692
4.42982
4.55296
4.67603
4.79872
4.92069
5.04162
5.16116
5.279
5.39476
5.50812
5.61874
5.72626
5.83031
5.9306
6.02678
6.11851
6.20542
6.28725
6.36387
6.43502
6.50054
6.5602
6.61387
6.66137
6.70239
6.73671
6.76416
6.78461
6.798
6.80436
6.80485
6.80111
6.79111
6.77421
6.75065
6.7206
6.68423
6.64173
6.59347
6.53992
6.48165
6.4194
6.35404
6.28652
6.21788
6.14919
6.08148
6.01564
5.95239
5.89211
5.83499
5.78084
5.72928
5.67964
5.63115
5.5829
5.53403
5.48369
5.43118
5.37597
5.31774
5.25631
5.1917
5.12406
5.05366
4.98083
4.90596
4.82944
4.75168
4.67304
4.59387
4.51448
4.43517
4.35618
4.27775
4.20008
4.12335
4.04766
3.97312
3.89979
3.82771
3.75692
3.68743
3.61933
3.55263
3.48735
3.42345
3.36092
3.29973
3.23985
3.18121
3.12374
3.06758
3.01267
2.95897
2.90648
2.85516
2.80499
2.75597
2.70808
2.66129
2.61558
2.57103
2.52759
2.48524
2.44396
2.40372
2.3645
2.32626
2.28894
2.25248
2.21685
2.18197
2.14776
2.11412
2.08097
2.04816
2.01559
1.98313
1.95061
1.91793
1.88493
1.85146
1.81735
1.78241