/*--------------------------------*- C++ -*----------------------------------*\
  =========                 |
  \\      /  F ield         | OpenFOAM: The Open Source CFD Toolbox
   \\    /   O peration     | Website:  https://openfoam.org
    \\  /    A nd           | Version:  8
     \\/     M anipulation  |
\*---------------------------------------------------------------------------*/
FoamFile
{
    version     2.0;
    format      ascii;
    class       volScalarField;
    location    "70";
    object      nut;
}
// * * * * * * * * * * * * * * * * * * * * * * * * * * * * * * * * * * * * * //

dimensions      [0 2 -1 0 0 0 0];

internalField   nonuniform List<scalar> 
12225
(
4.14902e-05
3.93452e-05
3.74793e-05
3.5438e-05
3.37806e-05
3.24295e-05
3.15071e-05
3.09255e-05
3.09338e-05
3.11263e-05
3.16122e-05
3.21774e-05
3.32447e-05
3.39498e-05
3.52095e-05
3.62798e-05
3.68791e-05
4.01369e-05
0.000332211
0.000215179
0.000179222
0.000157677
0.000146155
0.000138166
0.000132607
0.00013169
0.000129373
0.000130138
0.000128941
0.000129544
0.000128572
0.000128695
0.000127998
0.000127812
0.000127623
0.000126576
0.000668649
0.000450713
0.000355652
0.00030981
0.000275104
0.000250997
0.000231445
0.000217047
0.000202274
0.000191608
0.000182085
0.000174415
0.000168777
0.00016256
0.000159585
0.00015403
0.000152882
0.000147735
0.000801719
0.000691732
0.0005724
0.000500046
0.000449156
0.000411825
0.000380428
0.00035563
0.000333464
0.000314088
0.000297456
0.000280485
0.000269192
0.000254222
0.000246486
0.000233689
0.000227807
0.000216717
0.000839633
0.00081023
0.000740587
0.000676412
0.000623731
0.000581183
0.000545539
0.000514078
0.000488972
0.000463563
0.000444976
0.000422621
0.000408529
0.000388664
0.000377605
0.000360001
0.000351059
0.000334622
0.000850346
0.000843287
0.000819526
0.000786505
0.000750651
0.000715681
0.000685515
0.00065566
0.000632079
0.000606673
0.000588161
0.00056588
0.000550844
0.000531027
0.000518432
0.000500546
0.000489947
0.000472466
0.000851579
0.000851021
0.000843295
0.000833451
0.000817066
0.000796807
0.000777724
0.000756378
0.000738551
0.000718485
0.000702841
0.00068452
0.000670889
0.000654183
0.000642282
0.000626768
0.000616638
0.000600862
0.000851583
0.000851814
0.000850039
0.000847446
0.000841381
0.000833685
0.000824714
0.000813227
0.000802592
0.000790045
0.000779225
0.000766779
0.000756525
0.000744514
0.000735039
0.00072344
0.00071507
0.000702775
0.000851676
0.000851528
0.000851019
0.000850331
0.000848871
0.00084613
0.000842987
0.000838189
0.000833278
0.000827119
0.000820905
0.000814328
0.000807858
0.000800715
0.000794314
0.000787003
0.000780967
0.000772776
0.000851757
0.000851383
0.000851047
0.000850624
0.000850245
0.000849344
0.000848383
0.000846724
0.000844884
0.00084241
0.000839754
0.000836558
0.00083347
0.000829715
0.000826397
0.00082219
0.000818968
0.000814107
0.000851787
0.000851357
0.000851014
0.000850608
0.000850326
0.000849891
0.000849509
0.000848897
0.000848259
0.000847327
0.000846373
0.000845048
0.000843816
0.000842121
0.000840696
0.000838643
0.000837157
0.000834733
0.00085179
0.000851359
0.000850997
0.000850602
0.000850288
0.000849929
0.000849632
0.000849257
0.000848923
0.00084846
0.000848039
0.000847428
0.000846895
0.00084611
0.000845475
0.000844505
0.0008438
0.000842645
0.000851787
0.000851363
0.000850987
0.000850603
0.000850266
0.000849919
0.000849619
0.000849295
0.000849018
0.000848695
0.000848419
0.00084807
0.000847776
0.00084738
0.000847055
0.0008466
0.000846242
0.000845724
0.000851783
0.000851365
0.000850979
0.000850602
0.000850254
0.000849912
0.000849599
0.000849287
0.000849005
0.000848716
0.000848457
0.000848184
0.000847941
0.000847677
0.000847442
0.00084718
0.000846947
0.000846684
0.000851781
0.000851365
0.000850974
0.000850599
0.000850246
0.000849907
0.000849587
0.000849279
0.000848989
0.000848707
0.000848443
0.000848185
0.000847944
0.000847708
0.000847486
0.000847269
0.000847064
0.000846864
0.00085178
0.000851364
0.00085097
0.000850595
0.00085024
0.0008499
0.000849579
0.000849271
0.000848979
0.000848699
0.000848432
0.000848178
0.000847935
0.000847703
0.000847482
0.000847272
0.000847071
0.00084688
0.000851779
0.000851363
0.000850967
0.000850592
0.000850235
0.000849895
0.000849572
0.000849265
0.000848972
0.000848693
0.000848427
0.000848173
0.000847931
0.000847701
0.000847481
0.000847272
0.000847073
0.000846884
0.000851779
0.000851362
0.000850965
0.000850589
0.000850231
0.000849892
0.000849568
0.000849261
0.000848968
0.00084869
0.000848425
0.000848172
0.000847931
0.000847702
0.000847484
0.000847277
0.00084708
0.000846893
0.000851779
0.000851362
0.000850965
0.000850588
0.00085023
0.000849891
0.000849568
0.000849261
0.000848969
0.000848692
0.000848428
0.000848176
0.000847937
0.00084771
0.000847494
0.000847289
0.000847093
0.000846908
0.000851779
0.000851362
0.000850965
0.000850589
0.000850232
0.000849893
0.000849572
0.000849266
0.000848976
0.000848699
0.000848437
0.000848187
0.000847951
0.000847724
0.00084751
0.000847306
0.000847113
0.000846929
0.000851779
0.000851363
0.000850966
0.000850592
0.000850236
0.000849899
0.000849578
0.000849275
0.000848985
0.000848712
0.000848448
0.000848201
0.00084796
0.000847734
0.000847512
0.000847305
0.000847098
0.000846909
0.000851777
0.000851366
0.000850968
0.000850599
0.000850242
0.000849911
0.000849587
0.000849285
0.000848981
0.000848694
0.000848395
0.000848112
0.000847807
0.000847519
0.000847201
0.000846907
0.000846572
0.000846273
0.000851773
0.000851376
0.00085097
0.000850615
0.000850243
0.000849895
0.000849488
0.000849069
0.000848553
0.000848012
0.000847349
0.000846669
0.000845853
0.000845049
0.000844095
0.000843203
0.000842131
0.000841196
0.000851767
0.000851415
0.000850963
0.00085055
0.000849865
0.000848977
0.000847631
0.000846009
0.000843959
0.000841715
0.000839068
0.000836366
0.000833318
0.000830371
0.000827088
0.000824079
0.000820668
0.000817754
0.000851858
0.00085138
0.000850195
0.000848249
0.000844481
0.000839391
0.000832822
0.000825752
0.000818104
0.000810208
0.000801889
0.000793977
0.000785779
0.000778256
0.000770415
0.000763499
0.000756067
0.000749889
0.000852107
0.000847668
0.000839908
0.000827159
0.000808762
0.000789729
0.000770124
0.000751615
0.000733598
0.000717267
0.000701422
0.000687373
0.000673564
0.000661539
0.00064941
0.000639133
0.000628335
0.000619589
0.000843243
0.00082251
0.000775222
0.000726495
0.00068501
0.000649991
0.000618688
0.000592305
0.000568774
0.000548784
0.000530293
0.000514687
0.000499614
0.000486998
0.000474354
0.000464011
0.000453125
0.000444489
0.000795697
0.000668256
0.000570691
0.000509981
0.00046575
0.000431349
0.000404375
0.000382767
0.000364546
0.000349496
0.000336421
0.000325622
0.000315223
0.000306957
0.000298831
0.000292341
0.000285426
0.000280181
0.000501316
0.000348374
0.000292707
0.000259217
0.000236419
0.000221226
0.000211726
0.00020397
0.000198679
0.000195199
0.000192342
0.000190497
0.000188712
0.000187581
0.000186308
0.000185602
0.000184682
0.000184252
7.27388e-05
7.02249e-05
6.79538e-05
6.56133e-05
6.33813e-05
6.12774e-05
5.94897e-05
5.79548e-05
5.67019e-05
5.56956e-05
5.49582e-05
5.43954e-05
5.40708e-05
5.3837e-05
5.38191e-05
5.38639e-05
5.39815e-05
5.41934e-05
1.20775e-05
0.000106174
0.000142125
0.000173173
0.000196647
4.17232e-05
4.44782e-05
0.000221461
4.63055e-05
4.52937e-05
4.95802e-05
4.5394e-05
4.28723e-05
4.2848e-05
4.57299e-05
0.000237502
0.000250397
0.00032721
0.000318073
0.000402521
6.36655e-05
5.47076e-05
5.24691e-05
5.25775e-05
5.39819e-05
5.62446e-05
5.88193e-05
6.18529e-05
6.50379e-05
6.849e-05
7.19631e-05
7.54643e-05
7.87992e-05
8.20646e-05
8.51133e-05
8.805e-05
9.07755e-05
9.33866e-05
9.58078e-05
9.81271e-05
0.000100283
0.000102354
0.000104288
0.000106154
0.000107907
0.00010961
0.00011122
0.000112794
0.000114292
0.000115767
0.000117179
0.000118576
0.000119923
0.000121261
0.000122559
0.000123854
0.000125115
0.000126376
0.000127607
0.000128842
0.000130049
0.00013126
0.000132445
0.000133635
0.000134798
0.000135963
0.000137099
0.000138234
0.000139339
0.000140437
0.000141503
0.000142553
0.000143568
0.000144558
0.000145507
0.000146422
0.000147287
0.000148109
0.000148875
0.000149594
0.000150342
0.000151048
0.000151704
0.000152309
0.000152845
0.000153367
0.000153804
0.000154183
0.000154636
0.000154787
0.000155512
0.000155
0.000155194
0.000155085
0.000154935
0.00015472
0.000154371
0.000153918
0.000153357
0.00015269
0.000151915
0.000151033
0.000150031
0.000148882
0.000147607
0.000146247
0.000144809
0.000143273
0.000141653
0.000139952
0.00013818
0.00013634
0.000134463
0.000132668
0.000130714
0.000128588
0.00012647
0.000124337
0.000122204
0.000120071
0.000117935
0.000115817
0.00011373
0.000111298
0.000109243
0.000107722
0.000106341
0.000104996
0.000103686
0.000102399
0.000101149
9.99231e-05
9.8736e-05
9.75753e-05
9.64525e-05
9.5361e-05
9.42921e-05
9.32925e-05
9.22792e-05
9.12788e-05
9.0307e-05
8.93643e-05
8.84524e-05
8.75723e-05
8.67255e-05
8.59062e-05
8.51178e-05
8.43494e-05
8.3601e-05
8.28716e-05
8.2163e-05
8.14731e-05
8.08029e-05
8.0152e-05
7.95186e-05
7.88992e-05
7.82944e-05
7.7702e-05
7.71238e-05
7.65577e-05
7.60032e-05
7.54591e-05
7.49262e-05
7.44039e-05
7.38919e-05
7.33896e-05
7.28976e-05
7.24146e-05
7.19409e-05
7.14737e-05
7.10167e-05
7.05579e-05
7.0116e-05
6.96436e-05
6.92323e-05
6.86584e-05
6.8389e-05
6.73155e-05
6.76428e-05
6.4191e-05
2.30197e-05
8.23413e-05
0.000154209
0.000214869
0.000255947
0.000254996
0.000267755
0.000302552
0.000286592
0.000275439
0.000273135
0.000261538
0.000253095
0.000255638
0.000282134
0.000332771
0.000363005
0.000378496
0.000377946
0.000363821
0.00032576
0.000311785
0.00030639
0.000304753
0.000305506
0.000308567
0.000314457
0.000323319
0.00033482
0.000348995
0.000366411
0.000384739
0.00040355
0.00042463
0.00044602
0.000467743
0.000489427
0.000510842
0.000531768
0.00055204
0.000571533
0.000590161
0.000607881
0.000624673
0.000640555
0.000655553
0.000669724
0.000683121
0.000695824
0.000707895
0.000719423
0.000730473
0.000741135
0.000751472
0.000761579
0.000771515
0.000781373
0.000791204
0.000801102
0.000811108
0.000821302
0.00083172
0.000842444
0.000853504
0.000864976
0.000876876
0.000889269
0.000902159
0.000915604
0.000929594
0.000944179
0.000959328
0.000975064
0.000991314
0.00100804
0.00102508
0.0010423
0.00105942
0.00107614
0.0010921
0.00110694
0.00112191
0.00113705
0.00115229
0.00116763
0.00118296
0.00119807
0.00121296
0.0012275
0.00124245
0.00125679
0.00127175
0.00128318
0.00129486
0.0013039
0.00131387
0.00132201
0.00132843
0.00133334
0.0013367
0.00133847
0.00133859
0.0013369
0.00133303
0.00132673
0.001319
0.00131068
0.0013013
0.00129065
0.00127888
0.0012661
0.0012525
0.0012383
0.00122392
0.00120951
0.00119459
0.00117941
0.00116406
0.00114861
0.00113315
0.0011177
0.00110224
0.00108662
0.00106978
0.00105113
0.00103192
0.00101272
0.00099382
0.000975363
0.000957404
0.000939976
0.000923085
0.000906738
0.000890919
0.000875622
0.000860832
0.000846531
0.000832886
0.000819569
0.000806684
0.000794217
0.000782137
0.000770437
0.000759155
0.000748233
0.00073761
0.000727213
0.000716953
0.000706906
0.000697096
0.000687518
0.000678166
0.000669041
0.000660103
0.000651306
0.000642653
0.000634162
0.000625839
0.000617681
0.000609666
0.000601792
0.000594069
0.000586493
0.000579056
0.000571742
0.000564542
0.000557449
0.000550442
0.000543491
0.000536583
0.000529679
0.000522741
0.000515679
0.000508512
0.000501054
0.000492804
0.000485854
0.000470663
0.000456533
0.000414823
4.30309e-05
0.000130329
0.000229157
0.000313771
0.000381854
0.000432503
0.000469901
0.000497754
0.000511907
0.00051665
0.000516736
0.000513206
0.000509868
0.000510808
0.000518382
0.000526754
0.00053423
0.000539644
0.000542425
0.000542594
0.000541572
0.000545671
0.00055484
0.000568468
0.000586389
0.000608647
0.000635279
0.000666136
0.000700868
0.000739045
0.00077992
0.000823956
0.000871002
0.000916953
0.000962913
0.00100847
0.00105316
0.00109666
0.00113871
0.00117912
0.00121779
0.00125467
0.00128976
0.00132309
0.00135473
0.00138476
0.00141329
0.00144042
0.00146627
0.00149095
0.00151458
0.00153728
0.00155915
0.00158031
0.00160086
0.00162089
0.0016405
0.00165976
0.0016789
0.00169803
0.00171723
0.00173658
0.00175617
0.00177607
0.00179635
0.00181707
0.00183829
0.00186004
0.00188236
0.00190528
0.00192881
0.00195295
0.00197768
0.00200296
0.00202872
0.00205486
0.00208127
0.00210781
0.00213437
0.00216084
0.00218724
0.002214
0.00224104
0.00226822
0.00229542
0.00232244
0.00234908
0.0023752
0.00240062
0.00242534
0.00244917
0.0024721
0.00249258
0.00250986
0.00252269
0.00253683
0.00254984
0.00255837
0.00256381
0.00256624
0.00256562
0.00256192
0.00255514
0.00254522
0.00253222
0.00251657
0.00249873
0.00247867
0.00245646
0.00243231
0.00240648
0.00237925
0.00235092
0.00232185
0.00229231
0.0022622
0.00223173
0.00220107
0.00217038
0.00213977
0.00210934
0.00207909
0.00204888
0.00201822
0.00198666
0.00195473
0.00192293
0.00189158
0.00186086
0.00183087
0.00180167
0.00177329
0.00174574
0.001719
0.00169308
0.00166793
0.00164354
0.00162004
0.00159733
0.00157534
0.00155402
0.00153331
0.00151325
0.00149409
0.00147552
0.00145741
0.00143954
0.00142168
0.0014042
0.00138713
0.00137043
0.0013541
0.00133817
0.00132253
0.00130706
0.00129184
0.0012769
0.00126229
0.001248
0.00123398
0.00122023
0.0012068
0.00119369
0.00118087
0.00116831
0.00115601
0.00114395
0.00113208
0.00112035
0.00110873
0.00109715
0.0010855
0.00107368
0.00106156
0.00104899
0.00103501
0.00102184
0.00100088
0.00098384
0.000931548
6.26154e-05
0.000182283
0.00030776
0.000412663
0.000496168
0.00056022
0.000607277
0.000640007
0.000659988
0.000669931
0.000672812
0.000671489
0.000668952
0.000667864
0.000669882
0.000675151
0.000683443
0.000694276
0.000707222
0.00072231
0.000740354
0.000762869
0.000790512
0.000823541
0.000862014
0.000905768
0.000954413
0.00100734
0.00106373
0.00112348
0.00118604
0.0012502
0.00131498
0.00137921
0.00144263
0.00150485
0.0015655
0.00162431
0.00168111
0.00173576
0.00178822
0.00183847
0.00188654
0.00193248
0.00197638
0.00201833
0.00205844
0.00209683
0.00213362
0.00216892
0.00220287
0.00223558
0.00226716
0.00229775
0.00232744
0.00235636
0.0023846
0.00241228
0.00243954
0.00246649
0.00249321
0.00251981
0.00254636
0.00257294
0.00259963
0.0026265
0.00265359
0.00268096
0.00270866
0.0027367
0.00276513
0.00279393
0.00282312
0.00285268
0.00288256
0.00291274
0.00294314
0.00297372
0.00300439
0.0030351
0.00306592
0.00309701
0.00312829
0.00315962
0.00319084
0.00322177
0.00325221
0.00328193
0.00331073
0.00333841
0.00336467
0.00338932
0.00341231
0.00343298
0.00344722
0.00346084
0.00347421
0.00348264
0.00348722
0.00348806
0.00348514
0.00347846
0.00346801
0.00345384
0.00343607
0.00341497
0.00339081
0.00336376
0.00333403
0.00330188
0.00326763
0.00323159
0.00319411
0.00315554
0.00311615
0.0030761
0.00303563
0.00299494
0.00295424
0.00291368
0.00287341
0.00283349
0.00279386
0.0027543
0.00271461
0.002675
0.00263576
0.00259712
0.00255927
0.00252228
0.00248624
0.00245115
0.00241705
0.00238391
0.00235172
0.00232047
0.00229011
0.00226069
0.00223217
0.00220451
0.00217763
0.00215147
0.00212601
0.00210133
0.00207734
0.00205391
0.00203103
0.00200851
0.00198672
0.00196544
0.00194458
0.00192416
0.00190427
0.00188468
0.00186517
0.00184598
0.00182718
0.00180885
0.00179097
0.00177341
0.00175626
0.0017396
0.00172343
0.00170768
0.00169236
0.00167745
0.00166292
0.00164873
0.0016348
0.00162111
0.00160754
0.00159396
0.00158024
0.00156617
0.00155158
0.0015355
0.00151938
0.00149673
0.00147925
0.00142517
8.17992e-05
0.000234159
0.000383147
0.000505236
0.000600301
0.000671781
0.000723611
0.00075866
0.000780184
0.000791533
0.000796129
0.000797312
0.000798124
0.000801023
0.000807645
0.000818772
0.000834591
0.000854999
0.000879891
0.000909392
0.00094392
0.000984012
0.00102996
0.00108177
0.0011392
0.00120177
0.00126887
0.00133977
0.00141379
0.00148989
0.00156706
0.0016446
0.00172183
0.00179811
0.00187306
0.00194637
0.00201779
0.00208711
0.0021542
0.00221898
0.00228141
0.00234149
0.00239924
0.00245471
0.00250798
0.00255912
0.00260823
0.00265542
0.00270077
0.00274441
0.00278644
0.00282697
0.00286612
0.00290398
0.00294066
0.00297627
0.0030109
0.00304464
0.00307757
0.00310981
0.00314146
0.00317262
0.00320336
0.00323376
0.00326389
0.00329382
0.00332361
0.0033533
0.00338296
0.00341263
0.00344234
0.00347212
0.00350201
0.00353201
0.00356214
0.0035924
0.0036228
0.00365332
0.00368395
0.00371464
0.00374545
0.00377639
0.0038074
0.00383835
0.00386911
0.0038995
0.00392933
0.00395839
0.00398643
0.00401323
0.00403851
0.00406195
0.00408314
0.00410335
0.00411948
0.00413021
0.00414192
0.00414902
0.00415206
0.00415114
0.00414623
0.00413732
0.00412442
0.00410758
0.00408693
0.00406265
0.00403496
0.00400408
0.00397027
0.00393381
0.00389502
0.00385424
0.00381182
0.00376808
0.00372334
0.00367786
0.0036319
0.00358569
0.00353947
0.00349342
0.00344772
0.00340245
0.00335765
0.00331326
0.00326924
0.00322566
0.00318267
0.00314042
0.00309902
0.00305856
0.00301908
0.00298062
0.00294318
0.00290676
0.00287133
0.00283688
0.00280337
0.00277079
0.00273911
0.00270829
0.00267827
0.00264899
0.00262041
0.00259254
0.00256533
0.00253872
0.00251274
0.00248713
0.00246208
0.00243753
0.00241345
0.00238991
0.00236713
0.00234483
0.00232292
0.00230148
0.00228055
0.00226021
0.00224044
0.00222093
0.00220198
0.00218369
0.00216604
0.0021489
0.00213233
0.00211635
0.00210086
0.00208587
0.00207127
0.0020571
0.00204322
0.00202944
0.00201561
0.00200148
0.00198683
0.00197086
0.00195421
0.00193243
0.00191491
0.00185581
0.000100173
0.000278439
0.000450341
0.000588969
0.000694932
0.000773627
0.000830414
0.000868634
0.000892627
0.000906526
0.000914307
0.000919642
0.000925659
0.000934753
0.00094851
0.000967807
0.000993019
0.00102426
0.00106156
0.00110496
0.00115449
0.00121011
0.00127162
0.00133862
0.00141056
0.00148675
0.00156645
0.00164888
0.00173326
0.00181875
0.00190463
0.00199032
0.00207531
0.00215917
0.00224157
0.00232227
0.00240104
0.00247773
0.00255222
0.00262444
0.00269433
0.00276189
0.00282712
0.00289005
0.00295072
0.00300918
0.00306549
0.00311975
0.00317201
0.00322237
0.00327092
0.00331774
0.00336291
0.00340654
0.0034487
0.00348949
0.00352899
0.0035673
0.00360452
0.00364069
0.00367587
0.00371013
0.00374352
0.00377612
0.00380799
0.00383917
0.00386974
0.00389975
0.00392926
0.00395832
0.00398698
0.0040153
0.00404332
0.00407111
0.0040987
0.00412615
0.0041535
0.0041808
0.0042081
0.00423547
0.0042629
0.00429034
0.00431774
0.00434504
0.00437212
0.00439887
0.00442513
0.00445072
0.00447543
0.00449905
0.00452134
0.00454202
0.00456077
0.0045774
0.00459365
0.00460241
0.00461201
0.00461783
0.00461973
0.00461775
0.00461186
0.00460202
0.00458822
0.00457048
0.00454889
0.00452359
0.00449476
0.00446261
0.0044274
0.00438939
0.00434891
0.00430628
0.00426184
0.00421594
0.00416891
0.00412104
0.00407263
0.00402394
0.00397521
0.00392666
0.00387845
0.00383071
0.00378355
0.00373698
0.00369103
0.00364576
0.00360123
0.00355754
0.00351476
0.00347295
0.00343214
0.00339234
0.00335357
0.00331582
0.00327907
0.00324328
0.00320843
0.00317448
0.00314139
0.00310912
0.00307762
0.00304682
0.00301669
0.00298721
0.00295833
0.00293002
0.00290226
0.00287495
0.00284812
0.00282176
0.00279585
0.00277042
0.00274554
0.00272116
0.00269738
0.00267427
0.00265182
0.0026301
0.00260915
0.00258889
0.0025694
0.00255076
0.00253288
0.00251549
0.00249881
0.00248287
0.00246751
0.00245277
0.00243856
0.00242492
0.00241162
0.00239854
0.00238553
0.00237231
0.00235862
0.0023438
0.00232797
0.00230824
0.0022907
0.00223784
0.000116997
0.000317763
0.000509929
0.000663684
0.000780427
0.000867171
0.000930273
0.000973602
0.00100227
0.00102095
0.00103395
0.00104513
0.00105768
0.00107401
0.00109577
0.00112388
0.0011588
0.00120066
0.00124937
0.00130473
0.00136639
0.00143392
0.00150678
0.00158433
0.0016659
0.00175078
0.00183825
0.00192759
0.00201815
0.0021093
0.00220049
0.00229126
0.00238121
0.00247002
0.00255741
0.00264317
0.00272711
0.00280909
0.002889
0.00296675
0.00304228
0.00311555
0.00318655
0.00325526
0.00332171
0.00338592
0.00344792
0.00350776
0.00356548
0.00362114
0.0036748
0.00372652
0.00377636
0.00382438
0.00387066
0.00391525
0.00395822
0.00399963
0.00403955
0.00407801
0.00411508
0.00415081
0.00418525
0.00421845
0.00425046
0.00428136
0.00431119
0.00434002
0.0043679
0.0043949
0.00442109
0.00444653
0.0044713
0.00449548
0.00451912
0.00454232
0.00456515
0.00458768
0.00461
0.00463215
0.00465419
0.00467612
0.00469795
0.00471966
0.00474121
0.00476253
0.00478354
0.0048041
0.00482406
0.00484328
0.00486154
0.0048786
0.00489421
0.00490811
0.00492071
0.00492989
0.00493672
0.00494189
0.00494325
0.004941
0.00493511
0.00492549
0.00491208
0.00489487
0.00487388
0.0048492
0.00482099
0.0047894
0.00475466
0.00471702
0.00467677
0.00463423
0.00458972
0.00454361
0.00449624
0.00444794
0.00439903
0.0043498
0.00430049
0.00425131
0.00420245
0.00415407
0.00410629
0.00405919
0.00401283
0.00396727
0.00392257
0.00387877
0.00383592
0.00379404
0.00375317
0.0037133
0.00367444
0.00363658
0.00359969
0.00356375
0.00352871
0.00349454
0.00346118
0.00342859
0.0033967
0.00336547
0.00333485
0.00330481
0.00327531
0.00324632
0.00321782
0.00318976
0.00316213
0.00313493
0.00310813
0.00308175
0.00305584
0.00303038
0.00300543
0.00298103
0.00295741
0.00293471
0.002913
0.00289228
0.00287254
0.00285382
0.00283609
0.0028192
0.00280323
0.00278815
0.0027736
0.00275982
0.00274667
0.00273413
0.00272207
0.00271036
0.0026988
0.00268712
0.002675
0.00266189
0.00264759
0.0026302
0.00261305
0.00256811
0.000131574
0.000350926
0.000560375
0.000727878
0.000855423
0.000951076
0.00102198
0.00107243
0.001108
0.00113365
0.00115383
0.00117242
0.00119265
0.00121694
0.00124696
0.00128367
0.00132751
0.00137851
0.00143641
0.00150077
0.00157104
0.00164658
0.00172671
0.00181075
0.00189802
0.00198787
0.00207966
0.00217281
0.00226679
0.00236109
0.00245529
0.00254903
0.00264198
0.00273387
0.00282448
0.00291361
0.00300109
0.00308679
0.00317059
0.00325238
0.0033321
0.00340968
0.00348507
0.00355825
0.00362919
0.00369789
0.00376436
0.0038286
0.00389064
0.00395049
0.00400818
0.00406375
0.00411724
0.00416867
0.00421809
0.00426554
0.00431105
0.00435467
0.00439643
0.00443636
0.00447452
0.00451092
0.00454562
0.00457866
0.00461008
0.00463994
0.00466828
0.00469517
0.00472066
0.00474483
0.00476775
0.0047895
0.00481016
0.00482983
0.00484859
0.00486655
0.00488382
0.00490049
0.00491668
0.00493248
0.00494798
0.00496327
0.00497839
0.0049934
0.00500832
0.00502317
0.00503791
0.00505251
0.00506688
0.00508092
0.0050945
0.00510741
0.00511941
0.00513023
0.00513955
0.00514811
0.00515379
0.00515814
0.00515938
0.00515752
0.00515243
0.00514396
0.00513199
0.00511643
0.00509725
0.00507447
0.0050482
0.00501855
0.00498568
0.0049498
0.00491117
0.00487008
0.00482688
0.00478191
0.00473553
0.00468812
0.00464002
0.00459151
0.00454286
0.00449428
0.00444597
0.00439809
0.00435079
0.00430418
0.00425837
0.00421341
0.00416937
0.00412628
0.00408415
0.00404301
0.00400286
0.00396369
0.0039255
0.00388829
0.00385203
0.00381668
0.0037822
0.00374854
0.00371565
0.00368347
0.00365194
0.00362101
0.00359062
0.00356074
0.00353133
0.00350238
0.00347386
0.00344573
0.00341798
0.00339061
0.00336361
0.00333698
0.00331075
0.00328494
0.00325957
0.00323469
0.00321044
0.00318705
0.00316494
0.00314406
0.00312437
0.00310583
0.00308843
0.0030721
0.00305685
0.00304266
0.0030294
0.00301709
0.00300545
0.00299448
0.00298405
0.00297404
0.00296426
0.00295438
0.00294408
0.00293285
0.00292032
0.00290518
0.00288873
0.00285102
0.000143206
0.000376747
0.000600274
0.000779985
0.000918099
0.00102324
0.00110307
0.0011622
0.00120643
0.00124079
0.00126968
0.00129693
0.00132564
0.0013582
0.00139624
0.00144072
0.00149201
0.00155008
0.00161458
0.00168498
0.00176066
0.00184094
0.00192513
0.00201259
0.00210271
0.00219491
0.00228866
0.00238347
0.00247892
0.00257461
0.00267019
0.00276536
0.00285985
0.00295344
0.00304591
0.0031371
0.00322684
0.003315
0.00340146
0.00348611
0.00356886
0.00364961
0.0037283
0.00380487
0.00387926
0.00395146
0.00402143
0.00408916
0.00415463
0.00421783
0.00427877
0.00433744
0.00439386
0.00444804
0.00449998
0.00454969
0.00459721
0.00464252
0.00468567
0.00472665
0.0047655
0.00480222
0.00483685
0.00486941
0.00489995
0.00492848
0.00495507
0.00497975
0.00500259
0.00502366
0.00504303
0.00506078
0.005077
0.0050918
0.00510529
0.00511759
0.00512883
0.00513914
0.00514866
0.00515754
0.00516593
0.00517394
0.00518172
0.00518938
0.00519701
0.0052047
0.00521251
0.00522047
0.0052286
0.00523687
0.00524522
0.0052535
0.00526154
0.00526909
0.00527586
0.00528246
0.00528724
0.00529105
0.00529252
0.00529152
0.00528782
0.00528122
0.0052715
0.00525848
0.00524204
0.00522217
0.00519889
0.00517228
0.0051424
0.0051094
0.00507352
0.00503501
0.00499419
0.0049514
0.00490703
0.00486146
0.00481509
0.00476822
0.00472113
0.00467401
0.00462707
0.00458047
0.00453438
0.00448895
0.0044443
0.00440053
0.00435771
0.00431585
0.00427497
0.00423507
0.00419614
0.00415816
0.00412114
0.00408507
0.00404992
0.00401565
0.00398223
0.00394959
0.00391767
0.00388641
0.00385574
0.0038256
0.00379594
0.00376673
0.00373793
0.00370952
0.00368148
0.00365379
0.00362643
0.00359939
0.00357269
0.00354632
0.0035203
0.00349466
0.00346943
0.00344467
0.00342046
0.00339699
0.00337482
0.00335413
0.00333476
0.00331665
0.00329977
0.00328409
0.00326962
0.00325635
0.0032442
0.00323318
0.00322314
0.00321401
0.00320546
0.00319736
0.00318949
0.00318149
0.00317301
0.00316358
0.00315274
0.00313953
0.00312388
0.00309157
0.000151456
0.000394595
0.000628822
0.000818928
0.000966953
0.00108172
0.00117107
0.00123979
0.00129376
0.00133787
0.00137639
0.00141294
0.00145044
0.00149115
0.00153661
0.00158774
0.0016449
0.00170807
0.00177692
0.00185095
0.00192956
0.00201214
0.00209807
0.00218678
0.00227773
0.00237042
0.00246441
0.00255931
0.00265481
0.00275057
0.0028463
0.00294173
0.00303663
0.0031308
0.00322405
0.00331622
0.00340717
0.00349676
0.00358487
0.00367139
0.00375622
0.00383925
0.00392035
0.00399943
0.00407643
0.00415131
0.00422402
0.00429452
0.00436276
0.0044287
0.00449231
0.00455356
0.00461244
0.00466893
0.00472301
0.00477468
0.00482391
0.00487071
0.00491506
0.00495696
0.00499641
0.0050334
0.00506794
0.00510004
0.00512972
0.00515699
0.00518189
0.00520446
0.00522475
0.00524281
0.00525871
0.00527254
0.00528439
0.00529437
0.00530259
0.0053092
0.00531435
0.00531819
0.00532091
0.0053227
0.00532374
0.00532422
0.00532434
0.00532426
0.00532416
0.00532421
0.00532455
0.00532532
0.00532661
0.0053285
0.00533102
0.00533414
0.00533773
0.00534159
0.0053455
0.00534976
0.00535344
0.00535678
0.00535863
0.00535874
0.00535677
0.00535252
0.00534566
0.00533587
0.00532291
0.00530672
0.00528731
0.00526472
0.00523883
0.00520975
0.00517764
0.00514274
0.00510526
0.00506555
0.00502402
0.00498107
0.00493718
0.00489271
0.00484788
0.00480291
0.00475798
0.00471327
0.00466894
0.00462518
0.00458216
0.00454
0.00449879
0.00445856
0.00441931
0.00438101
0.00434365
0.00430722
0.00427171
0.00423711
0.00420342
0.00417059
0.00413857
0.0041073
0.00407672
0.00404674
0.0040173
0.00398833
0.00395978
0.00393161
0.00390379
0.00387631
0.00384913
0.00382226
0.00379567
0.00376936
0.00374334
0.00371762
0.00369222
0.00366718
0.00364253
0.00361833
0.00359467
0.00357172
0.00355001
0.00352988
0.00351112
0.00349368
0.00347751
0.00346262
0.00344901
0.00343668
0.00342561
0.00341577
0.00340709
0.00339949
0.00339276
0.00338667
0.00338072
0.00337451
0.00336769
0.00335985
0.00335044
0.0033387
0.00332373
0.00329539
0.00015612
0.000404321
0.000645788
0.000844193
0.00100103
0.00112511
0.00122409
0.00130272
0.00136675
0.00142093
0.00146925
0.0015151
0.00156119
0.00160958
0.00166169
0.00171841
0.0017801
0.00184682
0.00191831
0.00199418
0.00207394
0.00215708
0.00224313
0.00233156
0.00242192
0.00251374
0.00260662
0.00270015
0.00279455
0.0028894
0.00298435
0.00307912
0.00317351
0.00326735
0.00336046
0.0034527
0.00354395
0.00363407
0.00372295
0.00381049
0.00389661
0.00398126
0.00406406
0.00414492
0.00422381
0.0043007
0.00437552
0.00444821
0.00451871
0.00458693
0.00465279
0.00471625
0.00477726
0.0048358
0.00489183
0.0049453
0.00499617
0.00504441
0.00508999
0.00513287
0.00517302
0.00521043
0.00524508
0.00527695
0.00530603
0.00533234
0.00535588
0.00537667
0.00539474
0.00541015
0.00542294
0.00543321
0.00544102
0.0054465
0.00544976
0.00545095
0.00545023
0.0054478
0.00544386
0.00543864
0.00543237
0.0054253
0.00541765
0.00540967
0.00540159
0.00539365
0.00538608
0.00537912
0.00537298
0.00536786
0.00536388
0.00536113
0.00535968
0.00535923
0.00535965
0.00536106
0.0053627
0.00536458
0.00536613
0.00536699
0.00536665
0.00536504
0.00536166
0.00535607
0.00534774
0.00533663
0.00532241
0.00530481
0.00528388
0.0052597
0.00523234
0.00520209
0.00516889
0.00513312
0.00509519
0.00505551
0.00501476
0.00497338
0.00493148
0.00488927
0.00484692
0.00480464
0.00476254
0.00472088
0.00467985
0.00463967
0.00460043
0.00456215
0.00452484
0.00448845
0.00445296
0.00441834
0.0043846
0.00435176
0.0043198
0.00428868
0.00425835
0.00422874
0.00419978
0.00417138
0.00414346
0.00411595
0.0040888
0.00406197
0.00403544
0.00400919
0.0039832
0.00395745
0.00393194
0.00390668
0.00388166
0.00385691
0.00383247
0.00380837
0.00378466
0.00376141
0.00373871
0.00371675
0.00369607
0.00367687
0.00365902
0.00364245
0.00362718
0.00361321
0.00360055
0.00358923
0.00357923
0.00357053
0.00356309
0.00355681
0.00355154
0.00354708
0.00354298
0.00353836
0.00353294
0.00352634
0.003518
0.00350721
0.00349259
0.00346694
0.000157269
0.000406746
0.000652177
0.000856744
0.00102125
0.00115414
0.00126223
0.00135004
0.00142351
0.00148711
0.00154457
0.00159902
0.001653
0.00170856
0.00176662
0.00182803
0.00189322
0.00196233
0.00203524
0.00211166
0.00219122
0.00227346
0.00235846
0.00244566
0.00253455
0.00262471
0.00271573
0.00280718
0.00289946
0.00299219
0.00308513
0.0031781
0.00327093
0.00336346
0.00345557
0.0035471
0.00363794
0.00372795
0.00381703
0.00390505
0.00399191
0.0040775
0.00416115
0.00424304
0.00432315
0.00440141
0.00447776
0.00455216
0.00462458
0.00469474
0.00476253
0.0048279
0.00489082
0.00495125
0.00500913
0.00506436
0.0051169
0.00516667
0.00521361
0.00525766
0.00529877
0.00533688
0.00537197
0.00540398
0.00543289
0.00545868
0.00548132
0.00550083
0.00551722
0.00553051
0.00554075
0.005548
0.00555232
0.00555383
0.00555264
0.00554889
0.00554277
0.00553446
0.00552421
0.00551228