/*--------------------------------*- C++ -*----------------------------------*\
  =========                 |
  \\      /  F ield         | OpenFOAM: The Open Source CFD Toolbox
   \\    /   O peration     | Website:  https://openfoam.org
    \\  /    A nd           | Version:  8
     \\/     M anipulation  |
\*---------------------------------------------------------------------------*/
FoamFile
{
    version     2.0;
    format      ascii;
    class       volScalarField;
    location    "70";
    object      p;
}
// * * * * * * * * * * * * * * * * * * * * * * * * * * * * * * * * * * * * * //

dimensions      [0 2 -2 0 0 0 0];

internalField   nonuniform List<scalar> 
12225
(
-1.74545
-3.93222
-5.02787
-5.342
-5.51559
-5.67372
-5.79156
-5.87241
-5.93209
-5.97707
-6.00906
-6.03238
-6.04607
-6.04738
-6.03141
-5.98226
-5.92103
-5.68692
-4.90904
-5.67546
-5.83213
-5.73303
-5.71251
-5.76972
-5.83378
-5.88508
-5.92756
-5.96259
-5.98958
-6.00941
-6.02176
-6.02277
-6.00942
-5.96909
-5.9231
-5.81122
-5.31039
-5.29391
-5.41701
-5.48825
-5.57529
-5.68513
-5.77927
-5.84958
-5.90398
-5.94719
-5.98062
-6.00549
-6.02219
-6.02755
-6.02031
-5.99356
-5.96792
-5.92776
-5.18875
-5.13023
-5.36695
-5.51891
-5.61305
-5.70898
-5.79381
-5.85927
-5.91059
-5.9522
-5.98536
-6.01066
-6.02832
-6.03605
-6.03401
-6.02013
-6.01171
-6.00912
-5.17888
-5.20142
-5.42512
-5.56071
-5.63647
-5.71816
-5.79675
-5.86009
-5.91056
-5.95212
-5.98601
-6.0126
-6.03216
-6.04351
-6.0478
-6.04613
-6.05172
-6.07158
-5.23754
-5.28467
-5.45499
-5.57249
-5.6462
-5.72392
-5.7997
-5.86226
-5.91274
-5.9546
-5.9893
-6.01733
-6.03917
-6.05456
-6.06519
-6.07372
-6.09012
-6.12227
-5.29883
-5.34138
-5.47259
-5.58235
-5.65887
-5.73329
-5.80519
-5.86639
-5.91673
-5.95879
-5.99423
-6.02386
-6.04833
-6.06789
-6.08441
-6.10105
-6.12517
-6.1624
-5.35359
-5.38957
-5.49558
-5.59762
-5.67393
-5.74411
-5.81176
-5.87143
-5.92168
-5.96408
-6.0004
-6.03185
-6.05914
-6.08276
-6.10447
-6.12734
-6.15661
-6.19614
-5.40488
-5.43638
-5.52357
-5.61562
-5.68929
-5.75567
-5.81961
-5.87771
-5.92779
-5.97057
-6.00792
-6.04128
-6.07137
-6.09869
-6.12481
-6.15237
-6.18521
-6.22551
-5.45386
-5.48155
-5.55359
-5.63524
-5.70525
-5.76843
-5.82917
-5.88556
-5.93526
-5.97842
-6.01686
-6.05207
-6.08477
-6.11539
-6.14521
-6.17634
-6.21145
-6.25194
-5.50052
-5.52457
-5.58446
-5.65662
-5.72245
-5.78252
-5.84038
-5.89504
-5.94425
-5.9878
-6.02727
-6.0642
-6.09925
-6.1328
-6.16573
-6.19958
-6.23627
-6.27645
-5.54112
-5.56208
-5.61315
-5.67756
-5.7393
-5.7965
-5.85185
-5.90496
-5.95374
-5.99768
-6.03805
-6.07627
-6.11316
-6.14892
-6.18428
-6.22013
-6.25782
-6.29782
-5.57922
-5.5976
-5.6416
-5.699
-5.75674
-5.8113
-5.86428
-5.91577
-5.96414
-6.00861
-6.04988
-6.08929
-6.12749
-6.16512
-6.20243
-6.24008
-6.27872
-6.31855
-5.62
-5.63599
-5.67362
-5.72406
-5.77739
-5.82935
-5.87996
-5.92952
-5.97726
-6.02242
-6.06507
-6.10567
-6.14515
-6.18419
-6.22336
-6.26271
-6.30249
-6.3424
-5.66253
-5.67629
-5.70853
-5.75258
-5.80127
-5.85058
-5.89917
-5.94675
-5.9935
-6.03927
-6.08353
-6.12572
-6.1664
-6.20649
-6.247
-6.28785
-6.3289
-6.36939
-5.70523
-5.71714
-5.7449
-5.7837
-5.82793
-5.87458
-5.9216
-5.96782
-6.01345
-6.0594
-6.10508
-6.14932
-6.19138
-6.23251
-6.27374
-6.31579
-6.35798
-6.39959
-5.74559
-5.75609
-5.78058
-5.8156
-5.85628
-5.90037
-5.94634
-5.99205
-6.03712
-6.08286
-6.12961
-6.17572
-6.21979
-6.26207
-6.30405
-6.34675
-6.39016
-6.43297
-5.77958
-5.78927
-5.81186
-5.84481
-5.88353
-5.92601
-5.97147
-6.01757
-6.06303
-6.109
-6.15657
-6.20434
-6.25044
-6.29433
-6.33734
-6.38074
-6.42507
-6.46903
-5.80032
-5.81004
-5.83252
-5.86549
-5.90462
-5.94756
-5.99374
-6.04116
-6.08825
-6.13563
-6.18452
-6.23386
-6.28184
-6.32756
-6.37212
-6.41676
-6.46216
-6.50723
-5.79635
-5.80705
-5.83166
-5.86756
-5.90996
-5.95592
-6.00454
-6.05421
-6.10374
-6.15353
-6.20441
-6.25523
-6.30459
-6.3518
-6.39812
-6.44436
-6.49097
-6.53684
-5.77804
-5.78997
-5.81778
-5.8582
-5.90519
-5.95507
-6.00679
-6.05926
-6.11152
-6.16395
-6.21658
-6.26856
-6.31866
-6.36719
-6.41492
-6.46274
-6.51019
-6.55671
-5.74925
-5.76234
-5.79462
-5.84202
-5.89525
-5.9494
-6.00431
-6.05979
-6.11524
-6.17041
-6.22487
-6.27767
-6.32854
-6.37808
-6.42721
-6.47608
-6.52411
-6.5707
-5.71342
-5.72668
-5.7643
-5.82162
-5.88283
-5.94173
-5.99993
-6.05834
-6.11657
-6.17404
-6.22996
-6.28362
-6.33535
-6.38605
-6.43643
-6.48611
-6.53441
-6.58092
-5.67309
-5.68552
-5.73072
-5.79916
-5.86729
-5.93145
-5.99483
-6.05722
-6.11789
-6.17673
-6.23335
-6.28753
-6.33995
-6.39164
-6.44283
-6.49297
-6.54128
-6.58774
-5.62849
-5.63546
-5.70188
-5.78444
-5.85234
-5.9178
-5.98682
-6.05446
-6.11821
-6.17861
-6.23603
-6.2908
-6.34388
-6.39622
-6.44777
-6.49789
-6.54596
-6.59241
-5.58675
-5.55184
-5.66495
-5.78092
-5.8498
-5.91207
-5.98172
-6.05085
-6.11574
-6.17705
-6.23517
-6.29064
-6.34453
-6.39754
-6.44941
-6.49945
-6.54729
-6.5936
-5.60196
-5.44471
-5.57677
-5.73543
-5.8328
-5.91184
-5.98824
-6.05838
-6.12284
-6.18367
-6.2412
-6.29612
-6.3497
-6.40262
-6.45425
-6.50376
-6.55092
-6.59661
-5.72571
-5.54699
-5.56518
-5.64109
-5.73608
-5.8433
-5.94183
-6.02506
-6.09865
-6.16641
-6.2288
-6.28692
-6.34296
-6.39807
-6.45151
-6.50222
-6.5502
-6.5969
-5.43337
-6.02548
-6.11883
-5.99907
-5.95111
-5.9858
-6.04043
-6.09327
-6.14712
-6.20222
-6.25573
-6.30705
-6.35795
-6.40942
-6.46014
-6.50842
-6.55386
-6.59909
-2.44428
-4.20924
-5.21709
-5.52133
-5.67736
-5.82818
-5.94951
-6.04003
-6.11674
-6.18671
-6.24993
-6.30766
-6.36301
-6.41786
-6.47134
-6.52138
-6.56689
-6.60694
-7.94514
-7.92397
-7.9096
-7.92071
-7.94258
-7.96683
-7.99346
-8.02232
-8.04987
-8.07525
-8.09789
-8.11748
-8.13321
-8.14553
-8.15648
-8.16834
-8.181
-8.19428
-8.20795
-8.22368
-8.24357
-8.26789
-8.29578
-8.3282
-8.36561
-8.40883
-8.45891
-8.51811
-8.58829
-8.67164
-8.76889
-8.88099
-9.007
-9.14671
-9.29767
-9.45888
-9.62708
-9.80133
-9.97836
-10.1578
-10.3367
-10.5154
-10.6915
-10.8658
-11.0364
-11.2046
-11.3687
-11.5302
-11.6874
-11.8422
-11.9931
-12.1418
-12.2867
-12.4292
-12.5678
-12.704
-12.8358
-12.9644
-13.0875
-13.2068
-13.3195
-13.4265
-13.5252
-13.6165
-13.6978
-13.7701
-13.8306
-13.8799
-13.9152
-13.9366
-13.9411
-13.9283
-13.8951
-13.8405
-13.761
-13.6549
-13.5181
-13.3485
-13.1425
-12.8983
-12.6134
-12.2869
-11.9169
-11.5023
-11.0418
-10.5345
-9.97984
-9.37822
-8.73135
-8.04194
-7.31266
-6.5467
-5.74721
-4.91835
-4.06451
-3.19109
-2.30352
-1.40785
-0.509859
0.384329
1.26932
2.13969
2.99076
3.81802
4.61761
5.38626
6.12129
6.82082
7.48343
8.10852
8.69578
9.24561
9.75856
10.2357
10.6783
11.0878
11.4658
11.8142
12.1346
12.4291
12.6997
12.9482
13.1765
13.3869
13.5808
13.7591
13.9227
14.0729
14.2107
14.3373
14.4539
14.5612
14.6603
14.7521
14.8374
14.9167
14.9905
15.0596
15.1245
15.1858
15.2435
15.298
15.3498
15.3989
15.4455
15.4899
15.5324
15.5732
15.6123
15.6496
15.6853
15.7196
15.7527
15.7848
15.8156
15.8446
15.8727
15.8998
15.9257
15.9505
15.9741
15.9966
16.018
16.0388
16.0585
16.0765
16.0941
16.1109
16.1265
16.142
16.1575
16.1719
16.1869
16.2042
16.2246
16.2518
16.2915
16.3484
16.4445
16.573
-7.95791
-7.94869
-7.94812
-7.96327
-7.98747
-8.01403
-8.04051
-8.06482
-8.08729
-8.10782
-8.12376
-8.13389
-8.1393
-8.1422
-8.143
-8.14337
-8.14536
-8.1507
-8.15938
-8.17076
-8.18372
-8.19911
-8.21874
-8.24429
-8.27564
-8.31304
-8.35874
-8.41562
-8.48618
-8.5725
-8.67531
-8.79473
-8.92931
-9.07738
-9.23604
-9.40334
-9.5763
-9.75336
-9.93196
-10.1112
-10.2893
-10.4659
-10.6397
-10.8109
-10.9787
-11.1435
-11.3048
-11.4632
-11.6181
-11.7703
-11.9194
-12.0661
-12.2096
-12.3509
-12.489
-12.6248
-12.7571
-12.8864
-13.0115
-13.1328
-13.2487
-13.3593
-13.4628
-13.5592
-13.6467
-13.725
-13.7924
-13.8482
-13.8905
-13.9182
-13.9292
-13.9221
-13.8946
-13.845
-13.7707
-13.6696
-13.5388
-13.3765
-13.1799
-12.9473
-12.6763
-12.365
-12.0113
-11.6137
-11.1708
-10.6817
-10.1457
-9.56285
-8.93462
-8.26301
-7.55089
-6.80079
-6.01591
-5.19999
-4.35745
-3.49335
-2.61317
-1.72275
-0.827957
0.0651818
0.951151
1.82439
2.68015
3.51353
4.32075
5.09805
5.84291
6.55291
7.22684
7.86352
8.46284
9.0247
9.54983
10.0389
10.4933
10.9143
11.3036
11.6627
11.9935
12.2978
12.5775
12.8341
13.0693
13.2849
13.483
13.6655
13.8333
13.9876
14.1297
14.2604
14.3808
14.4919
14.5947
14.69
14.7785
14.8607
14.9374
15.0093
15.0768
15.1403
15.2003
15.2569
15.3105
15.3613
15.4097
15.4558
15.5
15.5421
15.582
15.6204
15.6575
15.6932
15.7275
15.7602
15.7916
15.8218
15.8505
15.8783
15.9049
15.9304
15.9546
15.9778
16.0002
16.0212
16.0411
16.0603
16.0781
16.0951
16.1119
16.1276
16.1425
16.158
16.1743
16.1922
16.2138
16.2405
16.2768
16.3279
16.4169
16.5259
-7.98483
-7.98275
-7.98476
-7.99686
-8.0169
-8.03929
-8.0609
-8.08021
-8.09636
-8.10911
-8.11779
-8.1223
-8.12275
-8.12013
-8.11552
-8.11058
-8.10659
-8.10469
-8.10525
-8.10842
-8.11465
-8.12557
-8.14378
-8.17208
-8.212
-8.264
-8.32806
-8.40452
-8.49361
-8.59564
-8.71027
-8.83702
-8.97438
-9.12101
-9.27494
-9.43496
-9.59901
-9.76607
-9.93436
-10.1033
-10.2715
-10.4388
-10.6042
-10.7678
-10.9289
-11.0878
-11.2439
-11.3978
-11.549
-11.698
-11.8444
-11.9887
-12.1304
-12.27
-12.407
-12.5417
-12.6735
-12.8026
-12.9281
-13.05
-13.1674
-13.28
-13.3865
-13.4865
-13.5787
-13.6624
-13.7362
-13.7989
-13.8489
-13.8848
-13.9047
-13.9069
-13.8893
-13.8497
-13.786
-13.6958
-13.5769
-13.4271
-13.2441
-13.026
-12.7705
-12.4756
-12.139
-11.7593
-11.3349
-10.8647
-10.348
-9.78464
-9.17555
-8.52278
-7.82859
-7.09525
-6.326
-5.52403
-4.69402
-3.84044
-2.96904
-2.08518
-1.19508
-0.304363
0.581091
1.45586
2.31486
3.15312
3.96669
4.75156
5.5052
6.22485
6.90926
7.5569
8.16763
8.74103
9.27782
9.7784
10.2442
10.6763
11.0765
11.4462
11.7875
12.1021
12.392
12.6587
12.904
13.1297
13.3377
13.5292
13.7056
13.8679
14.0173
14.1549
14.2818
14.399
14.5075
14.6079
14.7011
14.7878
14.8688
14.9445
15.0154
15.0821
15.145
15.2044
15.2605
15.3138
15.3644
15.4125
15.4584
15.5021
15.5439
15.5841
15.6228
15.6597
15.695
15.7287
15.7612
15.7925
15.8223
15.851
15.8785
15.9048
15.9299
15.9538
15.9767
15.9983
16.0188
16.0386
16.0571
16.0747
16.0919
16.1082
16.1238
16.1401
16.157
16.1751
16.1965
16.2224
16.257
16.3032
16.3772
16.4504
-7.99266
-8.00226
-8.00903
-8.01961
-8.03522
-8.05233
-8.06828
-8.08197
-8.09251
-8.09951
-8.10268
-8.10225
-8.09856
-8.09255
-8.08532
-8.07845
-8.07325
-8.07094
-8.07229
-8.07827
-8.0898
-8.10847
-8.13612
-8.17479
-8.22566
-8.28923
-8.36511
-8.4529
-8.5518
-8.66126
-8.78032
-8.90832
-9.04399
-9.1865
-9.33441
-9.48693
-9.64255
-9.80061
-9.9598
-10.1197
-10.2793
-10.4385
-10.5964
-10.7532
-10.9082
-11.0617
-11.2133
-11.3633
-11.5112
-11.6576
-11.8019
-11.9446
-12.0853
-12.2243
-12.3611
-12.4959
-12.6283
-12.7581
-12.8849
-13.0085
-13.1279
-13.2429
-13.3525
-13.4561
-13.5525
-13.641
-13.7201
-13.7888
-13.8455
-13.8887
-13.9166
-13.9274
-13.9189
-13.8892
-13.8359
-13.7568
-13.6496
-13.512
-13.3419
-13.137
-12.8952
-12.6141
-12.2917
-11.9262
-11.5161
-11.0603
-10.5578
-10.0084
-9.41285
-8.77269
-8.09019
-7.36766
-6.60762
-5.81379
-4.99021
-4.14191
-3.27403
-2.3924
-1.50284
-0.611305
0.276392
1.15468
2.01816
2.86202
3.6818
4.47388
5.23513
5.96313
6.65605
7.31268
7.93235
8.51488
9.06062
9.57022
10.0448
10.4856
10.8944
11.2728
11.6226
11.9458
12.244
12.5189
12.7722
13.0056
13.2208
13.4191
13.6019
13.7701
13.9252
14.0681
14.2
14.3218
14.4345
14.5389
14.6358
14.7261
14.8102
14.8889
14.9626
15.0319
15.0972
15.1588
15.2171
15.2723
15.3246
15.3744
15.4217
15.467
15.5103
15.5518
15.5914
15.6293
15.6655
15.7004
15.7339
15.766
15.7967
15.8262
15.8544
15.8814
15.9071
15.9316
15.9549
15.9772
15.9983
16.0185
16.0375
16.0557
16.0731
16.0898
16.106
16.1225
16.1394
16.1574
16.178
16.2026
16.2342
16.2736
16.3305
16.3734
-7.95006
-7.97078
-7.98584
-7.99903
-8.01439
-8.02998
-8.04359
-8.0544
-8.06196
-8.06617
-8.06707
-8.06515
-8.06112
-8.05605
-8.05112
-8.04776
-8.04729
-8.05111
-8.06021
-8.07572
-8.09855
-8.12982
-8.17045
-8.22148
-8.28335
-8.35636
-8.44013
-8.5343
-8.63795
-8.75046
-8.87072
-8.99803
-9.13117
-9.26948
-9.41177
-9.55753
-9.7056
-9.85561
-10.0065
-10.1582
-10.3097
-10.4612
-10.6119
-10.7619
-10.9109
-11.059
-11.2058
-11.3516
-11.4962
-11.6397
-11.7819
-11.923
-12.0627
-12.2013
-12.3382
-12.4736
-12.607
-12.7384
-12.8672
-12.9932
-13.1156
-13.234
-13.3475
-13.4555
-13.5569
-13.6508
-13.7359
-13.8111
-13.8749
-13.9258
-13.962
-13.9817
-13.9828
-13.9633
-13.9208
-13.8531
-13.7577
-13.6323
-13.4746
-13.2822
-13.0528
-12.784
-12.4737
-12.12
-11.7213
-11.2762
-10.7839
-10.2439
-9.65656
-9.02394
-8.34731
-7.62952
-6.87265
-6.08067
-5.25737
-4.40814
-3.53793
-2.65293
-1.75879
-0.861785
0.0321608
0.917347
1.78797
2.63943
3.46676
4.26676
5.03568
5.77161
6.47205
7.13633
7.76319
8.35303
8.90564
9.42226
9.90352
10.3512
10.7666
11.1516
11.5077
11.837
12.1408
12.4212
12.6796
12.9178
13.1374
13.3399
13.5265
13.6985
13.857
14.0033
14.1383
14.2632
14.3786
14.4857
14.5851
14.6777
14.764
14.8447
14.9204
14.9916
15.0586
15.1219
15.1816
15.2382
15.2919
15.3429
15.3915
15.4379
15.4822
15.5246
15.5651
15.6039
15.6411
15.6768
15.711
15.7438
15.7752
15.8052
15.834
15.8615
15.8878
15.9128
15.9367
15.9594
15.9811
16.0016
16.0211
16.0395
16.0572
16.0741
16.0905
16.1069
16.1235
16.1409
16.1604
16.1829
16.2104
16.2417
16.283
16.3016
-7.85805
-7.89212
-7.92038
-7.94004
-7.95812
-7.97469
-7.98827
-7.99846
-8.00524
-8.00901
-8.01026
-8.00981
-8.00864
-8.00795
-8.00896
-8.01301
-8.02131
-8.0351
-8.05536
-8.08308
-8.11888
-8.16349
-8.21722
-8.28046
-8.35309
-8.43512
-8.52592
-8.62515
-8.73192
-8.84573
-8.96555
-9.09088
-9.22066
-9.35446
-9.49127
-9.6308
-9.77212
-9.91507
-10.0588
-10.2033
-10.348
-10.4928
-10.6372
-10.7815
-10.9252
-11.0685
-11.2111
-11.3534
-11.4949
-11.636
-11.7763
-11.9162
-12.0552
-12.1936
-12.331
-12.4674
-12.6024
-12.7359
-12.8674
-12.9965
-13.1226
-13.2453
-13.3636
-13.4769
-13.5841
-13.6844
-13.7764
-13.859
-13.9308
-13.9901
-14.0354
-14.0646
-14.0759
-14.067
-14.0358
-13.9797
-13.8963
-13.7832
-13.6378
-13.4577
-13.2403
-12.9832
-12.6842
-12.3411
-11.9522
-11.5161
-11.0317
-10.4983
-9.91669
-9.28752
-8.61363
-7.8964
-7.13882
-6.34418
-5.51703
-4.66223
-3.78551
-2.89273
-1.99009
-1.08388
-0.180303
0.714463
1.59486
2.45553
3.29214
4.10071
4.87814
5.62177
6.32979
7.00091
7.63452
8.23053
8.78932
9.31171
9.79882
10.252
10.6727
11.0626
11.4235
11.7572
12.0651
12.3492
12.611
12.8524
13.0749
13.2801
13.4691
13.6435
13.8043
13.9527
14.0898
14.2166
14.3339
14.4428
14.5439
14.6381
14.7259
14.8081
14.8852
14.9577
15.026
15.0904
15.1513
15.209
15.2637
15.3157
15.3653
15.4126
15.4577
15.5009
15.5422
15.5818
15.6198
15.6562
15.6911
15.7245
15.7565
15.7871
15.8164
15.8444
15.8712
15.8967
15.9211
15.9443
15.9663
15.9872
16.0069
16.0257
16.0435
16.0606
16.0769
16.0931
16.1092
16.1258
16.1438
16.1635
16.1861
16.2093
16.2368
16.2355
-7.73372
-7.78165
-7.82481
-7.85298
-7.87557
-7.89471
-7.91003
-7.92163
-7.9299
-7.93566
-7.93986
-7.94358
-7.948
-7.95434
-7.96381
-7.97752
-7.99653
-8.02177
-8.05402
-8.09394
-8.14195
-8.19837
-8.2632
-8.33647
-8.41775
-8.50685
-8.60306
-8.70606
-8.81495
-8.92938
-9.04842
-9.17174
-9.29844
-9.42829
-9.56047
-9.69483
-9.83063
-9.96785
-10.1058
-10.2446
-10.3837
-10.5232
-10.6626
-10.8023
-10.9418
-11.0815
-11.2209
-11.3604
-11.4997
-11.6392
-11.7784
-11.9177
-12.0567
-12.1956
-12.334
-12.4721
-12.6093
-12.7455
-12.8803
-13.0133
-13.1438
-13.2714
-13.3953
-13.5146
-13.6285
-13.736
-13.8357
-13.9266
-14.007
-14.0756
-14.1305
-14.17
-14.192
-14.1943
-14.1746
-14.1304
-14.0592
-13.9584
-13.8253
-13.6573
-13.4518
-13.2061
-12.9178
-12.5846
-12.2047
-11.7763
-11.2984
-10.7702
-10.1916
-9.56455
-8.89044
-8.17127
-7.41008
-6.60995
-5.77579
-4.9124
-4.02601
-3.12245
-2.20838
-1.29036
-0.374814
0.531585
1.42338
2.29472
3.14164
3.95958
4.74596
5.49758
6.21326
6.89118
7.5314
8.13334
8.69801
9.22563
9.71775
10.1753
10.6003
10.9941
11.3587
11.6954
12.0064
12.2931
12.5574
12.8009
13.0255
13.2323
13.4232
13.5991
13.7615
13.9113
14.0498
14.1778
14.2965
14.4066
14.509
14.6043
14.6933
14.7765
14.8547
14.9282
14.9974
15.0627
15.1245
15.183
15.2386
15.2914
15.3417
15.3898
15.4357
15.4796
15.5216
15.5619
15.6006
15.6376
15.6731
15.7072
15.7397
15.7709
15.8007
15.8293
15.8566
15.8826
15.9074
15.931
15.9533
15.9746
15.9946
16.0136
16.0316
16.0487
16.0649
16.0807
16.0962
16.1117
16.1277
16.1443
16.1618
16.1773
16.193
16.1754
-7.60064
-7.65965
-7.7162
-7.7528
-7.78051
-7.80313
-7.82133
-7.83579
-7.84728
-7.85691
-7.86591
-7.87555
-7.8871
-7.90172
-7.92051
-7.94438
-7.97415
-8.01045
-8.05381
-8.10458
-8.16291
-8.22889
-8.30233
-8.3831
-8.47068
-8.56481
-8.66472
-8.77013
-8.8802
-8.99469
-9.11275
-9.23421
-9.3583
-9.48491
-9.61334
-9.7436
-9.87506
-10.0078
-10.1412
-10.2756
-10.4104
-10.5458
-10.6815
-10.8178
-10.9543
-11.0913
-11.2285
-11.3664
-11.5045
-11.6432
-11.7822
-11.9218
-12.0616
-12.2019
-12.3422
-12.4826
-12.6227
-12.7625
-12.9012
-13.0388
-13.1745
-13.3078
-13.4379
-13.5641
-13.6853
-13.8006
-13.9088
-14.0085
-14.0984
-14.1768
-14.2421
-14.2924
-14.3256
-14.3395
-14.3317
-14.2997
-14.2408
-14.1524
-14.0317
-13.8758
-13.682
-13.4474
-13.1695
-12.8458
-12.4741
-12.0527
-11.5803
-11.0558
-10.4794
-9.85213
-9.17609
-8.45325
-7.68603
-6.87836
-6.03465
-5.16052
-4.26193
-3.34543
-2.41782
-1.48601
-0.557033
0.362638
1.26672
2.15002
3.0077
3.83595
4.63142
5.39172
6.11501
6.80026
7.44692
8.05493
8.62476
9.15718
9.65336
10.1148
10.543
10.9399
11.3071
11.6463
11.9593
12.2479
12.5139
12.7589
12.9848
13.193
13.385
13.562
13.7253
13.8762
14.0156
14.1447
14.2642
14.3752
14.4784
14.5746
14.6644
14.7485
14.8275
14.9018
14.9717
15.0378
15.1003
15.1595
15.2157
15.2692
15.3202
15.3689
15.4154
15.46
15.5027
15.5436
15.5828
15.6205
15.6566
15.6912
15.7244
15.7561
15.7866
15.8157
15.8435
15.87
15.8952
15.9192
15.942
15.9635
15.9838
16.003
16.0211
16.0382
16.0543
16.0696
16.0843
16.0985
16.1123
16.1256
16.138
16.1462
16.1518
16.1212
-7.47981
-7.5451
-7.61133
-7.65474
-7.68717
-7.71333
-7.73467
-7.75251
-7.76794
-7.78222
-7.79669
-7.81264
-7.83137
-7.85392
-7.88128
-7.91415
-7.95318
-7.99874
-8.05114
-8.11048
-8.1768
-8.24998
-8.32973
-8.41581
-8.50765
-8.605
-8.70714
-8.81385
-8.92434
-9.03847
-9.15546
-9.27527
-9.39716
-9.52117
-9.64669
-9.77379
-9.90195
-10.0313
-10.1615
-10.2926
-10.4243
-10.5568
-10.6899
-10.8239
-10.9584
-11.0939
-11.2299
-11.3671
-11.5049
-11.6438
-11.7834
-11.9242
-12.0657
-12.2081
-12.3511
-12.4947
-12.6385
-12.7825
-12.926
-13.0689
-13.2103
-13.35
-13.487
-13.6206
-13.7497
-13.8735
-13.9906
-14.0999
-14.1997
-14.2885
-14.3647
-14.4262
-14.471
-14.4969
-14.5013
-14.4818
-14.4355
-14.3597
-14.2514
-14.1076
-13.9254
-13.7019
-13.4341
-13.1195
-12.7556
-12.3406
-11.8728
-11.3513
-10.7754
-10.1472
-9.46766
-8.73941
-7.9646
-7.14744
-6.29244
-5.40564
-4.49314
-3.56198
-2.61934
-1.67245
-0.728887
0.204944
1.12221
2.01809
2.88719
3.7262
4.53124
5.30059
6.03176
6.72429
7.37704
7.99065
8.56504
9.1016
9.60116
10.0657
10.4965
10.8957
11.2648
11.6058
11.9201
12.2101
12.4771
12.7233
12.95
13.1591
13.3518
13.5296
13.6936
13.8452
13.9853
14.1151
14.2353
14.3469
14.4508
14.5476
14.6381
14.7229
14.8025
14.8774
14.948
15.0147
15.0778
15.1376
15.1945
15.2486
15.3002
15.3494
15.3965
15.4417
15.4849
15.5264
15.5662
15.6044
15.6411
15.6763
15.7101
15.7425
15.7735
15.8031
15.8315
15.8585
15.8843
15.9087
15.9319
15.9537
15.9744
15.9937
16.0119
16.0289
16.0447
16.0596
16.0733
16.086
16.0976
16.1075
16.115
16.1165
16.1134
16.0723
-7.38397
-7.45084
-7.52227
-7.56951
-7.60503
-7.63402
-7.6582
-7.67925
-7.69848
-7.7172
-7.73673
-7.75831
-7.78316
-7.8122
-7.84633
-7.88608
-7.932
-7.98426
-8.04309
-8.10842
-8.18016
-8.2581
-8.3419
-8.43125
-8.52562
-8.62476
-8.72801
-8.83518
-8.94555
-9.05905
-9.17495
-9.29328
-9.4134
-9.53538
-9.65868
-9.78348
-9.90927
-10.0363
-10.1641
-10.2931
-10.4227
-10.5535
-10.685
-10.8178
-10.9513
-11.0862
-11.2221
-11.3595
-11.4979
-11.6379
-11.779
-11.9217
-12.0656
-12.211
-12.3573
-12.5049
-12.6531
-12.8019
-12.9508
-13.0996
-13.2474
-13.394
-13.5384
-13.68
-13.8176
-13.9503
-14.0768
-14.1959
-14.3061
-14.4057
-14.4931
-14.5661
-14.6228
-14.6609
-14.6778
-14.6709
-14.6373
-14.5741
-14.4782
-14.3466
-14.176
-13.9634
-13.7055
-13.3996
-13.0431
-12.6339
-12.1702
-11.6505
-11.075
-10.4439
-9.7602
-9.02502
-8.24141
-7.41317
-6.54562
-5.64465
-4.71705
-3.77012
-2.81143
-1.84887
-0.889818
0.0584309
0.98969
1.89826
2.77954
3.62932
4.44442
5.22232
5.96131
6.66029
7.31885
7.9371
8.5156
9.05539
9.55787
10.0247
10.4576
10.8584
11.2289
11.5709
11.8862
12.177
12.4448
12.6916
12.919
13.1286
13.3219
13.5002
13.6647
13.8168
13.9574
14.0876
14.2084
14.3205
14.4249
14.5223
14.6134
14.6987
14.7789
14.8544
14.9255
14.9928
15.0564
15.1168
15.1742
15.2289
15.281
15.3309
15.3785
15.4242
15.468
15.51
15.5504
15.5892
15.6264
15.6622
15.6966
15.7296
15.7612
15.7915
15.8204
15.848
15.8742
15.8991
15.9227
15.945
15.9659
15.9855
16.0038
16.0207
16.0362
16.0504
16.0632
16.0744
16.0836
16.0901
16.0931
16.0884
16.0779
16.028
-7.31824
-7.38384
-7.45407
-7.50224
-7.53874
-7.56914
-7.59531
-7.6188
-7.641
-7.66318
-7.68661
-7.7124
-7.74168
-7.77526
-7.81397
-7.8582
-7.90846
-7.96481
-8.02743
-8.09615
-8.17088
-8.25132
-8.33712
-8.428
-8.52343
-8.62318
-8.7266
-8.83356
-8.94338
-9.05603
-9.17085
-9.2879
-9.40657
-9.52702
-9.64873
-9.77191
-9.89611
-10.0216
-10.1481
-10.2757
-10.4044
-10.5343
-10.6653
-10.7977
-10.9313
-11.0666
-11.2031
-11.3415
-11.4814
-11.6232
-11.7666
-11.912
-12.0591
-12.208
-12.3584
-12.5104
-12.6636
-12.8178
-12.9727
-13.1278
-13.2826
-13.4365
-13.5887
-13.7386
-13.885
-14.027
-14.1632
-14.2925
-14.4132
-14.5238
-14.6225
-14.7072
-14.7759
-14.8262
-14.8555
-14.8612
-14.8402
-14.7895
-14.7059
-14.5862
-14.427
-14.2249
-13.9766
-13.679
-13.3293
-12.9252
-12.4647
-11.9463
-11.3694
-10.7356
-10.0461
-9.30313
-8.50961
-7.66947
-6.78839
-5.87255
-4.92915
-3.966
-2.99095
-2.01247
-1.03782
-0.0748611
0.870543
1.79194
2.68518
3.54537
4.36997
5.15578
5.90184
6.60647
7.26999
7.89203
8.47383
9.0161
9.52079
9.98923
10.4236
10.8253
11.1967
11.5392
11.8553
12.1464
12.4148
12.6619
12.8898
13.0997
13.2934
13.472
13.637
13.7894
13.9305
14.0611
14.1823
14.2949
14.3999
14.4978
14.5894
14.6752
14.756
14.832
14.9037
14.9714
15.0356
15.0966
15.1545
15.2097
15.2624
15.3128
15.3611
15.4073
15.4517
15.4943
15.5352
15.5745
15.6124
15.6488
15.6837
15.7173
15.7496
15.7804
15.8099
15.8381
15.8649
15.8903
15.9144
15.9371
15.9583
15.9782
15.9965
16.0133
16.0286
16.0421
16.0538
16.0634
16.0703
16.0736
16.0722
16.0619
16.0449
15.9879
-7.28275
-7.34439
-7.40829
-7.45408
-7.4895
-7.51955
-7.54608
-7.57054
-7.59423
-7.61834
-7.64404
-7.67227
-7.70406
-7.7401
-7.78115
-7.82756
-7.87979
-7.93786
-8.00196
-8.07187
-8.14752
-8.22858
-8.31476
-8.40573
-8.50102
-8.60039
-8.70323
-8.80943
-8.91836
-9.03
-9.14372
-9.25962
-9.37716
-9.49647
-9.61709
-9.73925
-9.86255
-9.98728
-10.1131
-10.2404
-10.3688
-10.4988
-10.63
-10.763
-10.8974
-11.0338
-11.1718
-11.312
-11.4541
-11.5984
-11.7448
-11.8935
-12.0442
-12.1973
-12.3522
-12.5092
-12.6678
-12.828
-12.9891
-13.151
-13.313
-13.4745
-13.6349
-13.7932
-13.9486
-14.0999
-14.246
-14.3854
-14.5168
-14.6383
-14.7482
-14.8445
-14.925
-14.9872
-15.0287
-15.0465
-15.0377
-14.999
-14.9273
-14.819
-14.6706
-14.4784
-14.2389
-13.9488
-13.6052
-13.2054
-12.7474
-12.2294
-11.6511
-11.013
-10.3174
-9.56628
-8.76231
-7.91009
-7.01526
-6.08455
-5.12547
-4.14605
-3.15489
-2.16027
-1.17045
-0.192694
0.766088
1.70015
2.60428
3.47442
4.30719
5.10025
5.85197
6.56149
7.22863
7.85374
8.43769
8.98181
9.48779
9.95733
10.3923
10.7947
11.1662
11.5091
11.8253
12.1167
12.3853
12.6327
12.8608
13.071
13.265
13.4439
13.6093
13.7621
13.9036
14.0346
14.1563
14.2694
14.3748
14.4733
14.5654
14.6519
14.7331
14.8097
14.882
14.9503
15.015
15.0765
15.135
15.1908
15.2441
15.2951
15.3439
15.3907
15.4357
15.4788
15.5204
15.5603
15.5987
15.6357
15.6713
15.7056
15.7384
15.7699
15.8001
15.8288
15.8562
15.8821
15.9067
15.9298
15.9514
15.9715
15.9899
16.0067
16.0216
16.0345
16.0451
16.0531
16.0577
16.0579
16.0525
16.0372
16.0144
15.9515
-7.27159
-7.3264
-7.38093
-7.42188
-7.45447
-7.48249
-7.50767
-7.53136
-7.55474
-7.57895
-7.60505
-7.63386
-7.66627
-7.70284
-7.74431
-7.79094
-7.84323
-7.90116
-7.96495
-8.03437
-8.10939
-8.18968
-8.27499
-8.36502
-8.45929
-8.55758
-8.6593
-8.76436
-8.87214
-8.98266
-9.09533
-9.21026
-9.32688
-9.44541
-9.56536
-9.68699
-9.80991
-9.93443
-10.0602
-10.1877
-10.3165
-10.4472
-10.5794
-10.7136
-10.8495
-10.9877
-11.1279
-11.2705
-11.4153
-11.5628
-11.7126
-11.8652
-12.0201
-12.1777
-12.3376
-12.4999
-12.6642
-12.8305
-12.9982
-13.167
-13.3363
-13.5056
-13.674
-13.841
-14.0052
-14.1659
-14.3215
-14.471
-14.6126
-14.7448
-14.8656
-14.973
-15.0647
-15.1383
-15.1912
-15.2205
-15.2231
-15.1958
-15.1351
-15.0374
-14.8989
-14.7158
-14.4844
-14.2011
-13.8629
-13.4669
-13.0108
-12.493
-11.9124
-11.2706
-10.5687
-9.80932
-8.9951
-8.13083
-7.22242
-6.27693
-5.30236
-4.30694
-3.29998
-2.28975
-1.28527
-0.293537
0.677766
1.62333
2.53719
3.41594
4.25555
5.05447
5.81049
6.52362
7.19316
7.82022
8.40535
8.95051
9.45698
9.92698
10.362
10.7644
11.1357
11.4786
11.7947
12.0862
12.3548
12.6025
12.8307
13.0413
13.2354
13.4148
13.5805
13.7338
13.8757
14.0074
14.1295
14.2432
14.3492
14.4483
14.5411
14.6281
14.71
14.7871
14.86
14.9289
14.9943
15.0564
15.1155
15.1719
15.2258
15.2774
15.3268
15.3742
15.4198
15.4636
15.5058
15.5464
15.5854
15.6231
15.6594
15.6942
15.7278
15.7599
15.7906
15.82
15.8479
15.8745
15.8995
15.9231
15.945
15.9654
15.9839
16.0006
16.0152
16.0275
16.0371
16.0434
16.0459
16.0431
16.0338
16.0141
15.9863
15.9184
-7.27665
-7.32284
-7.36656
-7.40077
-7.42892
-7.45351
-7.47596
-7.49746
-7.51907
-7.54173
-7.56646
-7.594
-7.62522
-7.66059
-7.70083
-7.74614
-7.79702
-7.85344
-7.91562
-7.98336
-8.05662
-8.13514
-8.21866
-8.30691
-8.39944
-8.49605
-8.5962
-8.6998
-8.80627
-8.91563
-9.02729
-9.14136
-9.25732
-9.37534
-9.49496
-9.61644
-9.73941
-9.86418
-9.99044
-10.1186
-10.2483
-10.3801
-10.5137
-10.6496
-10.7875
-10.9279
-11.0706
-11.2161
-11.3641
-11.5151
-11.6687
-11.8254
-11.9848
-12.1473
-12.3124
-12.4803
-12.6505
-12.8231
-12.9975
-13.1734
-13.3501
-13.5272
-13.7037
-13.8791
-14.0522
-14.222
-14.3872
-14.5465
-14.6982
-14.8406
-14.9719
-15.0898
-15.1923
-15.2766
-15.3403
-15.3803
-15.3937
-15.377
-15.3265
-15.2388
-15.1095
-14.9348
-14.7105
-14.4333
-14.0997
-13.7069
-13.2522
-12.7339
-12.151
-11.5042
-10.7959
-10.0277
-9.20292
-8.32633
-7.40425
-6.44414
-5.45417
-4.44349
-3.42119
-2.39669
-1.37842
-0.374538
0.608025
1.56289
2.48499
3.37005
4.21501
5.01761
5.77659
6.4914
7.16217
7.78964
8.37507
8.92009
9.42642
9.89598
10.3306
10.7324
11.1035
11.446
11.7619
12.0533
12.322
12.5698
12.7984
13.0093
13.2039
13.3837
13.5499
13.7038
13.8463
13.9785
14.1014
14.2158
14.3225
14.4223
14.5158
14.6035
14.6861
14.7639
14.8375
14.9071
14.9731
15.0359
15.0957
15.1527
15.2073
15.2595
15.3096
15.3577
15.404
15.4485
15.4913
15.5326
15.5724
15.6107
15.6477
15.6832
15.7174
15.7502
15.7816
15.8116
15.8401
15.8672
15.8928
15.9168
15.9392
15.9598
15.9785
15.9951
16.0094
16.021
16.0296
16.0344
16.0347
16.0292
16.0164
15.9926
15.9604
15.8884
-7.29052
-7.32665
-7.35898
-7.38539
-7.40784
-7.42769
-7.44613
-7.46423
-7.4829
-7.50289
-7.52508
-7.5501
-7.57883
-7.6117
-7.64941
-7.69214
-7.7404
-7.79414
-7.85361
-7.91861
-7.98915
-8.06497
-8.1459
-8.23166
-8.32189
-8.41639
-8.51467
-8.61661
-8.72168
-8.82984
-8.94056
-9.0539
-9.16938
-9.28712
-9.40674
-9.52842
-9.65184
-9.77725
-9.90442
-10.0337
-10.1648
-10.2981
-10.4336
-10.5715
-10.7117
-10.8547
-11.0003
-11.1488
-11.3003
-11.455
-11.6127
-11.7737
-11.9379
-12.1054
-12.276
-12.4496
-12.626
-12.805
-12.9861
-13.169
-13.3531
-13.5379
-13.7226
-13.9064
-14.0883
-14.2672
-14.4417
-14.6105
-14.7719
-14.9242
-15.0654
-15.1935
-15.306
-15.4004
-15.4742
-15.5241
-15.5473
-15.5402
-15.4993
-15.4202
-15.299
-15.1312
-14.913
-14.6404
-14.3101
-13.9189
-13.4646
-12.9443
-12.3578
-11.7058
-10.9899
-10.2125
-9.37684
-8.48808
-7.55269
-6.5786
-5.57428
-4.54959
-3.51371
-2.47674
-1.44693
-0.43315
0.558078
1.51973
2.44743
3.33635
4.18426
4.98837
5.74828
6.46297
7.13335
7.75986
8.3444
8.88823
9.39359
9.86197
10.2958
10.6966
11.0671
11.4091
11.7249
12.0162
12.2852
12.5333
12.7623
12.9737
13.169
13.3494
13.5164
13.671
13.8144
13.9474
14.0712
14.1865
14.2941
14.3948
14.4892
14.5778
14.6612
14.7398
14.8141
14.8845
14.9513
15.0149
15.0754
15.1332
15.1885
15.2415
15.2923
15.3412
15.3882
15.4334
15.477
15.519
15.5595
15.5986
15.6362
15.6725
15.7074
15.7408
15.7729
15.8035
15.8327
15.8604
15.8865
15.911
15.9337
15.9546
15.9735
15.99
16.004
16.015
16.0226
16.0259
16.0242
16.0161
16.0002
15.9727
15.9365
15.8611
-7.30758
-7.33318
-7.35452
-7.37272
-7.38855
-7.40265
-7.41596
-7.42938
-7.44374
-7.45969
-7.47809
-7.49944
-7.52455
-7.55374
-7.58774
-7.62668
-7.67113
-7.72103
-7.77672
-7.83803
-7.90505
-7.97753
-8.05533
-8.13822
-8.22583
-8.31801
-8.41424
-8.51447
-8.61806
-8.7251
-8.83493
-8.94772
-9.06287
-9.1806
-9.3004
-9.42257
-9.54666
-9.67305
-9.80136
-9.93205
-10.0648
-10.2001
-10.3376
-10.4779
-10.6207
-10.7667
-10.9153
-11.0674
-11.2225
-11.3813
-11.5432
-11.709
-11.8779
-12.0507
-12.2266
-12.4063
-12.5886
-12.7743
-12.962
-13.1521
-13.3434
-13.536
-13.7285
-13.9206
-14.1108
-14.2985
-14.4818
-14.6597
-14.8303
-14.9919
-15.1423
-15.2796
-15.4012
-15.5049
-15.5874
-15.6462
-15.6782
-15.6795
-15.6465
-15.5744
-15.4594
-15.2967
-15.0826
-14.8129
-14.4843
-14.0934
-13.6375
-13.1148
-12.5239
-11.8658
-11.1422
-10.3555
-9.50935
-8.60907
-7.66154
-6.67487
-5.65843
-4.62187
-3.57544
-2.52864
-1.49079
-0.470008
0.526208
1.49182
2.42164
3.31192
4.15972
4.9633
5.72167
6.43468
7.10285
7.72734
8.30969
8.85165
9.35513
9.82201
10.2544
10.6543
11.0241
11.3658
11.6815
11.973
12.2423
12.491
12.7208
12.933
13.1292
13.3107
13.4787
13.6344
13.7789
13.9131
14.038
14.1545
14.2633
14.3651
14.4605
14.5502
14.6346
14.7142
14.7895
14.8608
14.9285
14.9929
15.0543
15.113
15.1691
15.223
15.2746
15.3243
15.3721
15.4181
15.4625
15.5053
15.5466
15.5864
15.6248
15.6618
15.6974
15.7316
15.7644
15.7957
15.8255
15.8538
15.8805
15.9055
15.9286
15.9498
15.9688
15.9853
15.999
16.0094
16.016
16.018
16.0145
16.004
15.9852
15.9544
15.9146
15.8363
-7.32085
-7.3377
-7.3495
-7.35987
-7.36875
-7.37642
-7.38372
-7.39143
-7.4003
-7.41096
-7.42419
-7.44051
-7.46068
-7.48505