/*--------------------------------*- C++ -*----------------------------------*\
  =========                 |
  \\      /  F ield         | OpenFOAM: The Open Source CFD Toolbox
   \\    /   O peration     | Website:  https://openfoam.org
    \\  /    A nd           | Version:  8
     \\/     M anipulation  |
\*---------------------------------------------------------------------------*/
FoamFile
{
    version     2.0;
    format      ascii;
    class       surfaceScalarField;
    location    "70";
    object      phi;
}
// * * * * * * * * * * * * * * * * * * * * * * * * * * * * * * * * * * * * * //

dimensions      [0 3 -1 0 0 0 0];

internalField   nonuniform List<scalar> 
24170
(
3.12894e-06
5.94686e-08
3.04641e-06
8.25357e-08
2.97305e-06
7.33574e-08
2.90404e-06
6.90068e-08
2.83921e-06
6.48332e-08
2.78125e-06
5.79531e-08
2.73118e-06
5.00725e-08
2.68832e-06
4.28525e-08
2.65158e-06
3.67502e-08
2.61986e-06
3.17205e-08
2.59213e-06
2.77269e-08
2.56745e-06
2.46746e-08
2.54502e-06
2.24294e-08
2.52399e-06
2.1031e-08
2.50357e-06
2.04152e-08
2.48119e-06
2.23745e-08
2.4568e-06
2.43845e-08
4.83304e-08
2.40847e-06
3.45306e-06
2.3664e-08
3.45695e-06
7.86489e-08
3.45039e-06
7.99327e-08
3.43875e-06
8.06512e-08
3.42372e-06
7.98699e-08
3.40614e-06
7.55459e-08
3.38647e-06
6.97447e-08
3.36538e-06
6.39499e-08
3.34354e-06
5.8595e-08
3.32152e-06
5.37485e-08
3.29977e-06
4.94843e-08
3.27853e-06
4.59207e-08
3.25795e-06
4.30113e-08
3.23798e-06
4.1005e-08
3.2187e-06
3.96943e-08
3.19983e-06
4.12459e-08
3.18189e-06
4.23148e-08
5.88526e-08
3.17137e-06
3.66813e-06
1.80499e-08
3.67909e-06
6.76912e-08
3.68517e-06
7.38527e-08
3.68898e-06
7.68273e-08
3.6903e-06
7.85575e-08
3.68897e-06
7.68739e-08
3.68537e-06
7.33377e-08
3.67996e-06
6.93507e-08
3.67313e-06
6.54314e-08
3.66516e-06
6.17164e-08
3.65631e-06
5.83397e-08
3.64677e-06
5.54569e-08
3.63668e-06
5.31002e-08
3.62613e-06
5.1554e-08
3.61505e-06
5.07762e-08
3.604e-06
5.22963e-08
3.59176e-06
5.45523e-08
6.42455e-08
3.58637e-06
3.92581e-06
1.76322e-08
3.93577e-06
5.77361e-08
3.94225e-06
6.73847e-08
3.94754e-06
7.15443e-08
3.95163e-06
7.44722e-08
3.95417e-06
7.43408e-08
3.95533e-06
7.21754e-08
3.95536e-06
6.93269e-08
3.95443e-06
6.63682e-08
3.95266e-06
6.34918e-08
3.95016e-06
6.08442e-08
3.94702e-06
5.86024e-08
3.94329e-06
5.68361e-08
3.93903e-06
5.58073e-08
3.93423e-06
5.55868e-08
3.92942e-06
5.70985e-08
3.92426e-06
5.97142e-08
6.57013e-08
3.92281e-06
4.20815e-06
1.66103e-08
4.21582e-06
5.00642e-08
4.22132e-06
6.18793e-08
4.22615e-06
6.67113e-08
4.23054e-06
7.00787e-08
4.23407e-06
7.0814e-08
4.23669e-06
6.95472e-08
4.23853e-06
6.749e-08
4.23966e-06
6.52357e-08
4.24016e-06
6.29935e-08
4.24008e-06
6.09187e-08
4.2395e-06
5.91856e-08
4.23844e-06
5.78957e-08
4.23698e-06
5.72623e-08
4.23517e-06
5.73968e-08
4.23347e-06
5.88061e-08
4.23198e-06
6.11994e-08
6.50571e-08
4.23263e-06
4.51066e-06
1.50432e-08
4.51671e-06
4.40225e-08
4.52174e-06
5.6848e-08
4.52626e-06
6.21974e-08
4.53059e-06
6.57517e-08
4.53436e-06
6.70445e-08
4.53746e-06
6.64496e-08
4.53995e-06
6.50101e-08
4.54188e-06
6.3311e-08
4.54329e-06
6.15804e-08
4.54424e-06
5.9975e-08
4.54476e-06
5.86606e-08
4.54491e-06
5.77511e-08
4.54476e-06
5.74116e-08
4.54442e-06
5.77429e-08
4.54423e-06
5.89908e-08
4.54447e-06
6.09639e-08
6.34871e-08
4.54604e-06
4.83427e-06
1.34892e-08
4.83944e-06
3.88533e-08
4.84434e-06
5.19448e-08
4.84873e-06
5.78033e-08
4.85296e-06
6.15214e-08
4.85678e-06
6.32256e-08
4.86005e-06
6.31753e-08
4.86281e-06
6.22499e-08
4.8651e-06
6.10182e-08
4.86696e-06
5.97202e-08
4.86842e-06
5.8513e-08
4.86953e-06
5.75497e-08
4.87034e-06
5.69452e-08
4.87093e-06
5.68203e-08
4.87142e-06
5.72449e-08
4.87211e-06
5.83094e-08
4.87323e-06
5.98423e-08
6.15057e-08
4.87522e-06
5.18099e-06
1.20818e-08
5.18556e-06
3.42888e-08
5.19033e-06
4.71782e-08
5.19466e-06
5.34809e-08
5.19882e-06
5.73614e-08
5.20266e-06
5.93882e-08
5.20604e-06
5.98022e-08
5.20896e-06
5.9329e-08
5.21147e-06
5.85085e-08
5.21361e-06
5.75887e-08
5.21539e-06
5.67281e-08
5.21688e-06
5.60654e-08
5.21812e-06
5.57057e-08
5.21921e-06
5.57331e-08
5.22027e-06
5.61857e-08
5.22152e-06
5.70643e-08
5.22315e-06
5.82223e-08
5.92844e-08
5.22537e-06
5.55263e-06
1.0787e-08
5.55669e-06
3.02275e-08
5.56126e-06
4.26032e-08
5.56554e-06
4.92027e-08
5.56967e-06
5.32285e-08
5.57355e-06
5.55123e-08
5.57702e-06
5.6327e-08
5.58009e-06
5.62641e-08
5.58278e-06
5.58165e-08
5.58513e-06
5.52379e-08
5.58718e-06
5.46852e-08
5.58896e-06
5.42821e-08
5.59055e-06
5.4121e-08
5.59202e-06
5.42567e-08
5.59351e-06
5.47012e-08
5.59516e-06
5.54166e-08
5.59712e-06
5.62639e-08
5.69371e-08
5.59948e-06
5.95098e-06
9.58597e-09
5.95459e-06
2.66235e-08
5.95893e-06
3.82724e-08
5.96315e-06
4.49895e-08
5.96726e-06
4.9121e-08
5.97118e-06
5.16043e-08
5.97475e-06
5.27586e-08
5.97795e-06
5.30642e-08
5.98082e-06
5.29537e-08
5.98338e-06
5.26834e-08
5.98567e-06
5.24028e-08
5.98772e-06
5.22282e-08
5.98962e-06
5.22283e-08
5.99143e-06
5.24429e-08
5.99327e-06
5.28653e-08
5.99524e-06
5.3442e-08
5.99745e-06
5.40688e-08
5.44805e-08
5.99991e-06
6.37792e-06
8.477e-09
6.38115e-06
2.33962e-08
6.38524e-06
3.41778e-08
6.3894e-06
4.08379e-08
6.3935e-06
4.50263e-08
6.39745e-06
4.76561e-08
6.40112e-06
4.90881e-08
6.40447e-06
4.97151e-08
6.40752e-06
4.99092e-08
6.41029e-06
4.99117e-08
6.41282e-06
4.98768e-08
6.41515e-06
4.98961e-08
6.41734e-06
5.00362e-08
6.41947e-06
5.03097e-08
6.42163e-06
5.07124e-08
6.42388e-06
5.1189e-08
6.42629e-06
5.16574e-08
5.19197e-08
6.42886e-06
5.74171e-06
7.60459e-09
5.74418e-06
2.09292e-08
5.74745e-06
3.09055e-08
5.75091e-06
3.73886e-08
5.75436e-06
4.15795e-08
5.75772e-06
4.42934e-08
5.76091e-06
4.59091e-08
5.76386e-06
4.67665e-08
5.76658e-06
4.71874e-08
5.76909e-06
4.73994e-08
5.77142e-06
4.754e-08
5.77361e-06
4.77123e-08
5.77569e-06
4.79451e-08
5.77773e-06
4.82721e-08
5.77978e-06
4.8662e-08
5.78189e-06
4.90821e-08
5.78408e-06
4.9466e-08
4.96474e-08
5.78636e-06
6.99908e-06
6.68436e-09
7.00169e-06
1.83169e-08
7.00525e-06
2.73493e-08
7.00912e-06
3.35224e-08
7.01306e-06
3.76415e-08
7.01695e-06
4.04011e-08
7.02069e-06
4.21707e-08
7.02421e-06
4.32459e-08
7.02751e-06
4.38912e-08
7.0306e-06
4.4307e-08
7.0335e-06
4.46374e-08
7.03626e-06
4.49483e-08
7.03892e-06
4.52921e-08
7.04152e-06
4.56628e-08
7.04413e-06
4.60599e-08
7.04677e-06
4.64405e-08
7.04947e-06
4.67699e-08
4.69089e-08
7.05221e-06
8.53181e-06
5.71931e-09
8.53455e-06
1.55782e-08
8.53837e-06
2.35318e-08
8.54266e-06
2.92277e-08
8.54713e-06
3.31788e-08
8.55161e-06
3.59149e-08
8.55599e-06
3.77913e-08
8.56019e-06
3.90469e-08
8.56418e-06
3.98985e-08
8.56797e-06
4.05144e-08
8.57159e-06
4.10167e-08
8.57507e-06
4.14745e-08
8.57844e-06
4.19176e-08
8.58176e-06
4.23497e-08
8.58505e-06
4.27638e-08
8.58836e-06
4.31355e-08
8.59168e-06
4.3448e-08
4.35829e-08
8.59501e-06
1.04002e-05
4.71467e-09
1.04031e-05
1.27311e-08
1.04071e-05
1.94553e-08
1.04119e-05
2.44958e-08
1.04169e-05
2.81375e-08
1.04221e-05
3.07673e-08
1.04272e-05
3.26648e-08
1.04322e-05
3.40468e-08
1.0437e-05
3.5064e-08
1.04417e-05
3.5856e-08
1.04462e-05
3.6513e-08
1.04506e-05
3.71066e-08
1.04548e-05
3.76473e-08
1.0459e-05
3.81528e-08
1.04632e-05
3.86041e-08
1.04673e-05
3.90021e-08
1.04714e-05
3.93323e-08
3.95076e-08
1.04755e-05
1.26778e-05
3.66563e-09
1.26808e-05
9.7542e-09
1.26852e-05
1.50995e-08
1.26904e-05
1.92783e-08
1.26961e-05
2.24457e-08
1.2702e-05
2.48354e-08
1.2708e-05
2.66594e-08
1.2714e-05
2.80744e-08
1.27199e-05
2.92016e-08
1.27256e-05
3.01222e-08
1.27312e-05
3.09143e-08
1.27367e-05
3.16178e-08
1.27421e-05
3.22646e-08
1.27474e-05
3.28464e-08
1.27526e-05
3.33688e-08
1.27578e-05
3.38189e-08
1.27629e-05
3.42082e-08
3.44531e-08
1.2768e-05
1.54543e-05
2.54954e-09
1.54575e-05
6.58215e-09
1.54622e-05
1.03574e-08
1.5468e-05
1.34598e-08
1.54745e-05
1.59433e-08
1.54814e-05
1.79358e-08
1.54886e-05
1.95539e-08
1.54957e-05
2.09003e-08
1.55029e-05
2.20491e-08
1.551e-05
2.30476e-08
1.55169e-05
2.39336e-08
1.55238e-05
2.47388e-08
1.55306e-05
2.54797e-08
1.55373e-05
2.61574e-08
1.55439e-05
2.67681e-08
1.55504e-05
2.73073e-08
1.55568e-05
2.77847e-08
2.81345e-08
1.55631e-05
1.88389e-05
1.30711e-09
1.88424e-05
3.0512e-09
1.88478e-05
4.99592e-09
1.88545e-05
6.75693e-09
1.88621e-05
8.32371e-09
1.88703e-05
9.72631e-09
1.88789e-05
1.09949e-08
1.88876e-05
1.21561e-08
1.88964e-05
1.3238e-08
1.89052e-05
1.42505e-08
1.8914e-05
1.52002e-08
1.89226e-05
1.6092e-08
1.89312e-05
1.69307e-08
1.89396e-05
1.77134e-08
1.89479e-05
1.84361e-08
1.89562e-05
1.90939e-08
1.89642e-05
1.96925e-08
2.01759e-08
1.89722e-05
2.29648e-05
-2.02425e-10
2.29691e-05
-1.17882e-09
2.29756e-05
-1.49216e-09
2.29838e-05
-1.42538e-09
2.29931e-05
-1.04316e-09
2.30033e-05
-4.25899e-10
2.30139e-05
3.5037e-10
2.30249e-05
1.22751e-09
2.30359e-05
2.1765e-09
2.3047e-05
3.16319e-09
2.3058e-05
4.16594e-09
2.3069e-05
5.14979e-09
2.30798e-05
6.10576e-09
2.30905e-05
7.01598e-09
2.31011e-05
7.88449e-09
2.31115e-05
8.69581e-09
2.31217e-05
9.45805e-09
1.01152e-08
2.31318e-05
1.68119e-05
-1.42308e-09
1.68153e-05
-4.53885e-09
1.68205e-05
-6.65121e-09
1.68269e-05
-7.89777e-09
1.68343e-05
-8.3791e-09
1.68422e-05
-8.30926e-09
1.68504e-05
-7.87474e-09
1.68588e-05
-7.17343e-09
1.68673e-05
-6.30368e-09
1.68758e-05
-5.30598e-09
1.68842e-05
-4.25745e-09
1.68925e-05
-3.17847e-09
1.69007e-05
-2.12733e-09
1.69089e-05
-1.09211e-09
1.69168e-05
-1.0967e-10
1.69247e-05
8.39393e-10
1.69324e-05
1.7255e-09
2.52903e-09
1.694e-05
1.46358e-05
-2.60491e-09
1.4639e-05
-7.83168e-09
1.46441e-05
-1.17246e-08
1.46504e-05
-1.41535e-08
1.46573e-05
-1.53308e-08
1.46647e-05
-1.56952e-08
1.46724e-05
-1.55021e-08
1.46801e-05
-1.49056e-08
1.46878e-05
-1.40268e-08
1.46955e-05
-1.29865e-08
1.47031e-05
-1.18446e-08
1.47106e-05
-1.0675e-08
1.4718e-05
-9.50029e-09
1.47252e-05
-8.3569e-09
1.47324e-05
-7.24067e-09
1.47394e-05
-6.1763e-09
1.47463e-05
-5.1564e-09
-4.23082e-09
1.4753e-05
1.27412e-05
-3.71746e-09
1.27446e-05
-1.11684e-08
1.27498e-05
-1.69135e-08
1.27559e-05
-2.03094e-08
1.27626e-05
-2.19683e-08
1.27695e-05
-2.26562e-08
1.27767e-05
-2.26222e-08
1.27838e-05
-2.20281e-08
1.27909e-05
-2.10793e-08
1.27978e-05
-1.99288e-08
1.28046e-05
-1.86734e-08
1.28114e-05
-1.73782e-08
1.28179e-05
-1.608e-08
1.28244e-05
-1.481e-08
1.28307e-05
-1.35693e-08
1.28369e-05
-1.23839e-08
1.2843e-05
-1.1246e-08
-1.01973e-08
1.2849e-05
1.10919e-05
-4.65813e-09
1.10953e-05
-1.45892e-08
1.11008e-05
-2.23866e-08
1.11069e-05
-2.64278e-08
1.11132e-05
-2.8333e-08
1.11198e-05
-2.92213e-08
1.11264e-05
-2.92348e-08
1.1133e-05
-2.85555e-08
1.11394e-05
-2.74778e-08
1.11456e-05
-2.61917e-08
1.11518e-05
-2.47968e-08
1.11578e-05
-2.3357e-08
1.11636e-05
-2.19264e-08
1.11693e-05
-2.05181e-08
1.11749e-05
-1.91607e-08
1.11804e-05
-1.78479e-08
1.11857e-05
-1.66035e-08
-1.54343e-08
1.1191e-05
9.65591e-06
-5.35642e-09
9.65952e-06
-1.82012e-08
9.66519e-06
-2.80492e-08
9.67114e-06
-3.23797e-08
9.67728e-06
-3.44741e-08
9.68354e-06
-3.54849e-08
9.68969e-06
-3.53816e-08
9.69564e-06
-3.45079e-08
9.70142e-06
-3.32545e-08
9.70704e-06
-3.18076e-08
9.7125e-06
-3.02555e-08
9.71782e-06
-2.86658e-08
9.72299e-06
-2.70897e-08
9.72802e-06
-2.55496e-08
9.73292e-06
-2.40578e-08
9.7377e-06
-2.26274e-08
9.74236e-06
-2.12636e-08
-1.9977e-08
9.7469e-06
8.4054e-06
-5.40745e-09
8.40989e-06
-2.26939e-08
8.41542e-06
-3.35789e-08
8.42086e-06
-3.78152e-08
8.42674e-06
-4.03602e-08
8.43278e-06
-4.15189e-08
8.4386e-06
-4.12005e-08
8.44413e-06
-4.00449e-08
8.44942e-06
-3.85469e-08
8.45449e-06
-3.68771e-08
8.45935e-06
-3.51115e-08
8.46401e-06
-3.33253e-08
8.46849e-06
-3.15681e-08
8.47281e-06
-2.98664e-08
8.47698e-06
-2.8225e-08
8.481e-06
-2.66555e-08
8.48491e-06
-2.51606e-08
-2.37582e-08
8.48868e-06
7.31462e-06
-2.74023e-09
7.32142e-06
-2.94945e-08
7.32724e-06
-3.93985e-08
7.33255e-06
-4.31337e-08
7.3384e-06
-4.621e-08
7.34427e-06
-4.73883e-08
7.34978e-06
-4.67145e-08
7.35492e-06
-4.51824e-08
7.3597e-06
-4.33342e-08
7.36414e-06
-4.13192e-08
7.36826e-06
-3.92309e-08
7.37208e-06
-3.7142e-08
7.37564e-06
-3.51275e-08
7.37897e-06
-3.31939e-08
7.38209e-06
-3.13508e-08
7.38504e-06
-2.96032e-08
7.38783e-06
-2.7954e-08
-2.64157e-08
7.3905e-06
6.36252e-06
4.809e-09
6.37209e-06
-3.90667e-08
6.37974e-06
-4.70518e-08
6.3867e-06
-5.00849e-08
6.39337e-06
-5.28877e-08
6.39915e-06
-5.31685e-08
6.40398e-06
-5.1552e-08
6.40807e-06
-4.92791e-08
6.41156e-06
-4.68229e-08
6.41451e-06
-4.42683e-08
6.41697e-06
-4.16855e-08
6.419e-06
-3.9183e-08
6.42068e-06
-3.68028e-08
6.42205e-06
-3.45657e-08
6.42317e-06
-3.24718e-08
6.42408e-06
-3.05193e-08
6.42485e-06
-2.87194e-08
-2.70476e-08
6.4255e-06
5.54125e-06
9.02353e-09
5.55048e-06
-4.82966e-08
5.55867e-06
-5.52376e-08
5.56662e-06
-5.80343e-08
5.57339e-06
-5.96654e-08
5.57809e-06
-5.78781e-08
5.58078e-06
-5.42447e-08
5.58185e-06
-5.03509e-08
5.58167e-06
-4.66455e-08
5.58052e-06
-4.31182e-08
5.57864e-06
-3.97966e-08
5.57618e-06
-3.67338e-08
5.57331e-06
-3.39395e-08
5.57014e-06
-3.13997e-08
5.56677e-06
-2.91032e-08
5.56328e-06
-2.70397e-08
5.55978e-06
-2.52019e-08
-2.35627e-08
5.5563e-06
4.86005e-06
-2.34154e-08
4.86544e-06
-5.36962e-08
4.8654e-06
-5.51948e-08
4.8625e-06
-5.51276e-08
4.85755e-06
-5.47242e-08
4.85034e-06
-5.06748e-08
4.841e-06
-4.49096e-08
4.83003e-06
-3.93818e-08
4.81794e-06
-3.4559e-08
4.80521e-06
-3.03912e-08
4.79224e-06
-2.68164e-08
4.77927e-06
-2.37787e-08
4.76652e-06
-2.11932e-08
4.7541e-06
-1.89899e-08
4.74211e-06
-1.71176e-08
4.73062e-06
-1.55444e-08
4.71973e-06
-1.43081e-08
-1.39395e-08
4.71012e-06
4.17926e-06
4.12556e-06
4.07037e-06
4.01524e-06
3.96052e-06
3.90984e-06
3.86493e-06
3.82555e-06
3.79099e-06
3.7606e-06
3.73378e-06
3.71e-06
3.68881e-06
3.66982e-06
3.6527e-06
3.63716e-06
3.62285e-06
3.60891e-06
5.10535e-08
-5.14361e-08
1.28844e-07
-7.82518e-08
2.06654e-07
-7.78993e-08
2.80846e-07
-7.44304e-08
3.49467e-07
-6.86168e-08
4.09442e-07
-6.01889e-08
4.60227e-07
-5.0739e-08
4.99107e-07
-3.9135e-08
5.25839e-07
-2.66835e-08
5.41227e-07
-1.56762e-08
5.44166e-07
-2.92785e-09
5.32924e-07
1.09702e-08
5.13143e-07
1.98065e-08
4.92494e-07
2.03017e-08
4.70917e-07
2.16003e-08
4.39002e-07
3.13444e-08
4.03878e-07
3.52205e-08
3.65413e-07
3.77556e-08
3.24361e-07
4.1192e-08
2.77228e-07
4.63732e-08
2.23885e-07
5.35338e-08
1.61315e-07
6.1834e-08
9.11348e-08
7.0422e-08
1.15044e-08
7.89546e-08
-7.71661e-08
8.89485e-08
-1.78771e-07
1.01129e-07
-2.92225e-07
1.13755e-07
-4.18197e-07
1.25647e-07
-5.53932e-07
1.35998e-07
-6.98369e-07
1.4417e-07
-8.48041e-07
1.49936e-07
-1.00149e-06
1.53196e-07
-1.15545e-06
1.54218e-07
-1.30901e-06
1.53297e-07
-1.45951e-06
1.50798e-07
-1.60679e-06
1.47026e-07
-1.74889e-06
1.42402e-07
-1.88632e-06
1.37188e-07
-2.01775e-06
1.31715e-07
-2.14412e-06
1.26147e-07
-2.26458e-06
1.20712e-07
-2.38027e-06
1.15483e-07
-2.49062e-06
1.10599e-07
-2.59688e-06
1.06064e-07
-2.69858e-06
1.01955e-07
-2.79698e-06
9.82251e-08
-2.89166e-06
9.49199e-08
-2.9838e-06
9.19679e-08
-3.07296e-06
8.93899e-08
-3.16025e-06
8.71033e-08
-3.24521e-06
8.51256e-08
-3.32879e-06
8.3368e-08
-3.41052e-06
8.18443e-08
-3.49121e-06
8.048e-08
-3.57037e-06
7.92841e-08
-3.64875e-06
7.81724e-08
-3.72581e-06
7.71593e-08
-3.80219e-06
7.61749e-08
-3.87729e-06
7.52315e-08
-3.95174e-06
7.42438e-08
-4.02486e-06
7.32362e-08
-4.09716e-06
7.21347e-08
-4.16793e-06
7.09547e-08
-4.23764e-06
6.96066e-08
-4.30554e-06
6.81078e-08
-4.37201e-06
6.63679e-08
-4.43624e-06
6.44087e-08
-4.49846e-06
6.21448e-08
-4.55791e-06
5.95965e-08
-4.61462e-06
5.66835e-08
-4.66789e-06
5.34113e-08
-4.71758e-06
4.97003e-08
-4.76297e-06
4.55223e-08
-4.80379e-06
4.08066e-08
-4.83923e-06
3.55188e-08
-4.86892e-06
2.95935e-08
-4.89196e-06
2.30557e-08
-4.908e-06
1.59628e-08
-4.91647e-06
8.53769e-09
-4.91772e-06
1.22272e-09
-4.91189e-06
-5.71285e-09
-4.89928e-06
-1.25845e-08
-4.87953e-06
-1.95849e-08
-4.85272e-06
-2.68529e-08
-4.81828e-06
-3.43348e-08
-4.77637e-06
-4.20393e-08
-4.72647e-06
-4.98411e-08
-4.66862e-06
-5.78043e-08
-4.60235e-06
-6.58849e-08
-4.52766e-06
-7.39055e-08
-4.44504e-06
-8.20219e-08
-4.35472e-06
-9.01053e-08
-4.25681e-06
-9.79647e-08
-4.15152e-06
-1.0563e-07
-4.03896e-06
-1.13011e-07
-3.91944e-06
-1.20066e-07
-3.79326e-06
-1.26685e-07
-3.66095e-06
-1.32792e-07
-3.52297e-06
-1.38345e-07
-3.37996e-06
-1.43297e-07
-3.23248e-06
-1.47603e-07
-3.08127e-06
-1.51222e-07
-2.92698e-06
-1.54128e-07
-2.77037e-06
-1.56296e-07
-2.61218e-06
-1.57783e-07
-2.45308e-06
-1.58591e-07
-2.29376e-06
-1.58808e-07
-2.1348e-06
-1.58398e-07
-1.97684e-06
-1.57457e-07
-1.82036e-06
-1.55947e-07
-1.66593e-06
-1.53993e-07
-1.51393e-06
-1.51545e-07
-1.36485e-06
-1.48749e-07
-1.21895e-06
-1.45581e-07
-1.07659e-06
-1.42182e-07
-9.37891e-07
-1.38513e-07
-8.03129e-07
-1.34697e-07
-6.72399e-07
-1.3071e-07
-5.45808e-07
-1.26694e-07
-4.23336e-07
-1.22553e-07
-3.04829e-07
-1.18441e-07
-1.89969e-07
-1.14587e-07
-7.85356e-08
-1.11022e-07
3.03456e-08
-1.08416e-07
1.3624e-07
-1.05575e-07
2.37554e-07
-1.01051e-07
3.33825e-07
-9.62062e-08
4.25203e-07
-9.1343e-08
5.11757e-07
-8.67011e-08
5.93847e-07
-8.22348e-08
6.7158e-07
-7.80362e-08
7.45339e-07
-7.40334e-08
8.15247e-07
-7.03154e-08
8.81667e-07
-6.67884e-08
9.44687e-07
-6.35087e-08
1.00463e-06
-6.03947e-08
1.06159e-06
-5.75182e-08
1.11585e-06
-5.48169e-08
1.1675e-06
-5.23249e-08
1.21682e-06
-4.99704e-08
1.26395e-06
-4.7787e-08
1.30916e-06
-4.5753e-08
1.35255e-06
-4.38565e-08
1.39426e-06
-4.20788e-08
1.43436e-06
-4.04303e-08
1.47299e-06
-3.89022e-08
1.51022e-06
-3.74827e-08
1.54618e-06
-3.61614e-08
1.58092e-06
-3.49338e-08
1.61454e-06
-3.37851e-08
1.64712e-06
-3.27374e-08
1.67874e-06
-3.17648e-08
1.70948e-06
-3.08741e-08
1.73941e-06
-3.00503e-08
1.76856e-06
-2.92811e-08
1.79701e-06
-2.85633e-08
1.82481e-06
-2.79226e-08
1.85201e-06
-2.72998e-08
1.8786e-06
-2.67091e-08
1.90465e-06
-2.61448e-08
1.93016e-06
-2.56105e-08
1.95517e-06
-2.51049e-08
1.97968e-06
-2.46145e-08
2.00375e-06
-2.41535e-08
2.02734e-06
-2.36807e-08
2.05046e-06
-2.32047e-08
2.07314e-06
-2.27648e-08
2.09533e-06
-2.22738e-08
2.11696e-06
-2.17164e-08
2.138e-06
-2.11177e-08
2.1583e-06
-2.03804e-08
2.17762e-06
-1.93974e-08
2.1957e-06
-1.81544e-08
2.21202e-06
-1.6399e-08
2.22563e-06
-1.36885e-08
2.23494e-06
-9.39918e-09
2.2347e-06
1.47197e-10
2.21581e-06
1.87812e-08
2.15805e-06
5.76412e-08
1.20968e-07
2.03702e-06
7.96988e-08
-1.3145e-07
1.60757e-07
-1.59646e-07
2.2931e-07
-1.46533e-07
2.8376e-07
-1.2905e-07
3.2597e-07
-1.10841e-07
3.57288e-07
-9.16511e-08
3.78424e-07
-7.1879e-08
3.90874e-07
-5.17473e-08
3.95703e-07
-3.1524e-08
3.91746e-07
-1.18961e-08
3.81584e-07
7.20756e-09
3.66914e-07
2.54765e-08
3.44822e-07
4.18736e-08
3.08474e-07
5.64904e-08
2.59041e-07
7.10055e-08
2.05651e-07
8.45448e-08
1.43954e-07
9.68989e-08
7.26678e-08
1.08841e-07
-7.67482e-09
1.2151e-07
-9.75938e-08
1.36117e-07
-1.97612e-07
1.5353e-07
-3.09372e-07
1.73483e-07
-4.33691e-07
1.94719e-07
-5.70826e-07
2.16001e-07
-7.18301e-07
2.36417e-07
-8.72464e-07
2.55228e-07
-1.03033e-06
2.71625e-07
-1.18948e-06
2.84743e-07
-1.34743e-06
2.93956e-07
-1.50237e-06
2.99056e-07
-1.65263e-06
3.00215e-07
-1.79731e-06
2.97821e-07
-1.93546e-06
2.92392e-07
-2.06683e-06
2.84599e-07
-2.19116e-06
2.7517e-07
-2.30889e-06
2.64694e-07
-2.42013e-06
2.53701e-07
-2.52561e-06
2.42606e-07
-2.62559e-06
2.31742e-07
-2.72084e-06
2.21341e-07
-2.81164e-06
2.11569e-07
-2.89873e-06
2.02517e-07
-2.98231e-06
1.94237e-07
-3.06302e-06
1.8673e-07
-3.14098e-06
1.7998e-07
-3.21673e-06
1.73942e-07
-3.29031e-06
1.68566e-07
-3.36216e-06
1.63788e-07
-3.43226e-06
1.59548e-07
-3.50095e-06
1.55771e-07
-3.56818e-06
1.52395e-07
-3.63423e-06
1.49353e-07
-3.69895e-06
1.46591e-07
-3.76256e-06
1.44043e-07
-3.8249e-06
1.41654e-07
-3.88616e-06
1.39363e-07
-3.94611e-06
1.37127e-07
-4.00488e-06
1.34886e-07
-4.06222e-06
1.32591e-07
-4.11824e-06
1.30189e-07
-4.17263e-06
1.27642e-07
-4.22544e-06
1.24893e-07
-4.27634e-06
1.219e-07
-4.32536e-06
1.18602e-07
-4.37216e-06
1.14959e-07
-4.41671e-06
1.10911e-07
-4.45868e-06
1.06427e-07
-4.498e-06
1.01458e-07
-4.53433e-06
9.59782e-08
-4.56757e-06
8.99453e-08
-4.59743e-06
8.33358e-08
-4.6238e-06
7.61154e-08
-4.64647e-06
6.82673e-08
-4.6654e-06
5.97703e-08
-4.68048e-06
5.06316e-08
-4.69177e-06
4.08643e-08
-4.69922e-06
3.05093e-08
-4.70286e-06
1.96025e-08
-4.70248e-06
8.18881e-09
-4.69745e-06
-3.78699e-09
-4.6867e-06
-1.63869e-08
-4.66962e-06
-2.96008e-08
-4.64574e-06
-4.33844e-08
-4.61483e-06
-5.77308e-08
-4.57656e-06
-7.25688e-08
-4.53076e-06
-8.78495e-08
-4.47716e-06
-1.03462e-07
-4.41557e-06
-1.19373e-07
-4.34566e-06
-1.35445e-07
-4.26751e-06
-1.5163e-07
-4.18141e-06
-1.6779e-07
-4.08758e-06
-1.83843e-07
-3.98608e-06
-1.99591e-07
-3.87709e-06
-2.149e-07
-3.76083e-06
-2.29606e-07
-3.63762e-06
-2.43653e-07
-3.50784e-06
-2.56798e-07
-3.37201e-06
-2.68932e-07
-3.23065e-06
-2.79911e-07
-3.08442e-06
-2.89684e-07
-2.93393e-06
-2.98124e-07
-2.77991e-06
-3.05191e-07
-2.62304e-06
-3.10817e-07
-2.46409e-06
-3.15007e-07
-2.30377e-06
-3.17776e-07
-2.14286e-06
-3.19189e-07
-1.98199e-06
-3.1932e-07
-1.82186e-06
-3.1823e-07
-1.66299e-06
-3.15995e-07
-1.50598e-06
-3.12686e-07
-1.35128e-06
-3.08411e-07
-1.19937e-06
-3.03241e-07
-1.0506e-06
-2.97307e-07
-9.05341e-07
-2.90705e-07
-7.63817e-07
-2.83575e-07
-6.26283e-07
-2.75987e-07
-4.92854e-07
-2.68067e-07
-3.63688e-07
-2.59904e-07
-2.38767e-07
-2.51651e-07
-1.17873e-07
-2.43487e-07
-7.07102e-10
-2.3554e-07
1.12488e-07
-2.27647e-07
2.21333e-07
-2.1966e-07
3.2475e-07
-2.1166e-07
4.22729e-07
-2.03396e-07
5.16362e-07
-1.94597e-07
6.05939e-07
-1.85727e-07
6.91573e-07
-1.76985e-07
7.73383e-07
-1.68545e-07
8.51491e-07
-1.60429e-07
9.26047e-07
-1.527e-07
9.97204e-07
-1.45338e-07
1.06511e-06
-1.3839e-07
1.12994e-06
-1.31813e-07
1.19185e-06
-1.25627e-07
1.251e-06
-1.19788e-07
1.30753e-06
-1.14321e-07
1.36161e-06
-1.09203e-07
1.41337e-06
-1.0443e-07
1.46299e-06
-9.99537e-08
1.51064e-06
-9.57754e-08
1.55646e-06
-9.18765e-08
1.6006e-06
-8.8235e-08
1.64314e-06
-8.48282e-08
1.68419e-06
-8.16521e-08
1.72383e-06
-7.86981e-08
1.76216e-06
-7.59464e-08
1.79927e-06
-7.33883e-08
1.83524e-06
-7.10107e-08
1.87016e-06
-6.87984e-08
1.90408e-06
-6.67491e-08
1.93709e-06
-6.4853e-08
1.96925e-06
-6.31073e-08
2.00062e-06
-6.14948e-08
2.03125e-06
-5.99826e-08
2.06119e-06
-5.85755e-08
2.09049e-06
-5.72815e-08
2.11918e-06
-5.60559e-08
2.14729e-06
-5.48862e-08
2.17486e-06
-5.37731e-08
2.2019e-06
-5.27159e-08
2.22845e-06
-5.17111e-08
2.25452e-06
-5.07441e-08
2.28012e-06
-4.9819e-08
2.30527e-06
-4.88875e-08
2.32996e-06
-4.79559e-08
2.35418e-06
-4.70432e-08
2.37791e-06
-4.60632e-08
2.40111e-06
-4.49652e-08
2.42368e-06
-4.37476e-08
2.44551e-06
-4.22655e-08
2.46639e-06
-4.03442e-08
2.48603e-06
-3.78485e-08
2.50396e-06
-3.43911e-08
2.51948e-06
-2.92685e-08
2.53136e-06
-2.1346e-08
2.53926e-06
-7.82545e-09
2.54219e-06
1.57644e-08
2.53759e-06
6.21507e-08
1.4942e-07
2.5091e-06
7.10178e-08
-2.02684e-07
1.22148e-07
-2.11002e-07
1.6165e-07
-1.86098e-07
1.909e-07
-1.58425e-07
2.10466e-07
-1.30432e-07
2.20983e-07
-1.02284e-07
2.23244e-07
-7.41585e-08
2.17605e-07
-4.62399e-08
2.04758e-07
-1.87006e-08
1.84504e-07
8.22018e-09
1.57247e-07
3.44426e-08
1.22682e-07
5.99173e-08
7.99277e-08
8.46153e-08
2.75605e-08
1.08753e-07
-3.39602e-08
1.32518e-07
-1.05067e-07
1.55561e-07
-1.86422e-07
1.78248e-07
-2.78871e-07
2.0121e-07
-3.82482e-07
2.25116e-07
-4.96879e-07
2.50451e-07
-6.20553e-07
2.77199e-07
-7.51705e-07
3.04585e-07
-8.88215e-07
3.31228e-07
-1.0279e-06
3.5564e-07
-1.16811e-06
3.7662e-07
-1.3063e-06
3.93383e-07
-1.44017e-06
4.05491e-07
-1.56825e-06
4.12789e-07
-1.68969e-06
4.15386e-07
-1.80432e-06
4.13654e-07
-1.91225e-06
4.08143e-07
-2.01398e-06
3.9951e-07
-2.11006e-06
3.88475e-07
-2.20126e-06
3.75751e-07
-2.28807e-06
3.61988e-07
-2.37115e-06
3.47736e-07
-2.45089e-06
3.33451e-07
-2.52781e-06
3.19483e-07
-2.60215e-06
3.06094e-07
-2.67431e-06
2.93461e-07
-2.74443e-06
2.81697e-07
-2.8128e-06
2.70857e-07
-2.8795e-06
2.60957e-07
-2.94478e-06
2.51977e-07
-3.00865e-06
2.43877e-07
-3.07132e-06
2.36597e-07
-3.13279e-06
2.30072e-07
-3.19323e-06
2.24226e-07
-3.25264e-06
2.18982e-07
-3.31113e-06
2.14262e-07
-3.36869e-06
2.09986e-07
-3.42543e-06
2.0608e-07
-3.48129e-06
2.02471e-07
-3.53634e-06
1.99087e-07
-3.59052e-06
1.95856e-07
-3.64388e-06
1.92709e-07
-3.69632e-06
1.89584e-07
-3.74787e-06
1.86412e-07
-3.79841e-06
1.8313e-07
-3.84792e-06
1.79676e-07
-3.89628e-06
1.75989e-07
-3.94342e-06
1.72009e-07
-3.9892e-06
1.67675e-07
-4.03353e-06
1.6292e-07
-4.07626e-06
1.57685e-07
-4.11727e-06
1.51911e-07
-4.15638e-06
1.45544e-07
-4.19345e-06
1.38533e-07
-4.22829e-06
1.30833e-07
-4.26072e-06
1.22397e-07
-4.29053e-06
1.13189e-07
-4.31753e-06
1.03167e-07
-4.34152e-06
9.23004e-08
-4.36227e-06
8.0563e-08
-4.37954e-06
6.79336e-08
-4.39306e-06
5.43952e-08
-4.40247e-06
3.99386e-08
-4.40738e-06
2.45364e-08
-4.40732e-06
8.15904e-09
-4.40183e-06
-9.2402e-09
-4.39048e-06
-2.76787e-08
-4.3729e-06
-4.71227e-08
-4.34871e-06
-6.75117e-08
-4.31762e-06
-8.87829e-08
-4.27931e-06
-1.10844e-07
-4.23355e-06
-1.33597e-07
-4.18012e-06
-1.56918e-07
-4.11877e-06
-1.80677e-07
-4.04931e-06
-2.04752e-07
-3.97169e-06
-2.28926e-07
-3.88622e-06
-2.53104e-07
-3.79302e-06
-2.77062e-07
-3.69219e-06
-3.00601e-07
-3.58389e-06
-3.23446e-07
-3.46844e-06
-3.45375e-07
-3.34615e-06
-3.66221e-07
-3.21746e-06
-3.85771e-07
-3.08283e-06
-4.03749e-07
-2.94288e-06
-4.20019e-07
-2.7982e-06
-4.3441e-07
-2.6495e-06
-4.46814e-07
-2.49745e-06
-4.57122e-07
-2.34278e-06
-4.65279e-07
-2.18626e-06
-4.7128e-07
-2.02861e-06
-4.75137e-07
-1.87058e-06
-4.76956e-07
-1.7128e-06
-4.76809e-07
-1.55596e-06
-4.74839e-07
-1.40057e-06
-4.71126e-07
-1.24723e-06
-4.65838e-07
-1.09634e-06
-4.59079e-07
-9.48396e-07
-4.5104e-07
-8.03692e-07
-4.41845e-07
-6.62603e-07
-4.31705e-07
-5.25311e-07
-4.20763e-07
-3.92051e-07
-4.09207e-07
-2.62903e-07
-3.97179e-07
-1.37911e-07
-3.84927e-07
-1.69699e-08
-3.72613e-07
9.97887e-08
-3.60262e-07
2.12164e-07
-3.47837e-07
3.19961e-07
-3.35334e-07
4.23212e-07
-3.22742e-07
5.21771e-07
-3.10105e-07
6.15834e-07
-2.97346e-07
7.05773e-07
-2.845e-07
7.91847e-07
-2.71769e-07
8.74163e-07
-2.59334e-07
9.52886e-07
-2.47301e-07
1.02811e-06
-2.35745e-07
1.10002e-06
-2.24692e-07
1.16873e-06
-2.14171e-07
1.2344e-06
-2.04188e-07
1.29718e-06
-1.94745e-07
1.35722e-06
-1.85827e-07
1.41467e-06
-1.77423e-07
1.46968e-06
-1.69527e-07
1.52238e-06
-1.62132e-07
1.57291e-06
-1.55212e-07
1.62143e-06
-1.48733e-07
1.66809e-06
-1.42675e-07
1.71303e-06
-1.37014e-07
1.75636e-06
-1.31722e-07
1.79817e-06
-1.26772e-07
1.83856e-06
-1.22155e-07
1.87762e-06
-1.17853e-07
1.91544e-06
-1.13852e-07
1.9521e-06
-1.10128e-07
1.98769e-06
-1.06663e-07
2.02227e-06
-1.03441e-07
2.05591e-06
-1.00452e-07
2.08868e-06
-9.7678e-08
2.12064e-06
-9.51134e-08
2.15182e-06
-9.27319e-08
2.1823e-06
-9.05088e-08
2.21211e-06
-8.84381e-08
2.24129e-06
-8.65115e-08
2.26989e-06
-8.46925e-08
2.29791e-06
-8.2962e-08
2.32541e-06
-8.13136e-08
2.3524e-06
-7.97452e-08
2.37889e-06
-7.82493e-08
2.40492e-06
-7.6814e-08
2.43048e-06
-7.54193e-08
2.45559e-06
-7.40353e-08
2.48025e-06
-7.26533e-08
2.50443e-06
-7.1258e-08
2.52811e-06
-6.97809e-08
2.55126e-06
-6.81501e-08
2.57378e-06
-6.62982e-08
2.59555e-06
-6.40668e-08
2.61641e-06
-6.12425e-08
2.63609e-06
-5.7557e-08
2.65418e-06
-5.25184e-08
2.67016e-06
-4.52757e-08
2.68318e-06
-3.44021e-08
2.69254e-06
-1.72278e-08
2.69751e-06
1.07517e-08
2.69964e-06
5.99774e-08
1.47908e-07
2.70113e-06
3.94453e-08
-2.42283e-07
5.75552e-08
-2.29279e-07
6.91461e-08
-1.97734e-07
7.44987e-08
-1.63882e-07
7.35567e-08
-1.29513e-07
6.61128e-08
-9.49389e-08
5.22633e-08
-6.03347e-08
3.17737e-08
-2.58578e-08
4.67834e-09
8.36528e-09
-2.94522e-08
4.22434e-08
-7.07977e-08
7.57609e-08
-1.1989e-07
1.08917e-07
-1.77054e-07
1.41763e-07
-2.42759e-07
1.74383e-07
-3.1707e-07
2.06823e-07
-4.00607e-07
2.39035e-07
-4.93448e-07
2.71089e-07
-5.95364e-07
3.03074e-07
-7.05195e-07
3.34951e-07
-8.21199e-07
3.6641e-07
-9.40775e-07
3.96782e-07
-1.06128e-06
4.25057e-07
-1.18016e-06
4.50109e-07
-1.2955e-06
4.70953e-07
-1.4058e-06
4.86922e-07
-1.51019e-06
4.9774e-07
-1.60816e-06
5.0346e-07
-1.69979e-06
5.04393e-07
-1.78544e-06
5.01028e-07
-1.86578e-06
4.93974e-07
-1.94155e-06
4.83905e-07
-2.01357e-06
4.71502e-07
-2.08253e-06
4.57427e-07
-2.1491e-06
4.42288e-07
-2.21371e-06
4.26595e-07
-2.27679e-06
4.10783e-07
-2.33855e-06
3.95205e-07
-2.39924e-06
3.80133e-07
-2.45891e-06
3.65767e-07
-2.51773e-06
3.52244e-07
-2.57568e-06
3.39647e-07
-2.63286e-06
3.28016e-07
-2.68925e-06
3.17354e-07
-2.74494e-06
3.07639e-07
-2.79988e-06
2.9883e-07
-2.85416e-06
2.90867e-07
-2.90775e-06
2.83684e-07
-2.96073e-06
2.77206e-07
-3.01308e-06
2.71355e-07
-3.06486e-06
2.66048e-07
-3.11605e-06
2.61206e-07
-3.16671e-06
2.56747e-07
-3.2168e-06
2.52591e-07
-3.26636e-06
2.48659e-07
-3.31535e-06
2.44872e-07
-3.36379e-06
2.41153e-07
-3.41161e-06
2.37425e-07
-3.45881e-06
2.33612e-07
-3.50532e-06
2.29639e-07
-3.5511e-06
2.25431e-07
-3.59603e-06
2.20917e-07
-3.64007e-06
2.16023e-07
-3.68309e-06
2.10673e-07
-3.72499e-06
2.04794e-07
-3.76563e-06
1.98311e-07
-3.80489e-06
1.91151e-07
-3.8426e-06
1.83247e-07
-3.87861e-06
1.74532e-07
-3.91271e-06
1.64941e-07
-3.9447e-06
1.54413e-07
-3.97437e-06
1.42888e-07
-4.00147e-06
1.30308e-07
-4.02574e-06
1.16619e-07
-4.04691e-06
1.01765e-07
-4.06464e-06
8.57006e-08
-4.07859e-06
6.838e-08
-4.08838e-06
4.97574e-08
-4.0936e-06
2.97865e-08
-4.09384e-06
8.43294e-09
-4.08871e-06
-1.4327e-08
-4.07785e-06
-3.849e-08
-4.06091e-06
-6.40172e-08
-4.03753e-06
-9.08417e-08
-4.0074e-06
-1.18876e-07
-3.9702e-06
-1.48006e-07
-3.92569e-06
-1.78098e-07
-3.87363e-06
-2.08989e-07
-3.81381e-06
-2.40511e-07
-3.74594e-06
-2.72434e-07
-3.67012e-06
-3.04574e-07
-3.58648e-06
-3.36655e-07
-3.49519e-06
-3.68438e-07
-3.39635e-06
-3.99642e-07
-3.29014e-06
-4.29942e-07
-3.17681e-06
-4.58989e-07
-3.05677e-06
-4.86546e-07
-2.93042e-06
-5.12355e-07
-2.79826e-06
-5.36077e-07
-2.66089e-06
-5.57491e-07
-2.51894e-06
-5.76379e-07
-2.37309e-06
-5.92588e-07
-2.22405e-06
-6.05989e-07
-2.07257e-06
-6.16517e-07
-1.9194e-06
-6.24169e-07
-1.76528e-06
-6.2898e-07
-1.6109e-06
-6.31063e-07
-1.45694e-06
-6.30527e-07
-1.304e-06
-6.27547e-07
-1.15267e-06
-6.22258e-07
-1.00344e-06
-6.14879e-07
-8.5679e-07
-6.05568e-07
-7.13113e-07
-5.94581e-07
-5.72748e-07
-5.82092e-07
-4.35981e-07
-5.68386e-07
-3.03032e-07
-5.53642e-07
-1.74048e-07
-5.38159e-07
-4.90624e-08
-5.22165e-07
7.18082e-08
-5.05833e-07
1.88376e-07
-4.89205e-07
3.00511e-07
-4.72399e-07