/*--------------------------------*- C++ -*----------------------------------*\
  =========                 |
  \\      /  F ield         | OpenFOAM: The Open Source CFD Toolbox
   \\    /   O peration     | Website:  https://openfoam.org
    \\  /    A nd           | Version:  8
     \\/     M anipulation  |
\*---------------------------------------------------------------------------*/
FoamFile
{
    version     2.0;
    format      ascii;
    class       volVectorField;
    location    "70";
    object      U;
}
// * * * * * * * * * * * * * * * * * * * * * * * * * * * * * * * * * * * * * //

dimensions      [0 1 -1 0 0 0 0];

internalField   nonuniform List<vector> 
12225
(
(9.85691 -0.886429 0)
(9.66629 -0.740653 0)
(9.45471 -0.429358 0)
(9.22252 -0.221977 0)
(9.0031 -0.106135 0)
(8.80926 -0.0454832 0)
(8.64012 -0.0147214 0)
(8.4954 0.001029 0)
(8.3706 0.00908394 0)
(8.26426 0.0131294 0)
(8.17135 0.01503 0)
(8.08988 0.016337 0)
(8.01638 0.0171267 0)
(7.949 0.0180115 0)
(7.88386 0.0188376 0)
(7.82237 0.0214992 0)
(7.73542 0.0228994 0)
(7.72013 0.0392271 0)
(10.0545 0.227609 0)
(10.121 0.327003 0)
(10.1194 0.261767 0)
(10.0849 0.186851 0)
(10.0421 0.135114 0)
(9.99458 0.101694 0)
(9.94074 0.0800484 0)
(9.88047 0.0655544 0)
(9.81736 0.0555239 0)
(9.75257 0.0482386 0)
(9.68841 0.0428616 0)
(9.62522 0.0388476 0)
(9.56398 0.0359614 0)
(9.50484 0.0342634 0)
(9.44665 0.0335307 0)
(9.39335 0.0364194 0)
(9.33243 0.0385721 0)
(9.30443 0.0678515 0)
(10.0035 0.0579813 0)
(10.0301 0.0561848 0)
(10.0556 0.0341207 0)
(10.0694 0.0333876 0)
(10.0753 0.041325 0)
(10.0753 0.0474542 0)
(10.0689 0.0505363 0)
(10.0563 0.0518066 0)
(10.0394 0.0520803 0)
(10.019 0.0518143 0)
(9.99591 0.0513594 0)
(9.97064 0.0510051 0)
(9.94379 0.0509168 0)
(9.91569 0.0514666 0)
(9.88595 0.0526794 0)
(9.85625 0.0567008 0)
(9.82386 0.0615666 0)
(9.79772 0.0797347 0)
(9.99776 0.0111345 0)
(10.0108 0.0268438 0)
(10.0345 0.0375641 0)
(10.0514 0.0487106 0)
(10.0625 0.0563544 0)
(10.0707 0.0593906 0)
(10.0756 0.0599116 0)
(10.0771 0.05959 0)
(10.0758 0.0590487 0)
(10.0723 0.0584778 0)
(10.0668 0.0580208 0)
(10.0596 0.0578709 0)
(10.0508 0.0581155 0)
(10.0407 0.0591022 0)
(10.029 0.0609683 0)
(10.0169 0.0652182 0)
(10.0039 0.071083 0)
(9.99405 0.0838172 0)
(9.99932 0.00730942 0)
(10.0088 0.0319607 0)
(10.0269 0.0444718 0)
(10.0407 0.0507702 0)
(10.0509 0.0547908 0)
(10.06 0.0567818 0)
(10.0676 0.057497 0)
(10.0729 0.0577336 0)
(10.0764 0.0578301 0)
(10.0783 0.057912 0)
(10.0787 0.0581016 0)
(10.0779 0.0585769 0)
(10.076 0.059465 0)
(10.073 0.0610723 0)
(10.069 0.063618 0)
(10.0648 0.0680167 0)
(10.0607 0.0740399 0)
(10.0591 0.0832721 0)
(10.0003 0.00932426 0)
(10.0081 0.0315599 0)
(10.0221 0.0416486 0)
(10.0338 0.0464467 0)
(10.0431 0.0504777 0)
(10.0519 0.0532658 0)
(10.0597 0.0547843 0)
(10.066 0.0556556 0)
(10.0709 0.056291 0)
(10.0745 0.0568649 0)
(10.0771 0.0575188 0)
(10.0787 0.0584314 0)
(10.0795 0.0597553 0)
(10.0795 0.0617483 0)
(10.0788 0.064624 0)
(10.0782 0.0689027 0)
(10.0779 0.0744744 0)
(10.0797 0.0815393 0)
(10.0004 0.00912635 0)
(10.0069 0.0275648 0)
(10.0185 0.0372665 0)
(10.029 0.0426513 0)
(10.0377 0.0471442 0)
(10.0459 0.0503591 0)
(10.0533 0.0522632 0)
(10.0596 0.0534767 0)
(10.0648 0.0544418 0)
(10.0691 0.0553473 0)
(10.0725 0.0563328 0)
(10.0752 0.0575652 0)
(10.0771 0.0591988 0)
(10.0786 0.0614364 0)
(10.0796 0.0644475 0)
(10.0807 0.0684987 0)
(10.0824 0.0734838 0)
(10.0856 0.0791161 0)
(10.0004 0.00813413 0)
(10.0058 0.0239473 0)
(10.0156 0.0337421 0)
(10.0252 0.0395936 0)
(10.0333 0.0441452 0)
(10.0409 0.047462 0)
(10.0479 0.0496008 0)
(10.0541 0.051086 0)
(10.0593 0.052324 0)
(10.0638 0.0535033 0)
(10.0675 0.0547614 0)
(10.0707 0.0562497 0)
(10.0733 0.058111 0)
(10.0755 0.0604971 0)
(10.0775 0.063526 0)
(10.0797 0.0673098 0)
(10.0823 0.0717297 0)
(10.0861 0.0763728 0)
(10.0004 0.00721638 0)
(10.0049 0.0210867 0)
(10.0132 0.0306235 0)
(10.0218 0.0365973 0)
(10.0295 0.0410852 0)
(10.0366 0.0444619 0)
(10.0432 0.0468194 0)
(10.0492 0.0485591 0)
(10.0544 0.0500386 0)
(10.0589 0.0514499 0)
(10.0628 0.0529318 0)
(10.0662 0.0546212 0)
(10.0693 0.0566414 0)
(10.072 0.0591018 0)
(10.0746 0.0620747 0)
(10.0774 0.0655858 0)
(10.0805 0.0695113 0)
(10.0845 0.0734514 0)
(10.0004 0.00642433 0)
(10.0041 0.0186128 0)
(10.0111 0.0276105 0)
(10.0189 0.0335584 0)
(10.026 0.038003 0)
(10.0327 0.0414335 0)
(10.039 0.0439693 0)
(10.0448 0.0459232 0)
(10.0499 0.0476065 0)
(10.0544 0.0492121 0)
(10.0585 0.050875 0)
(10.0621 0.0527176 0)
(10.0654 0.0548414 0)
(10.0685 0.0573231 0)
(10.0715 0.0602008 0)
(10.0747 0.0634551 0)
(10.0781 0.0669701 0)
(10.0821 0.0704033 0)
(10.0003 0.00570355 0)
(10.0035 0.0163921 0)
(10.0095 0.0247311 0)
(10.0164 0.0305563 0)
(10.023 0.0349433 0)
(10.0293 0.038389 0)
(10.0353 0.0410433 0)
(10.0408 0.0431603 0)
(10.0459 0.0450091 0)
(10.0504 0.046773 0)
(10.0545 0.0485793 0)
(10.0583 0.0505328 0)
(10.0619 0.0527153 0)
(10.0652 0.0551792 0)
(10.0686 0.0579407 0)
(10.072 0.0609613 0)
(10.0756 0.0641453 0)
(10.0796 0.0672101 0)
(10.0003 0.00507499 0)
(10.003 0.0145456 0)
(10.0082 0.0222434 0)
(10.0144 0.0278756 0)
(10.0206 0.0321694 0)
(10.0265 0.0355889 0)
(10.0322 0.0383086 0)
(10.0376 0.040536 0)
(10.0425 0.0425028 0)
(10.0471 0.0443817 0)
(10.0513 0.0462907 0)
(10.0552 0.0483185 0)
(10.0589 0.0505252 0)
(10.0625 0.0529513 0)
(10.066 0.0555993 0)
(10.0696 0.0584326 0)
(10.0733 0.0613735 0)
(10.0773 0.064194 0)
(10.0003 0.004498 0)
(10.0026 0.0128478 0)
(10.0071 0.0198778 0)
(10.0127 0.0252376 0)
(10.0184 0.0293959 0)
(10.0241 0.0327539 0)
(10.0295 0.0354989 0)
(10.0347 0.0378008 0)
(10.0396 0.03985 0)
(10.0442 0.0418061 0)
(10.0485 0.0437835 0)
(10.0525 0.0458563 0)
(10.0563 0.0480669 0)
(10.0601 0.0504396 0)
(10.0638 0.0529731 0)
(10.0675 0.0556362 0)
(10.0713 0.0583736 0)
(10.0753 0.0609931 0)
(10.0002 0.00390436 0)
(10.0023 0.0110877 0)
(10.0061 0.017343 0)
(10.0111 0.0223108 0)
(10.0164 0.0262588 0)
(10.0217 0.0294967 0)
(10.0269 0.0322158 0)
(10.0319 0.0345569 0)
(10.0367 0.0366629 0)
(10.0413 0.0386684 0)
(10.0457 0.040686 0)
(10.0498 0.0427775 0)
(10.0538 0.0449743 0)
(10.0577 0.0472805 0)
(10.0616 0.0496942 0)
(10.0654 0.0521902 0)
(10.0693 0.0547389 0)
(10.0733 0.0571778 0)
(10.0002 0.00328798 0)
(10.0019 0.00925487 0)
(10.0053 0.0146365 0)
(10.0096 0.0190788 0)
(10.0145 0.022715 0)
(10.0194 0.0257556 0)
(10.0244 0.0283699 0)
(10.0293 0.0306846 0)
(10.034 0.0328013 0)
(10.0386 0.0348204 0)
(10.043 0.036831 0)
(10.0473 0.0388964 0)
(10.0514 0.0410377 0)
(10.0555 0.0432557 0)
(10.0595 0.0455374 0)
(10.0635 0.0478681 0)
(10.0674 0.0502356 0)
(10.0714 0.0525077 0)
(10.0002 0.00264394 0)
(10.0017 0.00734495 0)
(10.0045 0.011752 0)
(10.0084 0.0155248 0)
(10.0128 0.0187192 0)
(10.0175 0.0214615 0)
(10.0222 0.0238738 0)
(10.027 0.0260668 0)
(10.0316 0.0281189 0)
(10.0362 0.0300917 0)
(10.0407 0.0320433 0)
(10.0451 0.034026 0)
(10.0494 0.0360636 0)
(10.0536 0.0381575 0)
(10.0577 0.0402931 0)
(10.0618 0.0424574 0)
(10.0659 0.0446483 0)
(10.0699 0.0467597 0)
(10.0002 0.00196227 0)
(10.0014 0.00533268 0)
(10.004 0.00864893 0)
(10.0075 0.011599 0)
(10.0116 0.0141955 0)
(10.0159 0.0165045 0)
(10.0205 0.0185974 0)
(10.0252 0.0205512 0)
(10.0298 0.0224284 0)
(10.0344 0.0242625 0)
(10.039 0.0260843 0)
(10.0435 0.0279229 0)
(10.0479 0.0298027 0)
(10.0522 0.031725 0)
(10.0565 0.0336828 0)
(10.0607 0.035661 0)
(10.0649 0.0376638 0)
(10.069 0.0395989 0)
(10.0001 0.0012168 0)
(10.0013 0.00314624 0)
(10.0036 0.00522208 0)
(10.0069 0.0071733 0)
(10.0108 0.00898619 0)
(10.015 0.0106902 0)
(10.0195 0.0123152 0)
(10.0242 0.0138951 0)
(10.0288 0.015466 0)
(10.0335 0.0170457 0)
(10.0381 0.0186435 0)
(10.0428 0.0202672 0)
(10.0474 0.0219277 0)
(10.0519 0.0236252 0)
(10.0563 0.0253561 0)
(10.0607 0.0271091 0)
(10.065 0.0288878 0)
(10.0692 0.0306109 0)
(10.0001 0.000347882 0)
(10.0013 0.000628794 0)
(10.0036 0.00123383 0)
(10.0069 0.00195744 0)
(10.0108 0.00277569 0)
(10.0151 0.00368198 0)
(10.0196 0.00466864 0)
(10.0243 0.00572437 0)
(10.0291 0.00685186 0)
(10.034 0.00804778 0)
(10.0388 0.00930917 0)
(10.0436 0.0106233 0)
(10.0484 0.0119868 0)
(10.053 0.0133899 0)
(10.0576 0.014831 0)
(10.0622 0.0162986 0)
(10.0667 0.017797 0)
(10.071 0.0192531 0)
(10.0002 -0.000515111 0)
(10.0014 -0.00184164 0)
(10.0039 -0.00270488 0)
(10.0075 -0.00320866 0)
(10.0117 -0.0033779 0)
(10.0162 -0.003265 0)
(10.0211 -0.0029225 0)
(10.026 -0.00238807 0)
(10.0311 -0.00170105 0)
(10.0361 -0.000880091 0)
(10.0411 4.52517e-05 0)
(10.0461 0.00105715 0)
(10.0511 0.00212657 0)
(10.0559 0.00324946 0)
(10.0607 0.00441003 0)
(10.0654 0.00561054 0)
(10.0701 0.00683921 0)
(10.0745 0.00804463 0)
(10.0002 -0.00127459 0)
(10.0016 -0.00403161 0)
(10.0044 -0.00619931 0)
(10.0084 -0.00773059 0)
(10.013 -0.00867439 0)
(10.018 -0.00917376 0)
(10.0231 -0.00932647 0)
(10.0284 -0.0091905 0)
(10.0337 -0.00882464 0)
(10.039 -0.00827393 0)
(10.0442 -0.00758347 0)
(10.0494 -0.00679024 0)
(10.0545 -0.00593091 0)
(10.0595 -0.00501672 0)
(10.0644 -0.00406143 0)
(10.0692 -0.00306629 0)
(10.074 -0.00204285 0)
(10.0785 -0.00103897 0)
(10.0002 -0.00200105 0)
(10.0018 -0.00620253 0)
(10.0051 -0.00969757 0)
(10.0097 -0.01217 0)
(10.0149 -0.0137414 0)
(10.0203 -0.014713 0)
(10.0258 -0.0152368 0)
(10.0314 -0.0154008 0)
(10.037 -0.0152815 0)
(10.0425 -0.014948 0)
(10.0479 -0.0144473 0)
(10.0533 -0.0138363 0)
(10.0585 -0.0131434 0)
(10.0636 -0.0124001 0)
(10.0686 -0.0116033 0)
(10.0735 -0.0107781 0)
(10.0783 -0.0099191 0)
(10.083 -0.00908578 0)
(10.0002 -0.00268316 0)
(10.0019 -0.00839592 0)
(10.0058 -0.013211 0)
(10.0113 -0.0165199 0)
(10.0172 -0.0186672 0)
(10.023 -0.0200593 0)
(10.029 -0.0208439 0)
(10.0349 -0.0211594 0)
(10.0407 -0.0211624 0)
(10.0465 -0.020952 0)
(10.0521 -0.0205866 0)
(10.0575 -0.0201111 0)
(10.0629 -0.0195601 0)
(10.0681 -0.018951 0)
(10.0732 -0.018296 0)
(10.0782 -0.0176065 0)
(10.0831 -0.0168947 0)
(10.0877 -0.0161969 0)
(10.0001 -0.00328838 0)
(10.002 -0.0109778 0)
(10.0067 -0.0168765 0)
(10.0131 -0.0204974 0)
(10.0196 -0.023073 0)
(10.0261 -0.0249752 0)
(10.0325 -0.0260835 0)
(10.0388 -0.0265354 0)
(10.0448 -0.0265939 0)
(10.0508 -0.0264234 0)
(10.0565 -0.0261055 0)
(10.0621 -0.0256883 0)
(10.0675 -0.0252113 0)
(10.0728 -0.0246851 0)
(10.0779 -0.0241283 0)
(10.0829 -0.0235443 0)
(10.0879 -0.0229514 0)
(10.0925 -0.022363 0)
(9.99994 -0.00319128 0)
(10.0018 -0.0145139 0)
(10.0077 -0.0219303 0)
(10.0151 -0.0250743 0)
(10.022 -0.0272584 0)
(10.0289 -0.0292005 0)
(10.036 -0.0304992 0)
(10.0428 -0.0311574 0)
(10.0493 -0.0313972 0)
(10.0555 -0.0313646 0)
(10.0614 -0.0311414 0)
(10.067 -0.0307937 0)
(10.0724 -0.0303695 0)
(10.0777 -0.029897 0)
(10.0827 -0.0293919 0)
(10.0876 -0.028872 0)
(10.0923 -0.0283445 0)
(10.0968 -0.027828 0)
(9.99863 -0.000256317 0)
(9.99924 -0.0154132 0)
(10.008 -0.0268156 0)
(10.0175 -0.0316087 0)
(10.0252 -0.0336904 0)
(10.0328 -0.0347095 0)
(10.0406 -0.0351085 0)
(10.048 -0.0352261 0)
(10.0548 -0.035218 0)
(10.0611 -0.0350869 0)
(10.0669 -0.0348352 0)
(10.0723 -0.0344903 0)
(10.0773 -0.0340903 0)
(10.082 -0.0336505 0)
(10.0865 -0.0331837 0)
(10.0906 -0.0327081 0)
(10.0945 -0.0322296 0)
(10.0982 -0.0317724 0)
(9.99491 0.00143453 0)
(9.99304 -0.00785309 0)
(10.0065 -0.0199154 0)
(10.0211 -0.0316177 0)
(10.0321 -0.0396136 0)
(10.0414 -0.043065 0)
(10.0496 -0.043719 0)
(10.0567 -0.0432988 0)
(10.0626 -0.0425477 0)
(10.0676 -0.0416563 0)
(10.0718 -0.0407039 0)
(10.0753 -0.0397557 0)
(10.0782 -0.0388497 0)
(10.0806 -0.0379854 0)
(10.0826 -0.0371623 0)
(10.0841 -0.0363826 0)
(10.0855 -0.0356555 0)
(10.0865 -0.0349689 0)
(9.99475 -0.0304986 0)
(9.99939 -0.0226897 0)
(10.0151 -0.00233968 0)
(10.0312 -0.00143266 0)
(10.0447 -0.0110002 0)
(10.0552 -0.0201052 0)
(10.0621 -0.0263008 0)
(10.0654 -0.030353 0)
(10.066 -0.032934 0)
(10.0647 -0.0344156 0)
(10.0619 -0.0351162 0)
(10.0579 -0.0353256 0)
(10.053 -0.0352336 0)
(10.0475 -0.0349563 0)
(10.0416 -0.0345668 0)
(10.0354 -0.034119 0)
(10.0291 -0.033684 0)
(10.0226 -0.0332446 0)
(10.0273 -0.182716 0)
(10.0764 -0.288217 0)
(10.0873 -0.247563 0)
(10.0782 -0.186262 0)
(10.0672 -0.139918 0)
(10.0552 -0.107702 0)
(10.0386 -0.0852387 0)
(10.0174 -0.0696705 0)
(9.99319 -0.0587921 0)
(9.96726 -0.0508852 0)
(9.94051 -0.0449155 0)
(9.9135 -0.0402739 0)
(9.88676 -0.0365858 0)
(9.86063 -0.0335865 0)
(9.83535 -0.0310967 0)
(9.81099 -0.0290426 0)
(9.78781 -0.0273778 0)
(9.76569 -0.0264251 0)
(9.9358 0.689342 0)
(9.86888 0.609673 0)
(9.76529 0.380797 0)
(9.62811 0.217643 0)
(9.48833 0.119509 0)
(9.36083 0.0635126 0)
(9.24767 0.0319741 0)
(9.14767 0.0140685 0)
(9.05974 0.00376355 0)
(8.98273 -0.00223615 0)
(8.91493 -0.00571712 0)
(8.85495 -0.00776185 0)
(8.80156 -0.00894144 0)
(8.75391 -0.00962873 0)
(8.71109 -0.0100598 0)
(8.67243 -0.0102697 0)
(8.63703 -0.0104072 0)
(8.60438 -0.0109827 0)
(0.0301456 -0.0154526 -3.54846e-19)
(0.0897634 -0.0517896 1.53827e-19)
(0.146479 -0.065617 0)
(0.216329 -0.0743927 0)
(0.282607 -0.0766172 0)
(0.340535 -0.072884 -6.34922e-20)
(0.388252 -0.0670839 0)
(0.428614 -0.0537178 0)
(0.458514 -0.0388214 0)
(0.476593 -0.0295631 0)
(0.48571 -0.0135367 5.24537e-20)
(0.481416 0.00805733 0)
(0.465543 0.0134889 0)
(0.448587 -0.010535 0)
(0.433338 -0.0321673 0)
(0.406266 -0.00932469 1.24384e-19)
(0.377366 0.00157342 0)
(0.344967 0.00913029 0)
(0.309527 0.0161377 0)
(0.269982 0.0231222 0)
(0.225059 0.0310924 0)
(0.174146 0.0399599 0)
(0.115634 0.0490513 0)
(0.0482202 0.0588623 2.2307e-19)
(-0.0277403 0.0676337 -2.24307e-19)
(-0.112597 0.0745568 1.85474e-19)
(-0.208794 0.0839312 1.49778e-19)
(-0.316447 0.0955391 0)
(-0.434527 0.107557 0)
(-0.561272 0.118338 -8.89843e-20)
(-0.694435 0.126897 -7.7597e-20)
(-0.831694 0.132672 0)
(-0.970982 0.135787 0)
(-1.11046 0.136483 -5.65246e-20)
(-1.24838 0.135035 0)
(-1.38355 0.131906 0)
(-1.51499 0.127592 4.57889e-20)
(-1.64208 0.122469 0)
(-1.76443 0.116928 4.14584e-20)
(-1.8819 0.111216 7.9616e-20)
(-1.99453 0.105591 0)
(-2.10244 0.100179 0)
(-2.20592 0.0951209 0)
(-2.30524 0.0904513 0)
(-2.40078 0.0862341 0)
(-2.4929 0.0824507 6.75874e-20)
(-2.58196 0.0791259 6.63415e-20)
(-2.6683 0.0762113 6.5224e-20)
(-2.75227 0.0737079 0)
(-2.83416 0.0715569 -6.32945e-20)
(-2.91427 0.0697503 0)
(-2.99283 0.0682286 6.1688e-20)
(-3.07004 0.0669846 6.09832e-20)
(-3.14605 0.0659604 0)
(-3.22102 0.065133 0)
(-3.29508 0.0644393 0)
(-3.36829 0.0638597 5.87167e-20)
(-3.44071 0.0633313 0)
(-3.51237 0.062822 0)
(-3.58328 0.0622668 0)
(-3.6534 0.0616465 0)
(-3.72265 0.0608972 0)
(-3.79094 0.059994 0)
(-3.85817 0.0588761 0)
(-3.9242 0.0575346 0)
(-3.98886 0.0559262 -5.61814e-20)
(-4.05196 0.0540656 0)
(-4.11324 0.0519317 0)
(-4.17243 0.0495577 5.59023e-20)
(-4.22921 0.0469392 5.58659e-20)
(-4.28326 0.0441117 0)
(-4.33419 0.0410775 -5.58914e-20)
(-4.38161 0.037859 5.59591e-20)
(-4.42505 0.034463 0)
(-4.46401 0.030894 -5.62141e-20)
(-4.49792 0.0271391 0)
(-4.52616 0.0232016 0)
(-4.54809 0.0191032 5.68631e-20)
(-4.56328 0.0149151 0)
(-4.57124 0.0108286 -5.73085e-20)
(-4.57282 0.00694864 0)
(-4.56814 0.00306535 5.75665e-20)
(-4.55699 -0.000944429 5.76238e-20)
(-4.53925 -0.00519858 5.76131e-20)
(-4.51463 -0.00970325 1.15036e-19)
(-4.48293 -0.014423 -1.14632e-19)
(-4.44395 -0.0192941 0)
(-4.39743 -0.024366 0)
(-4.34317 -0.029667 0)
(-4.28094 -0.0349846 -1.09905e-19)
(-4.21097 -0.0405964 -1.0776e-19)
(-4.13354 -0.0463852 1.05154e-19)
(-4.04879 -0.0520236 0)
(-3.95685 -0.0576843 -9.83185e-20)
(-3.85782 -0.0632453 -9.39744e-20)
(-3.75192 -0.0686578 -8.89643e-20)
(-3.63942 -0.0738671 0)
(-3.52068 -0.0788134 0)
(-3.39614 -0.0834496 0)
(-3.26633 -0.0877275 -6.16362e-20)
(-3.1318 -0.0915974 0)
(-2.99313 -0.0950225 0)
(-2.85098 -0.097984 3.28724e-20)
(-2.70602 -0.100488 0)
(-2.55892 -0.102571 0)
(-2.41037 -0.104227 -3.65639e-21)
(-2.26101 -0.105479 0)
(-2.11145 -0.10631 0)
(-1.96226 -0.106768 4.89976e-20)
(-1.81397 -0.10684 6.6343e-20)
(-1.66708 -0.1066 0)
(-1.52205 -0.10603 -1.04937e-19)
(-1.3793 -0.105222 0)
(-1.23917 -0.104164 1.4963e-19)
(-1.10199 -0.102943 0)
(-0.967984 -0.101576 2.02118e-19)
(-0.837353 -0.1001 2.32034e-19)
(-0.710289 -0.098513 0)
(-0.586887 -0.0968955 0)
(-0.467203 -0.0951955 0)
(-0.351167 -0.0934207 0)
(-0.238552 -0.0916044 0)
(-0.130334 -0.0898273 0)
(-0.023713 -0.0867763 0)
(0.0819287 -0.0820169 4.96773e-19)
(0.182938 -0.0765834 -4.72591e-19)
(0.279461 -0.0713203 0)
(0.371389 -0.0663468 0)
(0.4588 -0.0617487 0)
(0.541898 -0.0574801 0)
(0.620882 -0.0535437 -7.92099e-19)
(0.695985 -0.0498777 0)
(0.767453 -0.0465308 7.53469e-19)
(0.835504 -0.0434466 -7.36917e-19)
(0.900343 -0.0406173 0)
(0.962168 -0.0379708 0)
(1.02119 -0.0355321 0)
(1.07758 -0.0333066 6.83478e-19)
(1.1315 -0.0313024 6.72584e-19)
(1.18311 -0.0294356 0)
(1.23265 -0.027698 6.53028e-19)
(1.28031 -0.0261022 6.44199e-19)
(1.32626 -0.0246344 -6.35902e-19)
(1.3706 -0.0232596 0)
(1.41346 -0.0219879 0)
(1.45492 -0.0208401 -6.13705e-19)
(1.49508 -0.0197902 0)
(1.53404 -0.0188517 0)
(1.57187 -0.0179685 0)
(1.60866 -0.0170851 0)
(1.64452 -0.0162806 5.83896e-19)
(1.67949 -0.0155919 5.78733e-19)
(1.71367 -0.0150166 0)
(1.7471 -0.0145099 5.6901e-19)
(1.77984 -0.0139879 0)
(1.812 -0.0134678 0)
(1.84361 -0.0130345 5.55762e-19)
(1.87468 -0.0126203 0)
(1.90526 -0.0122274 5.47649e-19)
(1.93539 -0.0118624 0)
(1.96509 -0.0115364 0)
(1.99439 -0.0112393 5.36362e-19)
(2.02332 -0.010967 0)
(2.05188 -0.0107716 5.29334e-19)
(2.08005 -0.0105193 0)
(2.10792 -0.0102264 0)
(2.13547 -0.0100305 0)
(2.1626 -0.00979184 -5.16355e-19)
(2.18936 -0.00950285 0)
(2.21569 -0.00930737 5.10499e-19)
(2.24138 -0.00902196 0)
(2.26635 -0.00849707 0)
(2.29039 -0.00800122 0)
(2.31293 -0.00748038 0)
(2.33339 -0.00671674 0)
(2.35 -0.00560871 0)
(2.36233 -0.00274171 0)
(2.35599 0.00301492 -1.01323e-18)
(2.33721 0.016165 0)
(2.21446 0.0320006 0)
(0.0415411 -0.17488 8.21823e-19)
(0.112568 -0.233102 -3.80193e-19)
(0.175655 -0.219468 0)
(0.230285 -0.197129 1.24052e-19)
(0.273564 -0.173336 0)
(0.305972 -0.1467 4.54479e-20)
(0.32892 -0.118472 -8.37719e-20)
(0.343634 -0.0894852 -7.97379e-20)
(0.351325 -0.059647 0)
(0.351625 -0.0304872 -7.6628e-20)
(0.344974 -0.00215704 -3.87921e-20)
(0.334326 0.0244348 0)
(0.318252 0.0475187 0)
(0.29354 0.0678786 0)
(0.255702 0.0876824 0)
(0.209734 0.100232 -5.66748e-20)
(0.158698 0.10864 0)
(0.099144 0.11556 1.29051e-19)
(0.0305219 0.124008 0)
(-0.0458438 0.136655 0)
(-0.129844 0.155197 -1.15582e-19)
(-0.223811 0.178754 0)
(-0.329511 0.205055 9.80337e-20)
(-0.447486 0.232492 -4.59126e-20)
(-0.576158 0.259686 4.26639e-20)
(-0.712321 0.28536 -3.95874e-20)
(-0.853167 0.30855 -3.67256e-20)
(-0.996361 0.32785 0)
(-1.13976 0.342103 0)
(-1.28137 0.350843 2.97464e-20)
(-1.41954 0.354214 -2.74566e-20)
(-1.55322 0.352598 0)
(-1.68157 0.346636 0)
(-1.8039 0.337309 2.40714e-20)
(-1.92007 0.325637 0)
(-2.03019 0.31235 0)
(-2.13451 0.298207 -2.16767e-20)
(-2.23341 0.283767 0)
(-2.32734 0.269514 2.03809e-20)
(-2.41677 0.255759 -4.04148e-20)
(-2.50217 0.242762 0)
(-2.58402 0.230642 0)
(-2.66271 0.219499 -7.66156e-20)
(-2.73864 0.209329 -7.56817e-20)
(-2.81213 0.200134 -7.48633e-20)
(-2.8835 0.191844 3.68073e-20)
(-2.95298 0.184417 -3.703e-20)
(-3.02082 0.177756 -1.09722e-19)
(-3.08717 0.171801 7.24734e-20)
(-3.1522 0.166444 3.63054e-20)
(-3.21604 0.161628 0)
(-3.27877 0.157256 -3.59538e-20)
(-3.34046 0.153282 3.52274e-20)
(-3.40115 0.149622 0)
(-3.46086 0.146229 0)
(-3.5196 0.143025 0)
(-3.57735 0.139979 -3.54366e-20)
(-3.63406 0.137022 0)
(-3.68969 0.134117 7.00953e-20)
(-3.74417 0.131194 0)
(-3.79739 0.128229 7.00701e-20)
(-3.84923 0.125157 0)
(-3.89958 0.121942 -7.01744e-20)
(-3.94827 0.118504 0)
(-3.99517 0.11481 7.03892e-20)
(-4.04012 0.110783 -3.49379e-20)
(-4.08294 0.106401 0)
(-4.12343 0.101599 -7.08767e-20)
(-4.16141 0.0963638 -3.58239e-20)
(-4.19668 0.0906403 -3.59129e-20)
(-4.22903 0.0844159 0)
(-4.25828 0.0776465 -3.56683e-20)
(-4.28428 0.0703176 -3.6223e-20)
(-4.3069 0.0624134 0)
(-4.32607 0.0539504 3.64707e-20)
(-4.34173 0.0449538 -7.28761e-20)
(-4.35388 0.0355052 0)
(-4.36255 0.0257053 -3.68629e-20)
(-4.36761 0.0157153 0)
(-4.36904 0.00569581 1.1064e-19)
(-4.36555 -0.00432402 0)
(-4.35636 -0.0144969 -1.1052e-19)
(-4.34103 -0.0248853 -3.68435e-20)
(-4.31925 -0.0355347 3.64961e-20)
(-4.29074 -0.0463737 7.26905e-20)
(-4.25525 -0.0573971 -7.22521e-20)
(-4.21254 -0.0684968 0)
(-4.16236 -0.0796897 0)
(-4.10445 -0.0908765 0)
(-4.03869 -0.101997 2.04379e-19)
(-3.96525 -0.112997 6.6126e-20)
(-3.88434 -0.123774 -6.41312e-20)
(-3.79604 -0.134215 0)
(-3.70046 -0.144244 -6.11825e-20)
(-3.59773 -0.153783 5.63288e-20)
(-3.48812 -0.162773 5.30395e-20)
(-3.37196 -0.171046 0)
(-3.24961 -0.178543 0)
(-3.12157 -0.1852 0)
(-2.98838 -0.190987 3.65404e-20)
(-2.85062 -0.195844 0)
(-2.70893 -0.199751 -5.69219e-20)
(-2.56395 -0.202672 -6.69943e-20)
(-2.41635 -0.204608 3.47692e-20)
(-2.26684 -0.205594 0)
(-2.11611 -0.205701 7.66725e-21)
(-1.96484 -0.205008 0)
(-1.81366 -0.20355 -1.56922e-20)
(-1.66314 -0.201395 1.21465e-20)
(-1.51384 -0.198582 1.91599e-20)
(-1.36623 -0.195202 0)
(-1.22078 -0.191293 1.11364e-19)
(-1.07787 -0.186961 -8.74789e-20)
(-0.937855 -0.182275 -5.38453e-20)
(-0.801044 -0.17735 0)
(-0.667657 -0.172205 -6.92363e-20)
(-0.537883 -0.166945 -2.26318e-19)
(-0.411869 -0.161617 0)
(-0.289684 -0.156302 -1.81187e-19)
(-0.171362 -0.151033 -1.97399e-19)
(-0.0564346 -0.146037 -2.10912e-19)
(0.0552733 -0.141385 0)
(0.163173 -0.136877 0)
(0.266452 -0.131634 0)
(0.364673 -0.125283 1.15526e-19)
(0.458345 -0.118434 1.20965e-19)
(0.548172 -0.111667 0)
(0.634343 -0.105149 2.46937e-19)
(0.716945 -0.0989943 2.50432e-19)
(0.796079 -0.0931957 0)
(0.871872 -0.087783 2.58621e-19)
(0.94446 -0.0827169 5.17955e-19)
(1.01398 -0.0780168 -2.6317e-19)
(1.08058 -0.0736319 -2.61531e-19)
(1.14441 -0.069566 0)
(1.20562 -0.0657772 0)
(1.26437 -0.0622789 0)
(1.32078 -0.0590378 -2.70833e-19)
(1.37499 -0.0560459 2.69394e-19)
(1.42716 -0.0532622 5.43357e-19)
(1.47745 -0.0506872 -2.73697e-19)
(1.52602 -0.0483062 2.72416e-19)
(1.57299 -0.0461032 2.75129e-19)
(1.61849 -0.0440593 0)
(1.6626 -0.0421673 0)
(1.7054 -0.0404231 -2.75101e-19)
(1.74699 -0.0388014 0)
(1.78745 -0.0372954 0)
(1.82687 -0.0359067 5.54507e-19)
(1.86535 -0.034623 0)
(1.90292 -0.0334493 2.77386e-19)
(1.93966 -0.0323642 -2.78849e-19)
(1.97566 -0.031356 0)
(2.01097 -0.0304188 2.78266e-19)
(2.04565 -0.029541 0)
(2.07973 -0.0287239 0)
(2.11328 -0.027989 -2.79829e-19)
(2.14633 -0.0272915 5.59032e-19)
(2.1789 -0.0266299 -2.80051e-19)
(2.21105 -0.0260022 0)
(2.24278 -0.0254068 0)
(2.27414 -0.0248457 2.79411e-19)
(2.30513 -0.024296 0)
(2.33577 -0.0237788 2.7939e-19)
(2.36609 -0.0232611 0)
(2.39607 -0.0227406 0)
(2.42571 -0.0222619 0)
(2.45501 -0.0217631 2.7975e-19)
(2.48391 -0.0212063 0)
(2.51235 -0.0206271 -2.79564e-19)
(2.54026 -0.0199614 0)
(2.56744 -0.0191121 0)
(2.59363 -0.018077 5.58899e-19)
(2.61844 -0.016696 -5.59674e-19)
(2.64132 -0.0146191 0)
(2.66111 -0.0114554 0)
(2.67685 -0.0057061 0)
(2.68683 0.00464406 1.72387e-18)
(2.69742 0.025514 0)
(2.679 0.0629448 -1.19705e-18)
(0.0396428 -0.334892 2.51636e-22)
(0.0904817 -0.369368 3.67629e-19)
(0.12834 -0.328149 0)
(0.158352 -0.281285 -1.91515e-19)
(0.180232 -0.234446 0)
(0.193569 -0.187838 0)
(0.19908 -0.141837 -1.37931e-22)
(0.197461 -0.0967604 6.54473e-20)
(0.189219 -0.0530075 6.44713e-20)
(0.174539 -0.0111418 6.43097e-20)
(0.153434 0.028686 0)
(0.126034 0.0663352 0)
(0.091939 0.10136 -6.69747e-20)
(0.0501554 0.134143 -1.38013e-19)
(-0.000593055 0.165816 1.41804e-19)
(-0.059618 0.195659 0)
(-0.127626 0.223623 1.38155e-19)
(-0.205434 0.251206 -6.69127e-20)
(-0.29339 0.280155 0)
(-0.391131 0.311907 1.21235e-19)
(-0.497875 0.347066 5.77725e-20)
(-0.612387 0.384891 -1.08808e-19)
(-0.732966 0.423333 -5.16664e-20)
(-0.857733 0.459884 0)
(-0.984378 0.492477 9.1526e-20)
(-1.11034 0.519589 8.6511e-20)
(-1.23336 0.540046 0)
(-1.35179 0.553139 7.77944e-20)
(-1.46463 0.558721 0)
(-1.57144 0.557203 7.07763e-20)
(-1.67225 0.549416 3.40323e-20)
(-1.76736 0.536447 0)
(-1.85719 0.519481 0)
(-1.94239 0.499667 0)
(-2.02355 0.478133 0)
(-2.10115 0.45582 0)
(-2.17568 0.433488 0)
(-2.24754 0.411706 5.52258e-20)
(-2.31706 0.390895 -8.14216e-20)
(-2.38454 0.371323 0)
(-2.45021 0.353157 0)
(-2.51427 0.33646 0)
(-2.57688 0.32124 2.39465e-22)
(-2.63818 0.307443 5.11798e-20)
(-2.69829 0.294992 1.0126e-19)
(-2.75731 0.283777 -1.00539e-19)
(-2.81533 0.27369 -4.9797e-20)
(-2.87243 0.264603 4.98582e-20)
(-2.92868 0.256402 -3.46477e-22)
(-2.98413 0.248959 4.90917e-20)
(-3.03884 0.242167 0)
(-3.09283 0.235912 4.87938e-20)
(-3.14613 0.230103 -3.69026e-22)
(-3.19876 0.22464 0)
(-3.25071 0.219437 0)
(-3.30197 0.214408 -4.85268e-20)
(-3.35254 0.209486 0)
(-3.40237 0.204591 0)
(-3.45141 0.19966 4.81913e-20)
(-3.49962 0.194622 9.7255e-20)
(-3.54692 0.189428 -4.90924e-20)
(-3.59322 0.184014 0)
(-3.63842 0.178328 4.93087e-20)
(-3.68242 0.172304 0)
(-3.7251 0.165896 4.87705e-20)
(-3.76634 0.159046 4.97389e-20)
(-3.806 0.151719 -9.89973e-20)
(-3.84394 0.143869 -4.92802e-20)
(-3.87999 0.135472 0)
(-3.91397 0.126493 1.00118e-19)
(-3.94572 0.116916 0)
(-3.97504 0.106718 1.5175e-19)
(-4.00174 0.0958913 1.01371e-19)
(-4.02561 0.0844277 1.01797e-19)
(-4.04645 0.0723374 -1.02214e-19)
(-4.064 0.0596276 1.54167e-19)
(-4.07796 0.046318 0)
(-4.08798 0.0324044 0)
(-4.09366 0.0178825 -1.03471e-19)
(-4.09459 0.00271771 -1.55309e-19)
(-4.09026 -0.013084 0)
(-4.08031 -0.0294702 5.16311e-20)
(-4.06437 -0.0463712 0)
(-4.04213 -0.0637354 -1.53316e-19)
(-4.01328 -0.0814703 8.29018e-23)
(-3.97755 -0.0994914 -1.91969e-22)
(-3.9347 -0.11768 9.94711e-20)
(-3.88448 -0.135949 0)
(-3.82666 -0.154176 -9.63359e-20)
(-3.76113 -0.172232 7.64569e-22)
(-3.68799 -0.190012 0)
(-3.60741 -0.207386 0)
(-3.51948 -0.224168 0)
(-3.42428 -0.240159 8.12259e-20)
(-3.32201 -0.255225 0)
(-3.21297 -0.269295 0)
(-3.09749 -0.282176 0)
(-2.97597 -0.293708 0)
(-2.84891 -0.303804 0)
(-2.71686 -0.312392 5.27234e-20)
(-2.58043 -0.319408 0)
(-2.44024 -0.324818 3.68563e-20)
(-2.29697 -0.328606 2.96836e-20)
(-2.1513 -0.330805 -2.22352e-20)
(-2.00393 -0.331455 0)
(-1.85557 -0.330656 -6.61373e-21)
(-1.70688 -0.328498 0)
(-1.55848 -0.325099 9.7648e-21)
(-1.41092 -0.32055 -1.8157e-20)
(-1.26475 -0.314973 -7.36527e-20)
(-1.12045 -0.308473 0)
(-0.978449 -0.301178 -1.25089e-19)
(-0.839121 -0.293203 -4.61984e-20)
(-0.702801 -0.284689 0)
(-0.569761 -0.275761 -1.3284e-19)
(-0.440206 -0.266539 -1.49829e-19)
(-0.314296 -0.257127 2.52916e-19)
(-0.19214 -0.247649 0)
(-0.0736624 -0.238266 1.0212e-19)
(0.0412015 -0.229106 1.08126e-19)
(0.152184 -0.220058 3.33957e-19)
(0.259048 -0.210958 0)
(0.361734 -0.201832 0)
(0.460165 -0.192799 0)
(0.554351 -0.183785 1.25371e-19)
(0.644568 -0.174733 0)
(0.731129 -0.165833 0)
(0.814199 -0.15721 -1.39256e-19)
(0.893895 -0.148951 -1.42149e-19)
(0.970337 -0.141086 0)
(1.04364 -0.133635 0)
(1.11395 -0.126601 -2.99314e-19)
(1.18139 -0.119987 0)
(1.2461 -0.113774 3.07601e-19)
(1.30823 -0.107954 3.09287e-19)
(1.36791 -0.102505 0)
(1.42528 -0.0974252 0)
(1.48048 -0.0926947 -3.19226e-19)
(1.53362 -0.0882931 -1.54894e-21)
(1.58486 -0.0841924 -1.45189e-21)
(1.63434 -0.0803826 0)
(1.6822 -0.0768406 -6.60461e-19)
(1.72855 -0.073544 0)
(1.7735 -0.0704759 0)
(1.81714 -0.067629 0)
(1.85955 -0.0649846 3.38506e-19)
(1.90082 -0.0625344 0)
(1.94104 -0.0602584 -6.81823e-19)
(1.98029 -0.058147 -3.43362e-19)
(2.01862 -0.0561981 0)
(2.05612 -0.0543932 -3.46235e-19)
(2.09285 -0.0527157 0)
(2.12887 -0.0511605 0)
(2.16423 -0.0497135 -1.04867e-18)
(2.19898 -0.0483679 7.01059e-19)
(2.23317 -0.0471253 0)
(2.26685 -0.0459656 7.05528e-19)
(2.30004 -0.0448736 -3.54377e-19)
(2.33278 -0.0438371 0)
(2.3651 -0.0428526 0)
(2.39704 -0.0419172 0)
(2.4286 -0.0410262 -1.07222e-18)
(2.45981 -0.0401793 0)
(2.49069 -0.0393514 -3.59052e-19)
(2.52123 -0.0385426 0)
(2.55145 -0.037762 0)
(2.58134 -0.0369777 0)
(2.61087 -0.036168 0)
(2.64001 -0.035315 0)
(2.6687 -0.0343657 0)
(2.69684 -0.0332606 -7.23496e-19)
(2.72426 -0.0319463 0)
(2.75075 -0.0302785 -3.63364e-19)
(2.77597 -0.0280274 1.09192e-18)
(2.79943 -0.0248503 0)
(2.82036 -0.0200864 0)
(2.83804 -0.0124975 -7.39162e-19)
(2.85059 -6.19959e-06 -7.49354e-19)
(2.86247 0.0226266 7.53884e-19)
(2.86219 0.0647385 7.81029e-19)
(0.0195271 -0.439964 -8.70065e-19)
(0.046152 -0.428439 -4.422e-19)
(0.0579615 -0.369716 -2.01263e-19)
(0.0649056 -0.30843 -7.94886e-20)
(0.0670614 -0.2476 0)
(0.0634662 -0.187596 1.2456e-19)
(0.0539993 -0.128696 -5.8946e-20)
(0.0387129 -0.0711685 0)
(0.0175796 -0.0152592 -5.65249e-20)
(-0.00958497 0.0387577 0)
(-0.0431021 0.0909188 1.09334e-19)
(-0.08327 0.141284 0)
(-0.130482 0.189995 5.31709e-20)
(-0.185107 0.237363 1.04629e-19)
(-0.247517 0.283665 -1.02446e-19)
(-0.318035 0.328981 0)
(-0.397013 0.373759 -9.6317e-20)
(-0.484425 0.418597 0)
(-0.579639 0.463912 0)
(-0.681329 0.509622 -8.44457e-20)
(-0.787533 0.554883 0)
(-0.895849 0.597991 2.48877e-22)
(-1.00392 0.636826 0)
(-1.10974 0.669442 0)
(-1.21175 0.694478 -9.31982e-23)
(-1.30883 0.711283 -6.22958e-20)
(-1.40035 0.719798 -5.94215e-20)
(-1.48612 0.720426 -5.68983e-20)
(-1.56639 0.713909 0)
(-1.64163 0.70124 -1.05058e-19)
(-1.7125 0.683559 0)
(-1.77972 0.662032 -4.90729e-20)
(-1.84399 0.637821 0)
(-1.9059 0.612004 0)
(-1.96598 0.585466 4.52352e-20)
(-2.02458 0.558937 0)
(-2.08198 0.532997 -4.33868e-20)
(-2.1384 0.508072 2.3162e-23)
(-2.19396 0.484464 8.39125e-20)
(-2.24877 0.462356 -8.27379e-20)
(-2.30287 0.44185 0)
(-2.35631 0.422968 0)
(-2.40913 0.405688 -3.9908e-20)
(-2.46134 0.389941 0)
(-2.51297 0.375635 -3.94783e-20)
(-2.56404 0.36266 3.92331e-20)
(-2.61458 0.350895 3.9022e-20)
(-2.6646 0.340212 0)
(-2.71413 0.330487 -3.86918e-20)
(-2.76319 0.321591 -3.85674e-20)
(-2.81181 0.313403 7.64959e-20)
(-2.85999 0.305807 -3.83886e-20)
(-2.90775 0.298691 -3.83313e-20)
(-2.95509 0.291949 0)
(-3.00201 0.285478 0)
(-3.0485 0.279181 3.82785e-20)
(-3.09453 0.272969 0)
(-3.14008 0.266751 0)
(-3.18512 0.260446 -7.67818e-20)
(-3.22958 0.253975 -7.69269e-20)
(-3.2734 0.247267 0)
(-3.31652 0.240246 0)
(-3.35883 0.232845 0)
(-3.40024 0.224992 0)
(-3.44064 0.216627 -7.81133e-20)
(-3.47992 0.207685 7.79707e-20)
(-3.51792 0.198116 7.87662e-20)
(-3.55451 0.187869 1.57806e-19)
(-3.58951 0.176903 0)
(-3.62275 0.165174 -4.07681e-22)
(-3.65401 0.152648 0)
(-3.6831 0.139289 -8.07029e-20)
(-3.70976 0.12507 -3.42064e-22)