/*--------------------------------*- C++ -*----------------------------------*\
| =========                 |                                                 |
| \\      /  F ield         | OpenFOAM: The Open Source CFD Toolbox           |
|  \\    /   O peration     | Version:  2312                                  |
|   \\  /    A nd           | Website:  www.openfoam.com                      |
|    \\/     M anipulation  |                                                 |
\*---------------------------------------------------------------------------*/
FoamFile
{
    version     2.0;
    format      ascii;
    arch        "LSB;label=64;scalar=64";
    class       volScalarField;
    location    "130";
    object      nut_ML_ND;
}
// * * * * * * * * * * * * * * * * * * * * * * * * * * * * * * * * * * * * * //

dimensions      [0 0 0 0 0 0 0];

internalField   nonuniform List<scalar> 
404911
(
0.382294
0.519972
0.384197
0.073898
0.539782
0.545302
0.535674
0.252493
0.206404
0.0940596
0.535292
0.524793
0.573667
0.521403
0.51871
0.317191
0.518204
0.569737
0.553454
0.504858
0.468924
0.556398
0.448747
0.488238
0.576601
0.486501
0.548629
0.588167
0.58365
0.329644
0.555188
0.581802
0.560243
0.534156
0.534877
0.573995
0.5268
0.354812
0.521139
0.567281
0.533075
0.0817223
0.524755
0.571604
0.571235
0.500217
0.42686
0.561678
0.554575
0.442021
0.333085
0.504422
0.514672
0.298564
0.332649
0.304178
0.0738987
0.545861
0.507587
0.506617
0.540405
0.576401
0.544492
0.582931
0.578257
0.568949
0.577649
0.540131
0.574632
0.580226
0.574009
0.586142
0.570225
0.578735
0.585593
0.53018
0.303126
0.548216
0.581602
0.571441
0.579435
0.571863
0.585662
0.572987
0.575962
0.57836
0.533387
0.580426
0.320252
0.571094
0.54692
0.352207
0.576937
0.551274
0.561127
0.577424
0.573379
0.571703
0.581685
0.542542
0.428169
0.579508
0.569427
0.407533
0.490185
0.510285
0.540113
0.517257
0.546523
0.567051
0.568276
0.560702
0.557479
0.550432
0.0630518
0.524943
0.565145
0.136067
0.515372
0.558567
0.553998
0.553831
0.555262
0.524222
0.502843
0.548958
0.564793
0.564793
0.565527
0.523955
0.532069
0.529749
0.563203
0.563226
0.559506
0.559596
0.546195
0.549357
0.548484
0.51853
0.505391
0.549814
0.568204
0.567203
0.560131
0.557402
0.561374
0.56688
0.528781
0.529737
0.560856
0.561962
0.558125
0.351103
0.519426
0.504846
0.560635
0.574213
0.572802
0.567172
0.561253
0.555845
0.557045
0.558449
0.560191
0.560976
0.557862
0.556896
0.551303
0.535463
0.541564
0.525794
0.52888
0.53024
0.533108
0.530128
0.523441
0.561645
0.557321
0.555872
0.556215
0.556963
0.557603
0.557728
0.555797
0.55187
0.56004
0.5198
0.535772
0.527986
0.527454
0.537448
0.53891
0.532644
0.527877
0.565284
0.560449
0.561169
0.560765
0.561295
0.562657
0.55755
0.486957
0.504864
0.56246
0.531755
0.545051
0.545109
0.544109
0.533806
0.524485
0.539812
0.536952
0.536217
0.530276
0.564676
0.560862
0.563103
0.565793
0.562141
0.527136
0.507967
0.519268
0.550323
0.561247
0.573093
0.565909
0.543101
0.537784
0.551141
0.540334
0.550667
0.555042
0.569209
0.562549
0.562723
0.561551
0.544427
0.502507
0.478214
0.544218
0.57839
0.568045
0.573593
0.575067
0.573061
0.571931
0.56288
0.549953
0.549854
0.570374
0.571309
0.543683
0.523511
0.567754
0.561888
0.502906
0.516361
0.567179
0.577468
0.558958
0.574295
0.575864
0.576902
0.577719
0.577421
0.575221
0.574368
0.57304
0.546587
0.532844
0.528398
0.523337
0.529338
0.523474
0.557436
0.56793
0.531886
0.57261
0.574393
0.575226
0.574688
0.57339
0.576774
0.577381
0.576479
0.557
0.526848
0.518088
0.523134
0.411064
0.539186
0.572466
0.570844
0.571517
0.572299
0.572978
0.57711
0.576822
0.573387
0.56709
0.566683
0.572107
0.576731
0.559373
0.530182
0.523389
0.55129
0.500406
0.50377
0.501168
0.545892
0.567806
0.57715
0.579667
0.575055
0.573149
0.576247
0.57587
0.574615
0.571597
0.572921
0.575392
0.572694
0.53381
0.568792
0.515392
0.502711
0.555926
0.577134
0.568033
0.575668
0.573795
0.568238
0.580883
0.573955
0.57396
0.573491
0.578974
0.578157
0.572956
0.575932
0.574498
0.535961
0.549769
0.522272
0.573556
0.580153
0.580916
0.580116
0.57328
0.574988
0.573085
0.582768
0.578699
0.583767
0.583186
0.577242
0.572895
0.568739
0.560702
0.564378
0.498864
0.501766
0.550752
0.573629
0.578676
0.583163
0.584591
0.582389
0.577975
0.581182
0.579554
0.582933
0.576917
0.580177
0.575143
0.574587
0.575125
0.513207
0.500269
0.546704
0.579459
0.576246
0.571811
0.576394
0.58067
0.579662
0.582548
0.585223
0.584103
0.582875
0.580848
0.578489
0.575634
0.574002
0.576001
0.543902
0.506834
0.500347
0.505795
0.54163
0.576028
0.569499
0.580957
0.579139
0.580162
0.584233
0.585448
0.585627
0.584429
0.581997
0.578285
0.570775
0.569553
0.574239
0.524948
0.537731
0.582296
0.576711
0.578807
0.579971
0.582127
0.581785
0.580923
0.583135
0.58052
0.583218
0.585133
0.58405
0.580231
0.580735
0.57605
0.54116
0.510431
0.578577
0.587282
0.579871
0.582039
0.580294
0.582861
0.584043
0.580051
0.576604
0.577712
0.57786
0.580888
0.581524
0.581812
0.574214
0.575174
0.540214
0.537263
0.585613
0.580684
0.582372
0.582836
0.582688
0.58092
0.583737
0.583736
0.579529
0.576255
0.578886
0.581329
0.577444
0.581453
0.576008
0.573509
0.502477
0.56408
0.586449
0.586394
0.585557
0.584929
0.585047
0.58318
0.57556
0.585144
0.585169
0.581238
0.580021
0.577857
0.576555
0.574182
0.574856
0.547444
0.499437
0.528633
0.576355
0.583601
0.58471
0.584701
0.584759
0.583057
0.584156
0.585004
0.583798
0.584373
0.583032
0.580815
0.578656
0.564773
0.580682
0.566243
0.498078
0.500702
0.560815
0.583003
0.578374
0.582894
0.584251
0.58447
0.585188
0.58568
0.584575
0.585734
0.583409
0.581237
0.581523
0.579935
0.578769
0.569552
0.534188
0.525397
0.577595
0.582115
0.58371
0.584217
0.584232
0.58395
0.585029
0.582558
0.585714
0.585733
0.585677
0.581307
0.580001
0.577947
0.574104
0.566762
0.495874
0.494675
0.559349
0.583811
0.583997
0.58418
0.584738
0.584622
0.584338
0.584005
0.584872
0.583006
0.584499
0.584173
0.584394
0.581322
0.58083
0.571383
0.547465
0.505379
0.581371
0.584492
0.583728
0.584165
0.584836
0.584878
0.584804
0.584756
0.584676
0.584722
0.585043
0.584967
0.584305
0.582353
0.576621
0.564457
0.534216
0.564126
0.588669
0.584742
0.582805
0.583584
0.584837
0.585062
0.584902
0.584946
0.584909
0.58486
0.584704
0.584199
0.583279
0.580746
0.578804
0.570919
0.522138
0.570512
0.587802
0.586367
0.584194
0.583837
0.58494
0.58555
0.585507
0.584853
0.584969
0.584972
0.584821
0.58435
0.582156
0.580507
0.57793
0.552407
0.496492
0.503152
0.580399
0.589801
0.587461
0.584621
0.585071
0.58496
0.585576
0.584614
0.584878
0.584723
0.584411
0.584475
0.584154
0.58193
0.574176
0.570644
0.529221
0.509623
0.582648
0.587365
0.587061
0.585782
0.584878
0.585099
0.584999
0.585583
0.585043
0.585775
0.585082
0.584168
0.582724
0.581528
0.574878
0.568262
0.496988
0.556315
0.584308
0.585052
0.585488
0.585763
0.585247
0.585187
0.584877
0.584308
0.584628
0.585343
0.585428
0.584619
0.582837
0.577279
0.577687
0.565206
0.472587
0.559349
0.585086
0.586204
0.584947
0.585047
0.583548
0.583919
0.585678
0.58511
0.584326
0.584144
0.583755
0.583732
0.582116
0.579053
0.574945
0.541556
0.50323
0.573602
0.584831
0.585222
0.585239
0.585045
0.58514
0.583825
0.584951
0.585709
0.585451
0.584893
0.583964
0.582896
0.580474
0.572602
0.56882
0.525994
0.532999
0.582464
0.581852
0.58183
0.584631
0.585812
0.585739
0.585749
0.584141
0.585018
0.585557
0.585615
0.584641
0.583747
0.580986
0.573383
0.562045
0.438579
0.555744
0.585642
0.586648
0.584775
0.585018
0.585769
0.58462
0.585274
0.584328
0.585704
0.58522
0.585785
0.585567
0.58394
0.581488
0.573237
0.546431
0.398256
0.502652
0.576298
0.586654
0.585761
0.584839
0.584856
0.585119
0.584467
0.585679
0.585723
0.585329
0.585517
0.585154
0.584817
0.584597
0.580251
0.574401
0.540687
0.503142
0.58021
0.586778
0.58595
0.584828
0.58487
0.585077
0.58508
0.58439
0.585291
0.585745
0.58578
0.585626
0.585262
0.583297
0.57962
0.569647
0.525753
0.503941
0.582153
0.58711
0.585894
0.584431
0.584328
0.585077
0.585344
0.585124
0.585755
0.584517
0.585652
0.585735
0.585726
0.582672
0.57653
0.565757
0.42147
0.503426
0.58258
0.587032
0.5855
0.584219
0.582979
0.583902
0.584999
0.585393
0.585432
0.585626
0.58542
0.585614
0.584868
0.582293
0.575746
0.546592
0.39527
0.560845
0.586699
0.585528
0.584239
0.584018
0.583388
0.5832
0.583815
0.58431
0.585675
0.585509
0.585667
0.585726
0.582453
0.581221
0.573312
0.540662
0.501741
0.567129
0.589159
0.587803
0.583945
0.583686
0.584273
0.58432
0.584156
0.584313
0.584709
0.585613
0.585696
0.585559
0.584677
0.582386
0.574369
0.544632
0.503331
0.581949
0.587568
0.585116
0.583907
0.582969
0.584349
0.585099
0.585173
0.584585
0.583907
0.584074
0.585138
0.583947
0.583137
0.5815
0.577845
0.545299
0.506845
0.582748
0.58861
0.588131
0.585575
0.583467
0.583102
0.585386
0.584712
0.584683
0.58522
0.584645
0.583812
0.583333
0.582893
0.580734
0.580105
0.54406
0.505312
0.581873
0.587868
0.587606
0.58628
0.584792
0.583764
0.58361
0.585479
0.585298
0.585561
0.585372
0.584974
0.584408
0.583675
0.581611
0.580303
0.543635
0.503865
0.581589
0.586587
0.586238
0.585721
0.585218
0.584888
0.584672
0.584563
0.584976
0.5855
0.585635
0.58509
0.584555
0.583095
0.582534
0.578609
0.533585
0.505773
0.58183
0.585505
0.58513
0.584793
0.584536
0.585097
0.585253
0.585146
0.584912
0.584802
0.58486
0.5847
0.584296
0.582656
0.578636
0.572598
0.501544
0.555202
0.582292
0.585037
0.584691
0.584672
0.584476
0.584478
0.585461
0.585629
0.585535
0.58527
0.585124
0.584782
0.58436
0.582785
0.578971
0.570748
0.499698
0.553239
0.581538
0.584503
0.584676
0.585371
0.585498
0.58557
0.585618
0.585325
0.58479
0.585532
0.585704
0.585186
0.584697
0.582864
0.578809
0.570179
0.497772
0.499593
0.568736
0.580417
0.582225
0.583613
0.583592
0.585016
0.584709
0.584672
0.58429
0.584399
0.583757
0.585357
0.585809
0.584959
0.582985
0.57697
0.56714
0.496628
0.502626
0.573916
0.58251
0.578097
0.582007
0.583847
0.583648
0.585757
0.583413
0.582866
0.582877
0.582205
0.583578
0.585616
0.585006
0.582382
0.577229
0.550756
0.571087
0.580612
0.583655
0.584556
0.58446
0.584459
0.585716
0.580591
0.580535
0.58149
0.580205
0.583223
0.585841
0.584051
0.579922
0.576075
0.544935
0.498989
0.56444
0.578574
0.58304
0.584683
0.584947
0.584974
0.585256
0.585666
0.584457
0.579022
0.577828
0.583129
0.585909
0.583925
0.578364
0.573129
0.532537
0.429533
0.560887
0.575417
0.582211
0.584546
0.58497
0.585306
0.585544
0.585645
0.585564
0.58416
0.580422
0.582609
0.585899
0.584835
0.580076
0.571931
0.525037
0.405943
0.556741
0.569682
0.580137
0.584103
0.584943
0.58532
0.585734
0.585183
0.585517
0.585502
0.585511
0.585544
0.585973
0.583893
0.579804
0.570803
0.495583
0.565651
0.564489
0.579281
0.583874
0.584836
0.585206
0.585567
0.584334
0.584831
0.585449
0.58567
0.585777
0.58539
0.582783
0.577079
0.565291
0.465463
0.406305
0.567032
0.581346
0.58317
0.584525
0.585132
0.585305
0.58548
0.583838
0.583735
0.585105
0.585821
0.584656
0.581913
0.575189
0.563646
0.427864
0.325752
0.529951
0.574108
0.58091
0.584733
0.584466
0.584938
0.58558
0.585724
0.585733
0.584904
0.585576
0.585894
0.584947
0.580565
0.575536
0.560607
0.403341
0.518153
0.575158
0.577131
0.582672
0.585552
0.585275
0.585171
0.585671
0.584764
0.585562
0.585744
0.585825
0.585813
0.585
0.580145
0.572705
0.538227
0.525443
0.563191
0.577947
0.584317
0.585745
0.585625
0.585562
0.585628
0.585625
0.585492
0.584553
0.585562
0.58544
0.583265
0.578972
0.569859
0.532155
0.378959
0.540356
0.569488
0.57736
0.580604
0.583325
0.584411
0.584985
0.585716
0.585295
0.583738
0.583185
0.585225
0.585573
0.582381
0.575507
0.563561
0.411546
0.490531
0.560413
0.575293
0.5821
0.581139
0.583335
0.578974
0.58305
0.585752
0.582688
0.585103
0.585562
0.585525
0.585525
0.580078
0.572009
0.560103
0.374089
0.501943
0.575196
0.564613
0.576702
0.583209
0.584838
0.585448
0.584197
0.580215
0.584663
0.583661
0.585309
0.585722
0.584982
0.581195
0.571413
0.562192
0.404258
0.519905
0.577605
0.57542
0.581807
0.585138
0.585734
0.585652
0.582943
0.585783
0.583276
0.585898
0.585566
0.584872
0.58438
0.582783
0.575562
0.56594
0.439517
0.498276
0.556889
0.578912
0.58027
0.581774
0.585741
0.582427
0.573579
0.581955
0.585455
0.585754
0.584846
0.583805
0.583398
0.585188
0.580781
0.575824
0.530987
0.445159
0.508699
0.580629
0.575485
0.580985
0.582637
0.585728
0.575587
0.559714
0.570524
0.585506
0.58478
0.585757
0.585212
0.583518
0.581962
0.580108
0.57101
0.55747
0.416962
0.571155
0.58356
0.58308
0.584048
0.585606
0.573683
0.56011
0.56477
0.577904
0.585753
0.585716
0.585014
0.583174
0.581115
0.575823
0.575198
0.542641
0.388638
0.567474
0.586879
0.581674
0.584162
0.584883
0.564397
0.563402
0.576255
0.577648
0.584638
0.585781
0.585223
0.583538
0.581518
0.577076
0.57307
0.534545
0.567072
0.586951
0.584188
0.582451
0.58514
0.568862
0.558907
0.571173
0.583079
0.583096
0.585852
0.585639
0.583605
0.582033
0.577224
0.570828
0.52424
0.565904
0.574263
0.583047
0.582766
0.585921
0.564954
0.558905
0.566072
0.57564
0.582946
0.585603
0.585717
0.58439
0.580997
0.578313
0.56978
0.491107
0.499848
0.576767
0.582722
0.58299
0.584232
0.585832
0.577035
0.563305
0.572072
0.580259
0.585533
0.585857
0.585033
0.584248
0.581368
0.574392
0.563724
0.453515
0.502815
0.577782
0.580263
0.582021
0.583077
0.58543
0.567417
0.566796
0.575379
0.584319
0.585975
0.584758
0.582467
0.583667
0.580364
0.576784
0.545827
0.508943
0.58698
0.587381
0.583583
0.584079
0.585668
0.573374
0.563305
0.572079
0.584078
0.585832
0.584875
0.585112
0.582894
0.579592
0.575435
0.537104
0.515957
0.590498
0.590075
0.58502
0.583796
0.585355
0.566462
0.569704
0.58199
0.585691
0.585787
0.584731
0.585349
0.583683
0.580069
0.574039
0.537703
0.52011
0.592646
0.59151
0.586127
0.583565
0.58562
0.571521
0.570709
0.580659
0.585785
0.585537
0.584752
0.585317
0.583291
0.579464
0.572666
0.507856
0.521212
0.592429
0.59004
0.58636
0.583791
0.584999
0.585732
0.5787
0.58035
0.585757
0.584643
0.583929
0.585012
0.582598
0.576748
0.567677
0.502622
0.57836
0.591396
0.585652
0.583375
0.58436
0.585782
0.585108
0.585757
0.58581
0.585814
0.58501
0.585472
0.584251
0.581432
0.575016
0.564281
0.46567
0.5601
0.55775
0.581927
0.585746
0.583846
0.569309
0.579285
0.585815
0.585475
0.585055
0.585178
0.583812
0.578673
0.571189
0.551386
0.45095
0.557061
0.577763
0.575423
0.585513
0.570268
0.565414
0.571823
0.584811
0.585794
0.585343
0.584473
0.583278
0.578041
0.56808
0.534565
0.571889
0.575409
0.580942
0.576333
0.58128
0.571578
0.565752
0.574496
0.583614
0.586046
0.585357
0.585425
0.58167
0.575816
0.566914
0.524535
0.569473
0.590308
0.584947
0.575905
0.576135
0.585903
0.573678
0.576616
0.585821
0.585629
0.58479
0.581774
0.581972
0.573329
0.564904
0.437918
0.563909
0.587345
0.583517
0.57747
0.57532
0.575921
0.583674
0.585114
0.58526
0.583681
0.5826
0.580709
0.576725
0.568103
0.563515
0.449664
0.505805
0.565038
0.581811
0.582942
0.576341
0.574282
0.57617
0.578882
0.579508
0.572512
0.570544
0.575447
0.58024
0.576226
0.5662
0.518103
0.504075
0.57556
0.581974
0.577188
0.582444
0.576063
0.576895
0.579411
0.584628
0.582694
0.578622
0.576847
0.575444
0.56747
0.536792
0.55825
0.510357
0.576262
0.578394
0.579098
0.582142
0.577772
0.580904
0.580868
0.582278
0.583225
0.576897
0.574634
0.574445
0.572693
0.53201
0.498371
0.553345
0.581576
0.532086
0.553846
0.576654
0.583609
0.582795
0.584708
0.584884
0.583987
0.579569
0.575917
0.574131
0.569902
0.546821
0.343614
0.544317
0.52877
0.559988
0.576989
0.574543
0.577111
0.58249
0.57829
0.577663
0.577594
0.580688
0.57441
0.574284
0.57274
0.553218
0.513984
0.495067
0.514107
0.545584
0.5742
0.577939
0.577298
0.581575
0.582385
0.578563
0.57681
0.574902
0.573643
0.56587
0.573184
0.550834
0.486466
0.564419
0.522394
0.561919
0.575364
0.579837
0.581484
0.578951
0.576611
0.576677
0.577834
0.576771
0.576993
0.572038
0.568458
0.494511
0.499028
0.562201
0.572297
0.52321
0.545537
0.577739
0.58308
0.581726
0.576839
0.576895
0.57446
0.57298
0.57456
0.57757
0.548001
0.50378
0.527925
0.567364
0.57152
0.519024
0.529405
0.573093
0.580124
0.57873
0.577237
0.576131
0.575475
0.567084
0.578932
0.574555
0.542731
0.502545
0.531577
0.520979
0.531893
0.543998
0.577293
0.578705
0.577248
0.573634
0.571072
0.558017
0.575492
0.565009
0.495905
0.500041
0.523229
0.524058
0.529849
0.534662
0.536834
0.576277
0.576019
0.574656
0.565461
0.578204
0.574195
0.540036
0.426699
0.559761
0.567282
0.52584
0.525075
0.566589
0.542114
0.528201
0.575587
0.574265
0.56646
0.577572
0.568125
0.533041
0.373922
0.556989
0.566153
0.525941
0.521945
0.539257
0.569121
0.550416
0.53686
0.543002
0.546867
0.579186
0.570094
0.493817
0.37346
0.55154
0.522057
0.524024
0.521487
0.525013
0.554529
0.555101
0.563347
0.531584
0.523089
0.580587
0.572969
0.49262
0.371323
0.548229
0.521138
0.527068
0.520947
0.51562
0.545315
0.568093
0.575968
0.558301
0.529247
0.582767
0.558212
0.497217
0.384848
0.551612
0.558384
0.524286
0.52011
0.519144
0.491864
0.561084
0.568234
0.547391
0.581143
0.58406
0.561447
0.494759
0.3477
0.355428
0.555604
0.564052
0.519106
0.52266
0.518852
0.517752
0.550107
0.526917
0.520768
0.587127
0.566615
0.565461
0.518235
0.527463
0.529915
0.576159
0.535511
0.528086
0.534388
0.553968
0.564355
0.566343
0.522167
0.515439
0.581718
0.586899
0.580687
0.513815
0.0918265
0.525561
0.567615
0.526919
0.529628
0.584525
0.572274
0.176602
0.12837
0.5239
0.443647
0.57533
0.581526
0.509132
0.510431
0.397592
0.572462
0.580055
0.544689
0.431216
0.502929
0.550669
0.573459
0.580162
0.509674
0.403515
0.551674
0.334582
0.436473
0.556778
0.535022
0.561121
0.562474
0.557872
0.561454
0.54823
0.546118
0.557513
0.541157
0.528054
0.506142
0.364874
0.107336
0.527703
0.513049
0.620024
0.654015
0.539671
0.594915
0.615301
0.626359
0.633151
0.653393
0.677377
0.697101
0.680321
0.534407
0.57943
0.599627
0.606016
0.609234
0.60982
0.61199
0.617695
0.623516
0.644269
0.66284
0.680235
0.687683
0.683851
0.662437
0.529493
0.573625
0.594547
0.59545
0.593879
0.593159
0.59316
0.595014
0.600432
0.609919
0.615812
0.607503
0.628499
0.656224
0.676639
0.682792
0.683231
0.66566
0.632044
0.592654
0.609562
0.698221
0.532497
0.564221
0.589812
0.59128
0.590436
0.588173
0.58559
0.582275
0.583047
0.588021
0.594536
0.601554
0.611849
0.609906
0.559689
0.567615
0.666861
0.679502
0.683066
0.683817
0.670779
0.638038
0.582291
0.541516
0.573558
0.584251
0.587939
0.588647
0.588432
0.586651
0.583667
0.579255
0.575481
0.576187
0.581327
0.586446
0.592462
0.597916
0.60614
0.605467
0.560738
0.568658
0.665192
0.681197
0.685293
0.683253
0.671507
0.602658
0.554441
0.584063
0.586645
0.587039
0.584423
0.583251
0.554054
0.547045
0.53377
0.574305
0.573012
0.574065
0.579217
0.583447
0.586406
0.590719
0.592469
0.595537
0.601114
0.562418
0.565154
0.656148
0.667756
0.670502
0.635557
0.500491
0.556905
0.575364
0.575817
0.581391
0.580823
0.581089
0.578756
0.578069
0.58008
0.57733
0.557354
0.57961
0.581963
0.553425
0.583712
0.554121
0.58987
0.589022
0.586448
0.588886
0.545041
0.556809
0.620879
0.583519
0.509012
0.569176
0.57511
0.580594
0.584769
0.584334
0.584218
0.581461
0.581143
0.579739
0.577019
0.579629
0.580164
0.57925
0.575623
0.56181
0.584514
0.585356
0.567966
0.587334
0.585924
0.582537
0.575482
0.569395
0.541461
0.549129
0.505948
0.571597
0.582035
0.580612
0.581432
0.585271
0.585232
0.585142
0.583705
0.58239
0.580236
0.580196
0.577302
0.578617
0.580118
0.580517
0.585478
0.584655
0.586882
0.583958
0.587731
0.584516
0.579029
0.564967
0.544518
0.511405
0.549613
0.583652
0.587253
0.586091
0.582188
0.581933
0.584239
0.584911
0.584617
0.583051
0.583771
0.584091
0.584419
0.583446
0.583321
0.583191
0.58198
0.578185
0.583301
0.578468
0.584495
0.586396
0.585546
0.579682
0.551218
0.521883
0.573585
0.583611
0.579509
0.583354
0.584475
0.58326
0.58534
0.583872
0.584397
0.5844
0.58491
0.58583
0.586116
0.584948
0.584541
0.585052
0.584726
0.583975
0.583216
0.572824
0.5849
0.550131
0.558842
0.549631
0.408596
0.522212
0.497681
0.55783
0.581057
0.583978
0.584784
0.584503
0.584577
0.586354
0.586376
0.586131
0.586024
0.58587
0.586302
0.586033
0.585966
0.585641
0.584557
0.583688
0.583754
0.583578
0.584532
0.587011
0.545667
0.508018
0.503433
0.563864
0.579921
0.581716
0.582985
0.583315
0.584062
0.586289
0.586537
0.587164
0.586985
0.58597
0.586316
0.586369
0.585866
0.585117
0.585333
0.585218
0.582083
0.580909
0.580412
0.581902
0.578743
0.550916
0.559154
0.593066
0.587185
0.58541
0.582294
0.583415
0.582061
0.57933
0.585525
0.58629
0.586167
0.585279
0.586192
0.58545
0.586924
0.586882
0.586725
0.585505
0.584091
0.583106
0.581229
0.577475
0.577752
0.571707
0.54402
0.560038
0.594203
0.597182
0.593125
0.588449
0.584757
0.584054
0.582495
0.581865
0.583979
0.586298
0.586203
0.586367
0.583675
0.584164
0.586676
0.586743
0.586231
0.585342
0.583047
0.580584
0.579019
0.55979
0.570963
0.534921
0.569041
0.595776
0.593194
0.593579
0.590415
0.588635
0.586105
0.584506
0.584894
0.584631
0.58492
0.58462
0.585813
0.586104
0.585476
0.58455
0.586348
0.586654
0.585274
0.582446
0.581055
0.578282
0.574375
0.551686
0.510159
0.517905
0.573271
0.597208
0.594431
0.592499
0.589989
0.588897
0.587435
0.586823
0.58575
0.585791
0.586271
0.586015
0.586093
0.585565
0.585528
0.586351
0.586812
0.58663
0.586363
0.585796
0.582679
0.579438
0.5763
0.55344
0.525426
0.518255
0.573103
0.597401
0.593634
0.591463
0.589424
0.588039
0.586991
0.586304
0.585452
0.585327
0.586416
0.586982
0.586882
0.586585
0.586266
0.585416
0.58293
0.583403
0.585505
0.585713
0.585502
0.583896
0.579529
0.56671
0.534248
0.520544
0.587212
0.596943
0.590727
0.589355
0.588075
0.587005
0.586227
0.585594
0.585294
0.585369
0.584287
0.585539
0.587057
0.587334
0.586683
0.586085
0.585872
0.585927
0.582483
0.577702
0.579317
0.578261
0.568996
0.576264
0.552437
0.501399
0.511284
0.580913
0.59505
0.593429
0.589289
0.587509
0.586586
0.585608
0.585166
0.585202
0.585322
0.585613
0.585663
0.585286
0.586489
0.587687
0.5876
0.586867
0.586272
0.586762
0.586052
0.582507
0.579448
0.576023
0.560485
0.570592
0.465082
0.56226
0.595351
0.590962
0.589261
0.587416
0.586565
0.585627
0.584261
0.584451
0.585285
0.585926
0.586273
0.586579
0.586787
0.587104
0.587806
0.587962
0.58719
0.585386
0.585439
0.585909
0.583816
0.580357
0.57635
0.57586
0.536922
0.553335
0.59169
0.59393
0.591582
0.588641
0.586964
0.586424
0.58434
0.581283
0.580641
0.582364
0.584398
0.585919
0.586905
0.587568
0.588018
0.588178
0.587714
0.586515
0.584891
0.583127
0.583444
0.583656
0.580977
0.579466
0.537666
0.519403
0.583372
0.593265
0.591813
0.589341
0.587851
0.586756
0.585429
0.582928
0.57885
0.57644
0.576402
0.579134
0.583097
0.585523
0.58684
0.587447
0.587512
0.586961
0.586031
0.585791
0.584601
0.584499
0.586934
0.586984
0.545525
0.559129
0.590722
0.591416
0.589591
0.588292
0.587006
0.583879
0.579791
0.577284
0.575171
0.573033
0.572295
0.573928
0.577881
0.582408
0.585218
0.586252
0.586329
0.586
0.585749
0.585793
0.585865
0.583785
0.579559
0.567372
0.546626
0.58748
0.587337
0.588302
0.588313
0.587358
0.584184
0.577024
0.570826
0.568763
0.568949
0.568141
0.567183
0.568803
0.572851
0.578154
0.582693
0.585131
0.585662
0.585637
0.585784
0.585406
0.584801
0.585401
0.584304
0.51715
0.513853
0.578659
0.589001
0.587245
0.587746
0.587604
0.585991
0.581878
0.572077
0.564512
0.561308
0.561435
0.562758
0.563812
0.565114
0.569275
0.575636
0.580284
0.583489
0.585234
0.585767
0.585205
0.584601
0.585184
0.585882
0.551617
0.511274
0.576552
0.587749
0.586092
0.586359
0.587049
0.586466
0.583496
0.578032
0.570518
0.563652
0.559842
0.5579
0.558233
0.560336
0.564201
0.569126
0.575261
0.581556
0.584504
0.585672
0.585944
0.585384
0.584259
0.58051
0.571601
0.507858
0.55041
0.587555
0.588092
0.586251
0.585866
0.58665
0.58516
0.580983
0.574945
0.568397
0.563676
0.561451
0.560026
0.558573
0.559659
0.564522
0.572421
0.5793
0.583607
0.586112
0.584843
0.584135
0.584138
0.579547
0.574995
0.513741
0.522869
0.584133
0.587244
0.587786
0.586509
0.586532
0.586064
0.583579
0.578675
0.573081
0.567017
0.564206
0.564163
0.564507
0.562416
0.561869
0.565711
0.57421
0.582638
0.585975
0.585893
0.585064
0.583858
0.578387
0.575199
0.513955
0.576156
0.58936
0.588885
0.587891
0.586882
0.586248
0.582508
0.579833
0.576652
0.572465
0.567908
0.56514
0.566258
0.568842
0.568639
0.566362
0.568864
0.576406
0.584232
0.586663
0.58619
0.585147
0.586396
0.576831
0.513134
0.519611
0.587155
0.588738
0.588041
0.587523
0.586531
0.585316
0.581556
0.575975
0.574448
0.57258
0.570266
0.567939
0.568171
0.571746
0.575966
0.57507
0.574648
0.5819
0.586374
0.586897
0.585928
0.585789
0.580038
0.551425
0.567379
0.58811
0.587477
0.587407
0.586646
0.584408
0.581749
0.57884
0.57462
0.570863
0.571104
0.570538
0.570514
0.569707
0.572006
0.57838
0.583965
0.584484
0.585708
0.586558
0.586719
0.586075
0.581445
0.573016
0.512214
0.506618
0.577896
0.588486
0.587132
0.587036
0.585817
0.582209
0.578023
0.574677
0.572129
0.56973
0.568731
0.570151
0.570731
0.570892
0.571546
0.576
0.582572
0.58599
0.586524
0.586384
0.585663
0.586736
0.584008
0.513714
0.552248
0.584523
0.587257
0.586152
0.587019
0.585259
0.580331
0.57467
0.571302
0.568648
0.567286
0.56768
0.569451
0.572354
0.574675
0.576295
0.577873
0.582462
0.586183
0.586997
0.585876
0.585317
0.579422
0.565731
0.503596
0.51848
0.585253
0.588481
0.587589
0.587146
0.586949
0.581132
0.575622
0.570382
0.566676
0.564589
0.563578
0.564363
0.567671
0.571708
0.576407
0.581433
0.584715
0.586053
0.586776
0.586711
0.585898
0.581189
0.570222
0.51347
0.573554
0.583825
0.586733
0.586977
0.587191
0.586853
0.582422
0.57182
0.565843
0.563108
0.561644
0.56117
0.561597
0.564584
0.570309
0.57567
0.580744
0.584908
0.586135
0.585008
0.583514
0.582871
0.580884
0.542688
0.520766
0.585318
0.587621
0.587694
0.587591
0.58673
0.585854
0.583291
0.574912
0.566061
0.56138
0.55971
0.560038
0.561207
0.563717
0.568832
0.575663
0.580591
0.584418
0.586162
0.585749
0.583373
0.577915
0.562345
0.506276
0.567617
0.586322
0.587276
0.587553
0.586954
0.585446
0.583165
0.579919
0.575795
0.569944
0.564636
0.561839
0.56129
0.562919
0.565557
0.569551
0.575658
0.581859
0.584863
0.586315
0.58554
0.582912
0.578156
0.540225
0.518299
0.584722
0.58736
0.587459
0.587489
0.586038
0.583511
0.580265
0.575871
0.571699
0.569906
0.568782
0.566646
0.566715
0.568333
0.57123
0.574265
0.578292
0.582925
0.586105
0.586605
0.584838
0.584017
0.577776
0.508272
0.567425
0.586676
0.587261
0.587476
0.586991
0.584976
0.581932
0.578255
0.57408
0.569336
0.566041
0.565994
0.567701
0.569705
0.57291
0.576976
0.581831
0.584347
0.585701
0.586746
0.585835
0.583752
0.579142
0.560302
0.517054
0.585074
0.587595
0.587559
0.587472
0.586012
0.583604
0.580396
0.576753
0.57296
0.568961
0.565436
0.563511
0.564717
0.568336
0.573376
0.578225
0.582841
0.585779
0.586326
0.5861
0.583926
0.58414
0.579595
0.507831
0.563998
0.586994
0.587594
0.587501
0.587106
0.584804
0.581658
0.578586
0.575636
0.572916
0.569767
0.566079
0.563848
0.564062
0.567188
0.572485
0.578402
0.582456
0.585394
0.586123
0.584787
0.584055
0.575714
0.558922
0.571703
0.58228
0.586611
0.587339
0.586556
0.583446
0.579821
0.57672
0.574382
0.572453
0.570916
0.569136
0.566682
0.565904
0.568141
0.573369
0.57966
0.583532
0.585513
0.586043
0.583432
0.581774
0.580262
0.513434
0.516077
0.582921
0.587349
0.5876
0.587602
0.586152
0.582543
0.578169
0.574956
0.57302
0.571709
0.570707
0.570169
0.570101
0.570061
0.571572
0.575325
0.580659
0.585249
0.586128
0.585896
0.582737
0.573304
0.561212
0.504247
0.520084
0.58294
0.587142
0.587946
0.587549
0.585887
0.581974
0.576751
0.573061
0.571236
0.570547
0.570279
0.570226
0.570666
0.571912
0.574141
0.577565
0.581513
0.584692
0.58613
0.585014
0.5825
0.570404
0.512634
0.545928
0.585386
0.587607
0.588295
0.587247
0.58491
0.580413
0.575186
0.571178
0.568825
0.568305
0.569085
0.56998
0.570911
0.572475
0.575101
0.578792
0.582617
0.585356
0.586229
0.584073
0.581413
0.569413
0.510225
0.572174
0.583375
0.587169
0.588068
0.586475
0.583564
0.579148
0.573899
0.570164
0.567564
0.565862
0.566457
0.56889
0.571048
0.573021
0.575725
0.579411
0.583311
0.585902
0.585612
0.583602
0.577397
0.556531
0.516047
0.580453
0.585459
0.587408
0.587547
0.58516
0.581504
0.577348
0.57298
0.569717
0.567909
0.566534
0.565598
0.566941
0.570291
0.573499
0.576675
0.580191
0.583833
0.586185
0.585338
0.580951
0.578013
0.511236
0.540606
0.583915
0.586767
0.587766
0.586751
0.584365
0.580343
0.575397
0.571208
0.568687
0.567779
0.567801
0.567773
0.568079
0.569916
0.573332
0.577273
0.581314
0.584543
0.586337
0.584429
0.581277
0.567814
0.503524
0.571172
0.58188
0.586157
0.587508
0.586267
0.583298
0.579658
0.574895
0.569572
0.566186
0.565742
0.566896
0.568479
0.5699
0.571496
0.573898
0.577456
0.581556
0.585122
0.586387
0.584015
0.579683
0.558771
0.51347
0.582412
0.586524
0.587466
0.587522
0.585806
0.582402
0.577875
0.573362
0.569121
0.564993
0.562794
0.563719
0.566462
0.569407
0.572219
0.575079
0.578425
0.582185
0.585608
0.585811
0.58401
0.57816
0.539624
0.541675
0.584179
0.586879
0.587388
0.587215
0.585224
0.581683
0.576373
0.570797
0.566417
0.563609
0.561829
0.561111
0.562894
0.566989
0.571311
0.575171
0.579082
0.582989
0.585824
0.585341
0.581303
0.578894
0.511664
0.561839
0.58598
0.587038
0.587838
0.586683
0.583914
0.580158
0.575177
0.56924
0.56377
0.560408
0.559558
0.560244
0.561207
0.563951
0.569245
0.57468
0.579286
0.583685
0.586264
0.585344
0.581366
0.567359
0.504669
0.571559
0.581375
0.58615
0.587545
0.586328
0.583266
0.578999
0.574264
0.569359
0.563899
0.559113
0.556844
0.557553
0.560317
0.563755
0.56827
0.574128
0.579916
0.584455
0.586388
0.58345
0.58165
0.561794
0.508052
0.581474
0.587669
0.587924
0.587458
0.585404
0.582564
0.578415
0.573742
0.569685
0.565988
0.561651
0.557632
0.555903
0.557718
0.562701
0.568931
0.575209
0.5812
0.58562
0.585901
0.583701
0.574986
0.537887
0.514857
0.584246
0.586547
0.587784
0.587448
0.585159
0.58204
0.57852
0.574081
0.570189
0.567109
0.564475
0.561596
0.558609
0.557536
0.56084
0.568094
0.5762
0.582902
0.586335
0.585684
0.581932
0.578897
0.509059
0.519361
0.582503
0.586578
0.587575
0.587439
0.585232
0.581704
0.578261
0.575341
0.571918
0.568555
0.565692
0.563423
0.561977
0.56128
0.562531
0.568078
0.576803
0.583942
0.586578
0.584145
0.583619
0.566412
0.560378
0.585564
0.587417
0.588073
0.587197
0.585196
0.581451
0.577242
0.574716
0.573084
0.570714
0.567759
0.564496
0.562176
0.562494
0.565389
0.570684
0.578491
0.585082
0.586554
0.583479
0.576118
0.553826
0.563148