/*--------------------------------*- C++ -*----------------------------------*\
| =========                 |                                                 |
| \\      /  F ield         | OpenFOAM: The Open Source CFD Toolbox           |
|  \\    /   O peration     | Version:  2312                                  |
|   \\  /    A nd           | Website:  www.openfoam.com                      |
|    \\/     M anipulation  |                                                 |
\*---------------------------------------------------------------------------*/
FoamFile
{
    version     2.0;
    format      ascii;
    arch        "LSB;label=64;scalar=64";
    class       volScalarField;
    location    "130";
    object      omega;
}
// * * * * * * * * * * * * * * * * * * * * * * * * * * * * * * * * * * * * * //

dimensions      [0 0 -1 0 0 0 0];

internalField   nonuniform List<scalar> 
404911
(
231.287
163.079
3434.41
1536.58
145.475
171.483
136.231
602.824
341.102
281.683
225.779
293.034
150.949
272.89
402.531
1100.66
215.057
143.609
156.736
270.062
375
183.025
566.305
388.128
157.609
926.209
233.263
130.011
180.196
971.722
202.939
119.144
236.237
350.081
193.158
108.968
246.171
402.413
194.804
86.3567
221.943
1002.95
193.697
83.3377
93.385
367.94
309.359
87.5402
95.9221
619.439
378.412
317.617
137.035
1323.57
326.378
567.175
9402.17
99.5175
303.433
204.251
170.867
102.215
153.478
47.4197
60.2384
115.602
88.1462
289.497
95.9122
73.9437
103.063
33.7211
118.316
69.5767
39.006
591.095
2262.7
225.39
54.3587
88.9118
52.7543
87.4748
33.3624
73.8167
64.4171
56.013
218.786
44.2065
1122.75
69.9152
98.5821
2950.47
56.668
66.3809
85.9514
62.4833
79.5547
71.743
44.7441
213.954
593.54
49.4409
65.5407
438.73
1147.16
403.415
168.953
593.782
262.798
200.736
143.774
140.993
131.015
141.357
2189.57
432.04
154.616
4451
506.919
111.576
115.509
115.855
119.286
177.066
1221.46
244.817
147.719
135.448
119.472
430.51
397.99
438.639
117.742
110.986
121.264
112.537
152.436
150.082
100.706
196.695
1093.28
239.417
139.349
121.387
116.175
114.254
120.879
116.181
435.062
378.809
117.097
107.598
125.965
1694.39
196.631
901.375
194.052
125.919
113.529
114.809
110.211
115.765
118.963
118.456
114.221
111.15
110.426
108.518
116.615
176.836
329.835
512.89
377.447
345.788
371.561
365.201
433.236
118.852
121.728
113.132
112.65
110.429
116.863
125.911
130.3
128.597
229.818
636.746
404.984
338.587
337.456
192.528
297.925
470.19
375.243
110.473
113.391
111.622
118.21
124.452
131.669
157.704
1071.13
902.363
195.848
513.929
267.336
220.868
212.946
208.254
367.112
268.282
321.126
382.633
383.477
106.597
117.13
121.357
123.939
145.009
414.384
771.678
515.207
213.591
151.83
93.5042
119.768
210.623
208.23
155.801
206.134
189.918
160.854
97.4007
121.822
121.187
140.441
224.203
1113.89
1124.86
209.404
84.3515
123.571
89.4426
85.7923
97.214
107.095
143.691
167.799
188.207
111.492
105.065
249.191
397.95
116.161
152.149
1021.32
378.811
109.31
72.52
145.412
84.0293
79.1491
77.8168
80.9118
84.163
95.9753
90.1367
94.1355
195.257
318.702
384.404
455.531
355.903
391.997
144.855
104.534
248.614
92.3063
92.7206
94.3877
87.6144
102.208
90.9034
79.31
81.3778
127.76
295.315
354.252
395.311
1594.74
288.195
125.622
100.317
78.8727
81.094
92.8938
85.7216
83.64
90.8133
100.139
106.653
101.011
80.039
152.3
322.72
362.768
179.531
938.63
892.482
796.169
234.043
139.412
51.3583
50.662
86.315
97.8595
82.7773
77.852
77.4857
81.0058
94.565
86.3473
104.058
293.706
132.942
462.707
1022.77
187.397
99.3014
130.721
90.0927
91.6576
89.8783
44.218
85.5643
75.6988
78.9945
45.7733
51.4102
93.8497
86.8442
93.7161
278.732
196.676
389.536
111.124
74.9838
58.1048
52.4965
87.7329
75.2233
79.6136
36.512
54.2276
34.4247
34.9775
43.5089
61.2542
101.177
141.773
131.5
915.728
1053.04
196.784
100.452
67.2113
41.6111
35.8842
41.8985
61.4276
50.356
53.0238
37.4176
67.5855
55.9648
70.3611
72.5734
80.6104
326.767
798.336
285.486
100.227
73.7677
86.8391
72.1012
51.3908
62.7607
46.8098
32.5122
34.6273
35.7246
46.9004
62.6359
82.1387
103.122
90.4678
207.12
625.405
1017.47
809.594
259.267
105.552
104.335
51.1211
64.1666
62.6364
48.8189
40.946
30.2295
32.3879
37.2348
55.8104
85.62
110.599
94.3848
359.091
363.075
119.675
126.163
83.7443
62.1075
48.6629
51.7204
58.0323
51.1262
64.3429
48.3338
33.7112
37.8111
53.0078
61.2261
87.5135
201.798
894.162
137.818
86.6583
100.365
56.752
53.1857
46.2486
43.779
61.337
77.407
68.9228
68.1964
52.9011
53.2846
53.6307
101.694
101.383
236.296
360.386
99.1381
109.45
79.9252
50.5601
39.9505
49.4543
42.9978
44.6588
61.6834
76.0172
65.1331
51.128
74.0991
71.1906
107.029
117.714
890.081
189.653
81.4778
63.468
46.4753
42.293
35.3379
36.3282
70.0583
31.9307
31.2231
47.3372
53.2988
70.56
89.019
121.866
113.59
210.57
1082.89
384.885
122.787
79.8278
54.5052
42.8998
35.9405
43.594
40.9484
32.8427
33.9806
30.2143
33.3628
39.7113
52.0196
112.519
70.8643
123.652
911.722
1039.98
171.87
79.4457
93.6768
52.5251
40.3758
34.9666
31.0746
29.658
39.278
28.4701
41.0739
43.4099
42.3474
52.9112
64.6908
97.0392
217.097
355.205
102.349
73.8281
50.9283
42.1327
37.1535
34.9232
31.9612
42.8765
29.3913
28.0281
29.0309
50.6801
63.1105
77.6719
94.6002
118.474
904.099
1049.8
168.824
77.3087
59.83
44.6995
37.8619
34.2832
32.8844
33.0235
31.6635
43.6188
39.5402
41.1478
40.1188
55.4976
66.6744
123.401
198.977
820.185
106.297
76.7679
55.0609
42.3808
35.8628
32.9168
31.964
30.9759
30.6365
30.4476
30.1049
32.5476
38.4142
48.8144
83.1772
137.711
247.94
205.159
86.3757
80.9246
56.854
42.0397
34.1806
32.0552
31.5309
31.1335
30.8584
30.5864
30.8655
33.2388
39.1583
58.8507
79.921
110.478
425.324
184.204
104.567
90.8172
53.912
40.1939
32.4471
31.3651
30.0392
32.5184
31.3332
30.0079
31.147
34.1781
44.6056
60.7228
82.9066
180.05
1025.85
1077.18
131.715
75.3445
74.2833
58.6844
38.8186
32.3725
29.4053
39.7314
38.3873
33.0005
32.3133
32.5765
34.9473
45.3653
93.0137
109.948
379.458
853.196
118.469
77.6351
52.0666
41.8632
35.6914
31.2092
30.1887
28.9108
37.8796
33.1435
30.8483
33.4167
37.8982
45.9381
87.39
113.342
970.671
227.07
100.369
79.2554
52.6214
41.0636
34.9741
30.5098
31.0018
31.9671
30.9637
29.4433
29.8473
32.8731
38.013
65.6107
70.4004
118.36
1008.34
214.273
87.9956
61.9882
48.3629
39.3982
44.3558
41.1143
28.3484
29.8951
31.3586
31.3818
33.5044
34.8446
40.3715
57.5212
78.4514
195.53
955.191
147.306
86.1935
60.7321
44.0705
37.2325
32.8467
40.51
38.9714
26.5798
28.3553
29.6518
31.8826
35.6941
44.0411
79.8588
94.4923
363.699
361.878
104.759
93.0408
72.106
44.0296
34.1831
30.7065
27.8211
38.7158
38.053
26.8545
27.6365
31.9354
35.1461
43.5035
74.0364
107.539
912.38
217.285
86.1368
61.0655
46.799
38.0048
32.711
39.9342
36.3519
38.6336
27.371
35.697
32.1147
30.8301
35.2164
42.3582
76.7172
145.98
1042.55
970.98
131.286
79.4896
61.5016
44.6701
36.4944
31.908
38.5658
34.5483
34.3546
35.7116
25.5086
35.1992
38.8539
36.821
47.7652
72.1594
170.866
965.079
122.649
76.9346
54.3793
42.9893
36.1032
31.5304
31.5734
37.5022
37.3007
34.1658
32.1431
26.1023
31.394
37.0931
50.3747
81.0723
336.186
951.45
122.312
78.0103
52.4806
42.8688
36.5422
31.745
30.3187
31.0806
27.2964
23.1749
30.1139
30.9698
31.3675
39.8943
63.6599
92.2389
809.743
949.459
119.922
77.4059
51.9327
41.4382
38.235
34.5549
31.4714
29.7413
29.3137
28.0584
24.5895
34.2537
39.4447
46.17
71.7077
144.404
1039.29
217.644
104.303
82.8294
53.9759
40.4351
35.5033
34.6306
34.1714
33.0499
28.7304
25.3579
25.9824
27.5673
43.8071
48.7036
79.2667
166.411
1075.63
197.84
87.3907
67.2418
53.3966
40.8716
32.5727
31.5088
32.2344
32.6301
31.8015
25.3233
29.2448
34.3205
38.0029
45.3409
82.6327
162.843
1025.97
126.08
92.4804
78.9255
52.3574
43.9925
33.4136
29.6182
29.3532
30.5842
32.8046
31.1097
29.3021
38.3113
45.4719
57.5915
79.2091
178.61
904.786
122.83
79.6491
54.4491
46.2285
41.6235
37.6227
29.9358
36.7009
34.8553
28.6019
29.7464
31.6925
34.9116
40.7555
63.9224
75.9431
190.648
971.192
122.974
78.9131
53.4751
42.911
38.0302
34.791
34.5152
29.5781
36.7908
35.5691
29.4839
30.817
34.7093
41.5719
66.1364
80.6056
207.256
972.535
126.733
80.3267
53.1217
42.0538
36.1625
31.7937
30.5955
31.7682
31.0167
29.2845
28.2084
30.9727
35.0725
45.5641
63.2854
89.6436
348.55
906.113
119.617
79.9135
52.5671
40.9313
36.398
30.8346
29.6912
29.9828
31.6106
31.0902
30.0005
31.5717
35.6461
45.68
79.6463
111.09
902.973
227.996
115.904
78.2347
51.3726
39.1498
33.8277
33.1381
29.7309
29.2108
29.1175
30.465
29.5634
30.9352
35.0392
44.5955
74.0565
112.46
985.249
232.449
111.595
75.5738
51.7307
38.4687
29.5705
29.0755
29.8336
25.4803
24.1055
26.0059
28.0689
31.0009
34.1209
43.5749
73.3525
110.368
951.693
1095.47
150.975
107.059
75.5223
47.5376
46.3632
38.8649
23.5782
23.6025
23.1048
24.7193
24.2034
27.6846
28.9378
33.6504
41.851
77.3224
120.859
936.755
981.175
117.458
79.379
91.1478
49.7729
35.7799
39.5562
30.6586
23.5597
22.5922
22.2145
21.2308
23.6163
34.6539
34.259
43.3274
70.6948
156.901
121.186
75.2416
48.6389
38.7397
33.3806
31.7899
27.3986
18.6318
19.9662
21.4425
19.4645
21.4548
28.1668
35.5923
51.9488
71.2581
165.135
913.171
117.658
71.8367
44.3613
35.6885
32.1848
29.9684
29.5209
25.7781
24.5629
18.485
17.3899
23.2763
28.3922
36.0555
56.4794
76.2038
204.139
950.201
106.632
67.1452
40.7711
34.3693
32.1222
29.4585
28.5367
28.2628
25.4249
23.9272
19.7584
22.5994
29.1542
35.5922
54.0531
80.976
345.895
1046.82
101.994
73.6158
41.9446
33.7274
31.3339
29.8326
27.1
24.7153
26.0866
24.8625
26.8283
28.94
30.5869
38.37
55.9865
86.7491
758.646
96.2354
96.5174
44.2213
32.512
30.4606
29.788
29.0132
22.9949
26.2998
27.7276
25.7069
27.8082
31.3559
40.7741
67.5367
103.686
860.524
661.479
117.066
43.2947
34.7449
30.1505
28.981
29.1804
29.8858
22.0246
24.1907
26.6425
28.4959
32.7672
42.2512
75.7423
107.389
959.177
2075.18
253.165
81.3841
55.421
33.4642
31.7433
30.2628
28.0509
27.519
27.8662
23.6038
29.2243
28.7302
33.0773
46.4591
71.6312
123.75
1007.85
196.227
61.0458
63.3984
44.692
31.042
31.157
30.2753
28.1595
23.6896
27.7747
29.3844
26.4252
29.1837
32.7437
46.0032
75.6561
184.274
181.975
82.6321
50.5975
34.0598
30.4737
30.5273
29.0798
29.0805
25.9272
27.6508
25.3909
34.2296
29.965
35.0775
49.5056
77.4175
199.787
1089.38
154.08
72.5111
51.8077
47.7099
43.4264
41.2274
38.3804
27.6047
24.8615
21.4812
20.7524
24.5953
29.4614
37.8243
63.2066
90.8536
758.273
862.187
108.906
63.5755
37.4307
44.3709
44.5093
73.7896
56.4289
33.567
21.5739
26.3459
28.8433
26.4699
28.8526
44.5008
74.8262
99.1337
887.416
734.892
79.9696
114.051
59.6922
40.8533
38.566
37.3837
47.0054
77.9248
27.7442
23.9437
28.2042
34.2678
37.3823
49.9151
84.4985
103.019
899.336
350.506
72.319
74.9405
46.1968
36.7554
34.3642
32.9507
23.5513
31.7785
54.7148
32.9998
36.5665
38.8851
40.0875
48.1852
92.2301
112.752
937.519
921.751
161.713
74.8359
53.7382
46.3329
33.5209
22.6606
14.3436
22.8035
43.1406
35.0732
39.7989
42.1632
41.3769
32.1623
48.945
74.6533
232.444
945.715
811.634
89.4101
93.7006
53.423
44.5089
34.2192
15.7004
7.30073
12.4044
31.6862
42.9472
29.4629
30.4813
34.4461
38.4851
45.6649
80.8695
118.724
973.81
145.731
72.6242
49.9766
42.4184
30.215
14.4094
7.47637
9.49672
17.6234
31.7877
27.904
31.6485
34.4315
39.2808
63.9062
67.7362
162.74
1096.87
178.72
78.1625
73.7702
46.428
27.8852
9.40389
8.99058
16.5566
17.3507
26.8732
33.2991
31.5893
34.2433
39.1683
61.2441
75.7737
199.533
188.369
85.9356
81.8473
62.5587
29.8225
11.8034
7.06826
13.0909
23.9159
23.3341
32.646
29.5312
34.113
38.202
61.3445
80.0203
343.173
162.163
157.834
97.2922
67.1863
36.1101
9.82533
7.11077
10.2739
15.7841
23.1598
29.7794
28.497
34.1586
43.731
57.9459
84.7852
774.752
860.868
101.667
86.528
77.554
52.5287
34.3845
17.6194
8.97643
13.6867
20.2816
30.3586
34.7149
38.5896
36.9789
45.8568
79.8131
110.341
876.969
813.4
107.604
95.4563
72.3529
54.3868
30.7117
10.8696
10.6739
15.9706
26.9541
34.16
40.3437
46.0065
40.0511
53.0339
73.2572
177.426
757.015
90.2699
65.5151
63.0936
51.2954
32.8437
14.3783
8.87966
13.6117
26.1764
36.7417
39.6846
33.3555
39.1449
55.2428
77.5608
210.511
777.896
93.7488
69.379
64.2363
56.2096
30.2979
10.2609
12.0651
22.7551
33.3436
36.5574
40.5602
34.3845
39.0413
54.7705
81.9263
210.978
799.614
102.856
73.4005
61.7621
58.8313
38.1503
12.7629
12.5143
20.4253
33.1178
37.7572
40.4839
33.2245
39.8808
59.1435
88.6856
765.821
813.83
107.884
76.2596
68.0266
61.8892
42.5356
31.5336
17.8549
19.6394
35.2478
41.2072
42.6015
32.6423
39.036
67.8651
108.525
870.259
229.201
109.823
112.149
72.8851
51.1528
31.965
27.7501
31.216
32.9083
34.6793
38.5136
30.395
32.6164
39.0246
67.4485
111.017
944.438
278.458
221.12
61.5363
38.0781
25.6081
11.7315
18.4097
34.2038
37.239
39.0736
31.8796
32.8539
43.8142
73.6467
146.061
1077.51
259.306
121.705
87.556
40.4252
12.299
9.82757
13.2674
27.9965
36.3733
38.595
40.7783
34.4326
43.7758
72.7123
181.877
217.685
186.964
113.298
91.5585
53.9205
12.9579
9.96636
15.0589
24.8606
36.3133
38.2521
31.0984
39.5032
55.3479
72.9069
199.904
238.302
93.302
89.3187
101.333
75.2973
36.512
14.223
16.5085
32.2428
40.6354
42.6146
48.0772
39.419
75.2835
93.4761
747.441
243.7
97.2905
98.8876
95.6661
89.8277
86.2634
48.9917
42.3213
40.347
47.2432
44.8934
57.1246
72.3501
113.615
120.542
941.242
1085.75
219.355
114.46
72.7774
88.4071
90.8103
92.6245
77.3889
62.0451
86.8089
98.6326
78.0136
49.9823
77.7313
129.223
387.352
1131.98
148.647
89.0672
91.8483
46.4736
81.7282
83.9624
76.6751
47.7384
53.8553
69.3587
82.2201
88.9487
105.353
192.779
164.987
899.007
140.889
99.0415
64.8817
43.6173
68.7322
66.1466
72.3848
66.3755
55.3281
79.2204
86.8123
92.3911
105.088
257.214
713.893
217.04
103.779
371.5
153.651
66.4041
45.2785
58.2528
52.5475
51.8938
50.8142
50.2762
51.614
72.527
102.617
219.676
3980.3
220.64
456.888
186.395
90.1233
93.8697
79.703
62.2975
86.3953
86.4066
77.1761
48.46
68.7781
84.61
116.305
207.524
696.113
959.426
533.016
235.047
88.0741
74.7557
84.1725
61.2269
56.925
73.5543
79.4741
85.335
84.2395
133.345
130.602
239.119
1077.32
125.363
351.7
130.326
85.5438
69.2071
60.9172
69.6329
83.6963
86.58
81.3824
86.648
83.7798
128.057
160.778
1306.6
1068.95
143.144
96.5996
242.479
217.923
81.1633
51.426
58.5326
80.3418
82.8677
88.8432
95.7434
104.379
99.889
232.685
1139.8
481.551
139.898
103.666
379.425
236.732
103.761
63.1317
70.7306
81.658
83.1786
85.2941
116.591
79.1323
101.331
236.973
1026.84
450.197
368.941
276.99
217.127
80.4148
77.0715
79.3809
94.5086
96.7952
144.528
97.5341
150.533
1031.48
602.161
417.117
352.282
302.257
175.478
222.358
84.5369
83.9197
89.919
114.725
78.4259
104.117
224.241
1046.33
122.812
94.5164
393.29
291.503
108.524
233.68
331.242
95.717
99.4279
133.996
98.966
128.709
422.546
1101.17
134.15
101.126
398.72
372.867
198.637
108.387
161.089
248.165
252.933
256.551
109.58
143.95
1079.79
1025.41
129.632
438.152
387.52
400.365
280.467
157.151
181.502
114.75
252.55
397.532
113.556
153.043
1166.57
1090.3
129.416
450.696
391.572
400.005
371.117
156.169
130.361
89.7436
163.457
400.597
114.696
223.187
1218.71
1041.68
140.222
107.928
414.458
375.417
408.2
509.955
126.271
114.792
255.263
116.168
130.981
228.05
1322.8
1319.31
1030.29
114.149
105.338
390.351
389.091
505.936
310.251
154.035
257.67
409.435
139.032
250.379
110.247
417.989
376.11
386.025
99.9248
409.09
418.171
445.177
422.818
114.781
99.579
369.994
443.772
121.663
139.637
202.176
1059.23
6165.08
490.33
98.0567
386.41
426.967
151.251
292.913
2699.9
1979.64
391.033
664.294
138.982
163.406
1052.42
363.861
653.505
138.182
154.506
478.447
715.649
490.036
162.052
135.85
180.567
1045.71
1044.33
196.287
1830.38
704.457
429.243
238.62
115.694
111.771
142.022
150.379
553.374
190.077
125.135
273.71
578.077
1380.22
1195.13
6311.11
377.91
1332.12
460.198
442.287
1270.74
500.651
317.152
227.965
206.723
184.984
173.214
174.426
309.22
1288.52
507.254
308.677
224.081
211.196
190.837
173.609
162.555
165.102
170.002
172.217
172.448
189.15
213.344
224.91
1180.02
460.802
231.448
207.319
185.735
177.993
170.048
161.7
158.859
153.461
153.45
159.539
155.401
160.245
181.79
199.35
225.124
243.78
271.462
394.4
475.391
942.661
865.545
418.455
205.827
184.243
181.115
169.847
159.075
150.824
146.525
148.608
151.517
151.368
151.019
135.961
456.119
460.686
163.646
183.182
186.442
216.526
237.451
288.623
617.774
444.149
235.906
175.378
163.627
146.785
140.82
145.21
145.139
141.39
131.839
131.731
140.196
150.854
151.255
149.855
143.419
131.424
414.895
468.467
139.343
165.241
181.563
212.963
267.669
1282
324.322
132.226
104.776
99.6373
126.918
136.42
334.369
475.763
557.546
105.361
115.852
121.334
116.791
129.62
131.607
145.936
145.309
130.477
119.41
397.591
462.264
141.726
167.107
210.728
528.072
1383.27
306.092
134.499
111.641
70.0364
75.838
75.807
96.78
122.164
114.205
107.613
187.45
101.803
115.156
319.747
141.519
536.84
129.977
143.851
145.774
138.909
443.332
461.306
180.926
483.134
1148.72
245.957
188.874
100.368
47.4075
45.8138
48.7249
77.3854
53.418
70.6401
118.727
111.936
97.6772
96.9926
173.453
284.031
140.526
134.794
352.707
144.555
151.063
147.725
146.646
158.841
394.804
328.564
1243.36
242.938
159.351
129.554
98.9405
43.1086
42.0537
42.7415
46.698
61.5889
52.7334
61.5611
113.567
115.518
103.222
104.066
84.5902
102.183
106.24
161.176
119.711
149.24
160.669
248.017
473.049
976.645
305.368
116.894
112.215
127.178
89.5479
92.4788
52.7599
44.5782
41.7582
58.5182
54.7336
40.851
40.0399
43.1677
45.7215
50.0143
55.8054
86.5957
86.9194
165.034
140.363
152.337
152.404
166.55
420.095
995.517
167.845
96.9725
131.569
99.8476
73.0404
79.5424
41.6215
51.7812
50.4232
51.852
52.2035
52.2212
49.572
52.1501
43.5038
41.567
42.7038
47.2905
58.447
146.415
113.435
489.66
465.074
580.751
4405.86
677.108
1266.76
231.223
112.328
74.0693
62.6291
52.7726
55.7897
47.8308
49.0035
52.013
53.2913
53.9101
52.5201
51.6067
54.0907
55.8463
44.5791
47.9329
52.1905
61.8775
81.4727
96.1073
477.311
1543.72
1170.6
260.808
108.596
65.4644
54.167
59.8334
52.4856
39.157
37.2912
42.1772
46.4026
52.2253
51.1422
48.4337
49.6181
54.0011
57.3522
57.8781
56.8046
62.313
74.7653
89.2056
139.428
351.272
365.333
130.422
160.418
126.16
100.366
54.8395
45.0373
62.4713
43.3109
38.1404
35.0311
31.5511
34.2363
30.9376
40.5811
37.9273
39.645
49.139
58.2428
66.414
74.3033
92.412
84.0081
130.393
372.352
344.163
135.292
101.174
98.4174
74.2529
67.6847
57.482
51.6613
44.0596
48.134
36.4538
35.4924
37.701
27.3031
27.9799
35.6937
36.4223
41.6316
46.9003
59.1869
78.5689
94.3222
192.276
114.658
355.246
309.208
115.089
124.971
104.641
77.6951
64.2724
58.5219
51.3443
44.4926
39.2265
36.9319
44.6151
38.1188
41.6326
30.7091
28.3637
33.1141
37.372
46.7478
58.4259
67.3735
92.2516
131.177
199.888
728.491
1057.47
302.258
113.91
108.934
78.7884
71.326
65.7281
59.2088
49.3599
39.6925
38.0298
33.6458
32.6763
34.628
44.156
44.0801
41.6554
37.6952
35.6008
34.8791
31.5645
53.1889
77.0503
102.791
189.985
317.157
1037.84
298.873
108.559
103.372
74.1784
61.2647
53.8466
47.8535
44.9066
35.2264
29.6824
28.7123
29.0097
28.2593
28.8304
32.1612
33.8243
40.3182
46.6975
46.3086
33.2671
35.7317
52.0074
86.7725
188.759
347.915
927.179
190.544
104.408
108.082
72.7164
56.0439
46.2776
38.9986
33.85
30.0831
29.0436
26.3529
26.4796
26.9188
26.9504
26.7405
26.6434
26.8068
27.6795
34.0382
48.695
47.2689
52.4599
93.0636
109.175
242.343
1229.57
1123.62
203.161
98.6
78.6977
64.9057
53.4274
42.8109
33.4009
28.7886
26.6773
25.5543
25.4608
26.1143
25.7982
26.821
27.6169
27.724
28.4771
29.4732
33.62
30.17
42.3467
55.9092
82.4615
139.535
114.855
1403.24
323.889
103.926
108.057
71.383
54.2086
44.7803
32.8306
26.6138
24.4422
24.1039
24.5117
24.854
25.5083
26.1335
26.5303
27.3609
28.3249
30.6715
37.972
47.1827
45.6154
58.1553
81.129
113.442
117.963
336.617
367.854
130.093
91.0254
69.7118
57.293
48.1364
38.8265
27.1681
22.1153
21.3856
22.4629
23.7336
24.8446
25.7401
26.8072
27.7353
28.6223
29.7157
32.095
39.7118
50.4862
57.7183
68.1577
101.794
116.217
351.771
897.694
169.59
90.093
82.3747
62.2945
50.6948
40.5102
30.7646
23.9824
19.4112
17.6122
17.8041
20.1388
23.2564
24.9325
26.3076
27.701
29.2834
31.5195
34.8758
39.6356
55.094
70.1908
87.7548
94.676
304.032
315.94
103.336
76.7001
58.4201
48.9342
38.0247
26.9483
20.0789
17.7961
16.2681
14.7815
14.3639
15.71
18.7124
22.0655
24.5304
26.3586
28.5881
31.7974
36.9328
45.2334
53.7137
88.4897
137.815
200.595
365.828
115.696
106.28
67.7414
50.1415
39.1359
27.5155
17.4293
13.0188
11.8966
12.146
11.6464
11.0746
12.0452
14.7542
18.7703
22.11
24.7733
27.8629
33.2841
41.3193
51.9956
64.41
85.9475
109.711
719.468
840.587
155.037
87.7347
76.9842
51.4946
39.5951
30.0909
22.2858
13.7032
9.5995
8.18267
8.29232
8.90112
9.34367
9.97942
12.2983
16.5897
20.8807
23.9433
27.9995
34.5613
49.9726
62.612
80.8565
94.2503
308.986
841.544
164.705
93.8314
83.7054
56.1226
42.7545
31.2554
23.5389
17.6539
12.7474
9.18267
7.53369
6.78643
6.93337
7.7979
9.50844
12.0211
15.8894
20.8296
26.6443
32.5563
44.8672
55.7434
85.1557
128.043
173.914
973.221
318.362
106.363
83.9965
58.6728
48.3057
35.6333
25.674
19.4634
15.3587
11.6861
9.30506
8.22827
7.61482
7.03801
7.49904
9.67667
13.8801
18.895
23.9599
33.3566
46.3826
61.5846
86.0314
128.858
156.886
809.379
686.549
134.566
107.113
67.0077
50.9437
38.9854
28.96
21.8848
17.2167
14.0559
10.9205
9.52986
9.44093
9.45585
8.61278
8.41131
10.2239
14.9006
22.3553
32.1166
41.5
53.6721
88.568
128.887
153.437
798.704
176.361
88.411
64.4195
51.6958
43.1781
33.7187
21.6156
17.5183
15.5906
13.6734
11.2817
9.86177
10.1504
11.3146
11.4402
10.5734
11.9108
16.7348
25.5993
35.869
47.0818
63.2596
84.4353
137.685
793.272
682.885
104.287
73.5101
52.7735
41.9583
33.2094
26.8579
21.0149
15.3798
14.0284
13.0955
12.0926
10.9116
10.9142
12.4989
15.0724
15.4463
15.5132
22.0508
31.88
44.5705
59.3785
84.9436
127.675
291.433
185.364
88.3354
62.1301
47.1069
34.7616
25.5336
19.9986
17.0733
14.8804
12.422
12.2902
11.8728
11.9852
11.6615
12.7645
16.2743
22.0487
25.2316
29.5025
44.1221
51.8988
79.257
123.459
160.598
831.984
845.834
134.862
80.6417
56.7007
43.2282
29.6355
21.3085
16.6195
14.2524
12.9304
11.8817
11.2941
11.8282
12.058
12.3178
12.9499
15.6607
20.2146
27.1925
36.105
48.0082
62.5104
78.5073
101.133
741.69
253.316
104.075
81.2515
58.1165
39.9569
26.7287
18.8649
14.5237
12.6017
11.3409
10.6926
10.766
11.4549
12.8088
14.2658
15.9043
17.4526
22.0528
28.644
38.0124
51.5697
72.3455
117.082
179.071
1103.19
638.93
95.0652
70.7251
55.9914
47.5177
36.1907
20.7861
15.1251
12.1736
10.5875
9.57749
9.13325
9.42998
10.7255
12.3841
14.7718
18.7742
23.8573
28.2962
34.4981
42.0087
53.8395
97.2654
151.35
795.726
146.779
102.515
63.6922
51.1762
41.7584
32.7333
22.1595
13.0859
9.96022
8.81047
8.2515
8.06146
8.28766
9.48211
11.9494
14.5554
17.9338
23.4449
30.6403
40.0121
51.6134
69.4148
86.2629
319.214
622.04
97.4517
68.537
49.7099
40.9319
33.4879
28.2256
21.8325
14.5373
9.99328
8.03184
7.43418
7.57905
8.07813
9.11955
11.4243
15.1021
18.6585
23.8537
31.3213
40.7327
54.1928
92.9521
146.96
893.676
172.598
83.4861
57.6848
46.1765
36.553
29.5667
23.545
18.2877
14.6515
11.6203
9.27415
8.14278
8.01545
8.69439
9.92311
12.039
15.5277
21.001
25.983
34.0107
45.4298
66.156
99.039
300.153
629.329
95.195
68.3782
51.1501
40.2808
31.46
24.8034
19.7009
15.4648
12.5217
11.4599
10.9801
9.95318
10.0022
10.8735
12.4351
14.5172
17.584
22.4992
30.2149
39.2156
52.8999
70.2501
106.185
786.382
171.772
82.0165
57.0014
44.8738
35.7121
27.7403
21.7183
17.2895
13.9916
11.4094
9.84726
9.73958
10.4095
11.1563
12.6307
14.9555
19.0774
23.0505
26.4298
33.5217
45.985
70.3118
106.932
180.369
647.117
96.4771
68.8358
49.526
39.0626
30.0291
24.0462
19.3647
15.7911
13.1417
11.0406
9.51038
8.73505
9.2198
10.789
13.0563
15.6384
19.4679
25.2069
32.1247
39.3418
55.3954
71.4907
96.7203
748.921
178.617
80.8607
58.0234
46.1183
34.6619
26.0302
20.5538
17.1131
14.6913
12.9775
11.4161
9.78706
8.844
8.93697
10.3043
12.9826
16.6582
19.9752
24.882
33.5916
44.8561
55.8874
111.727
173.743
143.322
104.845
59.7347
43.9865
31.7285
23.2248
18.2612
15.3834
13.689
12.55
11.7867
11.054
10.0709
9.77599
10.8321
13.5216
17.9516
22.546
27.0115
35.6384
51.8751
72.3081
85.7634
615.795
668.698
91.0021
65.9387
50.5384
40.2831
30.0493
21.7125
16.6871
14.1487
12.8791
12.1316
11.6098
11.3571
11.3951
11.4731
12.3526
14.669
18.6932
25.4451
31.1616
37.6684
54.858
110.033
152.268
908.412
635.362
97.3374
60.5356
46.2645
39.032
29.6737
20.8356
15.5008
13.0528
12.0147
11.6042
11.4448
11.4047
11.6128
12.2516
13.5194
15.8877
19.587
24.374
31.3582
40.2141
54.0532
112.149
569.91
283.336
91.4919
58.028
44.0246
35.273
27.8334
19.452
14.3702
12.0463
10.9918
10.7113
10.9672
11.3412
11.77
12.581
14.1279
16.8104
20.8093
26.3522
33.7455
46.2259
66.281
112.566
701.595
145.244
98.6112
57.5278
41.2385
31.7512
24.8878
18.6481
13.8544
11.4854
10.3544
9.75616
10.0046
10.9341
11.8689
12.8529
14.5047
17.3677
21.878
28.6045
38.8478
49.926
89.5928
164.951
642.821
104.332
75.3949
48.8823
37.5924
28.6396
21.7806
16.78
13.2538
11.2816
10.3603
9.85403
9.6022
10.2165
11.5994
13.0896
14.9646
17.8313
22.4461
30.1722
41.1512
69.4915
85.6811
639.849
297.06
90.2289
57.0293
42.573
33.5809
26.5408
20.3239
15.415
12.3202
10.8008
10.2875
10.2493
10.2782
10.5312
11.4564
13.0949
15.3348
18.6944
23.2614
30.651
44.8875
69.029
118.166
886.427
138.789
101.351
58.473
42.265
31.6927
24.1526
19.0383
14.8665
11.6536
9.90801
9.53345
9.89097
10.5111
11.1411
11.9938
13.346
15.5432
18.9801
24.658
33.0204
47.7901
80.0069
156.693
677.105
93.9496
65.8792
47.3481
38.6769
29.9831
22.5271
17.1526
13.6022
11.2048
9.39472
8.48903
8.74721
9.72874
10.9315
12.2284
13.806
16.0989
19.6385
26.0732
37.476
49.8003
91.2533
293.961
290.298
87.4967
55.5019
45.3736
35.939
27.9899
21.3785
15.9378
12.2372
9.95555
8.68366
8.01827
7.79632
8.47474
10.0232
11.8792
13.8512
16.3927
20.3373
26.6545
39.7229
68.7681
84.6814
622.832
184.355
74.9004
51.4172
39.9508
31.5095
24.9097
19.3831
14.902
11.4384
8.92877
7.51497
7.12081
7.36226
7.81327
8.96839
11.1562
13.7059
16.574
21.0329
29.1833
39.8187
70.3196
124.009
902.512
149.937
106.157
55.7171
38.8534
30.192
23.4898
18.1407
14.1558
11.3267
8.93257
7.05086
6.18987
6.39868
7.38226
8.79558
10.8299
13.689
17.3013
22.6581
31.3016
48.6537
68.3199
136.452
840.212
98.2345
63.9421
46.5628
36.2633
28.0576
22.3918
17.4538
13.7515
11.4021
9.6803
7.95101
6.46549
5.85272
6.48749
8.31565
10.9254
14.1824
18.6491
25.7977
37.2221
50.6344
100.489
280.246
654.991
90.7327
67.9521
47.5378
36.8809
28.1121
21.7847
17.356
13.8447
11.631
10.1463
8.97375
7.83817
6.77188
6.43701
7.69748
10.6537
14.742
20.4514
29.5631
41.3207
71.7274
88.1266
661.926
602.603
93.7854
60.4923
48.5018
37.8287
28.3717
21.3789
16.9594
14.4297
12.4581
10.8213
9.50877
8.50837
7.92397
7.72474
8.32605
10.7773
15.5249
22.3013
32.5138
49.3391
66.0584
133.769
187.692
76.7652
52.1314
41.7549
35.9133
28.3371
20.9272
16.0451
13.8989
12.9659
11.815
10.4201
9.015
8.07288
8.17015
9.35453
11.8716
16.6611
24.4474
35.0307
53.02
97.9467
177.437
179.489
74.0608
50.8306
42.4602
33.7139
26.8318
20.5829
15.5635
13.0792
12.3073
11.9268
11.1731
10.1473
9.04897
8.53408
9.62281
12.5291
17.437
25.692
38.3616
51.7203
104.422
575.506
152.063
105.269
56.5424
39.1748
30.9386
25.6986
20.206
15.6558
12.7913
11.4076
11.0781
11.1233
11.0154
10.7252
10.6053
11.2492
13.8866
18.7168
26.3853
38.4766
67.6394
101.816
611.545
149.71
73.9236
49.359
37.8176
29.2298
23.2775
19.0788
15.522
12.9267
11.0563
10.0212
10.077
10.6464
11.1798
11.8586
13.1956
16.029
20.8835
28.0948
40.5491
60.5772
111.851
745.232
142.045
72.9812
49.6676
38.1089
29.0114
22.4419
17.6483
14.536
12.7265
11.3857
10.1645
9.44596
9.80355
10.8302
11.9169
13.5958
16.6679
21.6375
27.8929
39.769
65.1846
91.7272
846.323
813.812
103.801
68.1792
49.5413
38.6052
28.9251
21.8299
16.9118
13.6536
11.975
11.1119
10.4877
10.0239
9.8968
10.5014
11.82
13.7395
16.9394
21.8969
28.5387
37.7055
61.3088
120.389
631.059
101.773
79.6503
51.5169
38.6645
28.3397
20.9647
16.1857
13.2128
11.4538
10.5695
10.1797
10.081
10.2212
10.7155
11.8674
13.8363
17.0138
22.2376
30.299
39.6593
63.4395
128.142
621.623
94.8577
56.7522
43.0237
35.0962
26.6381
19.4807
14.923
12.4961
11.0929
9.93568
9.32227
9.35728
9.87782
10.639
11.8377
13.8248
16.9712
21.8389
30.3772
44.5119
61.868
135.488
292.237
86.8802
54.6289
41.6133
32.7492
25.2545
18.4426
13.4085
10.8076
9.6537
8.77642
7.81538
7.57115
8.35365
9.77137
11.4189
13.5678
16.9018
21.7744
29.6756
44.8686
80.5916
180.27
184.118
75.0711
50.9597
39.2965
30.8796
23.8484
18.169
12.9573
9.34747
7.50026
6.68959
6.19693
5.76483
6.20478
7.89944
10.4092
13.1129
16.7032
22.0481
29.6615
44.1996
82.1248
547.482
187.856
75.8524
50.8014
38.3977
29.2685
22.5022
17.2979
13.2918
9.82431
6.82671
5.06366
4.49085
4.57798
5.16854
6.58732
9.23334
12.6306
16.5857
22.4732
30.6936
44.7988
83.7649
582.216
155.171
75.0181
51.1911
37.8809
28.2185
20.9776
16.1445
12.904
10.5697
8.22277
5.5639
3.99396
3.72205
4.39649
6.16921
8.97405
12.617
16.9402
23.0731
33.1756
46.033
86.0484
611.009
142.568
72.3555
47.142
35.2674
26.3314
19.5942
15.1809
12.4698
10.6552
9.09544
7.23361
5.05174
3.90632
4.0855
5.63556
8.63087
12.6325
17.5931
23.8328
35.1181
55.8722
85.3308
677.364
148.319
71.3817
44.2299
31.8596
23.5578
17.903
14.3244
12.1087
10.4692
9.13753
8.04424
6.85793
5.387
4.88816
5.90203
8.63754
12.572
17.7133
25.1872
35.8249
60.6349
117.628
868.735
139.541
74.073
45.5502
30.072
21.0945
16.2263
13.5499
11.8276
10.3521
8.82251
7.55705
7.0959
7.01781
6.80666
7.41274
9.60705
13.2579
18.0472
25.2432
37.4148
62.5814
127.905
801.654
93.5547
66.0882
47.3941
28.0574
19.1142
14.8778
12.8156
11.542
10.3643
9.04668
7.40839
6.30632
6.57966
7.79882
9.19417
11.2093
14.4414
18.9865
25.43
36.5112
63.0037
130.213
618.611
114.486
69.5982
39.4063
23.385
15.3762
13.2826
12.1506
11.194
10.2343
9.26201
8.23446
6.90113
6.25025
7.27952
9.5348
12.1998
15.5483
20.1163
26.9638
36.1895
59.8524
135.963
625.813
92.5685
54.3893
36.9482
22.741
13.648
11.1026
10.9025
10.671
9.96041
8.95194
8.0862
7.65808
7.35015
7.63485
9.46331
12.374
16.1602
21.249
28.6832
41.3304
61.1825
127.218
299.164
87.597
52.2405
37.0212
24.6293
14.716
10.5608
9.75454
9.82089
9.49026
8.56855
7.38578
6.79459
7.26504
8.4007
10.0047
12.5738
16.4519
22.4497
30.6137
44.5566
76.2222
155.907
175.398
76.4718
51.1852
36.4524
25.3965
17.0455
11.5076
9.21047
8.6803
8.68657
8.18311