/*--------------------------------*- C++ -*----------------------------------*\
| =========                 |                                                 |
| \\      /  F ield         | OpenFOAM: The Open Source CFD Toolbox           |
|  \\    /   O peration     | Version:  2312                                  |
|   \\  /    A nd           | Website:  www.openfoam.com                      |
|    \\/     M anipulation  |                                                 |
\*---------------------------------------------------------------------------*/
FoamFile
{
    version     2.0;
    format      ascii;
    arch        "LSB;label=64;scalar=64";
    class       volScalarField;
    location    "130";
    object      p;
}
// * * * * * * * * * * * * * * * * * * * * * * * * * * * * * * * * * * * * * //

dimensions      [0 2 -2 0 0 0 0];

internalField   nonuniform List<scalar> 
404911
(
4.01283
4.01274
4.01405
4.01416
4.013
4.01294
4.01394
4.01424
4.01423
4.0142
4.01609
4.01386
4.01357
4.01357
4.01346
4.01389
4.01624
4.01559
4.01476
4.01425
4.01655
4.01616
4.01556
4.01719
4.01676
4.01348
4.01859
4.01776
4.01796
4.02142
4.0206
4.01944
4.01853
4.01963
4.02244
4.02154
4.02026
4.02441
4.02372
4.02309
4.02219
4.02544
4.02497
4.02434
4.02367
4.02237
4.02602
4.0255
4.02506
4.02452
4.02697
4.02652
4.026
4.02528
4.02722
4.02698
4.02965
4.01145
4.01226
4.01197
4.01426
4.01406
4.01611
4.01531
4.01468
4.01695
4.01661
4.01592
4.01755
4.01705
4.0189
4.01802
4.01747
4.02043
4.01967
4.01893
4.018
4.02204
4.02141
4.02352
4.02286
4.02484
4.02422
4.02353
4.02597
4.02536
4.02701
4.02648
4.02589
4.0275
4.02696
4.02955
4.03019
4.02965
4.03204
4.03145
4.03082
4.03336
4.03277
4.03214
4.03455
4.03394
4.03338
4.03456
3.92302
3.92246
3.92178
3.92698
3.92656
3.9243
3.92448
3.92339
3.92274
3.92208
3.9211
3.92914
3.92839
3.92691
3.92565
3.92463
3.92395
3.92325
3.92253
3.91985
3.93215
3.93117
3.93044
3.92957
3.92883
3.92841
3.92751
3.92644
3.92526
3.92453
3.92378
3.92298
3.92207
3.9207
3.92002
3.91934
3.93453
3.93347
3.93248
3.9315
3.93065
3.92996
3.92925
3.92865
3.928
3.92709
3.92598
3.92516
3.92444
3.92349
3.92015
3.93706
3.93599
3.93499
3.93377
3.93269
3.9318
3.931
3.93035
3.92969
3.92895
3.92825
3.92747
3.92648
3.92559
3.92492
3.93836
3.93774
3.93668
3.9356
3.93437
3.93322
3.93219
3.93125
3.93064
3.92993
3.92922
3.92852
3.92777
3.92685
3.92591
3.9253
3.94107
3.93972
3.93871
3.93802
3.93717
3.936
3.93499
3.93382
3.93262
3.93159
3.93097
3.93025
3.92952
3.92882
3.92807
3.92719
3.92636
3.94423
3.94321
3.94225
3.94143
3.94036
3.93934
3.9385
3.93758
3.93662
3.9354
3.93424
3.93302
3.93209
3.93137
3.93063
3.92985
3.92917
3.92849
3.94573
3.94495
3.94378
3.94286
3.94197
3.94109
3.94011
3.93898
3.93807
3.93701
3.93609
3.93463
3.93335
3.93259
3.93185
3.93103
3.93046
3.9296
3.94816
3.94731
3.94639
3.94546
3.94444
3.94342
3.94252
3.9417
3.94073
3.93958
3.93858
3.93765
3.93663
3.9354
3.93408
3.93318
3.9324
3.93173
3.94958
3.94878
3.94796
3.94703
3.94603
3.94499
3.94404
3.94312
3.94216
3.94116
3.9402
3.93923
3.93825
3.93727
3.93637
3.93498
3.93359
3.95188
3.95105
3.95009
3.94935
3.94858
3.94752
3.94661
3.9457
3.94478
3.94381
3.94273
3.94168
3.94068
3.93981
3.93883
3.93779
3.93688
3.95396
3.95307
3.95213
3.95164
3.9508
3.95001
3.94908
3.94804
3.94715
3.94633
3.94543
3.94444
3.94328
3.94211
3.94124
3.94025
3.93923
3.93833
3.95564
3.95486
3.95432
3.9534
3.95259
3.95217
3.95134
3.95052
3.94964
3.94872
3.94787
3.94686
3.94589
3.94483
3.94374
3.94257
3.94161
3.94089
3.95757
3.95681
3.95613
3.95565
3.95477
3.95374
3.95306
3.9525
3.95181
3.95092
3.95003
3.94918
3.94863
3.94765
3.94645
3.94523
3.94433
3.94308
3.95888
3.95804
3.95724
3.95652
3.95593
3.95508
3.95416
3.9535
3.95278
3.95224
3.9512
3.95024
3.94955
3.94915
3.94839
3.94706
3.9458
3.94465
3.96098
3.96018
3.95917
3.95844
3.9577
3.95689
3.95616
3.95548
3.95472
3.95408
3.95337
3.95275
3.95184
3.95077
3.94978
3.94939
3.94873
3.94758
3.96239
3.96138
3.96055
3.9598
3.95891
3.95807
3.95747
3.95654
3.95574
3.9552
3.95467
3.95408
3.95328
3.95248
3.95151
3.95056
3.94972
3.94916
3.96413
3.96352
3.96292
3.96204
3.96113
3.96045
3.9596
3.95869
3.95791
3.95696
3.95608
3.95555
3.95502
3.95443
3.95384
3.95298
3.95207
3.95122
3.96544
3.96464
3.96433
3.9636
3.96278
3.96187
3.96107
3.96029
3.95932
3.95844
3.95753
3.95654
3.95596
3.95534
3.95477
3.95413
3.95329
3.96715
3.96642
3.96581
3.96511
3.96463
3.96407
3.96331
3.96252
3.96172
3.96086
3.95996
3.95899
3.95802
3.95703
3.95643
3.95578
3.95513
3.95448
3.96811
3.96752
3.96684
3.96622
3.96561
3.96509
3.96444
3.96379
3.96317
3.96242
3.96152
3.96064
3.9596
3.95858
3.95769
3.95694
3.95627
3.95557
3.96932
3.96859
3.96804
3.96746
3.9667
3.96594
3.96538
3.96487
3.96427
3.96375
3.96317
3.96229
3.96136
3.96034
3.95932
3.95853
3.95755
3.9569
3.97098
3.9703
3.96973
3.96912
3.96854
3.96801
3.96738
3.96653
3.96571
3.96513
3.96456
3.96403
3.96348
3.96293
3.96204
3.96095
3.95995
3.95911
3.97252
3.97195
3.97135
3.9707
3.97021
3.96963
3.96903
3.96843
3.96788
3.96712
3.96633
3.96561
3.96484
3.96435
3.96376
3.96317
3.9623
3.9616
3.97351
3.97289
3.97234
3.97176
3.97117
3.97062
3.97011
3.96963
3.96888
3.96807
3.96745
3.96684
3.96611
3.96526
3.96471
3.96414
3.96347
3.96274
3.97504
3.9745
3.97388
3.97331
3.97271
3.97212
3.97156
3.97102
3.97052
3.97011
3.96945
3.96866
3.96796
3.96717
3.96658
3.96582
3.96489
3.96467
3.97594
3.97544
3.97484
3.97428
3.97369
3.97308
3.9725
3.97193
3.97138
3.97086
3.9704
3.96987
3.96921
3.96847
3.96768
3.96712
3.96637
3.96573
3.97686
3.97643
3.97585
3.97523
3.97467
3.97405
3.97345
3.97286
3.9723
3.97174
3.9712
3.97068
3.97013
3.9695
3.96879
3.96809
3.96746
3.96674
3.97775
3.9772
3.97683
3.97612
3.97563
3.9751
3.97444
3.97378
3.97323
3.97269
3.97212
3.97157
3.97104
3.97045
3.96985
3.96915
3.96844
3.96786
3.97921
3.97889
3.97822
3.97758
3.97712
3.97654
3.97608
3.97562
3.97502
3.97425
3.97366
3.97314
3.97255
3.972
3.97143
3.97085
3.97023
3.96951
3.98052
3.97982
3.97923
3.97862
3.97802
3.97744
3.97692
3.97647
3.97606
3.97553
3.97484
3.97413
3.97357
3.973
3.97244
3.97185
3.97126
3.97072
3.9817
3.98104
3.98042
3.97978
3.97907
3.97838
3.97777
3.97728
3.97683
3.97639
3.97589
3.97528
3.97463
3.97401
3.97343
3.97288
3.97235
3.97175
3.98254
3.98213
3.98153
3.98091
3.98035
3.97968
3.97883
3.97806
3.9776
3.97717
3.9767
3.97621
3.97567
3.97507
3.97445
3.97387
3.97334
3.98439
3.98366
3.98317
3.98258
3.98196
3.98135
3.98084
3.98027
3.97941
3.97847
3.97796
3.97754
3.97707
3.97658
3.97606
3.97551
3.97488
3.97431
3.98535
3.98478
3.98426
3.9837
3.98308
3.98242
3.98171
3.98121
3.98077
3.98005
3.97898
3.97842
3.97801
3.97752
3.977
3.97649
3.97595
3.97542
3.98613
3.98575
3.98523
3.98478
3.98427
3.98366
3.983
3.98228
3.98157
3.98118
3.98067
3.97983
3.97901
3.97854
3.97801
3.97748
3.97696
3.97643
3.98771
3.98709
3.98655
3.98612
3.98568
3.98523
3.9848
3.98428
3.98355
3.98277
3.98201
3.98152
3.98114
3.98049
3.97968
3.97911
3.97855
3.97797
3.98851
3.98799
3.98752
3.98702
3.98654
3.98608
3.98563
3.98524
3.98479
3.98406
3.9833
3.98244
3.98185
3.98146
3.98094
3.98029
3.97964
3.97903
3.98953
3.98889
3.98837
3.98788
3.9874
3.98693
3.98645
3.98599
3.98558
3.98519
3.98473
3.98387
3.98306
3.9823
3.98185
3.98135
3.98078
3.98016
3.99008
3.98997
3.98934
3.98877
3.98826
3.9878
3.98732
3.98684
3.98636
3.98589
3.98545
3.98505
3.98435
3.9836
3.98285
3.98234
3.98178
3.98121
3.99147
3.99093
3.99029
3.98974
3.98915
3.98866
3.9882
3.98773
3.98731
3.98686
3.98626
3.98571
3.98528
3.98477
3.98411
3.9835
3.98286
3.99312
3.99229
3.99189
3.99129
3.99071
3.99013
3.98956
3.98908
3.98863
3.98816
3.98776
3.98744
3.98689
3.98621
3.98557
3.98509
3.98454
3.984
3.9939
3.99338
3.99285
3.9923
3.99178
3.99123
3.99059
3.98998
3.98943
3.98897
3.98854
3.98813
3.9878
3.98743
3.98676
3.98608
3.98555
3.985
3.99495
3.99438
3.99382
3.99329
3.99273
3.99224
3.99171
3.99117
3.99052
3.98991
3.9894
3.98894
3.98849
3.98808
3.98767
3.98714
3.98652
3.98596
3.9958
3.99538
3.99485
3.99425
3.99372
3.99315
3.99266
3.99217
3.99173
3.99124
3.99061
3.98993
3.98943
3.98893
3.98845
3.98797
3.98746
3.98692
3.99696
3.99627
3.99584
3.99532
3.99477
3.99418
3.99359
3.99308
3.9926
3.99217
3.99171
3.99115
3.99054
3.98999
3.98943
3.98895
3.9884
3.98783
3.99791
3.99744
3.99688
3.99637
3.99587
3.99531
3.99469
3.99409
3.99355
3.99307
3.99259
3.99212
3.9916
3.99106
3.99051
3.98995
3.98943
3.98887
3.99884
3.9984
3.99791
3.99735
3.99685
3.99638
3.99588
3.99522
3.99457
3.99401
3.99351
3.99303
3.99255
3.99206
3.99154
3.99102
3.99044
3.98987
3.99996
3.9994
3.99897
3.99838
3.99771
3.99723
3.99682
3.99636
3.99569
3.995
3.9944
3.99394
3.9935
3.99302
3.99254
3.99203
3.99149
3.99102
4.00139
4.00095
4.0004
4.00002
3.9996
3.99905
3.99829
3.99761
3.99714
3.99676
3.99629
3.99561
3.99495
3.99445
3.994
3.99353
3.99304
3.99253
3.99204
4.00243
4.00196
4.00143
4.00085
4.00047
4.0001
3.99967
3.99902
3.99826
3.99772
3.99716
3.99673
3.99619
3.99561
3.99504
3.99455
3.99407
3.99358
4.00289
4.00238
4.00186
4.00133
4.00087
4.00048
4.00014
3.99968
3.99892
3.9983
3.99774
3.99714
3.99673
3.99622
3.99563
3.99513
3.99466
4.00438
4.00384
4.00333
4.00281
4.0023
4.00176
4.00127
4.00087
4.00055
4.00017
3.99943
3.99882
3.99818
3.99757
3.99714
3.99668
3.99618
3.99561
4.00533
4.00479
4.00433
4.00378
4.00326
4.00273
4.00219
4.00167
4.00124
4.00094
4.00059
3.99994
3.99934
3.99868
3.99813
3.9976
3.99713
3.99661
4.0062
4.00584
4.00528
4.00477
4.00424
4.00372
4.00322
4.00268
4.00206
4.00158
4.00128
4.001
4.00045
3.99986
3.99923
3.99868
3.99813
3.99765
4.00677
4.00623
4.00576
4.00524
4.00471
4.00421
4.00375
4.00333
4.00264
4.00203
4.00161
4.00128
4.00083
4.00028
3.99972
3.99916
3.99864
4.00817
4.0073
4.00667
4.00625
4.00573
4.00518
4.00467
4.00425
4.00387
4.00318
4.00255
4.00205
4.00163
4.0012
4.00069
4.00015
3.99962
4.01005
4.00953
4.00879
4.00795
4.00724
4.00676
4.00622
4.00563
4.00508
4.00462
4.00426
4.00366
4.00305
4.00257
4.00211
4.00163
4.00114
4.00063
4.01098
4.01051
4.00996
4.00929
4.00847
4.00779
4.00726
4.00674
4.00616
4.00552
4.00499
4.00462
4.00419
4.0036
4.00308
4.00258
4.00213
4.012
4.01147
4.01082
4.01027
4.00964
4.00885
4.00822
4.00769
4.00722
4.00674
4.0061
4.00552
4.00501
4.00457
4.00406
4.00353
4.00306
4.01366
4.01308
4.01245
4.01191
4.01126
4.01065
4.0101
4.00944
4.00861
4.00808
4.00758
4.00712
4.00662
4.0061
4.00551
4.00502
4.0045
4.004
4.01467
4.01406
4.01344
4.0129
4.01234
4.01165
4.01121
4.01072
4.00999
4.00914
4.00868
4.00813
4.00743
4.00695
4.00653
4.00602
4.00553
4.005
4.01558
4.01506
4.01442
4.01393
4.01335
4.01275
4.012
4.01178
4.01135
4.01058
4.00991
4.00935
4.00875
4.0081
4.00741
4.00702
4.00653
4.00601
4.01673
4.01622
4.01565
4.01497
4.01437
4.01387
4.01332
4.01257
4.01181
4.01151
4.01104
4.01053
4.00998
4.0094
4.00879
4.00815
4.00761
4.00717
4.01839
4.01794
4.01723
4.01671
4.01614
4.01549
4.01476
4.01422
4.01393
4.01331
4.01255
4.01205
4.01165
4.01116
4.01071
4.01016
4.00948
4.00878
4.00813
4.01955
4.01898
4.01835
4.01776
4.01716
4.0166
4.01599
4.01528
4.01471
4.01431
4.01375
4.01321
4.01272
4.01229
4.01176
4.01118
4.01064
4.00991
4.00932
4.01973
4.01953
4.0189
4.01825
4.0176
4.01703
4.0165
4.01586
4.01531
4.01479
4.01425
4.01373
4.01323
4.01274
4.0122
4.01162
4.01104
4.01045
4.02112
4.02052
4.02013
4.01949
4.01872
4.01795
4.01742
4.01706
4.01647
4.01585
4.0153
4.01475
4.01425
4.01373
4.0132
4.01267
4.01208
4.02259
4.02177
4.02117
4.02066
4.01996
4.01921
4.01835
4.01774
4.01737
4.01696
4.01634
4.01583
4.01527
4.01477
4.01424
4.01371
4.0131
4.02416
4.02322
4.02242
4.02178
4.02126
4.02065
4.01997
4.01909
4.01839
4.01797
4.01746
4.01688
4.01633
4.01579
4.01531
4.01476
4.01422
4.02612
4.02562
4.02481
4.02407
4.02322
4.02259
4.02203
4.02141
4.02073
4.01994
4.01925
4.01868
4.01805
4.01747
4.01691
4.01634
4.0158
4.01532
4.02728
4.02683
4.02626
4.02555
4.02489
4.02415
4.02345
4.02286
4.02219
4.02143
4.02065
4.01999
4.0194
4.0188
4.01809
4.01751
4.01693
4.02816
4.02777
4.02733
4.02679
4.02617
4.02551
4.02486
4.02412
4.02351
4.02277
4.02202
4.02122
4.02057
4.01998
4.01934
4.01867
4.01805
4.02895
4.02865
4.02824
4.02785
4.02728
4.02668
4.02599
4.02541
4.02478
4.02414
4.02336
4.0226
4.02187
4.02111
4.02048
4.01984
4.01927
4.0301
4.02946
4.029
4.02858
4.02827
4.02771
4.02712
4.02659
4.02593
4.02525
4.02459
4.0239
4.02317
4.02247
4.02178
4.02108
4.02043
4.03088
4.03053
4.0299
4.02936
4.02903
4.02865
4.02817
4.02761
4.02698
4.02637
4.02578
4.02515
4.02444
4.02378
4.02311
4.02239
4.02173
4.03287
4.03163
4.03094
4.03036
4.02986
4.02946
4.02903
4.02859
4.02808
4.02748
4.02682
4.02619
4.0256
4.02496
4.02432
4.0237
4.023
4.033
4.03239
4.03178
4.03117
4.03063
4.03
4.02943
4.02898
4.02848
4.02788
4.02724
4.02663
4.02603
4.02547
4.02486
4.02422
4.03503
4.03406
4.0332
4.03256
4.03191
4.03135
4.03069
4.03005
4.02946
4.02894
4.02834
4.02771
4.02711
4.02653
4.02595
4.03692
4.03639
4.03551
4.0348
4.034
4.03337
4.0327
4.0321
4.0314
4.03058
4.02986
4.02928
4.02883
4.02825
4.02762
4.02704
4.03833
4.03778
4.03696
4.03608
4.0354
4.03478
4.0341
4.03346
4.03273
4.03206
4.03125
4.03028
4.02952
4.02916
4.02872
4.02811
4.04049
4.03951
4.03865
4.03774
4.03676
4.03619
4.0356
4.03497
4.03421
4.03349
4.03275
4.03209
4.03105
4.03015
4.02974
4.02918
4.04348
4.04215
4.04111
4.04037
4.03961
4.03863
4.03775
4.03696
4.03627
4.03561
4.03495
4.03414
4.03315
4.03273
4.03202
4.03112
4.04494
4.0441
4.04311
4.04205
4.04119
4.04032
4.03946
4.03867
4.03789
4.0372
4.03658
4.03588
4.03496
4.03396
4.03317
4.03275
4.04692
4.04579
4.04462
4.04382
4.04292
4.04205
4.04109
4.04023
4.0395
4.03883
4.03828
4.03774
4.03692
4.0361
4.035
4.03395
4.04909
4.04786
4.04631
4.04516
4.04444
4.04372
4.04283
4.04181
4.04101
4.04023
4.03964
4.03903
4.03853
4.03809
4.03708
4.03607
4.05085
4.04955
4.0488
4.04756
4.04629
4.0453
4.04457
4.0436
4.04269
4.04171
4.04094
4.04018
4.03964
4.03896
4.03826
4.0378
4.0521
4.05147
4.05056
4.04973
4.04856
4.04738
4.0464
4.0455
4.04455
4.0436
4.04237
4.04161
4.04103
4.04021
4.03977
4.05355
4.05293
4.05213
4.05144
4.05059
4.04953
4.04838
4.04733
4.04645
4.0455
4.04459
4.0434
4.04242
4.0418
4.04112
4.04027
4.05486
4.05428
4.0536
4.05307
4.0522
4.05125
4.05045
4.04938
4.04837
4.04737
4.04643
4.04565
4.04464
4.04349
4.0426
4.0421
4.05636
4.05556
4.05495
4.05421
4.05361
4.05272
4.05179
4.05107
4.05024
4.04925
4.0482
4.04722
4.04641
4.04549
4.0445
4.05719
4.05619
4.0558
4.05508
4.05424
4.05345
4.0525
4.05173
4.05098
4.05014
4.04905
4.04801
4.04706
4.0462
4.05906
4.05825
4.05732
4.05651
4.05564
4.05485
4.05414
4.05328
4.05242
4.05162
4.05081
4.0498
4.04882
4.06138
4.06053
4.05973
4.05905
4.05821
4.05739
4.05652
4.05566
4.05485
4.05397
4.05313
4.05222
4.05139
4.05045
4.06322
4.06225
4.06137
4.06047
4.05969
4.05894
4.05812
4.05752
4.0565
4.05567
4.05463
4.05378
4.05298
4.05218
4.06488
4.06404
4.06311
4.06206
4.06131
4.0606
4.05971
4.05886
4.05803
4.05737
4.05641
4.05533
4.05453
4.0538
4.06644
4.06566
4.0648
4.06382
4.06274
4.062
4.06144
4.06046
4.05953
4.05865
4.0581
4.05701
4.05611
4.05531
4.06769
4.06689
4.06628
4.06544
4.06423
4.06337
4.0628
4.06222
4.06138
4.06021
4.05932
4.05868
4.05783
4.05683
4.06898
4.06822
4.06732
4.0668
4.06607
4.06488
4.06382
4.0634
4.06298
4.06234
4.06096
4.06006
4.05944
4.06728
4.06672
4.06545
4.06418
4.06347
4.06342
4.06275
4.06169
4.06064
4.06773
4.06711
4.06604
4.06486
4.06398
4.06352
4.06294
4.06206
4.06947
4.06862
4.06759
4.067
4.06575
4.06461
4.06434
4.07141
4.0703
4.06953
4.06834
4.0676
4.06638
4.0651
4.07127
4.07047
4.06946
4.06841
4.06721
4.07433
4.07304
4.07165
4.07148
4.07038
4.06914
4.07868
4.07864
4.07656
4.07544
4.07144
4.0794
4.07951
4.07904
4.07836
4.07742
4.07239
4.08152
4.07896
4.07793
4.07696
4.07601
4.08298
4.08108
4.07953
3.7879
3.76315
3.72405
3.85707
3.84956
3.84155
3.83495
3.82383
3.809
3.78913
3.76393
3.74343
3.87735
3.87432
3.86951
3.86652
3.86094
3.85592
3.85062
3.84431
3.83705
3.82782
3.81562
3.80081
3.78901
3.78631
3.79549
3.88559
3.8834
3.88157
3.87876
3.87645
3.87287
3.86922
3.86536
3.86123
3.8573
3.85283
3.84814
3.8426
3.83398
3.82617
3.82144
3.82006
3.83884
3.85327
3.84516
3.75921
3.52512
3.89216
3.89094
3.88886
3.88682
3.88449
3.88236
3.88017
3.87775
3.87504
3.87184
3.86839
3.8655
3.86344
3.86085
3.85528
3.85177
3.84971
3.84702
3.8457
3.84789
3.86012
3.88426
3.88692
3.89794
3.89609
3.89498
3.89318
3.89171
3.88951
3.88749
3.88549
3.88368
3.88172
3.87953
3.87696
3.87412
3.87172
3.87005
3.8697
3.86836
3.86458
3.86384
3.86254
3.86095
3.86114
3.86724
3.88063
3.9064
3.9008
3.89916
3.89835
3.89698
3.89571
3.89362
3.89236
3.89046
3.88815
3.88643
3.88479
3.88308
3.88115
3.8787
3.87663
3.87532
3.87478
3.87518
3.87509
3.87313
3.87317
3.87244
3.87161
3.87274
3.87831
3.90373
3.90212
3.90057
3.89968
3.8986
3.89742
3.89618
3.89511
3.89344
3.89177
3.88921
3.88712
3.88577
3.88431
3.88285
3.88157
3.87928
3.87873
3.87793
3.87863
3.88043
3.88031
3.88101
3.88055
3.87914
3.90738
3.90608
3.90469
3.90291
3.90123
3.90029
3.89928
3.89804
3.8967
3.89582
3.89442
3.89283
3.89087
3.88868
3.88719
3.88618
3.88439
3.88369
3.88188
3.88175
3.88147
3.88174
3.88267
3.88343
3.88398
3.91136
3.9098
3.90885
3.90802
3.90648
3.9052
3.90348
3.90211
3.90094
3.89999
3.89884
3.89738
3.8965
3.8954
3.89405
3.89247
3.89064
3.88893
3.88763
3.88624
3.88523
3.88493
3.88392
3.88374
3.88379
3.88362
3.9153
3.91433
3.91333
3.91179
3.91056
3.90956
3.90846
3.90689
3.90561
3.9042
3.90301
3.90161
3.90037
3.89926
3.89811
3.89709
3.89601
3.89473
3.89344
3.89191
3.89033
3.88894
3.88769
3.88671
3.88648
3.88571
3.88562
3.91676
3.91581
3.91484
3.91377
3.91253
3.91118
3.90961
3.90878
3.90752
3.90627
3.9049
3.90366
3.90235
3.90114
3.89956
3.89871
3.89764
3.89646
3.8952
3.89421
3.89301
3.89117
3.89036
3.88896
3.88845
3.92043
3.91985
3.91909
3.91772
3.91657
3.91539
3.91437
3.91308
3.91181
3.91061
3.90955
3.90837
3.90711
3.90559
3.90434
3.90308
3.90181
3.90005
3.89935
3.89827
3.89706
3.89604
3.89515
3.8939
3.89282
3.92178
3.92093
3.92001
3.91949
3.91858
3.91744
3.91612
3.91494
3.91361
3.91229
3.91123
3.91039
3.90897
3.90762
3.90628
3.90501
3.90375
3.90235
3.90061
3.89989
3.89898
3.89779
3.89667
3.89569
3.92455
3.92417
3.92323
3.92257
3.92153
3.92051
3.91993
3.91923
3.91806
3.91676
3.91558
3.91425
3.91296
3.91153
3.91086
3.90951
3.90817
3.90688
3.9056
3.90439
3.90291
3.90129
3.90045
3.89941
3.89825
3.92736
3.92613
3.92514
3.92436
3.92357
3.92301
3.92203
3.92115
3.92053
3.91974
3.91853
3.91736
3.91618
3.91479
3.91371
3.91264
3.91125
3.91015
3.90892
3.90754
3.90626
3.90492
3.90306
3.90191
3.90081
3.92937
3.92849
3.92758
3.92666
3.92567
3.92463
3.92385
3.92318
3.92244
3.92156
3.92088
3.92006
3.91899
3.91788
3.91653
3.91544
3.91416
3.91306
3.91177
3.91063
3.90941
3.90802
3.90679
3.90556
3.90393
3.9323
3.93121
3.93062
3.92973
3.92884
3.92804
3.9271
3.92619
3.92504
3.92417
3.92352
3.9228
3.92203
3.92127
3.92029
3.91948
3.91841
3.91709
3.91621
3.9149
3.91329
3.91228
3.91114
3.90984
3.90859
3.90726
3.9347
3.93421
3.93275
3.93177
3.93092
3.93001
3.92921
3.92844
3.9277
3.92667
3.92553
3.92473
3.92405
3.92331
3.92249
3.92157
3.92061
3.9198
3.91904
3.91795
3.91681
3.91583
3.91439
3.91292
3.91159
3.91029
3.93763
3.93595
3.93487
3.93412
3.93314
3.93204
3.9311
3.93033
3.9296
3.9289
3.92822
3.92726
3.9262
3.92537
3.92467
3.92387
3.92295
3.92192
3.92085
3.91996
3.91924
3.91832
3.91716
3.91637
3.91502
3.91372
3.91216
3.93923
3.93869
3.93757
3.93657
3.93554
3.93451
3.93338
3.93235
3.93144
3.93067
3.92997
3.9293
3.9286
3.92779
3.9269
3.92602
3.92523
3.92445
3.92351
3.92248
3.92104
3.92023
3.91946
3.9185
3.91745
3.91645
3.91573
3.94079
3.93978
3.93877
3.93793
3.93701
3.93602
3.93492
3.93376
3.93269
3.93176
3.931
3.93033
3.92965
3.92894
3.92817
3.92736
3.92646
3.92557
3.92487
3.92424
3.92318
3.9219
3.92082
3.91982
3.91878
3.91775
3.94327
3.94201
3.94123
3.94026
3.93929
3.93835
3.93749
3.93647
3.93532
3.93416
3.93306
3.93213
3.93129
3.93063
3.92996
3.92926
3.92853
3.92773
3.92682
3.92584
3.92509
3.92429
3.92348
3.92248
3.92129
3.92035
3.9455
3.94436
3.94361
3.94257
3.94169
3.94074
3.93974
3.93883
3.93794
3.93694
3.93583
3.93467
3.93353
3.93249
3.93165
3.93095
3.93027
3.92957
3.92884
3.92806
3.92714
3.92619
3.92533
3.92447
3.92368
3.92284
3.9468
3.94595
3.94502
3.94408
3.94313
3.9422
3.9412
3.94024
3.93934
3.9384
3.9374
3.93635
3.9352
3.93396
3.93293
3.93206
3.93132
3.9306
3.92989
3.92916
3.92841
3.92755
3.92667
3.92574
3.92501
3.94915
3.94853
3.94749
3.94659
3.94565
3.94474
3.94373
3.94274
3.94177
3.94083
3.93989
3.93891
3.93791
3.93687
3.93576
3.93452
3.93344
3.93255
3.9318
3.93108
3.93032
3.92958
3.92882
3.928
3.92719
3.92637
3.95159
3.95083
3.94984
3.94901
3.94818
3.94724
3.94631
3.94541
3.94438
3.94334
3.94236
3.94139
3.94043
3.93946
3.93847
3.93746
3.93648
3.93534
3.93411
3.93319
3.93241
3.93166
3.93085
3.93007
3.92935
3.92866
3.9537
3.95265
3.95207
3.95127
3.95039
3.94956
3.94874
3.94786
3.94693
3.94601
3.94497
3.94398
3.94295
3.94197
3.94099
3.94003
3.93906
3.93805
3.93711
3.9362
3.935
3.93399
3.93312
3.93224
3.93147
3.93072
3.92974
3.95456
3.95402
3.95327
3.95256
3.95179
3.95098
3.95015
3.94934
3.94845
3.9475
3.94655
3.94557
3.94463
3.94359
3.94253
3.94153
3.94061
3.93967
3.93868
3.93767
3.9368
3.93576
3.93472
3.93379
3.93291
3.93208
3.95666
3.95588
3.95512
3.95449
3.95379
3.95299
3.95227
3.95154
3.95074
3.94993
3.949
3.94804
3.94716
3.9463
3.94527
3.94413
3.94301
3.94195
3.94113
3.94023
3.93924
3.93824
3.93728
3.9363
3.93516
3.93436
3.95761
3.95706
3.95632
3.95563
3.95499
3.95429
3.95335
3.95265
3.95204
3.95131
3.95048
3.94954
3.94861
3.94785
3.94694
3.94578
3.94459
3.9435
3.94245
3.94156
3.94066
3.93974
3.93883
3.9379
3.93688
3.95984
3.95907
3.95827
3.95747
3.95675
3.9561
3.95547
3.95476
3.95376
3.95306
3.95246
3.95179
3.95092
3.94999
3.94916
3.94847
3.94754
3.94624
3.94506
3.94409
3.94305
3.9421
3.94115
3.94022
3.9391
3.96115
3.9604
3.95964
3.95873
3.95794
3.95722
3.95655
3.95589
3.95513
3.95419
3.95349
3.95286
3.95219
3.95131
3.95033
3.94958
3.94899
3.94813
3.94686
3.94574
3.9447
3.94362
3.94259
3.94178
3.94093
3.96299
3.96244
3.96172
3.96088
3.9601
3.95925
3.95842
3.95767
3.95695
3.95622
3.95549
3.95473
3.95406
3.95342
3.95268
3.95176
3.95071
3.94994
3.94931
3.94853
3.9475
3.94638
3.94532
3.94434
3.94315
3.96435
3.96359
3.96294
3.96231
3.9614
3.96057
3.95975
3.9589
3.95808
3.95732
3.95654
3.95582
3.95521
3.95461
3.95398
3.95327
3.95236
3.95134
3.95047
3.94974
3.94898
3.94802
3.94703
3.94595
3.94485
3.96598
3.96549
3.96481
3.96415
3.96356
3.9629
3.96192
3.96108
3.96031
3.95946
3.95858
3.95774
3.95693
3.9562
3.9556
3.95501
3.95438
3.9537
3.95294
3.95206
3.95115
3.9503
3.94953
3.94856
3.94764
3.96731
3.96657
3.96594
3.96527
3.96468
3.96415
3.96358
3.9627
3.96178
3.96095
3.96012
3.95921
3.95827
3.95736
3.95662
3.956
3.95537
3.9547
3.95403
3.9533
3.95255
3.95175
3.95094
3.94987
3.96905
3.96818
3.96766
3.96704
3.9664
3.96574
3.96515
3.96464
3.96408
3.96337
3.96255
3.96167
3.96077
3.95986
3.95884
3.95787
3.9571
3.95648
3.95582
3.95512
3.9544
3.95366
3.953
3.95226
3.95163
3.97001
3.96939
3.96875
3.96811
3.96748
3.96687
3.96622
3.9656
3.96506
3.96452
3.96393
3.96325
3.96245
3.96155
3.96064
3.9595
3.95848
3.95767
3.95697
3.95631
3.95562
3.95491
3.95416
3.95336
3.9717
3.97102
3.97049
3.96983
3.96919
3.96858
3.96797
3.96736
3.96671
3.96603
3.9654
3.96488
3.96434
3.96376
3.96308
3.96225
3.96132
3.96027
3.95926
3.95838
3.95758
3.95685
3.95611
3.95538
3.95468
3.97272
3.97209
3.97152
3.9709
3.97027
3.96965
3.96906
3.96847
3.96787
3.96721
3.96652
3.9658
3.9652
3.96465
3.96409
3.96348
3.96277
3.9619
3.96094
3.95999
3.95906
3.95822
3.95746
3.95677
3.97415
3.97363
3.97308
3.97247
3.9719
3.97131
3.97071
3.97011
3.96954
3.96895
3.96834
3.96768
3.96699
3.96629
3.96561
3.96499
3.96441
3.96381
3.96315
3.96238
3.96146
3.96057
3.95968
3.95891
3.9581
3.97509
3.97458
3.97405
3.97346
3.97287
3.97229
3.97172
3.97113
3.97056
3.97001
3.96944
3.96879
3.9681
3.96743
3.96673
3.96603
3.96538
3.96478
3.96415
3.96351
3.96275
3.96194
3.96113
3.96031
3.97599
3.97552
3.97498
3.97446
3.97389
3.97329
3.97269
3.97211
3.97153
3.97097
3.97043
3.96989
3.96925
3.96855
3.96786
3.96714
3.96648
3.96584
3.96519
3.96456
3.96392
3.96318
3.96239
3.96167
3.97749
3.97692
3.97643
3.97592
3.97539
3.97484
3.97428
3.97369
3.97308
3.97249
3.97191
3.97135
3.9708
3.97026
3.96967
3.96901
3.9683
3.96758
3.96694
3.96632
3.96567
3.96501
3.96439
3.96373
3.96293
3.9785
3.97792
3.97736
3.97684
3.97634
3.97578
3.97523
3.97467
3.97407
3.97346
3.97286
3.97229
3.97173
3.97116
3.97059
3.97001
3.96938
3.9687
3.96802
3.96736
3.96676
3.96614
3.96554
3.96481
3.97973
3.97888
3.97833
3.97775
3.97723
3.97673
3.97617
3.97563
3.97508
3.97447
3.97384
3.97324
3.97269
3.97212
3.97155
3.97097
3.97038
3.96974
3.9691
3.96846
3.96782
3.96718
3.96663
3.96602
3.9806
3.98008
3.9794
3.97876
3.97818
3.97762
3.9771
3.97656
3.97604
3.97552
3.97492
3.97427
3.97367
3.97312
3.97255
3.97198
3.97141
3.97081
3.97018
3.96954
3.96892
3.96831
3.96769
3.98228
3.98174
3.98114
3.98054
3.97991
3.97924
3.97863
3.97804
3.97748
3.97693
3.97644
3.97595
3.97537
3.97473
3.97413
3.97355
3.97299
3.97242
3.97185
3.97128
3.97063
3.97002
3.9694
3.9687
3.98333
3.98277
3.98218
3.98161
3.98103
3.98041
3.97977
3.97911
3.97846
3.97786
3.97732
3.97683
3.97633
3.9758
3.9752
3.97459
3.974
3.97342
3.97285
3.97228
3.97172
3.97111
3.9705
3.96985
3.98434
3.98376
3.98323
3.98264
3.98206
3.98149
3.9809
3.98029
3.97964
3.97893
3.97825
3.9777
3.97721
3.97671
3.97619
3.97562
3.97503
3.97444
3.97386
3.97328
3.9727
3.97215
3.97148
3.98586
3.98528
3.9848
3.98425
3.9837
3.98311
3.98253
3.98194
3.98135
3.98078
3.98016
3.97945
3.97869
3.9781
3.97762
3.97712
3.97659
3.97604
3.97548
3.97489
3.97431
3.97374
3.97314
3.97241
3.98693
3.98624
3.98575
3.98522
3.98471
3.98418
3.98361
3.98302
3.9824
3.98178
3.98122
3.98067
3.98001
3.97923
3.97859
3.97809
3.97758
3.97704
3.97649
3.97593
3.97535
3.97481
3.97424
3.97376
3.98763
3.98722
3.98671
3.98619
3.98568
3.98518
3.98467
3.98413
3.98355
3.9829
3.98224
3.98165
3.98114
3.98056
3.97985
3.97915
3.9786
3.97807
3.97752
3.97696
3.9764
3.97579
3.97525
3.97473
3.98852
3.98811
3.98761
3.9871
3.9866
3.98611
3.98563
3.98514
3.98464
3.98407
3.98343
3.98271
3.98206
3.98153
3.98102
3.9804
3.97973
3.97911
3.97855
3.97798
3.97741
3.97688
3.97631
3.99002
3.98965
3.98899
3.98852
3.988
3.9875
3.987
3.98652
3.98604
3.98556
3.98508
3.98457
3.98396
3.98323
3.98253
3.98196
3.98145
3.9809
3.98028
3.97965
3.97905
3.97849
3.97789
3.9773
3.99121
3.9904
3.99002
3.98946
3.98893
3.9884
3.98789
3.9874
3.98692
3.98643
3.98594
3.98547
3.98502
3.98447
3.98375
3.98304
3.98242
3.9819
3.98136
3.98078
3.98016
3.97955
3.97895
3.97843
3.99192
3.99154
3.99094
3.99042
3.98989
3.98934
3.9888
3.98828
3.9878
3.98732
3.98682
3.98633
3.98583
3.98536
3.98485
3.98421
3.98354
3.98293
3.98237
3.98182
3.98123
3.98063
3.98001
3.99313
3.99248
3.99193
3.99138
3.99088
3.99034
3.98977
3.9892
3.98868
3.9882
3.98773
3.98726
3.98677
3.98623
3.98571
3.98519
3.98464
3.98405
3.98346
3.98288
3.98231
3.98174
3.98113
3.99393
3.99348
3.99293
3.99239
3.99185
3.99132
3.99077
3.99019
3.98961
3.9891
3.98862
3.98815
3.9877
3.98725
3.9867
3.98613
3.98558
3.98506
3.98453
3.98399
3.9834
3.98277
3.98234
3.99493
3.99446
3.99393
3.99337
3.99282
3.9923
3.99178
3.99123
3.99063
3.99004
3.9895
3.98901
3.98855
3.98811
3.98767
3.98717
3.98659
3.98603
3.9855
3.98497
3.98442
3.98388
3.98354
3.99591
3.99541
3.99492
3.99438
3.99383
3.99328
3.99275
3.99224
3.9917
3.99113
3.99054
3.98997
3.98945
3.98897
3.98851
3.98805
3.98757
3.98703
3.98648
3.98595
3.98543
3.98491
3.98432
3.99688
3.99637
3.99587
3.99536
3.99484
3.99429
3.99374
3.9932
3.99268
3.99216
3.99163
3.9911
3.99052
3.98996
3.98945
3.98895
3.98845
3.98794
3.98741
3.9869
3.98639
3.98584
3.9854
3.99832
3.99789
3.99739
3.99687
3.99635
3.99583
3.9953
3.99477
3.99421
3.99365
3.99312
3.99261
3.99212
3.99162
3.99108
3.99051
3.98998
3.98945
3.98892
3.98836
3.98783
3.98735
3.98688
3.99953
3.99886
3.99838
3.9979
3.99737
3.99685
3.99633
3.99582
3.99529
3.99472
3.99414
3.9936
3.99308
3.99259
3.9921
3.99158
3.99104
3.9905
3.98996
3.98942
3.98886
3.98832
3.98783
4.00042
3.99995
3.99938
3.99887
3.99839
3.99786
3.99733
3.99682
3.99634
3.99583
3.99524
3.99464
3.99408
3.99356
3.99306
3.99257
3.99206
3.99153
3.991
3.99047
3.98992
3.98934
3.98883
4.00159
4.00095
4.00043
3.99988
3.99938
3.99891
3.99837
3.99779
3.99726
3.9968
3.99631
3.99572
3.99512
3.99455
3.99404
3.99355
3.99306
3.99255
3.99203
3.9915
3.99097
3.99042
3.9899
4.00241
4.00196
4.00145
4.00092
4.00038
3.9999
3.99945
3.99892
3.9983
3.9977
3.99721
3.99675
3.9962
3.99564
3.99507
3.99455
3.99407
3.99358
3.99307
3.99255
3.99201
3.9915
3.99102
4.00343
4.00293
4.0024
4.0019
4.00139
4.00086
4.00039
3.99995
3.99948
3.99892
3.99828
3.99772
3.99722
3.99671
3.99618
3.99563
3.9951
3.99461
3.99412
3.9936
3.99308
3.99254
3.99201
4.0046
4.00391
4.00341
4.00286
4.00235
4.00184
4.00132
4.00083
4.0004
4
3.99952
3.99888
3.99826
3.99772
3.9972
3.9967
3.99618
3.99565
3.99514
3.99464
3.99415
3.99362
3.99308
4.00545
4.00492
4.00437
4.00383
4.00331
4.0028
4.00228
4.00176
4.00126
4.00082
4.00044
3.99998
3.99939
3.99877
3.99819
3.99766
3.99717
3.99666
3.99616
3.99565
3.99516
3.99466
3.99409
4.00647
4.00595
4.00534
4.00482
4.00429
4.00377
4.00325
4.00273
4.0022
4.00168
4.00122
4.00084
4.0004
3.99986
3.99928
3.99869
3.99816
3.99766
3.99716
3.99666
3.99617
3.99567
3.99514
4.0077
4.00702
4.00634
4.00578
4.00526
4.00475
4.00424
4.00372
4.00321
4.00268
4.00214
4.00165
4.00123
4.00082
4.00033
3.99978
3.99921
3.99866
3.99815
3.99765
3.99715
3.99664
4.00958
4.00882
4.00831
4.00754
4.00679
4.00622
4.00573
4.00524
4.00472
4.00421
4.00372
4.00322
4.00265
4.00212
4.00165
4.00123
4.00077
4.00024
3.99969
3.99915
3.99864
3.99815
3.99765
4.0106
4.01004
4.00945
4.00885
4.00807
4.00728
4.0067
4.00623
4.00573
4.0052
4.00468
4.00421
4.00374
4.00317
4.0026
4.00211
4.00166
4.00119
4.00068
4.00016
3.99963
3.99914
3.99864
4.01154
4.0111
4.01055
4.01003
4.00942
4.00868
4.00791
4.00726
4.00674
4.00622
4.00566
4.00512
4.00465
4.00419
4.00366
4.0031
4.00258
4.00212
4.00163
4.00112
4.00062
4.0001
3.99959
4.01278
4.01209
4.01157
4.01105
4.01053
4.00995
4.00923
4.00848
4.00781
4.00725
4.00672
4.00615
4.0056
4.0051
4.00461
4.00413
4.00359
4.00307
4.00259
4.00211
4.00159
4.00109
4.0006
4.01371
4.01323