/*--------------------------------*- C++ -*----------------------------------*\
| =========                 |                                                 |
| \\      /  F ield         | OpenFOAM: The Open Source CFD Toolbox           |
|  \\    /   O peration     | Version:  2312                                  |
|   \\  /    A nd           | Website:  www.openfoam.com                      |
|    \\/     M anipulation  |                                                 |
\*---------------------------------------------------------------------------*/
FoamFile
{
    version     2.0;
    format      ascii;
    arch        "LSB;label=64;scalar=64";
    class       volScalarField;
    location    "140";
    object      nut_ML_ND;
}
// * * * * * * * * * * * * * * * * * * * * * * * * * * * * * * * * * * * * * //

dimensions      [0 0 0 0 0 0 0];

internalField   nonuniform List<scalar> 
404911
(
0.365392
0.512386
0.363185
0.073899
0.528053
0.534874
0.532123
0.158741
0.114249
0.0797816
0.522406
0.513713
0.566289
0.509998
0.512609
0.288744
0.503222
0.557518
0.538932
0.486781
0.451384
0.544671
0.43639
0.476832
0.573635
0.481108
0.538834
0.586977
0.58125
0.30559
0.547423
0.581295
0.555009
0.526131
0.52138
0.572298
0.509198
0.348344
0.499661
0.564532
0.519164
0.0791685
0.502687
0.570523
0.569614
0.493402
0.379655
0.558351
0.544351
0.376623
0.320134
0.457252
0.478178
0.272945
0.303558
0.26393
0.0739016
0.527742
0.494995
0.489713
0.534703
0.577294
0.545853
0.582759
0.578264
0.56216
0.576856
0.548864
0.573644
0.580174
0.574139
0.58601
0.569482
0.578949
0.585658
0.52866
0.306389
0.545814
0.581583
0.572542
0.579041
0.570488
0.585535
0.57264
0.575349
0.577461
0.525707
0.579827
0.314502
0.571034
0.544494
0.14965
0.57647
0.54899
0.560606
0.577039
0.573583
0.570964
0.580942
0.539217
0.363778
0.578331
0.568989
0.385445
0.467071
0.501617
0.535062
0.510405
0.540209
0.563624
0.567863
0.560899
0.558628
0.550398
0.0725302
0.518279
0.562697
0.324147
0.504711
0.557227
0.554376
0.557043
0.559726
0.517517
0.493994
0.543592
0.563134
0.564613
0.56661
0.518135
0.529346
0.522552
0.558021
0.558683
0.556481
0.557933
0.550862
0.546992
0.542258
0.504853
0.496911
0.54491
0.567887
0.568293
0.561523
0.557643
0.558887
0.564304
0.528028
0.525424
0.559175
0.560558
0.556054
0.338157
0.511228
0.498581
0.556562
0.573842
0.573051
0.565693
0.55851
0.553014
0.552847
0.554786
0.557651
0.55874
0.556992
0.556484
0.551593
0.528371
0.535915
0.519671
0.521956
0.523208
0.530324
0.523479
0.52242
0.556765
0.553665
0.554698
0.555051
0.556091
0.556958
0.557984
0.554549
0.548432
0.555256
0.512982
0.529545
0.522035
0.525669
0.530773
0.536187
0.529324
0.52248
0.561304
0.559424
0.560813
0.561606
0.561975
0.561971
0.554745
0.457366
0.49629
0.558341
0.524743
0.53835
0.540745
0.540548
0.534736
0.525392
0.537978
0.535219
0.532534
0.52693
0.563198
0.561733
0.564836
0.566429
0.560359
0.521152
0.500039
0.510527
0.544119
0.559964
0.572878
0.560831
0.543547
0.537077
0.549686
0.541352
0.550517
0.551784
0.566815
0.561769
0.564407
0.560789
0.538551
0.480297
0.456463
0.54
0.580632
0.567902
0.573923
0.574043
0.573074
0.57083
0.560937
0.55138
0.547603
0.569092
0.569937
0.537426
0.50949
0.566363
0.559647
0.489481
0.507991
0.567795
0.579629
0.557392
0.573661
0.575086
0.575895
0.576616
0.576232
0.574413
0.573251
0.571499
0.538855
0.529384
0.521683
0.515065
0.520488
0.515545
0.55399
0.569638
0.526306
0.572298
0.57371
0.573826
0.573465
0.572952
0.57574
0.576714
0.575344
0.556239
0.520034
0.507161
0.513939
0.381355
0.532173
0.570644
0.570625
0.574187
0.573202
0.572604
0.575727
0.575933
0.572188
0.564103
0.566753
0.572604
0.575918
0.55864
0.524216
0.514404
0.545667
0.489323
0.497365
0.493921
0.539613
0.565714
0.577226
0.580038
0.573467
0.573485
0.574674
0.575552
0.574646
0.569624
0.57161
0.574614
0.572775
0.526077
0.568111
0.508623
0.495313
0.552176
0.57829
0.567485
0.576278
0.574363
0.568552
0.581171
0.573288
0.574801
0.573912
0.579394
0.578992
0.572658
0.574756
0.573541
0.531898
0.544721
0.514191
0.574258
0.582434
0.582679
0.581007
0.574224
0.5752
0.570407
0.583372
0.578256
0.581599
0.582983
0.579243
0.574943
0.567861
0.558025
0.559887
0.490095
0.494732
0.545956
0.575357
0.580843
0.584537
0.585036
0.581921
0.577571
0.580554
0.579151
0.583568
0.576243
0.579135
0.573893
0.576065
0.576661
0.494373
0.492334
0.540133
0.57986
0.578498
0.573459
0.574975
0.581076
0.578788
0.582147
0.584873
0.584355
0.584227
0.580384
0.578423
0.575496
0.573859
0.577208
0.538245
0.500119
0.494767
0.499764
0.532044
0.57665
0.570345
0.580045
0.578434
0.579423
0.583543
0.58472
0.585418
0.584906
0.583735
0.580136
0.568215
0.567779
0.573959
0.517091
0.53169
0.581978
0.576577
0.579732
0.580256
0.581718
0.581013
0.580477
0.582586
0.579968
0.58138
0.585655
0.585046
0.582054
0.58397
0.577888
0.535511
0.504739
0.577301
0.589082
0.581433
0.584231
0.580876
0.582618
0.583433
0.579566
0.576699
0.576434
0.578277
0.580996
0.583179
0.583465
0.575891
0.575939
0.534309
0.531
0.585981
0.581657
0.583897
0.584407
0.583786
0.580524
0.583301
0.583242
0.579582
0.576316
0.578732
0.581533
0.577899
0.583329
0.575688
0.574062
0.494266
0.560215
0.587632
0.587982
0.587145
0.586019
0.58558
0.582824
0.575517
0.584983
0.58515
0.580749
0.579184
0.577186
0.576833
0.57385
0.575706
0.542451
0.484845
0.521851
0.575233
0.584961
0.586242
0.585985
0.585888
0.583117
0.583656
0.585097
0.583567
0.583485
0.584325
0.582517
0.581238
0.559739
0.583277
0.565491
0.484496
0.494061
0.55708
0.584706
0.579225
0.584322
0.585499
0.585275
0.585534
0.585643
0.58406
0.585777
0.582999
0.582748
0.583027
0.582515
0.582243
0.569666
0.527046
0.519071
0.578102
0.584036
0.585326
0.5855
0.585283
0.585145
0.585162
0.582734
0.585755
0.585805
0.585723
0.58153
0.580679
0.579197
0.574237
0.565655
0.477565
0.488831
0.556857
0.586655
0.586653
0.585609
0.585831
0.585617
0.585138
0.58494
0.584802
0.582296
0.584011
0.583924
0.585138
0.582326
0.582883
0.571189
0.542395
0.499949
0.58249
0.58756
0.58648
0.585616
0.585831
0.585745
0.585504
0.585387
0.58533
0.585326
0.585242
0.585544
0.585404
0.583978
0.578053
0.562252
0.526971
0.560953
0.590334
0.587195
0.585259
0.585134
0.585752
0.585683
0.585599
0.585581
0.585545
0.585567
0.585481
0.585219
0.584749
0.582893
0.579237
0.570344
0.515075
0.567493
0.588318
0.587125
0.585106
0.584835
0.585798
0.586053
0.585565
0.585228
0.58541
0.585627
0.585525
0.585179
0.58328
0.58252
0.579534
0.547592
0.4691
0.497425
0.579641
0.591145
0.588549
0.585048
0.585604
0.585487
0.58591
0.584475
0.584523
0.584648
0.584624
0.585203
0.585068
0.583014
0.575447
0.569972
0.522706
0.503799
0.582566
0.589106
0.588628
0.587033
0.585868
0.585635
0.585454
0.585691
0.584846
0.585608
0.585284
0.584541
0.583828
0.58321
0.575594
0.566949
0.470259
0.551887
0.585258
0.586793
0.587194
0.586817
0.585681
0.585179
0.585207
0.584755
0.585385
0.585866
0.586061
0.585446
0.584048
0.578856
0.579663
0.563484
0.437649
0.555046
0.586613
0.588134
0.586548
0.586371
0.584182
0.583964
0.585185
0.585127
0.584516
0.58456
0.584985
0.584882
0.583616
0.580722
0.576578
0.535487
0.497535
0.571699
0.586569
0.587117
0.586622
0.586134
0.585966
0.583702
0.584482
0.585788
0.585476
0.585266
0.584949
0.584247
0.582441
0.575328
0.569261
0.519549
0.52695
0.58255
0.584804
0.583489
0.585869
0.586607
0.586121
0.585927
0.584112
0.584477
0.585761
0.585243
0.585317
0.584883
0.582861
0.577342
0.561508
0.406091
0.551282
0.58672
0.588332
0.586079
0.586135
0.586285
0.584727
0.585143
0.584329
0.585755
0.585141
0.585714
0.585951
0.585062
0.583395
0.575963
0.543447
0.381454
0.497139
0.575528
0.588229
0.587313
0.58589
0.585638
0.585864
0.584407
0.585568
0.585604
0.585203
0.585649
0.585038
0.58473
0.585657
0.582503
0.57747
0.536221
0.497989
0.580087
0.588487
0.587553
0.585966
0.585559
0.585382
0.585614
0.584257
0.58523
0.585608
0.585713
0.58583
0.58577
0.584567
0.582315
0.572283
0.519308
0.498679
0.581932
0.588873
0.587513
0.585645
0.585131
0.58532
0.585439
0.585556
0.585775
0.584556
0.585682
0.585717
0.586078
0.583637
0.579503
0.567257
0.410671
0.498049
0.582191
0.588921
0.587203
0.585438
0.58391
0.584306
0.585234
0.585583
0.585472
0.585851
0.585427
0.585485
0.584661
0.583527
0.576308
0.543381
0.384719
0.556636
0.587403
0.587122
0.58609
0.584939
0.583814
0.583345
0.584374
0.585227
0.586023
0.58577
0.585806
0.585846
0.582831
0.582589
0.575605
0.535915
0.496223
0.563562
0.590459
0.59003
0.585733
0.584788
0.584108
0.583439
0.583861
0.584434
0.585298
0.585717
0.58571
0.585399
0.585293
0.583934
0.577038
0.540443
0.497774
0.58157
0.589645
0.586753
0.585664
0.584496
0.584571
0.584217
0.583941
0.584311
0.584421
0.584715
0.585683
0.583872
0.583259
0.583263
0.57754
0.540572
0.501209
0.582551
0.589895
0.589541
0.587111
0.585015
0.584522
0.585472
0.584417
0.584055
0.58508
0.585493
0.584864
0.584585
0.584268
0.583263
0.58213
0.53889
0.499912
0.581618
0.589239
0.588932
0.587532
0.586032
0.584932
0.584331
0.585589
0.58509
0.585339
0.585602
0.5858
0.58556
0.585177
0.583209
0.581487
0.538193
0.498125
0.581248
0.588092
0.587746
0.587051
0.586241
0.585617
0.585259
0.585124
0.585497
0.585912
0.586253
0.586052
0.585816
0.584778
0.584402
0.578991
0.528458
0.500281
0.581695
0.587122
0.586613
0.586158
0.585734
0.585723
0.585565
0.585498
0.585443
0.585051
0.585629
0.585703
0.585474
0.584415
0.580757
0.571946
0.494473
0.550306
0.582101
0.586573
0.585901
0.585692
0.585253
0.584421
0.585651
0.585755
0.585755
0.585745
0.585661
0.585588
0.58543
0.584325
0.581147
0.569957
0.481408
0.548102
0.581444
0.58594
0.585717
0.585839
0.585627
0.585623
0.585781
0.585525
0.585211
0.585806
0.585908
0.585748
0.585625
0.58428
0.580756
0.569505
0.473607
0.493662
0.565824
0.580591
0.583519
0.584962
0.583931
0.584768
0.585157
0.585225
0.584551
0.584503
0.584167
0.585451
0.586081
0.585782
0.584363
0.578337
0.566194
0.470231
0.496326
0.572897
0.583907
0.578916
0.583285
0.58501
0.583708
0.5857
0.583567
0.583182
0.583264
0.58266
0.583938
0.585563
0.585645
0.583946
0.578574
0.546567
0.570117
0.582023
0.585022
0.585609
0.585466
0.585265
0.585918
0.580674
0.581014
0.582044
0.581059
0.583634
0.586247
0.585438
0.582334
0.578609
0.540007
0.473258
0.562766
0.580398
0.584463
0.58566
0.585725
0.585618
0.58575
0.585687
0.584308
0.579755
0.578922
0.583549
0.586202
0.584988
0.580693
0.575455
0.525889
0.40319
0.560021
0.578163
0.583992
0.585477
0.585612
0.585817
0.585857
0.585886
0.585487
0.58415
0.581173
0.583107
0.586118
0.585982
0.582301
0.573511
0.51911
0.384935
0.556154
0.572963
0.582425
0.585139
0.585488
0.585823
0.586002
0.585432
0.585738
0.585525
0.585464
0.585617
0.586317
0.585194
0.582297
0.572215
0.475392
0.56594
0.565257
0.580902
0.584776
0.585305
0.585554
0.585952
0.584276
0.584933
0.58552
0.585931
0.586128
0.586149
0.584201
0.579461
0.565319
0.437415
0.394103
0.566119
0.582156
0.583776
0.584789
0.585476
0.585631
0.585868
0.583757
0.584072
0.585198
0.586087
0.585589
0.583402
0.577404
0.563106
0.402953
0.321311
0.525634
0.574756
0.580983
0.585196
0.584132
0.584882
0.58589
0.585751
0.585869
0.58496
0.585587
0.586167
0.585735
0.582413
0.577641
0.559578
0.383275
0.509823
0.578232
0.577552
0.582855
0.586163
0.585755
0.584887
0.58594
0.584894
0.585608
0.585719
0.585986
0.586205
0.585892
0.581933
0.574905
0.533168
0.519049
0.55763
0.579602
0.584775
0.586345
0.586073
0.585519
0.585865
0.585794
0.585504
0.584884
0.585441
0.585634
0.584388
0.580741
0.571858
0.525752
0.375237
0.536831
0.57456
0.579845
0.580914
0.583239
0.584432
0.584869
0.585914
0.585541
0.584016
0.583527
0.585485
0.586071
0.583658
0.578175
0.564877
0.40052
0.475575
0.560702
0.576441
0.58316
0.581696
0.583138
0.577763
0.582084
0.585865
0.58298
0.585213
0.585636
0.585461
0.585401
0.581612
0.573802
0.560151
0.370635
0.493815
0.57709
0.56633
0.57815
0.583269
0.584738
0.585352
0.583195
0.579016
0.585325
0.584008
0.585437
0.585613
0.584889
0.58168
0.570988
0.562005
0.389828
0.513364
0.580773
0.576722
0.581755
0.584898
0.58565
0.585769
0.583867
0.585764
0.582566
0.585892
0.585512
0.584688
0.584276
0.582918
0.575875
0.565557
0.412365
0.490433
0.554822
0.582899
0.582286
0.58182
0.585679
0.583061
0.575622
0.583551
0.58503
0.585606
0.584866
0.584008
0.583347
0.585422
0.580933
0.576044
0.521651
0.417687
0.503173
0.58378
0.578185
0.582744
0.582643
0.585689
0.576801
0.561654
0.572017
0.585545
0.584434
0.585799
0.585522
0.585104
0.58392
0.582373
0.575571
0.55538
0.396639
0.571329
0.587219
0.584225
0.583986
0.585625
0.575352
0.562153
0.566426
0.578541
0.585726
0.585763
0.585643
0.584256
0.58295
0.578575
0.577895
0.537218
0.375024
0.566319
0.590154
0.584328
0.583951
0.585134
0.566229
0.565549
0.577882
0.57851
0.584788
0.585651
0.585291
0.584649
0.583296
0.579809
0.575059
0.527888
0.564729
0.589699
0.586889
0.582913
0.585452
0.570801
0.560546
0.572283
0.583266
0.583482
0.585745
0.585836
0.584587
0.583701
0.579551
0.572036
0.517427
0.562861
0.573222
0.584721
0.583552
0.585938
0.566732
0.560585
0.567455
0.576234
0.58314
0.58555
0.585829
0.585414
0.582857
0.581221
0.570721
0.464563
0.492259
0.578546
0.583724
0.583787
0.584716
0.58578
0.577788
0.564759
0.573049
0.58055
0.585473
0.585703
0.584818
0.584902
0.583409
0.576024
0.563139
0.423474
0.497478
0.579875
0.581624
0.582801
0.583469
0.585528
0.56861
0.568284
0.57607
0.584347
0.58581
0.584589
0.582605
0.584731
0.582972
0.579973
0.54113
0.505087
0.589901
0.590981
0.5852
0.584292
0.585746
0.574632
0.564911
0.573119
0.584064
0.585668
0.584675
0.585914
0.584758
0.582974
0.578307
0.530594
0.512071
0.592689
0.592965
0.58718
0.583984
0.585617
0.568181
0.571129
0.582419
0.585598
0.585629
0.584703
0.586175
0.585412
0.583207
0.576398
0.531483
0.515209
0.594105
0.593378
0.587278
0.584165
0.585513
0.573086
0.572317
0.581442
0.585728
0.58536
0.584737
0.58615
0.584983
0.582505
0.575017
0.496285
0.515467
0.593053
0.591145
0.587468
0.584113
0.584761
0.58574
0.579339
0.581027
0.585624
0.584705
0.583992
0.585809
0.584268
0.579889
0.56869
0.48017
0.574076
0.591892
0.585049
0.583881
0.58458
0.585733
0.585235
0.585731
0.585749
0.585656
0.584797
0.585836
0.585287
0.583381
0.578372
0.564569
0.437815
0.55436
0.552745
0.582162
0.585653
0.584089
0.570972
0.579849
0.585773
0.585368
0.584717
0.585404
0.584723
0.581348
0.574369
0.548807
0.421113
0.551474
0.579018
0.575578
0.585179
0.571438
0.567063
0.573274
0.584815
0.585622
0.585036
0.583745
0.581948
0.58116
0.572501
0.527076
0.570283
0.575053
0.581768
0.577585
0.580458
0.572797
0.567457
0.57545
0.583663
0.585809
0.584989
0.58532
0.582768
0.576992
0.570347
0.515405
0.566451
0.593073
0.586647
0.576657
0.57612
0.585589
0.574726
0.577624
0.585695
0.585232
0.584274
0.581694
0.580833
0.576412
0.566267
0.42515
0.559622
0.589789
0.586573
0.578271
0.57381
0.57443
0.583046
0.584977
0.584724
0.583582
0.58288
0.579495
0.575235
0.567002
0.561394
0.424884
0.498085
0.561431
0.583734
0.585979
0.577912
0.572439
0.575325
0.578017
0.57906
0.572634
0.571338
0.574206
0.578932
0.574538
0.564768
0.508267
0.497
0.575017
0.585756
0.580362
0.583841
0.575972
0.575841
0.578328
0.583755
0.581466
0.577528
0.575306
0.572975
0.566903
0.519939
0.55595
0.502259
0.575709
0.580212
0.581509
0.583627
0.577606
0.580016
0.579982
0.58121
0.582159
0.575602
0.573133
0.57253
0.573468
0.520537
0.491331
0.547843
0.582317
0.524884
0.556022
0.574697
0.583405
0.581964
0.583818
0.58416
0.583016
0.577049
0.576411
0.576932
0.570943
0.539913
0.335351
0.538005
0.520335
0.551749
0.576555
0.574369
0.577285
0.581235
0.577062
0.57639
0.577648
0.579411
0.577266
0.577569
0.574158
0.550011
0.509235
0.479427
0.504709
0.539389
0.57087
0.577065
0.576998
0.580821
0.581336
0.578116
0.57623
0.574174
0.573857
0.567182
0.574593
0.546529
0.461786
0.563303
0.513793
0.556163
0.575163
0.578769
0.580331
0.578005
0.575954
0.575556
0.57573
0.575979
0.579057
0.57339
0.567476
0.487348
0.480419
0.559466
0.572187
0.506954
0.548832
0.576085
0.582042
0.58054
0.576372
0.575797
0.573618
0.573371
0.574758
0.580938
0.543697
0.495879
0.521644
0.565611
0.570531
0.511425
0.529497
0.57096
0.57904
0.578092
0.576242
0.575246
0.575277
0.566767
0.583305
0.578512
0.538746
0.475475
0.524852
0.509385
0.53027
0.545879
0.576128
0.577652
0.576146
0.571836
0.572633
0.554783
0.58002
0.566096
0.486284
0.475043
0.513359
0.513458
0.528511
0.540456
0.536279
0.574626
0.575925
0.574647
0.564612
0.582787
0.578782
0.536785
0.415349
0.561719
0.569576
0.513959
0.526751
0.563894
0.539432
0.52806
0.57502
0.574488
0.566642
0.582061
0.570483
0.528895
0.375126
0.55691
0.567677
0.521306
0.523695
0.539116
0.565765
0.547614
0.53563
0.534399
0.544654
0.582747
0.57173
0.484955
0.373003
0.552262
0.507823
0.52595
0.52178
0.526041
0.554007
0.551769
0.561099
0.526996
0.515182
0.583523
0.574212
0.485074
0.364917
0.547421
0.50026
0.524705
0.521344
0.51732
0.544772
0.567107
0.574711
0.556905
0.525543
0.586009
0.557512
0.490992
0.370404
0.549782
0.557603
0.522727
0.521264
0.519044
0.496514
0.556154
0.567313
0.545582
0.583271
0.587097
0.560841
0.48934
0.343716
0.35455
0.552144
0.560178
0.521317
0.523608
0.518147
0.508846
0.548059
0.518871
0.512344
0.58972
0.565371
0.562332
0.522001
0.527449
0.526536
0.576649
0.533294
0.525211
0.530347
0.551811
0.55986
0.565413
0.516133
0.504255
0.583152
0.58916
0.58172
0.511238
0.0765649
0.524535
0.567191
0.520978
0.52316
0.586416
0.571123
0.186095
0.251714
0.518309
0.453488
0.578229
0.583379
0.503463
0.482863
0.3856
0.57651
0.582607
0.541121
0.375786
0.494955
0.547461
0.575785
0.582054
0.505321
0.365223
0.550203
0.268213
0.402174
0.554576
0.530745
0.557759
0.559334
0.553749
0.555684
0.544468
0.539901
0.552569
0.536489
0.524897
0.502389
0.357577
0.0810134
0.524998
0.518249
0.652517
0.687772
0.534284
0.597974
0.627008
0.648529
0.662963
0.684813
0.697939
0.70755
0.692773
0.527498
0.576206
0.600443
0.609965
0.616818
0.622434
0.633433
0.646494
0.650839
0.66895
0.679608
0.688345
0.689009
0.683378
0.662794
0.522742
0.569485
0.595107
0.597121
0.596873
0.598528
0.601753
0.607977
0.620255
0.639052
0.638718
0.626689
0.651422
0.670472
0.683395
0.682547
0.678968
0.656737
0.618232
0.588534
0.631702
0.716619
0.525486
0.559088
0.590572
0.592859
0.592323
0.59089
0.589974
0.58959
0.592297
0.598063
0.607188
0.619909
0.636462
0.623401
0.565723
0.584737
0.677805
0.682179
0.679257
0.67617
0.658214
0.621573
0.578703
0.534595
0.571381
0.584599
0.589249
0.591194
0.59093
0.588419
0.585595
0.583362
0.583741
0.586909
0.589271
0.594378
0.602896
0.613422
0.624943
0.615888
0.568362
0.583852
0.67304
0.682805
0.682956
0.678105
0.663444
0.603041
0.549308
0.584878
0.589642
0.59068
0.586861
0.585281
0.546516
0.540476
0.525195
0.577134
0.580816
0.584304
0.58908
0.588502
0.592428
0.59915
0.603656
0.608925
0.610521
0.566774
0.574696
0.66488
0.673483
0.674437
0.648701
0.494512
0.551787
0.574889
0.57654
0.584146
0.583147
0.583218
0.578958
0.57813
0.579167
0.577222
0.558442
0.586205
0.589204
0.536486
0.586295
0.549181
0.596385
0.597226
0.596403
0.600405
0.546406
0.564927
0.632693
0.603248
0.503976
0.566764
0.575354
0.580262
0.585282
0.585689
0.585672
0.58161
0.580878
0.57869
0.576188
0.578136
0.579481
0.580753
0.57817
0.563341
0.586192
0.586464
0.566383
0.592419
0.59044
0.586345
0.582218
0.582401
0.547433
0.543214
0.499439
0.567892
0.583196
0.581491
0.581028
0.585468
0.586487
0.586227
0.584478
0.581646
0.578823
0.579365
0.575706
0.57778
0.579245
0.58116
0.587068
0.58625
0.587761
0.585172
0.58931
0.58539
0.580311
0.566877
0.539668
0.504169
0.544022
0.585242
0.588169
0.587038
0.583079
0.582572
0.584684
0.58527
0.585947
0.583447
0.583785
0.583511
0.582507
0.582258
0.581193
0.582618
0.58285
0.582002
0.587507
0.580347
0.585291
0.58617
0.585019
0.577393
0.546587
0.512503
0.572571
0.586542
0.581507
0.586097
0.585789
0.583762
0.585299
0.583467
0.583931
0.583592
0.583869
0.584901
0.585189
0.583676
0.581842
0.582985
0.583861
0.584484
0.585505
0.576621
0.586858
0.545592
0.552955
0.542382
0.368739
0.517052
0.493027
0.551766
0.583147
0.586481
0.585984
0.585496
0.584544
0.585658
0.585565
0.585333
0.585226
0.585109
0.585415
0.585293
0.585259
0.584659
0.582716
0.58323
0.584626
0.585326
0.586803
0.587903
0.539175
0.504195
0.498207
0.558977
0.581661
0.583663
0.585654
0.583892
0.583882
0.585889
0.586172
0.586703
0.586306
0.585261
0.585642
0.585756
0.585243
0.584538
0.584676
0.58451
0.582366
0.582331
0.582645
0.583116
0.577348
0.544653
0.554985
0.594628
0.588572
0.587026
0.583434
0.585096
0.58349
0.579112
0.584933
0.585926
0.585885
0.585081
0.585876
0.585228
0.586433
0.586409
0.58621
0.584884
0.583521
0.582682
0.580321
0.578797
0.58028
0.571602
0.537831
0.556357
0.595555
0.599753
0.595953
0.59143
0.58728
0.585993
0.584559
0.582115
0.583043
0.585928
0.585992
0.586078
0.583307
0.583684
0.586132
0.586335
0.585774
0.584706
0.582427
0.580386
0.578834
0.55524
0.571891
0.528433
0.566241
0.597923
0.595549
0.596046
0.592643
0.59066
0.588227
0.585992
0.585629
0.585619
0.584754
0.584238
0.585396
0.585741
0.585141
0.584163
0.585739
0.586148
0.584838
0.582018
0.580653
0.578517
0.574663
0.543367
0.501495
0.512417
0.569942
0.598677
0.596282
0.594462
0.591838
0.590773
0.589038
0.588019
0.586399
0.585922
0.586037
0.585936
0.585663
0.584972
0.584908
0.585708
0.586203
0.586168
0.585926
0.585822
0.583285
0.579786
0.576918
0.550492
0.514937
0.512144
0.569146
0.598662
0.595053
0.592951
0.590796
0.589272
0.588177
0.587364
0.585807
0.584942
0.585611
0.585859
0.585785
0.585847
0.585877
0.585282
0.583598
0.583018
0.584692
0.585636
0.585883
0.584099
0.580231
0.565594
0.527816
0.514168
0.585507
0.598682
0.59238
0.591061
0.589487
0.588109
0.587029
0.586049
0.585293
0.58483
0.58373
0.584536
0.585648
0.585854
0.585503
0.585332
0.58552
0.58583
0.583541
0.579247
0.58126
0.581349
0.57303
0.576764
0.545655
0.495422
0.50493
0.579144
0.597241
0.596087
0.591563
0.589175
0.587756
0.586154
0.58517
0.58483
0.584629
0.584754
0.584747
0.584397
0.585225
0.586105
0.586143
0.58586
0.585679
0.586025
0.585769
0.583314
0.581852
0.578543
0.556626
0.570458
0.432433
0.557817
0.597667
0.593522
0.59189
0.589464
0.587956
0.586499
0.584259
0.583883
0.58433
0.584833
0.585148
0.585425
0.585562
0.585724
0.586165
0.586316
0.585978
0.584837
0.584502
0.585152
0.583283
0.583225
0.576818
0.577958
0.530609
0.54806
0.592796
0.596598
0.594424
0.591004
0.588724
0.587509
0.584789
0.58128
0.580282
0.58175
0.583578
0.58489
0.585691
0.58618
0.586457
0.586462
0.58612
0.585747
0.585671
0.585
0.58605
0.587019
0.584083
0.581615
0.530846
0.513206
0.58262
0.595708
0.594375
0.591474
0.589529
0.587851
0.585689
0.582925
0.578946
0.576538
0.576526
0.578994
0.582473
0.584574
0.585635
0.586083
0.586115
0.58581
0.585647
0.586483
0.586377
0.58693
0.589941
0.58923
0.539487
0.554262
0.592692
0.593853
0.591831
0.589993
0.587978
0.584075
0.579793
0.577263
0.575327
0.57334
0.572626
0.574171
0.577769
0.581815
0.584224
0.585117
0.585304
0.585369
0.585817
0.586587
0.587138
0.585717
0.579325
0.564111
0.540428
0.588811
0.589247
0.590292
0.590149
0.588626
0.584552
0.577333
0.571368
0.56935
0.569313
0.56858
0.567857
0.56941
0.573095
0.577885
0.582123
0.584205
0.584942
0.585584
0.586337
0.586452
0.586433
0.587541
0.585443
0.50995
0.506977
0.577248
0.591683
0.589404
0.589409
0.58892
0.586554
0.581637
0.572524
0.565492
0.562408
0.562346
0.563459
0.564571
0.566007
0.569872
0.575626
0.580007
0.583041
0.585094
0.586264
0.5863
0.586078
0.58745
0.587891
0.546517
0.505106
0.574586
0.590811
0.588803
0.588379
0.588458
0.587358
0.583655
0.577813
0.57077
0.564546
0.560865
0.558986
0.559255
0.561308
0.5651
0.569831
0.575449
0.5815
0.584554
0.586325
0.58721
0.587074
0.586339
0.57995
0.569478
0.500738
0.5453
0.589332
0.591201
0.588569
0.587488
0.587911
0.585762
0.580898
0.574803
0.568837
0.564593
0.562382
0.560856
0.55954
0.560653
0.56527
0.572775
0.579556
0.583992
0.587047
0.586943
0.586865
0.587329
0.577919
0.573524
0.506399
0.516641
0.583571
0.588608
0.590214
0.588346
0.5877
0.586871
0.584174
0.578755
0.573019
0.567647
0.564998
0.564698
0.564669
0.563091
0.562813
0.566334
0.574156
0.582358
0.586623
0.587599
0.587737
0.587317
0.57617
0.573745
0.505839
0.574106
0.591232
0.590648
0.589596
0.588475
0.587021
0.58318
0.580383
0.576665
0.572569
0.568375
0.56583
0.566469
0.568496
0.568381
0.567022
0.569467
0.576425
0.58457
0.587885
0.588243
0.588058
0.590222
0.576002
0.50495
0.51206
0.588889
0.591125
0.589582
0.588756
0.587384
0.585447
0.58151
0.576581
0.574519
0.572433
0.570269
0.567984
0.568056
0.571153
0.575043
0.574952
0.575059
0.582018
0.587182
0.58875
0.588502
0.588813
0.578701
0.546068
0.563698
0.590852
0.58984
0.588866
0.587691
0.584767
0.581547
0.5783
0.574596
0.571428
0.571268
0.570465
0.570544
0.569731
0.571525
0.577228
0.582892
0.584557
0.586501
0.588314
0.589488
0.589813
0.582021
0.571739
0.504723
0.49969
0.576817
0.592005
0.58948
0.5885
0.58683
0.582514
0.577793
0.574257
0.571868
0.569753
0.568969
0.570209
0.570889
0.57123
0.571742
0.575926
0.582698
0.586511
0.587838
0.588405
0.588626
0.59089
0.587368
0.505007
0.547385
0.587699
0.590028
0.588243
0.588324
0.586131
0.580644
0.574628
0.571107
0.568595
0.567359
0.567759
0.569371
0.572036
0.574626
0.576662
0.578436
0.582986
0.587209
0.588564
0.588001
0.588014
0.579962
0.563218
0.495394
0.512239
0.5866
0.591056
0.589835
0.589039
0.58798
0.582095
0.576226
0.57054
0.566925
0.564873
0.563988
0.564678
0.567668
0.571387
0.575841
0.581086
0.584875
0.586729
0.588239
0.588688
0.588276
0.58336
0.568327
0.5057
0.571935
0.585127
0.588574
0.588614
0.588693
0.58769
0.58289
0.572857
0.566658
0.563727
0.562182
0.56169
0.562218
0.56487
0.570006
0.575165
0.580365
0.584963
0.587134
0.586753
0.586078
0.58564
0.583195
0.536995
0.514626
0.586389
0.589438
0.589192
0.588878
0.587675
0.586344
0.583202
0.57552
0.567147
0.562471
0.560726
0.560853
0.561794
0.564056
0.568766
0.575235
0.580324
0.584664
0.587113
0.587217
0.585478
0.580081
0.559069
0.497693
0.564681
0.588066
0.588908
0.58886
0.587949
0.586089
0.583456
0.579832
0.575679
0.570488
0.5656
0.562791
0.562196
0.563535
0.565774
0.569523
0.575547
0.58196
0.585347
0.587333
0.58708
0.585201
0.578202
0.534653
0.512276
0.585752
0.589233
0.588856
0.588645
0.586803
0.583824
0.580276
0.576018
0.572
0.570262
0.569198
0.567234
0.566946
0.568395
0.571299
0.574323
0.578401
0.583422
0.587221
0.588058
0.586503
0.586965
0.579316
0.499958
0.564514
0.588368
0.588821
0.588644
0.587987
0.585545
0.582093
0.578232
0.574103
0.569779
0.566808
0.566774
0.568237
0.569905
0.572463
0.576345
0.581584
0.584676
0.586639
0.588261
0.587797
0.586525
0.578641
0.556863
0.51106
0.58571
0.589309
0.588854
0.588544
0.586792
0.584009
0.580475
0.576732
0.573113
0.569363
0.566237
0.564567
0.565645
0.568839
0.573295
0.57763
0.582425
0.586219
0.587716
0.58795
0.586595
0.587819
0.581559
0.499022
0.560149
0.588527
0.589105
0.588588
0.588095
0.585429
0.58189
0.57857
0.575554
0.572882
0.570076
0.566802
0.564916
0.565145
0.567973
0.572877
0.578542
0.582404
0.585778
0.587421
0.586583
0.586546
0.576566
0.555148
0.5697
0.583494
0.588134
0.588465
0.587492
0.584043
0.580053
0.576706
0.574233
0.572355
0.570893
0.569382
0.567394
0.566767
0.568794
0.573714
0.579814
0.583928
0.586192
0.587193
0.585263
0.583816
0.582235
0.50494
0.509975
0.584146
0.589333
0.58918
0.588836
0.587012
0.583151
0.578495
0.575023
0.572921
0.57159
0.570648
0.570143
0.570064
0.570231
0.571702
0.575291
0.580702
0.585742
0.587041
0.587004
0.584504
0.573659
0.557526
0.495834
0.514364
0.584194
0.588894
0.589428
0.588726
0.586614
0.582467
0.577158
0.573267
0.571313
0.570543
0.570245
0.570183
0.570602
0.571774
0.573919
0.577305
0.581447
0.585076
0.58713
0.586483
0.584563
0.569652
0.503763
0.540516
0.586846
0.589168
0.589613
0.588108
0.585392
0.580892
0.575664
0.571517
0.56915
0.568595
0.569283
0.570053
0.570853
0.572316
0.574861
0.578596
0.582637
0.585868
0.58731
0.585616
0.583706
0.567824
0.502416
0.570223
0.584615
0.588616
0.589234
0.587123
0.583675
0.579273
0.574315
0.57055
0.56797
0.56646
0.566938
0.569202
0.571146
0.572911
0.575509
0.579303
0.58352
0.586591
0.586847
0.585416
0.578046
0.552544
0.509539
0.581075
0.587059
0.58881
0.588666
0.585793
0.581668
0.577314
0.57317
0.570015
0.568187
0.566896
0.56614
0.567311
0.570415
0.573406
0.576474
0.580101
0.584082
0.586972
0.586576
0.583143
0.579632
0.502748
0.5349
0.585451
0.588416
0.589047
0.587734
0.584906
0.58059
0.575579
0.57145
0.568978
0.567973
0.567901
0.567878
0.568218
0.569936
0.573138
0.577014
0.581349
0.58492
0.587242
0.585927
0.583017
0.565772
0.495377
0.569439
0.582989
0.5877
0.588741
0.587114
0.583652
0.579658
0.574966
0.569985
0.566691
0.566208
0.567054
0.568459
0.569823
0.571322
0.573681
0.577208
0.58155
0.585589
0.587382
0.585566
0.581533
0.555236
0.507499
0.583449
0.588437
0.588861
0.588691
0.586567
0.582674
0.577829
0.573299
0.569289
0.565645
0.563628
0.564357
0.566678
0.569322
0.571955
0.574757
0.578248
0.582304
0.586175
0.58705
0.585745
0.579466
0.534661
0.536475
0.585699
0.588506
0.588596
0.588199
0.585821
0.581898
0.576391
0.57091
0.566742
0.564165
0.562643
0.562082
0.563696
0.567314
0.571167
0.574852
0.57889
0.583156
0.586489
0.586556
0.583424
0.580163
0.503864
0.558454
0.587819
0.588554
0.588983
0.587485
0.584277
0.580203
0.575158
0.569461
0.564385
0.561283
0.560455
0.561084
0.562101
0.56465
0.569428
0.57452
0.579217
0.583974
0.587134
0.586685
0.583256
0.564878
0.497538
0.569498
0.58231
0.587435
0.588605
0.587068
0.583584
0.579033
0.574251
0.569469
0.564459
0.560182
0.558104
0.558674
0.561175
0.564395
0.568648
0.57423
0.580081
0.584968
0.587432
0.585092
0.583935
0.558256
0.50204
0.58223
0.589445
0.589213
0.588468
0.586053
0.58285
0.578516
0.573809
0.569763
0.566212
0.562327
0.558792
0.557283
0.558895
0.56341
0.569175
0.575281
0.581445
0.586351
0.58719
0.585764
0.574898
0.532107
0.508825
0.585295
0.58829
0.589126
0.588446
0.585758
0.582258
0.578538
0.574147
0.57024
0.567256
0.564751
0.562116
0.55955
0.558844
0.561901
0.568559
0.576346
0.583164
0.587198
0.587104
0.583943
0.580182
0.501016
0.513368
0.583822
0.58818
0.588828
0.58846
0.585826
0.581911
0.578199
0.575106
0.57174
0.568547
0.565922
0.563951
0.562622
0.562071
0.563561
0.568805
0.577119
0.584428
0.587628
0.58579
0.58597
0.563546
0.557093
0.587606
0.588986
0.58928
0.588121
0.585816
0.581754
0.577333
0.574497
0.572715
0.570426
0.567737
0.564918
0.563084
0.563443
0.566091
0.571172
0.578783
0.585657
0.58768
0.585261
0.577043
0.549218