/*--------------------------------*- C++ -*----------------------------------*\
| =========                 |                                                 |
| \\      /  F ield         | OpenFOAM: The Open Source CFD Toolbox           |
|  \\    /   O peration     | Version:  2312                                  |
|   \\  /    A nd           | Website:  www.openfoam.com                      |
|    \\/     M anipulation  |                                                 |
\*---------------------------------------------------------------------------*/
FoamFile
{
    version     2.0;
    format      ascii;
    arch        "LSB;label=64;scalar=64";
    class       volScalarField;
    location    "140";
    object      omega;
}
// * * * * * * * * * * * * * * * * * * * * * * * * * * * * * * * * * * * * * //

dimensions      [0 0 -1 0 0 0 0];

internalField   nonuniform List<scalar> 
404911
(
237.521
159.24
3434.26
1536.58
142.42
164.301
131.778
602.682
340.999
281.651
217.836
289.014
147.16
261.488
398.874
1100.3
209.255
138.805
152.041
256.224
371.881
179.307
562.332
384.071
153.621
922.445
228.63
120.553
166.814
970.004
199.071
106.73
218.747
328.46
186.308
100.583
230.56
401.561
192.306
81.6758
212.458
1002.62
190.686
80.1302
84.5287
364.026
308.316
83.865
92.002
544.538
377.67
329.154
137.753
1323.14
325.781
566.761
9402.15
97.0894
301.605
202.286
165.682
96.3603
154.302
48.3647
59.9591
159.825
93.8108
208.013
94.8078
69.3983
98.0034
32.7681
110.914
65.073
37.0162
589.146
2262.94
222.641
52.6628
83.4961
53.2285
90.968
31.7755
77.366
65.1217
58.4975
245.594
43.3182
1121.38
63.8135
98.8435
2949.12
50.5553
68.1204
85.6904
57.0865
72.5134
72.044
42.2844
210.661
590.252
48.1612
63.6474
436.33
1144.51
401.472
167.106
589.398
257.669
195.309
139.7
137.806
127.716
138.956
2189.38
426.881
150.429
4449.63
504.849
106.786
108.478
107.881
113.65
174.94
1215.62
239.177
143.145
131.829
116.71
429.078
392.001
429.206
111.872
105.256
113.817
106.356
146.703
146.399
97.8029
194.285
1088.16
234.201
134.92
118.088
113.502
109.982
116.663
112.554
431.882
372.594
111.311
102.72
119.659
1690.01
195.329
898.254
189.06
120.212
108.966
111.356
106.815
109.803
113.949
114.14
110.531
106.52
104.084
102.72
111.04
174.561
325.068
508.17
373.243
341.88
365.425
357.022
428.74
113.212
115.455
106.901
106.825
105.79
113.806
124.47
128.306
126.092
223.739
629.448
399.04
336.146
332.959
281.209
293.762
464.162
368.062
105.062
108.141
106.959
115.101
122.08
128.463
154.071
1067.75
898.325
189.73
506.408
257.535
217.733
207.828
203.187
364.29
265.235
317.445
376.758
377.885
101.028
112.163
119.511
120.685
141.107
410.326
768.695
510.799
207.972
142.866
89.1071
139.774
204.615
205.786
153.734
203.084
181.229
155.164
93.3881
116.415
118.868
136.593
219.508
1109.17
1122.14
206.436
81.3257
117.958
87.8392
86.6765
89.8191
101.664
139.15
158.399
185.705
107.249
100.36
241.549
393.57
111.763
147.666
1016.31
375.927
106.786
70.2025
143.786
85.2168
79.7542
76.6775
79.0705
82.0952
92.8147
87.3421
90.7334
246.709
313.031
382.648
450.973
349.982
387.376
141.119
101.74
238.413
90.648
85.3457
94.5595
85.4911
92.0732
87.8915
76.4005
78.9388
121.47
291.638
353.191
390.762
1590.94
282.796
120.534
96.9294
71.4255
79.2011
84.5536
83.5634
80.0433
89.5493
108.716
98.7805
89.2116
77.745
139.957
321.031
359.244
175.185
935.738
889.409
793.368
229.409
135.794
51.6256
45.0576
81.8841
85.7281
88.6687
76.316
79.1706
90.1934
93.0914
82.0223
96.4217
289.946
129.176
459.959
1018.65
183.333
95.8178
126.906
85.5801
86.2028
83.0904
40.2028
82.7322
72.1494
76.7312
47.746
48.0621
87.4359
84.4797
92.6067
235.754
192.681
385.334
107.167
72.1493
56.2419
51.8271
82.1115
71.5312
82.3692
36.0412
59.2886
44.1785
37.7132
40.5104
56.6379
95.1382
136.109
127.404
912.361
1048.46
192.923
96.9528
66.7032
40.4253
35.5342
43.6835
60.9101
47.3673
49.0962
35.8645
67.6887
56.5739
77.6893
70.8691
79.0712
348.793
793.569
279.773
96.1566
71.8468
83.2588
82.6382
48.4529
62.4208
43.8842
31.3633
31.4552
32.1784
46.2335
60.752
81.3377
101.705
86.826
203.541
622.067
1013.36
805.717
256.21
102.595
99.0842
51.7007
62.0581
60.1109
46.7855
39.4377
30.2405
31.4925
35.0194
54.0454
92.1523
107.677
91.0061
356.114
357.871
115.397
121.204
81.0421
60.076
47.6611
50.2818
54.7208
47.8102
62.6252
55.3672
31.6094
36.4615
51.4376
58.1427
84.364
198.921
888.871
133.039
82.4764
95.7086
53.9254
52.0959
44.7991
42.5097
58.5653
70.8841
75.6689
64.157
51.963
46.6455
51.1106
96.4637
97.8193
232.825
354.953
94.5432
103.431
77.9963
47.9651
38.1683
48.4598
40.8242
43.2785
57.0936
74.2743
64.0699
49.2337
72.2931
66.8003
110.18
113.71
886.376
184.215
77.0799
59.6817
43.5049
39.4616
33.3828
36.5583
63.4803
31.1389
30.0449
45.7933
54.51
74.3686
85.7752
117.417
109.467
206.803
1079.29
379.809
117.943
75.9007
51.4659
40.7535
34.4395
42.569
40.0876
31.2929
34.2078
33.5038
31.1031
37.5123
47.2063
113.736
67.4779
120.24
909.194
1036.11
167.383
75.3189
90.3959
49.9521
38.3648
35.1719
31.5079
30.0803
38.9782
27.9441
39.8509
38.6676
39.875
48.8145
61.1378
94.0571
214.412
351.876
98.5998
71.0372
48.7474
39.8241
35.7552
33.1489
33.027
40.7895
28.2464
27.3399
29.0522
47.6883
59.2068
74.4409
93.1796
115.246
901.707
1047.41
166.079
74.2413
57.6234
43.0356
36.3978
33.2349
32.4586
31.7063
32.6954
44.093
39.2879
40.2231
37.049
53.3279
64.4439
119.415
195.259
817.208
103.881
74.3269
53.1061
40.8338
34.9749
32.2699
31.7022
30.9223
30.302
29.39
30.3125
32.0303
36.4546
47.6362
80.9852
133.845
244.168
201.162
83.1599
78.4356
54.1928
40.3817
33.8115
31.9235
31.0241
31.1102
30.7071
30.0472
30.3391
32.3034
37.2507
55.1921
81.254
106.642
421.739
179.64
100.913
86.7722
51.012
39.1765
31.8314
30.0709
30.5308
32.3206
32.0527
30.0582
30.6999
33.3979
43.1763
57.3386
79.0193
176.031
1022.42
1071.69
126.794
71.2739
70.939
54.7974
36.8004
31.8681
28.4677
38.338
37.3942
34.2123
34.1504
32.9389
34.4492
44.4949
87.1316
105.764
375.458
848.125
113.912
74.1095
49.2384
39.5645
34.0897
30.6692
29.5354
27.9776
36.4551
31.7463
32.0769
34.8864
37.6066
44.131
84.5024
109.513
967.098
222.237
96.0335
76.0368
49.9561
39.8769
35.5662
32.0837
29.5925
30.6251
28.5442
27.7654
28.838
32.8167
37.5915
64.9888
67.1015
114.806
1005.36
209.419
83.8322
58.6402
45.5084
37.2192
42.6059
39.8363
31.5883
29.1041
31.1535
31.6325
31.473
33.3973
38.6523
57.6918
74.9332
191.989
950.721
142.752
81.9247
57.5004
41.795
35.7498
31.4632
40.1449
39.0979
27.748
28.321
29.4083
31.0171
33.9907
41.1176
73.708
91.2471
360.536
357.352
100.627
81.1148
68.976
42.0211
32.9374
29.4757
27.1907
37.1676
38.8186
27.3052
31.1387
31.6241
34.04
41.0542
65.9801
104.779
909.978
213.076
82.2997
57.9982
44.2788
36.2817
31.2807
38.4326
35.4892
37.5137
26.0948
34.6445
31.0452
30.0607
34.4024
40.7413
72.8748
144.071
1040.59
967.378
127.325
75.9413
58.7423
42.667
35.2467
30.2059
37.3853
33.6513
33.9943
35.0299
25.0685
34.1149
37.8039
34.8336
47.2317
69.8064
168.878
961.4
118.789
73.8025
51.6748
40.9106
34.9941
30.7719
28.6355
36.2557
35.8956
34.4791
31.4497
26.6131
30.7805
36.032
49.5592
78.7233
334.752
947.266
118.321
74.7302
49.7041
40.6781
35.116
30.9713
29.266
28.5331
26.1257
22.6476
30.1426
30.9184
30.6111
40.1084
61.227
90.3638
808.886
944.597
115.574
73.9346
49.2479
39.5054
36.7013
32.9891
30.0244
29.272
30.1579
27.2383
23.8304
33.2669
38.9761
44.2353
77.3316
142.755
1037.96
212.948
100.042
79.9945
51.5178
39.8535
35.531
33.5361
30.7536
29.7238
27.1026
26.2858
26.4884
27.0426
41.2213
46.3275
77.9496
164.584
1071.01
193.107
83.5309
63.7716
50.9428
40.267
34.4743
33.013
31.6394
31.859
30.0464
24.6325
28.833
34.0419
36.3308
44.507
78.5301
160.831
1021.26
121.563
84.1859
74.984
49.258
41.7525
35.9646
33.5096
32.6959
31.08
32.5391
31.0685
27.9921
38.0623
44.0702
56.9579
83.9789
176.078
900.185
118.288
76.0937
51.188
43.1959
39.1461
35.3406
30.3743
35.3668
35.1518
30.7103
29.3436
31.2664
33.4536
38.7187
59.4221
73.064
187.782
966.35
118.4
75.2877
50.1697
40.2891
36.2494
33.1716
33.2168
28.5578
35.3069
34.3531
31.0549
30.7396
33.6619
39.3581
63.8885
77.3687
204.008
967.601
122.117
76.6137
49.7728
39.3992
34.9976
31.4579
29.8932
30.5914
29.7333
28.1436
27.5663
30.4229
33.8306
43.0858
59.9554
85.9511
344.881
901.034
115.033
76.2084
49.3587
38.2598
34.7943
30.8864
29.1755
29.1941
30.619
32.1684
29.6127
30.6486
34.3895
43.0841
74.6285
107.092
898.976
223.441
111.513
75.5807
48.8805
37.0418
32.5365
34.852
30.1354
29.1979
28.6783
29.4557
29.5758
30.5276
33.8011
42.3636
69.2196
108.603
981.401
227.451
107.321
71.9874
48.5014
36.6757
30.2026
28.3746
28.9461
25.4651
24.7243
27.6987
28.8036
30.744
33.0862
41.5821
69.3648
106.617
948.332
1090.95
146.142
102.517
72.3422
45.1014
44.3002
38.2599
24.4613
24.9893
23.0011
24.2761
24.4145
27.3029
29.9565
32.9461
40.2338
75.2441
117.275
933.56
977.184
113.086
75.188
87.7148
47.451
33.7835
38.0426
29.6968
23.2118
22.5955
22.3276
21.3132
23.6203
34.6504
34.5421
41.9502
71.2698
153.534
117.142
71.949
46.0691
36.9193
32.2535
30.4048
25.7817
18.2834
20.1085
21.8179
20.0429
21.682
27.2797
33.7649
49.4594
68.3201
162.146
909.765
113.888
68.2677
41.9602
34.2889
31.4729
29.5931
28.3555
24.5836
23.517
18.8809
18.1018
23.4792
27.5994
35.3738
54.3926
73.7124
201.694
947.813
103.651
63.9943
38.6438
33.1253
31.4182
29.0353
28.644
27.7047
24.0093
23.2384
20.2117
22.8557
28.1477
34.4565
52.3069
78.5578
343.822
1044.79
100.337
70.7898
39.7291
32.612
30.6162
28.6831
26.2965
24.9903
27.0784
23.9324
25.7829
28.5246
29.3388
37.003
53.6306
84.1533
756.637
94.6071
94.6906
43.9015
32.6529
29.807
28.8954
27.9517
22.1807
25.8882
27.5844
26.6001
27.1036
30.329
39.0383
64.7391
101.087
858.443
660.816
116.226
41.8561
35.5122
31.5982
28.5397
28.8265
28.7299
21.2959
24.2165
26.2424
29.7056
31.9666
40.3614
71.1088
104.789
957.208
2074.23
221.403
78.3538
53.7476
33.6001
35.0471
32.2881
28.382
30.0305
28.3873
23.0243
28.3776
27.7271
32.7052
44.4087
69.2175
120.978
1005.97
195.558
58.1587
60.3266
42.8829
30.2407
31.6583
33.3791
28.7295
23.3819
27.3631
28.9823
25.6324
28.2071
31.9727
45.2724
72.9775
181.926
181.229
95.447
50.9194
33.7085
28.9317
29.3114
31.3852
29.4022
25.5452
26.94
25.6492
33.8738
31.2296
34.4472
50.2856
75.2772
197.765
1088.27
152.979
67.9239
48.8543
45.6591
42.4655
40.6762
38.1546
28.9963
25.2493
21.4704
20.698
24.8407
28.4682
37.5062
61.571
89.2422
757.439
860.8
107.556
70.651
37.9656
41.876
42.5516
76.6368
60.231
33.4328
21.4664
26.0556
28.8469
25.0268
30.9703
42.7312
74.6615
97.4637
886.793
733.5
77.5075
107.744
57.6634
39.3176
37.414
35.8545
47.7433
82.0865
29.4716
24.0784
28.2172
34.1692
36.4793
47.1666
87.9526
100.928
898.073
348.655
70.9187
72.1662
45.6283
36.4
34.3935
34.7027
24.7836
30.6621
54.2711
32.7624
35.4316
38.2269
39.0175
45.9792
87.6342
109.823
935.506
919.052
159.124
72.8164
51.789
45.9002
33.2694
23.2867
15.5478
25.1794
46.1675
35.96
37.5321
39.2024
39.7737
32.2595
51.539
78.662
229.05
943.609
808.788
86.6635
91.4202
52.2726
44.7097
33.5762
16.4276
8.02824
13.1165
31.2812
43.1446
28.7655
30.2269
30.947
35.7879
44.1295
70.5871
116.138
972.082
143.687
71.1072
49.1879
42.757
30.1276
15.4111
8.2675
10.2047
17.9473
31.5231
27.5232
30.6466
34.4099
37.761
60.8694
64.9351
160.062
1094.99
175.762
74.5027
70.1847
47.6522
28.3839
10.1904
9.92438
17.8258
17.9101
26.8199
32.5873
32.7437
33.5679
37.5416
57.8993
72.747
196.905
183.597
81.1511
76.7434
60.5945
30.8568
12.8358
7.67576
13.639
23.8822
23.5925
31.9937
29.0064
33.7962
36.9419
60.0848
77.008
340.741
157.214
151.614
90.1973
61.7068
36.0352
10.6071
7.75285
10.8976
16.0494
23.0443
29.1346
27.939
33.3423
42.286
55.9672
81.8034
772.425
858.315
98.0905
86.5498
72.2572
50.1628
33.3537
17.9897
9.5612
14.1907
20.2726
29.6636
33.9045
37.6417
37.1741
44.2141
79.4571
107.318
874.862
812.102
104.998
94.7867
69.4866
52.2617
30.6104
11.3272
11.3374
16.2885
26.4809
33.0252
38.9068
44.1182
38.5176
51.3183
69.9451
174.233
755.968
88.2055
63.6693
60.7302
50.0992
32.6929
15.0311
9.51098
14.0855
25.5247
35.6374
39.0703
32.1678
36.8101
50.665
74.1694
207.33
775.624
91.6588
66.947
61.1918
55.0866
31.2298
10.9784
12.7354
23.0653
31.77
35.2768
39.0657
32.729
37.3057
51.7813
78.7189
207.94
794.865
99.8733
69.7054
58.0865
56.4081
38.7792
13.4734
13.2921
21.0815
32.4601
36.3232
38.7958
32.0416
38.3238
55.6135
85.1777
762.769
806.752
103.631
71.7924
63.4698
58.4752
42.6219
31.7171
18.0412
19.9854
35.3094
38.6014
40.1479
31.5582
37.6457
64.6142
104.791
867.285
222.096
104.397
114.951
67.1864
48.0915
31.7062
27.6929
30.908
34.0918
34.851
37.5987
29.4527
31.5105
37.4351
64.3128
107.842
942.043
272.136
216.747
58.8965
36.963
25.7743
12.4492
18.5429
31.73
35.9613
38.0491
31.9391
32.8456
41.8202
70.7488
143.517
1075.1
253.487
116.618
87.1557
41.7157
12.7645
10.5007
13.9817
27.5278
35.4919
37.7262
40.6061
41.8925
43.7583
69.805
179.577
213.167
183.183
110.427
86.8269
56.7408
13.435
10.6674
15.5277
24.5296
35.3633
37.1794
29.9677
37.1315
62.3338
70.9249
198.809
232.986
89.2518
85.3767
97.6313
71.5423
35.4358
14.5631
17.0153
31.408
39.3441
40.7979
44.0813
42.8961
66.9876
91.6466
746.667
237.205
92.9329
94.3012
89.8939
92.8797
85.1531
47.6523
40.2791
40.7045
43.7876
41.265
55.871
74.5951
113.126
117.433
939.582
1078.93
213.003
109.351
66.891
88.8915
99.4871
86.6225
72.5329
56.3508
80.8555
86.5466
77.1705
51.0737
76.7417
127.548
383.959
1125.31
142.563
84.4621
88.9558
45.1795
78.5692
79.9699
74.4174
44.9864
50.9986
65.5598
80.3329
89.8326
103.449
212.755
162.813
892.89
135.189
94.995
64.9564
41.6194
67.5076
63.5592
69.0323
63.986
52.5334
73.8354
82.8943
93.2944
101.682
261.785
710.735
211.721
97.7282
349.525
130.451
79.5242
42.6215
53.5057
49.4686
48.6484
47.955
58.5526
54.8652
70.4092
98.7636
215.383
3976.95
217.036
450.612
201.695
88.9731
87.1585
68.2104
58.2051
81.4504
86.161
67.4564
51.5886
62.791
83.2567
113.554
204.434
692.347
956.879
528.86
230.491
108.549
75.1969
74.026
55.4468
53.7699
69.3356
76.4546
80.9755
84.0021
131.758
127.255
234.996
1074.43
122.413
347.83
158.472
79.4215
66.3757
55.6881
63.4659
79.526
84.72
88.2811
88.5222
80.7995
124.61
156.554
1301.76
1065.25
139.305
93.8186
265.585
192.106
87.0906
51.2199
55.7363
76.6878
80.5669
85.0916
92.5509
103.779
95.5474
228.764
1134.64
475.993
135.447
99.2053
377.056
233.711
107.648
61.8773
67.081
81.4658
83.1528
84.3203
116.471
78.0026
99.7374
234.234
1023.08
444.847
366.171
273.23
195.293
78.2491
74.9322
77.6846
100.332
90.0586
142.456
95.1669
148.113
1029.77
599.711
413.18
349.327
297.703
152.747
219.899
89.4105
78.3932
88.5989
115.652
77.4665
102.324
222.601
1044.6
120.851
93.3179
389.992
313.9
106.957
230.312
369.347
89.9228
96.2651
132.41
97.122
127.083
420.567
1100.76
131.263
99.0186
395.455
369.53
196.404
108.944
156.363
265.526
295.524
253.804
106.85
141.677
1078.55
1025.08
127.711
434.662
383.805
397.113
278.065
150.377
178.056
111.713
251.015
395.266
109.954
150.171
1164.69
1089.03
127.115
447.057
385.923
396.304
368.412
151.548
122.384
86.5215
160.54
399.643
112.724
221.088
1216.05
1040.6
138.486
104.57
409.104
371.589
404.553
516.568
128.82
107.215
251.433
113.236
128.309
226.122
1320.87
1317.57
1029.71
107.733
102.134
387.338
385.42
501.268
377.956
150.688
257.592
407.677
134.724
246.742
108.06
415.489
372.376
378.746
97.7359
407.938
416.928
441.244
419.009
110.603
96.597
366.979
442.624
117.926
137.054
200.806
1057.74
6164.08
485.298
96.8273
384.87
423.082
147.211
289.091
2698.73
1977.22
384.553
663.064
136.432
159.654
1046.83
361.248
651.553
136.09
151.32
473.494
712.948
489.285
158.741
134.074
177.638
1042.22
1036.04
193.936
1825.9
701.511
425.366
233.335
112.796
108.765
138.645
144.352
548.319
182.833
120.538
266.393
576.305
1375.37
1189.89
6310.38
372.323
1340.19
469.535
459.321
1259.46
493.159
310.753
221.565
203.293
186.812
181.052
188.062
337.317
1271.35
494.275
296.188
213.473
200.715
180.762
164.597
157.2
167.507
172.949
180.626
187.28
209.7
236.445
247.475
1164.65
447.544
219.839
195.878
174.327
166.205
159.105
153.2
152.719
149.74
155.242
162.194
156.345
170.009
198.862
220.926
247.35
263.664
289.451
411.118
498.898
995.544
853.306
407.173
195.977
174.627
170.809
158.779
148.438
141.688
141.052
145.089
148.96
148.908
148.871
139.356
457.425
464.902
174.343
200.837
208.419
241.044
261.608
314.108
650.84
435.62
226.946
166.787
154.726
138.876
133.605
137.969
137.36
133.431
126.445
128.643
137.721
148.536
149.186
146.839
141.118
133.948
418.573
470.345
148.264
180.65
202.643
238.853
298.274
1338.62
317.242
124.997
97.2917
93.2538
119.985
127.623
327.192
455.427
532.381
99.5166
113.606
120.307
115.643
127.058
129.424
144.251
143.173
128.019
120.615
399.409
461.969
146.973
178.497
229.918
564.524
1376.34
298.609
131.59
109.285
64.5506
72.4458
69.748
97.2488
115.948
107.971
102.135
174.655
102.118
113.782
425.149
135.999
533.097
126.711
140.506
141.966
136.35
443.334
462.965
184.702
497.059
1141.57
239.409
178.811
97.1795
44.9392
41.9262
44.1806
70.9079
52.9064
70.3703
110.688
107.9
94.7766
93.3076
171.339
266.457
142.304
128.997
317.114
138.551
144.188
140.763
139.059
155.051
398.221
322.267
1236.17
235.707
148.054
116.917
94.1989
43.3721
40.4285
39.7208
43.268
58.575
56.4611
59.9135
105.526
103.225
95.4584
97.2235
81.3534
98.1841
102.837
153.461
113.132
140.321
151.697
242.757
465.239
971.29
298.787
110.947
109.873
119.401
78.9754
82.0391
46.3113
41.6836
39.5197
55.1371
50.8407
38.9535
40.7292
42.7187
45.9316
44.1793
49.7504
79.0534
81.0938
159.553
134.303
145.056
143.104
155.62
409.911
988.655
162.288
91.8491
121.669
91.207
66.6635
72.0135
39.0266
48.0592
47.0541
49.153
49.6371
49.1791
46.8757
48.7815
45.0518
42.5383
41.0753
44.8159
52.4399
124.573
107.262
479.949
452.692
567.717
4391.27
673.018
1263.3
224.846
104.332
67.7524
56.6931
48.8041
52.1225
45.0968
46.1086
48.4555
49.8096
50.178
49.2852
48.4636
50.3776
51.7953
44.6515
45.9859
48.0477
55.325
71.5686
89.9865
468.031
1533.58
1164.32
255.308
103.444
60.682
49.3942
57.3552
49.7189
37.1026
35.7256
40.0446
44.0694
48.7064
47.8319
44.9935
46.3689
50.7517
53.3417
53.3921
51.8253
55.9672
66.7404
83.8993
131.9
342.301
358.987
125.366
154.997
122.379
94.0264
51.9802
43.0685
62.114
41.8618
36.5899
33.2762
30.5246
32.8806
29.434
38.3572
36.1414
37.6075
46.0532
53.8719
60.3102
72.0826
87.4352
78.5894
122.611
363.457
338.195
129.963
95.8511
92.8582
68.7906
62.4825
54.4413
48.5542
43.1364
46.5367
36.1125
34.752
35.6241
25.8483
26.1589
33.5446
34.5756
39.3971
44.3984
55.8569
72.4217
88.1102
187.023
109.617
350.403
303.097
110.014
117.655
97.9768
71.3597
58.7696
53.876
48.2172
43.2718
37.3228
36.7646
42.2642
37.6581
40.18
28.835
26.7512
31.0304
35.0127
43.3725
54.1619
63.2248
83.9334
118.197
191.835
722.747
1049.55
295.368
108.621
103.947
73.4714
65.1342
59.3145
54.6026
45.7704
36.7923
35.164
31.4449
30.1055
33.3276
41.4547
41.9904
39.9657
35.8692
33.5724
32.8906
29.9085
47.1559
69.0428
95.3455
170.331
312.842
1028.33
290.639
102.62
98.6769
68.9761
55.7488
48.5461
42.7834
40.2853
33.5411
27.8586
26.643
26.5527
25.7491
26.336
29.6793
31.5692
35.9949
44.1092
43.9791
31.9504
33.571
47.723
77.3827
177.097
343.622
918.081
183.043
98.225
103.298
67.5245
50.902
41.8637
35.395
30.8686
27.5978
26.8924
25.0523
24.3402
24.3934
24.4918
24.5766
24.63
25.0183
25.5249
30.1781
45.4348
43.2472
50.2274
85.305
101.231
235.818
1224.38
1115.21
195.924
92.8884
73.5872
60.1327
49.2427
39.821
31.2018
26.7247
24.7704
23.51
23.4549
24.1601
24.0679
24.4859
24.8862
25.2723
26.4216
27.5268
31.4008
29.1636
40.8089
53.1594
82.2323
130.307
110.296
1399.63
316.638
98.4615
103.516
67.071
50.4251
42.8417
32.1038
25.483
23.1339
22.3568
22.4824
22.7738
23.3625
23.9651
24.3824
25.071
25.9954
28.6492
36.0963
45.2549
45.3877
57.786
80.5294
116.377
113.227
331.957
360.665
124.127
86.0943
65.1407
53.2821
45.1848
36.3722
26.8734
21.4478
20.3269
20.9619
21.9735
22.882
23.6359
24.4307
25.2065
26.0568
27.292
29.5645
36.5202
46.4851
52.4805
63.1079
96.77
111.19
346.859
890.347
163.407
84.7591
76.8129
57.5959
47.2269
38.3479
29.497
23.2977
18.9821
17.2561
17.484
19.4343
21.7329
23.0955
24.2354
25.4
26.8195
28.7701
31.6508
36.1255
49.4362
64.4534
82.2133
90.0439
299.081
308.388
97.6455
71.0576
53.5135
45.1772
35.4638
25.9591
19.6258
17.3439
15.9999
14.6904
14.3142
15.5313
18.0484
20.7168
22.7514
24.4066
26.4489
29.2887
34.2478
41.3414
49.2107
82.7125
132.082
194.813
358.913
109.445
101.009
62.5538
45.4218
35.6695
26.3698
17.3599
13.1455
12.034
12.1282
11.6911
11.2709
12.1986
14.5812
17.8309
20.7255
23.0041
25.9094
31.0441
38.4884
47.8285
59.1218
80.7865
104.345
713.157
833.817
148.813
82.1449
72.1252
47.2039
36.4563
28.0043
21.165
13.7549
9.95868
8.59304
8.6176
9.11804
9.58517
10.2898
12.4108
16.0913
19.6669
22.3473
26.2938
32.4902
46.3483
58.4209
75.9039
89.1488
302.949
836.296
159.046
86.1064
78.454
52.2829
40.2043
29.4233
22.4355
17.0525
12.6624
9.4773
7.89332
7.1761
7.29861
8.14218
9.81628
12.2055
15.5607
19.9504
25.0523
30.7472
42.6576
52.4645
82.5544
127.824
168.132
967.259
312.915
100.943
78.8992
54.8239
45.1083
33.7809
24.7255
18.7382
14.9159
11.7269
9.61741
8.54138
7.89399
7.37794
7.85166
9.90587
13.7987
18.579
23.5824
32.9879
42.8475
58.1623
84.4578
130.862
150.846
803.644
680.187
129.417
102.404
62.6452
48.0056
37.5258
28.1429
21.5852
16.7633
13.6555
11.0589
9.77082
9.54663
9.3853
8.80343
8.73888
10.3801
14.558
21.3136
30.9926
39.5558
50.3592
84.8344
129.938
147.217
792.431
170.386
83.4659
59.8113
47.3038
38.7301
31.9611
21.4718
17.3187
15.0508
13.3368
11.2956
10.0276
10.0653
10.9139
11.0605
10.7343
12.0483
16.3744
24.8712
33.9921
43.884
59.7739
80.2844
132.128
787.014
676.124
98.7539
68.9174
48.8785
38.4127
30.4495
24.653
20.0889
15.2815
13.5643
12.5866
11.7702
10.6888
10.6099
11.8546
14.0267
14.8889
15.4252
21.4514
30.1173
41.9592
55.8206
82.4796
129.242
285.682
179.599
83.3341
58.4643
44.4052
32.3588
24.043
19.0107
16.1621
14.4407
12.3963
12.0089
11.5112
11.6965
11.3612
12.1106
14.8429
19.4842
23.6053
28.4037
41.8984
47.7652
74.9083
122.765
154.983
826.467
840.814
129.856
74.9747
53.0898
40.9573
28.4312
20.5548
15.9586
13.6065
12.4254
11.5887
11.1236
11.5194
11.8027
12.1451
12.6537
15.0684
19.6838
25.2683
33.307
44.3135
59.0719
73.7718
96.0603
735.838
248.456
92.8968
76.2235
55.4211
38.7355
26.3839
18.5233
14.1243
12.1816
11.028
10.4468
10.5187
11.0967
12.2369
13.7468
15.6011
17.293
21.6001
27.8001
35.5412
47.5852
69.0363
114.82
173.773
1098.15
634.003
90.8441
66.4241
51.6036
43.1718
34.4892
20.9239
15.1335
11.9675
10.4875
9.52743
9.14669
9.36656
10.4445
11.879
13.9895
17.762
22.6988
26.5707
32.2271
38.9845
49.9591
92.2084
145.614
790.088
142.221
98.0521
59.6663
47.2968
38.1835
30.0923
21.6212
13.3722
10.1379
8.92453
8.35671
8.16303
8.43152
9.42681
11.4957
13.8729
17.0759
21.9081
28.4253
37.0805
47.6259
66.9496
81.4125
313.967
616.989
93.0681
64.1249
45.8561
37.6242
31.1275
26.4456
20.751
14.5426
10.302
8.36046
7.75178
7.82326
8.21639
9.11734
11.1287
14.4205
17.7821
22.6192
29.2493
37.9303
51.4313
88.3148
142.533
889.423
167.924
79.182
53.8219
42.4612
33.4851
27.6238
22.4676
17.6391
14.2282
11.6092
9.52163
8.41088
8.2798
8.82584
9.82669
11.703
14.9796
20.1217
24.7158
31.9774
42.3997
64.3124
100.806
296.267
624.764
90.9899
64.5298
47.6286
37.0923
29.1784
23.2395
18.7707
15.1228
12.3876
11.3466
10.9142
10.0071
9.88921
10.6441
12.1497
14.096
17.0106
21.7098
29.0358
37.0173
50.6916
66.8157
101.677
782.544
167.381
78.0708
53.6028
41.993
33.059
25.9574
20.6077
16.6233
13.6331
11.3666
9.97818
9.86315
10.4035
10.9759
12.0467
14.1013
18.0344
21.9237
25.425
31.7666
43.595
67.7899
109.115
175.705
642.095
92.1322
65.2356
46.5936
36.5201
28.1926
22.7742
18.5084
15.2558
12.8886
10.9847
9.6718
9.01382
9.42341
10.7472
12.6581
14.7815
18.1876
23.2381
29.7082
36.6389
51.2463
67.0865
92.0834
744.479
173.674
76.1821
54.6725
43.7833
32.7835
24.7996
19.6909
16.4577
14.1914
12.5967
11.2804
9.89141
9.12369
9.21886
10.4237
12.8261
16.2295
19.0299
23.2345
30.5467
41.1169
51.477
105.664
169.157
138.676
98.1837
55.8292
41.4507
30.4434
22.5082
17.7309
14.9023
13.2238
12.1638
11.466
10.893
10.1559
9.94107
10.8725
13.3256
17.3714
21.6442
25.5868
33.1015
47.5939
70.0834
81.4551
611.511
664.425
87.0225
61.9958
46.9209
37.5902
28.8753
21.3444
16.4096
13.8061
12.4893
11.7619
11.291
11.0587
11.076
11.2515
12.0793
14.1664
17.9178
24.1625
29.3503
35.4642
51.0862
103.341
147.582
904.642
630.633
92.3613
56.5116
42.6526
36.2038
28.4242
20.5741
15.386
12.8394
11.7496
11.3166
11.1512
11.1009
11.2769
11.8388
12.9881
15.1426
18.5369
22.8778
29.097
37.0455
50.4854
106.835
565.646
278.359
86.3793
53.9731
40.3944
32.3377
26.2919
19.3058
14.3758
11.9335
10.875
10.583
10.8014
11.1013
11.4332
12.1385
13.5381
16.025
19.6796
24.7469
31.4
43.0768
62.1599
108.587
697.703
140.519
94.1014
53.5447
37.972
29.3195
23.3017
18.0243
13.7811
11.4278
10.3017
9.7986
9.97791
10.8142
11.6108
12.4385
13.9035
16.5612
20.7686
26.896
36.1597
46.5656
87.9885
160.792
638.135
99.2586
71.4778
45.2637
34.5467
26.8126
20.7444
16.2439
13.0634
11.1797
10.2627
9.79688
9.62517
10.1255
11.3514
12.6733
14.3647
16.9932
21.2097
28.2199
38.5641
65.5074
81.7435
635.74
292.431
85.4383
53.3101
39.4289
31.1614
24.9388
19.5136
15.1033
12.2037
10.7167
10.1516
10.0737
10.0956
10.3386
11.1488
12.6022
14.6684
17.9215
22.0558
28.6647
41.6845
67.3603
114.276
882.891
134.696
96.8416
55.0975
39.2079
29.6451
22.8742
18.1996
14.4815
11.6023
9.92885
9.54475
9.75252
10.2701
10.844
11.5894
12.8214
14.8309
18.0819
23.3121
31.1142
44.815
76.369
152.78
673.022
90.0526
62.1114
44.0254
35.8022
28.1575
21.5144
16.5428
13.2425
11.0529
9.49515
8.67705
8.84608
9.62169
10.6403
11.7875
13.2166
15.3939
18.7658
24.563
34.6576
46.4846
86.232
290.144
286.067
83.0817
52.1329
42.3428
33.2456
26.2967
20.4819
15.4807
12.0373
9.91772
8.76529
8.21326
8.0546
8.64437
9.95454
11.5216
13.2811
15.6808
19.4258
25.2529
37.1557
64.2079
80.8638
618.889
180.112
71.2715
48.7214
37.381
29.4624
23.4623
18.5452
14.4722
11.3003
9.03052
7.74783
7.36571
7.58142
8.04112
9.07971
10.971
13.242
15.9645
20.2169
27.5545
37.3597
67.1064
119.943
898.461
145.67
101.811
52.8665
36.6214
28.4976
22.3543
17.4649
13.7746
11.1238
9.00204
7.36589
6.58356
6.73591
7.60421
8.89444
10.7375
13.3491
16.8344
21.9231
29.9532
46.241
65.096
132.462
835.621
94.1465
60.1895
43.5659
34.0316
26.6277
21.4286
16.9246
13.4513
11.1736
9.57757
8.0924
6.82016
6.29097
6.84395
8.46222
10.7977
13.8213
18.0988
24.8605
35.2473
47.9797
98.5725
276.5
650.881
86.8645
63.7286
44.2829
34.4018
26.6169
20.8536
16.7899
13.5321
11.3683
9.9809
8.91991
7.9249
7.03902
6.84558
7.99855
10.6513
14.4506
19.726
27.9679
38.8582
68.9756
84.5602
658.23
598.061
89.0186
56.312
44.9469
35.1588
26.8208
20.5152
16.3844
13.8997
12.0202
10.5412
9.40829
8.57991
8.05833
7.91569
8.60384
10.8822
15.2827
21.6172
30.6181
46.3122
62.2991
129.459
183.336
72.7198
48.7248
38.6292
33.268
26.8274
20.2528
15.6686
13.4038
12.3833
11.3293
10.155
9.01508
8.29972
8.41366
9.47529
11.8351
16.3053
23.457
33.1462
49.8369
92.7079
173.145
175.431
70.3343
47.8301
39.4908
31.3282
25.4035
20.0277
15.3488
12.7564
11.8829
11.4702
10.8545
10.0159
9.1198
8.81348
9.85351
12.5127
16.9424
24.3903
36.0619
49.4459
100.226
571.249
148.15
101.299
53.6931
36.7402
28.9769
24.2751
19.5108
15.4278
12.5908
11.2238
10.8589
10.8089
10.7328
10.5287
10.4749
11.2863
13.7801
18.2169
24.9721
36.153
64.6615
106.329
607.609
145.503
69.7745
46.2034
35.3269
27.5441
22.106
18.2761
15.1174
12.6776
10.9204
9.9965
9.99614
10.4407
10.8692
11.5212
12.7945
15.4183
19.8673
26.3532
37.7028
57.0929
107.217
741.634
137.396
68.4698
46.1041
35.3963
27.2784
21.3491
17.016
14.116
12.3554
11.1643
10.0885
9.50169
9.75949
10.6375
11.588
13.1598
15.9308
20.343
25.9101
36.7809
60.6747
88.3254
843.155
809.046
99.226
63.4882
45.5902
35.5628
27.1138
20.7712
16.3152
13.3269
11.6512
10.8142
10.3003
9.91224
9.80685
10.3321
11.5113
13.3005
16.2475
20.6734
26.6666
35.0153
57.0872
117.293
626.631
94.148
73.9959
47.1741
35.3839
26.5064
19.9572
15.5875
12.8542
11.1671
10.3115
9.96941
9.92503
10.0838
10.4945
11.5212
13.351
16.2841
20.9753
28.1636
36.9413
59.9644
124.998
616.749
89.9931
52.9149
39.4928
32.1623
24.9842
18.6858
14.4134
12.0604
10.795
9.75056
9.22843
9.27299
9.73343
10.4177
11.4845
13.3107
16.2096
20.6347
28.1571
41.0472
57.8457
132.08
287.089
82.1503
50.8515
38.3841
30.2298
23.6976
17.7938
13.1372
10.5765
9.42663
8.67256
7.89477
7.73997
8.45337
9.69053
11.142
13.0998
16.1369
20.5474
27.6658
41.3664
74.2865
176.869
179.152
70.92
47.4101
36.3122
28.6859
22.487
17.3681
12.7548
9.37625
7.61568
6.8521
6.41559
6.08504
6.55373
8.07964
10.3118
12.7287
15.9861
20.7851
27.5976
41.415
76.6158
544.334
182.85
71.6024
47.3546
35.4901
27.2698
21.3312
16.5935
12.9143
9.76005
7.03673
5.40085
4.8539
4.94782
5.54521
6.90275
9.30731
12.3666
15.9581
21.2678
28.6344
41.7348
80.937
578.969
150.683
71.0636
47.7399
34.9795
26.2552
19.8876
15.5272
12.5169
10.3241
8.17297
5.81749
4.38703
4.1356
4.78919
6.45913
8.99164
12.2975
16.3258
21.9478
31.1344
42.8993
80.7991
607.699
137.99
68.0101
43.8024
32.4621
24.4914
18.5756
14.6116
12.0856
10.372
8.94815
7.27247
5.349
4.31497
4.49903
5.95783
8.67583
12.2812
16.8686
22.5912
32.9949
52.2265
81.7428
673.992
143.534
67.3396
41.3334
29.457
21.9909
17.0041
13.7745
11.7031
10.2024
9.03501
8.0618
6.96675
5.69666
5.28145
6.22834
8.70253
12.2428
16.9622
23.7628
33.4124
57.0617
113.94
865.432
134.85
69.0695
43.0383
28.4397
20.0303
15.5221
13.0078
11.3963
10.0731
8.7484
7.69757
7.302
7.16924
7.00065
7.59973
9.571
12.8693
17.2374
23.7578
34.8719
58.183
124.276
797.28
89.5315
64.2575
45.5267
27.1833
18.5673
14.4169
12.3288
11.0988
10.0658
8.9351
7.53422
6.63207
6.86774
7.92295
9.12418
10.9401
13.8832
18.0842
23.9195
33.8643
58.1234
126.799
614.305
104.514
65.3776
37.1231
23.0265
15.2582
13.0058
11.7878
10.8255
9.93077
9.11501
8.24458
7.11273
6.6173
7.51676
9.48182
11.8166
14.8532
19.0941
25.3972
33.8612
55.3009
132.638
621.378
88.091
51.049
34.2861
22.0664
13.7677
11.08
10.7107
10.4425
9.75124
8.84656
8.18132
7.81448
7.53343
7.84193
9.44539
12.0135
15.4709
20.1611
26.9662
38.913
57.5803
124.035
294.648
83.4258
49.2195
34.6208
23.3456
14.433
10.588
9.66996
9.64635
9.35808
8.52559
7.51643
7.05468
7.47574
8.46569
9.88898
12.2099
15.7951
21.3288
28.81
41.8619
71.9699
152.739
171.111