/*--------------------------------*- C++ -*----------------------------------*\
| =========                 |                                                 |
| \\      /  F ield         | OpenFOAM: The Open Source CFD Toolbox           |
|  \\    /   O peration     | Version:  2312                                  |
|   \\  /    A nd           | Website:  www.openfoam.com                      |
|    \\/     M anipulation  |                                                 |
\*---------------------------------------------------------------------------*/
FoamFile
{
    version     2.0;
    format      ascii;
    arch        "LSB;label=64;scalar=64";
    class       volScalarField;
    location    "140";
    object      p;
}
// * * * * * * * * * * * * * * * * * * * * * * * * * * * * * * * * * * * * * //

dimensions      [0 2 -2 0 0 0 0];

internalField   nonuniform List<scalar> 
404911
(
4.37522
4.3753
4.37639
4.37618
4.37488
4.37502
4.37608
4.37624
4.37619
4.37617
4.37601
4.37447
4.37444
4.37484
4.37512
4.37588
4.37527
4.37518
4.37484
4.37474
4.37463
4.37477
4.37462
4.37468
4.37454
4.37165
4.37531
4.37509
4.37562
4.3759
4.37588
4.37558
4.37538
4.3765
4.376
4.37595
4.37569
4.37608
4.37605
4.37601
4.3758
4.3761
4.37608
4.37604
4.37606
4.37557
4.37611
4.37607
4.37609
4.37606
4.37601
4.37601
4.37599
4.37593
4.3761
4.37612
4.37643
4.3742
4.37429
4.37448
4.37479
4.37495
4.37524
4.37497
4.37473
4.37506
4.37516
4.37498
4.375
4.3748
4.37542
4.37517
4.37498
4.37566
4.37565
4.3755
4.37514
4.37581
4.37588
4.37599
4.376
4.37606
4.37591
4.37599
4.37605
4.37598
4.37614
4.37607
4.37602
4.37622
4.3761
4.37611
4.3762
4.37627
4.37641
4.37639
4.37627
4.37657
4.37653
4.37651
4.3767
4.37659
4.37653
4.37668
4.36821
4.36827
4.3684
4.36836
4.36864
4.36772
4.36847
4.36812
4.36811
4.36813
4.36811
4.36856
4.36849
4.36852
4.36829
4.36831
4.36826
4.36821
4.36825
4.36845
4.36897
4.36878
4.36876
4.36862
4.36854
4.36868
4.36867
4.36853
4.36841
4.3684
4.3684
4.36845
4.36838
4.3682
4.36834
4.36841
4.36929
4.36908
4.36894
4.36877
4.36868
4.36864
4.36861
4.3687
4.36873
4.36864
4.36847
4.36841
4.36851
4.36844
4.36816
4.36954
4.36939
4.36926
4.36896
4.36883
4.36879
4.3687
4.36868
4.36869
4.36864
4.36859
4.36855
4.36846
4.36838
4.36845
4.36933
4.36955
4.36944
4.36923
4.36897
4.36885
4.36879
4.36869
4.36867
4.3686
4.36855
4.3685
4.36848
4.36838
4.3683
4.36847
4.36967
4.36926
4.36906
4.36924
4.36937
4.36917
4.36909
4.36902
4.36884
4.36874
4.36868
4.36858
4.3685
4.36848
4.36844
4.36833
4.36824
4.36996
4.3698
4.36958
4.36941
4.3692
4.36914
4.36918
4.36921
4.36919
4.36916
4.36912
4.36897
4.36884
4.36871
4.36861
4.36851
4.36848
4.3685
4.36996
4.37007
4.36979
4.36955
4.36929
4.36932
4.36932
4.36929
4.36927
4.36912
4.36918
4.36905
4.369
4.36891
4.36879
4.36864
4.36869
4.36852
4.37003
4.37005
4.36999
4.37003
4.36986
4.36961
4.36934
4.36935
4.36945
4.36935
4.36933
4.3693
4.3693
4.36921
4.36903
4.36895
4.36883
4.36877
4.36993
4.37008
4.37011
4.37007
4.37
4.3699
4.36967
4.36954
4.36953
4.36945
4.36942
4.36941
4.36935
4.36934
4.36935
4.36908
4.36883
4.37011
4.37005
4.36998
4.37006
4.37016
4.37001
4.36996
4.36995
4.36977
4.36963
4.36956
4.36948
4.36942
4.36943
4.36938
4.36929
4.36925
4.3704
4.37024
4.37003
4.37015
4.37006
4.37017
4.37022
4.37004
4.36996
4.36995
4.36981
4.36965
4.36953
4.36937
4.3694
4.36938
4.36923
4.3692
4.37009
4.37007
4.3704
4.37018
4.37016
4.37023
4.37012
4.37011
4.37017
4.37008
4.37
4.36991
4.36979
4.36963
4.36949
4.3693
4.36929
4.36935
4.37018
4.37012
4.37011
4.37034
4.37028
4.37009
4.37018
4.37027
4.37025
4.37017
4.37012
4.37008
4.37013
4.37002
4.36987
4.36966
4.36956
4.36935
4.37021
4.37018
4.37012
4.37008
4.37017
4.37014
4.37004
4.37012
4.3702
4.3703
4.37014
4.37003
4.37005
4.37026
4.37033
4.37002
4.36974
4.3695
4.3705
4.37038
4.37011
4.37014
4.37007
4.37006
4.37011
4.37016
4.37015
4.37016
4.37026
4.37031
4.3702
4.37
4.36992
4.37018
4.3704
4.37022
4.37074
4.37043
4.37028
4.37017
4.37009
4.37003
4.37007
4.37006
4.37019
4.37024
4.37026
4.37035
4.37036
4.37036
4.37016
4.37009
4.37007
4.37032
4.37055
4.37063
4.37083
4.37048
4.37032
4.37024
4.37017
4.37008
4.37007
4.37
4.37011
4.3702
4.37023
4.37028
4.37034
4.3704
4.37029
4.37025
4.3707
4.37059
4.37089
4.37084
4.3706
4.37043
4.37036
4.37027
4.37011
4.37006
4.37004
4.37009
4.37019
4.3702
4.37022
4.37024
4.37016
4.37085
4.3707
4.3707
4.37057
4.37064
4.3707
4.3706
4.3705
4.37039
4.3703
4.3702
4.37013
4.37006
4.37011
4.37019
4.37019
4.3702
4.37024
4.37069
4.37077
4.3707
4.3707
4.37065
4.37064
4.3706
4.37056
4.37052
4.37045
4.37037
4.37027
4.37019
4.37009
4.37012
4.37019
4.37018
4.37017
4.37086
4.37078
4.37084
4.37084
4.37074
4.3706
4.37061
4.37059
4.3706
4.37058
4.37054
4.37045
4.37037
4.37031
4.37021
4.37024
4.37016
4.37029
4.37086
4.37082
4.37085
4.37084
4.37087
4.37091
4.37089
4.37065
4.37058
4.37059
4.37056
4.37054
4.37052
4.37052
4.37044
4.37025
4.37018
4.37016
4.3709
4.3709
4.37089
4.37082
4.37088
4.37088
4.37091
4.37091
4.37095
4.3708
4.37067
4.37059
4.37053
4.37054
4.37048
4.37046
4.37032
4.37037
4.37089
4.37087
4.3709
4.37088
4.37087
4.37088
4.37093
4.371
4.37093
4.37082
4.37077
4.37073
4.37069
4.37057
4.37056
4.37052
4.37044
4.37036
4.37105
4.37099
4.3709
4.37088
4.37085
4.37085
4.37086
4.37089
4.37094
4.37106
4.37103
4.37086
4.37077
4.37065
4.37065
4.37055
4.37031
4.3706
4.37116
4.37106
4.37092
4.37087
4.37084
4.37083
4.37083
4.37085
4.37087
4.3709
4.37098
4.37099
4.37088
4.37075
4.37064
4.37067
4.37062
4.37059
4.37134
4.3713
4.37107
4.37088
4.37083
4.37081
4.37081
4.37081
4.37083
4.37084
4.37085
4.37088
4.37087
4.3708
4.37069
4.37064
4.37065
4.37064
4.37137
4.37141
4.37147
4.37102
4.37091
4.37085
4.37081
4.37077
4.3708
4.37083
4.37082
4.37083
4.37083
4.3708
4.37076
4.37068
4.37061
4.3707
4.37131
4.37148
4.37138
4.37138
4.37139
4.3711
4.37098
4.37092
4.37087
4.37075
4.37081
4.37085
4.37083
4.37083
4.37082
4.37078
4.37073
4.37068
4.37159
4.37143
4.3714
4.37135
4.37128
4.37118
4.37109
4.371
4.37099
4.37096
4.37083
4.37083
4.37085
4.37085
4.37084
4.37081
4.37079
4.37079
4.37174
4.37161
4.37155
4.37145
4.37136
4.37126
4.37118
4.3711
4.37103
4.37098
4.37095
4.37091
4.37089
4.37087
4.37086
4.37085
4.37091
4.37085
4.37163
4.37173
4.37167
4.37157
4.37151
4.37143
4.37127
4.37118
4.37112
4.37106
4.371
4.37097
4.37095
4.37093
4.37089
4.37088
4.37088
4.372
4.37175
4.37177
4.37173
4.37165
4.37157
4.37153
4.37151
4.37136
4.37121
4.37116
4.37109
4.37103
4.371
4.37098
4.37095
4.37091
4.37095
4.37198
4.37194
4.37189
4.3718
4.37173
4.37165
4.37151
4.37147
4.37152
4.37145
4.37126
4.37119
4.37114
4.37108
4.37104
4.37102
4.37101
4.37099
4.37199
4.37206
4.372
4.37196
4.37188
4.37179
4.37171
4.37154
4.37141
4.37147
4.37148
4.37132
4.37121
4.37118
4.37113
4.37109
4.37108
4.37112
4.37223
4.37207
4.37202
4.37204
4.37204
4.37201
4.37197
4.37189
4.37173
4.3716
4.37143
4.37145
4.37153
4.37145
4.37129
4.37123
4.37117
4.37112
4.3722
4.37215
4.37214
4.37209
4.37207
4.37207
4.37204
4.37202
4.37198
4.37182
4.3717
4.37146
4.37141
4.37145
4.37143
4.37134
4.37125
4.37125
4.37233
4.37221
4.37218
4.37213
4.3721
4.37209
4.37207
4.37205
4.37203
4.37201
4.37197
4.37182
4.37159
4.37146
4.37146
4.37143
4.37139
4.37131
4.37207
4.37241
4.3723
4.37223
4.37216
4.37212
4.37211
4.37209
4.37209
4.37205
4.37199
4.372
4.3719
4.3717
4.37153
4.3715
4.37144
4.37142
4.37249
4.37244
4.37238
4.37236
4.37229
4.37222
4.37216
4.37214
4.37216
4.37216
4.37209
4.37199
4.37197
4.37195
4.37178
4.37167
4.37154
4.37267
4.3724
4.3725
4.37241
4.37239
4.37242
4.37238
4.37231
4.37223
4.37219
4.37223
4.3723
4.37227
4.37209
4.37195
4.3719
4.37182
4.37177
4.37262
4.37258
4.37253
4.37249
4.37247
4.37246
4.37246
4.37244
4.37235
4.37225
4.3722
4.37222
4.37229
4.37237
4.37222
4.37202
4.37197
4.37188
4.37277
4.37266
4.37259
4.37254
4.37248
4.37248
4.37248
4.37248
4.37243
4.3723
4.37224
4.37219
4.37219
4.37222
4.37223
4.37215
4.37203
4.37197
4.37276
4.37276
4.37266
4.37255
4.37252
4.37246
4.37246
4.37248
4.37252
4.3725
4.37237
4.37225
4.37221
4.37219
4.37219
4.37217
4.37213
4.37204
4.37301
4.37278
4.37274
4.37264
4.37258
4.37251
4.37244
4.37242
4.37245
4.37247
4.37245
4.3724
4.37232
4.37226
4.37221
4.37223
4.37217
4.37214
4.37317
4.37309
4.37293
4.37281
4.37271
4.37264
4.37255
4.37247
4.37244
4.37244
4.37245
4.37244
4.37241
4.37236
4.37231
4.37225
4.37223
4.37216
4.37325
4.37322
4.37315
4.37301
4.37289
4.37281
4.37275
4.37265
4.37256
4.37249
4.37245
4.37245
4.37244
4.37243
4.3724
4.37236
4.3723
4.37223
4.37345
4.37332
4.37331
4.37322
4.37302
4.37295
4.37289
4.37283
4.37271
4.37259
4.3725
4.37249
4.37249
4.37249
4.37248
4.37245
4.3724
4.37242
4.37362
4.37358
4.37347
4.37348
4.37345
4.37338
4.37314
4.37301
4.37292
4.37286
4.37279
4.37264
4.3725
4.37257
4.37257
4.37256
4.37254
4.37253
4.3725
4.37373
4.37371
4.37364
4.37351
4.37352
4.37353
4.37351
4.37333
4.37314
4.37299
4.37287
4.37289
4.37283
4.37276
4.37271
4.37268
4.37265
4.37263
4.37377
4.3737
4.37363
4.37355
4.37352
4.37352
4.37351
4.37346
4.37332
4.3732
4.37303
4.373
4.37299
4.37293
4.37283
4.37279
4.37279
4.37385
4.37375
4.37373
4.37369
4.37363
4.37356
4.37352
4.37351
4.37351
4.37356
4.37344
4.37333
4.37319
4.3731
4.37307
4.37303
4.37297
4.37287
4.37389
4.37383
4.3738
4.37373
4.37368
4.37362
4.37355
4.37353
4.37352
4.37355
4.37362
4.37356
4.37343
4.37329
4.3732
4.37314
4.37309
4.37307
4.37388
4.37397
4.37387
4.37381
4.37376
4.37369
4.37363
4.37357
4.37352
4.37353
4.3736
4.37367
4.37364
4.3735
4.37337
4.37331
4.37322
4.37319
4.37405
4.37397
4.37394
4.37388
4.37382
4.37374
4.37369
4.37368
4.37357
4.37346
4.3736
4.37363
4.37361
4.37352
4.37344
4.37336
4.37331
4.3744
4.37414
4.37402
4.37404
4.37398
4.3739
4.37382
4.37377
4.37379
4.37373
4.37359
4.37362
4.37363
4.37361
4.37356
4.37348
4.37344
4.37469
4.37485
4.37454
4.37425
4.37415
4.37415
4.37408
4.37396
4.37387
4.3738
4.37384
4.3738
4.3737
4.37368
4.37365
4.37363
4.37362
4.37355
4.37465
4.37472
4.37476
4.37455
4.37429
4.37423
4.37423
4.37415
4.37405
4.37386
4.37373
4.3738
4.37382
4.37376
4.37373
4.37369
4.3737
4.37472
4.3747
4.37461
4.37458
4.37446
4.37428
4.37424
4.37425
4.3742
4.37415
4.37396
4.37378
4.37379
4.3738
4.37377
4.37373
4.37375
4.37494
4.37485
4.37473
4.37469
4.37459
4.3745
4.37445
4.37436
4.37429
4.37427
4.3742
4.37417
4.37406
4.37392
4.37383
4.37381
4.37379
4.37375
4.3751
4.37496
4.37484
4.37475
4.37467
4.37452
4.3746
4.37464
4.37448
4.37438
4.37435
4.37426
4.37413
4.37404
4.37398
4.37391
4.37389
4.37384
4.37513
4.37511
4.37492
4.37485
4.37476
4.37467
4.37451
4.37479
4.3749
4.37463
4.37452
4.37448
4.3744
4.37427
4.37411
4.37408
4.37401
4.37395
4.37527
4.37528
4.37527
4.37505
4.37487
4.37483
4.37484
4.37468
4.37447
4.37466
4.37462
4.37464
4.37462
4.37456
4.37448
4.37437
4.37427
4.37423
4.37571
4.37567
4.3754
4.37536
4.3753
4.37514
4.37492
4.37476
4.37488
4.37489
4.37474
4.37471
4.37474
4.37477
4.37476
4.37471
4.3746
4.37454
4.37439
4.37591
4.37581
4.37564
4.37549
4.37537
4.37527
4.37517
4.3749
4.37478
4.3748
4.37484
4.37488
4.37487
4.37487
4.37482
4.37474
4.37469
4.37456
4.37452
4.3756
4.37587
4.37571
4.37554
4.37538
4.37523
4.37511
4.37496
4.37488
4.37487
4.37491
4.37488
4.37487
4.37484
4.37477
4.3747
4.37466
4.37465
4.37575
4.37575
4.37592
4.37582
4.37562
4.3754
4.37524
4.3752
4.37508
4.37499
4.37489
4.37492
4.3749
4.37486
4.37481
4.37478
4.37468
4.37596
4.37578
4.37577
4.37587
4.37582
4.37568
4.37543
4.37525
4.37522
4.37516
4.37509
4.37501
4.37496
4.37493
4.37488
4.37483
4.37479
4.37622
4.37599
4.37578
4.37574
4.3758
4.37585
4.37584
4.37563
4.37543
4.37537
4.37526
4.37517
4.37509
4.37502
4.375
4.37493
4.37486
4.37636
4.3764
4.37627
4.37615
4.3759
4.37585
4.37585
4.37592
4.37598
4.3758
4.37563
4.37554
4.37541
4.3753
4.3752
4.3751
4.37505
4.37502
4.37641
4.37648
4.37647
4.37642
4.37628
4.37613
4.376
4.37596
4.37601
4.37599
4.37582
4.37574
4.37568
4.37556
4.3754
4.37529
4.37519
4.37624
4.37637
4.37644
4.37645
4.37637
4.37626
4.37616
4.376
4.37598
4.376
4.37596
4.37583
4.37575
4.37568
4.37558
4.37546
4.37536
4.37598
4.37621
4.3763
4.37644
4.3764
4.37629
4.37613
4.37603
4.37596
4.37593
4.37597
4.37594
4.37584
4.37574
4.37568
4.37559
4.37556
4.37611
4.37599
4.37605
4.37616
4.37633
4.37635
4.37625
4.37616
4.37605
4.37603
4.37597
4.37594
4.37593
4.37587
4.37582
4.37573
4.37563
4.3759
4.37608
4.37595
4.37588
4.37607
4.37622
4.3763
4.37628
4.37616
4.3761
4.37607
4.37603
4.37601
4.37598
4.37594
4.37587
4.37581
4.37662
4.37605
4.37601
4.37593
4.37591
4.37607
4.37619
4.37627
4.3763
4.3762
4.37613
4.37609
4.37606
4.37603
4.37602
4.37605
4.37597
4.37627
4.37629
4.37624
4.37619
4.3762
4.37617
4.37618
4.37626
4.37629
4.37619
4.37617
4.3761
4.37605
4.37606
4.37608
4.37613
4.37693
4.37653
4.37645
4.37648
4.37644
4.37636
4.37626
4.37625
4.37628
4.37632
4.37623
4.37622
4.37616
4.37612
4.3761
4.37631
4.3766
4.37668
4.3766
4.37661
4.37657
4.37654
4.37648
4.37633
4.37628
4.37622
4.37622
4.37626
4.37627
4.37622
4.37621
4.37605
4.37636
4.37634
4.37641
4.37649
4.37668
4.37667
4.37659
4.37657
4.3765
4.37635
4.37616
4.37611
4.37621
4.37631
4.37624
4.37629
4.37625
4.37633
4.37633
4.3763
4.37644
4.37658
4.3767
4.37663
4.37655
4.37656
4.3765
4.37628
4.37614
4.37631
4.3763
4.37618
4.37604
4.37607
4.37621
4.37636
4.37637
4.37639
4.37641
4.37638
4.3765
4.37654
4.37651
4.37647
4.37658
4.37652
4.37634
4.37587
4.37609
4.37611
4.37601
4.37606
4.3762
4.37634
4.37643
4.37647
4.3764
4.37639
4.37643
4.37644
4.37637
4.37641
4.37643
4.37582
4.37587
4.37587
4.37605
4.37603
4.37604
4.37613
4.37619
4.3763
4.37635
4.37635
4.37644
4.37643
4.37651
4.37639
4.3762
4.37591
4.37581
4.37558
4.37579
4.3759
4.37603
4.37613
4.37612
4.37615
4.37622
4.37629
4.37629
4.37641
4.37664
4.3766
4.37651
4.37579
4.37559
4.3759
4.37575
4.37576
4.37587
4.37595
4.37598
4.37611
4.37611
4.37619
4.3762
4.37628
4.37624
4.37623
4.37645
4.37538
4.37564
4.37595
4.37617
4.37606
4.37595
4.37587
4.37594
4.37595
4.37607
4.37599
4.37609
4.37619
4.37615
4.37635
4.37532
4.37544
4.37568
4.37608
4.37623
4.37628
4.3762
4.37603
4.37606
4.37612
4.37619
4.37602
4.37606
4.3762
4.37627
4.37618
4.37536
4.37542
4.3755
4.37594
4.37605
4.37621
4.37636
4.37644
4.37629
4.37623
4.37628
4.3765
4.37643
4.37628
4.37624
4.37655
4.37555
4.37543
4.37547
4.37552
4.37594
4.37617
4.37625
4.37629
4.37641
4.37641
4.37631
4.37629
4.37643
4.37645
4.37643
4.37574
4.37546
4.37565
4.37565
4.37591
4.37618
4.37634
4.37634
4.37641
4.3765
4.37641
4.37634
4.37639
4.3764
4.37609
4.37589
4.37575
4.37574
4.37564
4.3758
4.37614
4.37631
4.37634
4.37639
4.37645
4.37639
4.37634
4.37573
4.37578
4.37581
4.37582
4.37586
4.37595
4.37594
4.37607
4.37621
4.37629
4.37634
4.3763
4.37634
4.37638
4.37574
4.37577
4.37581
4.37578
4.37583
4.37589
4.37595
4.37612
4.37624
4.37629
4.37626
4.3763
4.37634
4.37637
4.37559
4.37571
4.37578
4.37582
4.37582
4.37597
4.37594
4.37599
4.37603
4.37624
4.37628
4.37624
4.3763
4.37642
4.3755
4.3756
4.37564
4.37573
4.37577
4.3759
4.37611
4.37601
4.37596
4.37594
4.37621
4.37609
4.37612
4.37635
4.37527
4.37539
4.37556
4.37558
4.37552
4.37562
4.37603
4.37626
4.37623
4.37595
4.37596
4.37617
4.37617
4.37609
4.37498
4.37507
4.37534
4.3755
4.37551
4.37545
4.37537
4.37589
4.37637
4.37652
4.37608
4.37607
4.37628
4.37553
4.37558
4.37543
4.37522
4.37544
4.37604
4.37639
4.37619
4.37606
4.37548
4.37563
4.37547
4.37534
4.37548
4.37571
4.3759
4.37595
4.37525
4.37557
4.37558
4.37572
4.37563
4.37553
4.37596
4.37473
4.37491
4.37525
4.37549
4.37573
4.37559
4.37539
4.37519
4.3753
4.37553
4.37569
4.37556
4.37475
4.37479
4.37505
4.37557
4.37558
4.37555
4.37301
4.3734
4.37469
4.3747
4.37491
4.3731
4.37384
4.37419
4.3744
4.37451
4.37347
4.37338
4.37443
4.37455
4.37451
4.37464
4.37371
4.3736
4.3744
4.26
4.22538
4.17019
4.34337
4.33563
4.32665
4.31875
4.3049
4.28559
4.25804
4.22247
4.1643
4.36091
4.35863
4.35492
4.35258
4.3475
4.34276
4.33707
4.32963
4.32117
4.30981
4.2943
4.27291
4.25267
4.23995
4.24344
4.36523
4.3643
4.36369
4.36207
4.36075
4.35821
4.35542
4.35227
4.3486
4.34471
4.33998
4.33648
4.3304
4.31923
4.30853
4.3011
4.2938
4.30901
4.31698
4.29469
4.17638
3.87949
4.36675
4.36682
4.36649
4.36599
4.36508
4.36424
4.36323
4.36189
4.3602
4.35804
4.35557
4.35352
4.35218
4.3504
4.34598
4.34349
4.3415
4.33972
4.33846
4.33868
4.34832
4.36794
4.35597
4.36757
4.3671
4.36728
4.3671
4.36726
4.36673
4.36624
4.36566
4.3652
4.36446
4.36348
4.36211
4.36042
4.35923
4.35888
4.35985
4.35951
4.35745
4.35945
4.36074
4.36034
4.36112
4.36899
4.38496
4.41567
4.36795
4.3674
4.36759
4.36738
4.36736
4.36696
4.36713
4.36696
4.36633
4.36623
4.36597
4.36558
4.36506
4.36383
4.36303
4.36326
4.3643
4.36633
4.3673
4.36725
4.36989
4.37243
4.37395
4.37778
4.38749
4.368
4.3678
4.36759
4.36755
4.36751
4.36745
4.36742
4.36756
4.36751
4.36731
4.36664
4.3666
4.36652
4.36659
4.36662
4.36668
4.36572
4.36691
4.36766
4.36999
4.37318
4.37457
4.37811
4.38092
4.3826
4.36859
4.36848
4.36834
4.36803
4.3678
4.36776
4.36772
4.36761
4.36758
4.36775
4.36763
4.3675
4.36715
4.36712
4.36766
4.36808
4.36817
4.36898
4.36884
4.37035
4.37168
4.37361
4.37615
4.3788
4.38171
4.36814
4.36792
4.36829
4.36843
4.36827
4.36828
4.36815
4.36805
4.368
4.36803
4.36788
4.36787
4.36801
4.36792
4.36783
4.36778
4.36802
4.3688
4.36924
4.36968
4.37069
4.37205
4.37259
4.37387
4.3756
4.37734
4.36837
4.36825
4.36831
4.36802
4.36821
4.36826
4.36832
4.3683
4.36835
4.36832
4.36825
4.36815
4.36813
4.36817
4.36812
4.36816
4.36807
4.36796
4.36807
4.3684
4.36923
4.36988
4.3707
4.37172
4.37304
4.37394
4.37531
4.36845
4.36844
4.36841
4.36825
4.36811
4.36802
4.36794
4.36814
4.36823
4.36844
4.36843
4.36847
4.36827
4.36823
4.36827
4.36837
4.36828
4.36815
4.36809
4.36844
4.36896
4.36921
4.37029
4.37108
4.3725
4.3687
4.36884
4.36901
4.36873
4.36868
4.36849
4.36831
4.36805
4.36794
4.36798
4.36817
4.36831
4.36848
4.36855
4.36859
4.36861
4.36853
4.36843
4.36862
4.36849
4.36838
4.36856
4.36899
4.36919
4.37033
4.36875
4.3687
4.36853
4.36879
4.36884
4.36878
4.36856
4.36831
4.36805
4.36788
4.36787
4.36812
4.36817
4.36828
4.36841
4.36858
4.36872
4.36866
4.36857
4.36873
4.36872
4.36868
4.36886
4.36923
4.36828
4.36868
4.36864
4.36886
4.36858
4.36851
4.36874
4.36892
4.36884
4.36861
4.36838
4.36809
4.36791
4.36788
4.36811
4.36817
4.36814
4.3683
4.36846
4.3687
4.36872
4.36867
4.36881
4.36878
4.36877
4.36879
4.36849
4.36841
4.36843
4.36839
4.36857
4.36851
4.36858
4.36881
4.369
4.36885
4.36871
4.36845
4.36812
4.36804
4.36808
4.36805
4.36822
4.36834
4.36843
4.36852
4.36868
4.36869
4.36874
4.36876
4.36878
4.36872
4.36859
4.3685
4.36843
4.36829
4.36827
4.36829
4.36834
4.36843
4.36869
4.36886
4.36888
4.36876
4.36836
4.36816
4.36795
4.36811
4.36808
4.36817
4.36826
4.36823
4.36847
4.36863
4.36861
4.36897
4.36864
4.36891
4.36879
4.36865
4.36857
4.36843
4.36845
4.36822
4.36817
4.36816
4.36817
4.36833
4.36863
4.36864
4.36877
4.36867
4.36833
4.36827
4.36806
4.36807
4.36814
4.36815
4.36813
4.36821
4.36839
4.3693
4.36948
4.36908
4.36895
4.36888
4.36871
4.36859
4.36849
4.36848
4.36836
4.36816
4.36823
4.36822
4.36825
4.3684
4.36855
4.36855
4.3686
4.36865
4.36845
4.36823
4.36821
4.36818
4.3682
4.36819
4.36816
4.37
4.3693
4.36915
4.36924
4.36913
4.36891
4.36875
4.36866
4.36857
4.36852
4.36854
4.3684
4.36823
4.3683
4.36835
4.3684
4.36844
4.36839
4.3683
4.36836
4.36847
4.36839
4.3682
4.36832
4.36842
4.36853
4.36832
4.36942
4.36972
4.36957
4.36946
4.36935
4.36923
4.36904
4.36888
4.36874
4.36865
4.36858
4.36856
4.36857
4.36849
4.36837
4.36837
4.36841
4.3685
4.36846
4.36825
4.36801
4.36818
4.36829
4.36824
4.36813
4.3682
4.36864
4.36955
4.36951
4.3694
4.36946
4.36944
4.36936
4.36919
4.36899
4.36885
4.36875
4.36868
4.36862
4.36859
4.36855
4.36847
4.36839
4.36835
4.36835
4.36852
4.36869
4.36849
4.36815
4.36825
4.3682
4.36817
4.36819
4.36991
4.36957
4.36962
4.3695
4.36943
4.36938
4.36939
4.3693
4.36909
4.36889
4.36876
4.36876
4.3687
4.36864
4.36859
4.36853
4.36845
4.36838
4.3683
4.3682
4.36832
4.3684
4.36847
4.36839
4.36827
4.36835
4.36994
4.3697
4.36984
4.36964
4.36957
4.36948
4.36937
4.36933
4.3693
4.36923
4.3691
4.36897
4.36886
4.36877
4.36876
4.36867
4.36859
4.36852
4.36846
4.36838
4.36824
4.36815
4.36816
4.36819
4.36832
4.36842
4.36975
4.36987
4.36983
4.36975
4.36965
4.36953
4.36942
4.36932
4.3693
4.36926
4.3692
4.36914
4.36907
4.36896
4.36893
4.36884
4.36872
4.36862
4.36855
4.36847
4.36838
4.36827
4.36822
4.36817
4.3683
4.36979
4.37005
4.3699
4.36991
4.36985
4.36981
4.36965
4.36949
4.3694
4.36935
4.36933
4.3693
4.36923
4.36917
4.36911
4.36901
4.36902
4.36892
4.3688
4.3687
4.36859
4.3685
4.36842
4.36834
4.36833
4.36833
4.37015
4.37012
4.36998
4.36998
4.37002
4.36996
4.36989
4.36987
4.36971
4.36951
4.36939
4.36936
4.36937
4.36935
4.36926
4.36919
4.3692
4.36911
4.36898
4.36896
4.36887
4.36878
4.36863
4.36854
4.3685
4.36859
4.37025
4.37
4.37015
4.37007
4.37
4.37001
4.37003
4.36999
4.36991
4.36991
4.36975
4.36958
4.36945
4.3694
4.36939
4.36938
4.36929
4.36918
4.36921
4.36925
4.36907
4.36901
4.36893
4.36879
4.36872
4.36866
4.36848
4.36992
4.37012
4.37012
4.37016
4.37012
4.37008
4.37007
4.37008
4.37002
4.36991
4.36987
4.36975
4.36962
4.36953
4.36946
4.36943
4.36943
4.36935
4.36924
4.36917
4.3692
4.36912
4.369
4.36892
4.36885
4.36881
4.3702
4.37012
4.37004
4.37011
4.37018
4.37015
4.37015
4.37019
4.37017
4.37014
4.37007
4.36996
4.36989
4.3698
4.36967
4.36957
4.36948
4.36939
4.36942
4.36934
4.36922
4.36911
4.36908
4.369
4.36881
4.36887
4.37009
4.37019
4.37011
4.37005
4.37009
4.37018
4.37007
4.37014
4.37028
4.37032
4.37023
4.37013
4.37005
4.37003
4.36991
4.36974
4.36961
4.36949
4.36937
4.3693
4.36923
4.36918
4.3691
4.36903
4.36898
4.37041
4.37034
4.37025
4.37014
4.37008
4.37005
4.37009
4.37018
4.37005
4.37012
4.37033
4.37043
4.37029
4.37015
4.3701
4.37014
4.37005
4.36977
4.36961
4.36952
4.3694
4.36931
4.36921
4.36913
4.36895
4.37049
4.37049
4.37041
4.37024
4.37015
4.37009
4.37007
4.37015
4.37022
4.37009
4.37013
4.37026
4.37036
4.37022
4.37005
4.37007
4.37017
4.37018
4.36989
4.36973
4.36956
4.3694
4.36928
4.36933
4.36929
4.37041
4.37057
4.37057
4.37047
4.37041
4.37027
4.37013
4.37005
4.37005
4.37013
4.37025
4.37021
4.37021
4.37031
4.37033
4.37016
4.36994
4.37002
4.3701
4.37017
4.37003
4.36982
4.36968
4.3696
4.36935
4.37051
4.37051
4.37057
4.37064
4.37049
4.3704
4.37027
4.3701
4.36999
4.36998
4.37003
4.37016
4.37023
4.37027
4.37037
4.3704
4.37023
4.37007
4.37008
4.37012
4.37015
4.37008
4.36995
4.36979
4.36972
4.37051
4.37063
4.37058
4.37054
4.37061
4.37066
4.37048
4.3704
4.3703
4.37013
4.36997
4.36993
4.36995
4.37008
4.3702
4.37025
4.37031
4.37033
4.37027
4.3702
4.37013
4.37015
4.3702
4.3701
4.37007
4.37076
4.37064
4.37065
4.37059
4.37056
4.37061
4.37072
4.37061
4.37049
4.37037
4.37021
4.37004
4.36996
4.36993
4.37007
4.37018
4.3702
4.37019
4.37019
4.37017
4.37018
4.37018
4.37018
4.37014
4.37084
4.37063
4.37072
4.3707
4.37067
4.3706
4.37058
4.37062
4.37067
4.37064
4.37058
4.37047
4.37027
4.37011
4.37003
4.37002
4.37011
4.3702
4.37021
4.37018
4.37014
4.37011
4.37016
4.3702
4.37032
4.3708
4.37078
4.37076
4.37074
4.37072
4.37072
4.37065
4.3706
4.37062
4.37064
4.37064
4.37064
4.37061
4.37045
4.37029
4.37011
4.37007
4.37014
4.37018
4.37021
4.3702
4.37018
4.37014
4.37016
4.37092
4.37083
4.37086
4.3708
4.37077
4.37077
4.37075
4.37074
4.37068
4.37061
4.37062
4.37065
4.37063
4.37062
4.37063
4.37056
4.37041
4.37024
4.37017
4.37019
4.3702
4.37021
4.37019
4.37018
4.37016
4.37097
4.3709
4.3709
4.37086
4.37082
4.37079
4.37079
4.37079
4.37079
4.37075
4.37065
4.37062
4.37061
4.37058
4.37056
4.37054
4.37053
4.37043
4.37031
4.37024
4.3702
4.3702
4.37025
4.37029
4.371
4.37099
4.37095
4.37089
4.37088
4.37086
4.37082
4.37079
4.3708
4.37082
4.37081
4.3708
4.37073
4.37066
4.37061
4.37056
4.37053
4.37048
4.37043
4.37038
4.37029
4.37024
4.3702
4.37029
4.37029
4.37104
4.37103
4.37099
4.37093
4.37089
4.37087
4.37084
4.37081
4.3708
4.37082
4.37086
4.37081
4.37075
4.37071
4.37068
4.37064
4.37058
4.37051
4.37045
4.37041
4.37035
4.3703
4.37029
4.37028
4.37112
4.3711
4.37103
4.37099
4.37093
4.37088
4.37085
4.37082
4.3708
4.3708
4.37083
4.37088
4.37084
4.37075
4.37067
4.37063
4.37062
4.37057
4.37049
4.37046
4.37042
4.37036
4.3703
4.37034
4.37132
4.37122
4.37118
4.37111
4.37103
4.37097
4.37091
4.37086
4.37083
4.37081
4.37079
4.3708
4.37081
4.37084
4.37084
4.37076
4.37067
4.37063
4.37063
4.3706
4.37054
4.37049
4.37047
4.37048
4.3704
4.37142
4.37137
4.3713
4.37123
4.37115
4.37103
4.37095
4.37088
4.37084
4.37082
4.37081
4.3708
4.37079
4.37079
4.37079
4.37078
4.37073
4.37067
4.37063
4.37061
4.3706
4.37058
4.37055
4.37045
4.37159
4.37138
4.37138
4.37132
4.37127
4.37119
4.37106
4.37095
4.37088
4.37084
4.37081
4.37082
4.37082
4.3708
4.37079
4.37078
4.37075
4.37071
4.37067
4.37064
4.37063
4.3706
4.37061
4.37063
4.3716
4.37157
4.37144
4.37138
4.37133
4.37128
4.37121
4.37109
4.37098
4.37092
4.37086
4.37081
4.37084
4.37085
4.37083
4.37081
4.3708
4.37077
4.37072
4.37067
4.37066
4.37065
4.37066
4.37174
4.37172
4.37165
4.37158
4.37149
4.3714
4.37135
4.3713
4.37122
4.37111
4.37102
4.37096
4.3709
4.37085
4.37087
4.37087
4.37085
4.37083
4.37082
4.3708
4.37074
4.37072
4.37069
4.3706
4.37176
4.37177
4.37173
4.37169
4.37162
4.37153
4.37145
4.37137
4.37131
4.37124
4.37115
4.37105
4.37097
4.37092
4.3709
4.3709
4.37089
4.37087
4.37084
4.37082
4.37082
4.37078
4.37076
4.37075
4.37187
4.37181
4.37179
4.37174
4.37169
4.37164
4.37156
4.37149
4.37142
4.37133
4.37127
4.3712
4.3711
4.37101
4.37096
4.37094
4.37093
4.37091
4.37089
4.37085
4.37083
4.37084
4.37074
4.37202
4.37191
4.37192
4.37186
4.37182
4.37176
4.37171
4.37164
4.37157
4.37152
4.37148
4.37139
4.37132
4.37126
4.37117
4.37108
4.37103
4.371
4.37097
4.37093
4.37091
4.37088
4.37085
4.37079
4.3721
4.372
4.37199
4.37194
4.3719
4.37186
4.37179
4.37172
4.37164
4.37154
4.37149
4.37151
4.37146
4.37136
4.3713
4.37123
4.37114
4.37109
4.37105
4.37101
4.37097
4.37097
4.37094
4.37099
4.37204
4.37209
4.37207
4.37203
4.37198
4.37194
4.3719
4.37183
4.37175
4.37165
4.37153
4.37144
4.37148
4.37148
4.37139
4.3713
4.37125
4.37118
4.37113
4.37109
4.37105
4.371
4.37102
4.37107
4.3721
4.37214
4.37211
4.37209
4.37206
4.37202
4.37198
4.37194
4.37189
4.37181
4.3717
4.37156
4.37145
4.37146
4.37149
4.37141
4.37131
4.37125
4.37119
4.37114
4.37111
4.37111
4.37108
4.37226
4.37231
4.37216
4.37218
4.37214
4.37211
4.37208
4.37205
4.37201
4.37197
4.37193
4.37188
4.37178
4.37164
4.3715
4.37147
4.37147
4.37141
4.37134
4.37127
4.37121
4.37119
4.37114
4.37117
4.37251
4.37226
4.37233
4.37225
4.37222
4.37218
4.37214
4.3721
4.37207
4.37204
4.372
4.37196
4.37191
4.37184
4.37171
4.37158
4.37151
4.37149
4.37143
4.37137
4.37131
4.37125
4.37122
4.37121
4.37236
4.37247
4.37237
4.37234
4.37231
4.37227
4.37223
4.37217
4.37212
4.37209
4.37207
4.37204
4.372
4.37193
4.37188
4.37178
4.37166
4.37158
4.37153
4.37146
4.37139
4.37133
4.37126
4.37265
4.3725
4.37246
4.37241
4.37239
4.37237
4.37234
4.37229
4.37222
4.37217
4.37213
4.37211
4.3721
4.37205
4.37196
4.37191
4.37183
4.37174
4.37165
4.37157
4.3715
4.37144
4.37137
4.37262
4.37262
4.37255
4.37251
4.37245
4.37242
4.37242
4.37241
4.37238
4.37231
4.37224
4.37219
4.37216
4.37216
4.3721
4.372
4.37192
4.37186
4.3718
4.37174
4.37163
4.37151
4.37156
4.37275
4.37271
4.37265
4.37258
4.37252
4.37248
4.37245
4.37244
4.37244
4.37242
4.37237
4.37228
4.37222
4.37218
4.37218
4.37214
4.37204
4.37195
4.37189
4.37184
4.37176
4.37169
4.37175
4.37285
4.3728
4.37275
4.37268
4.3726
4.37254
4.37249
4.37245
4.37243
4.37242
4.37239
4.37233
4.37229
4.37223
4.37219
4.37217
4.37214
4.37207
4.372
4.37194
4.37188
4.37182
4.37169
4.37296
4.37289
4.37282
4.37276
4.37269
4.37262
4.37255
4.3725
4.37245
4.37243
4.37242
4.37239
4.37234
4.3723
4.37225
4.37221
4.37218
4.37213
4.37207
4.37201
4.37195
4.37189
4.37187
4.37319
4.37315
4.37305
4.37295
4.37287
4.37279
4.3727
4.37263
4.37257
4.37251
4.37246
4.37243
4.37241
4.37239
4.37236
4.37233
4.37228
4.37224
4.37219
4.37214
4.37207
4.37204
4.372
4.37346
4.37328
4.37323
4.37314
4.37302
4.37293
4.37283
4.37275
4.37269
4.37263
4.37258
4.37252
4.37248
4.37245
4.37242
4.3724
4.37237
4.37232
4.37228
4.37224
4.37218
4.37211
4.37209
4.37352
4.37347
4.37336
4.37328
4.3732
4.37309
4.373
4.37292
4.37284
4.37278
4.37273
4.37268
4.37263
4.37257
4.37252
4.37248
4.37245
4.37241
4.37237
4.37233
4.37229
4.37221
4.37216
4.37377
4.37361
4.37352
4.37342
4.37335
4.37328
4.37317
4.37307
4.37301
4.37294
4.37286
4.37279
4.37274
4.37269
4.37265
4.3726
4.37255
4.37251
4.37247
4.37242
4.37238
4.37233
4.37231
4.3738
4.37376
4.37367
4.37358
4.37348
4.37341
4.37335
4.37327
4.37315
4.37307
4.373
4.37291
4.37285
4.3728
4.37275
4.37272
4.37267
4.37263
4.37258
4.37252
4.37246
4.37244
4.37245
4.3739
4.37384
4.37375
4.3737
4.37362
4.37354
4.37347
4.37341
4.37334
4.37325
4.37316
4.37306
4.37297
4.37295
4.37291
4.37285
4.3728
4.37275
4.37271
4.37265
4.37259
4.37254
4.37249
4.3741
4.37389
4.37384
4.37376
4.37371
4.37365
4.37358
4.3735
4.37343
4.37337
4.37332
4.37326
4.37317
4.37308
4.37304
4.37301
4.37295
4.37289
4.37284
4.3728
4.37276
4.37269
4.37263
4.37407
4.37401
4.37389
4.37382
4.37376
4.37372
4.37366
4.3736
4.37353
4.37346
4.3734
4.37338
4.37335
4.37328
4.37319
4.37313
4.37309
4.37304
4.37298
4.37292
4.37289
4.37284
4.37275
4.37417
4.37411
4.37398
4.37391
4.37383
4.37377
4.37372
4.37366
4.37361
4.37356
4.37351
4.37348
4.37348
4.37345
4.37337
4.37328
4.37322
4.37317
4.37311
4.37304
4.373
4.37298
4.37295
4.37438
4.37423
4.37408
4.37399
4.37393
4.37386
4.3738
4.37373
4.37366
4.37362
4.37359
4.37357
4.37356
4.37356
4.37351
4.37343
4.37335
4.37328
4.37323
4.37318
4.37312
4.37306
4.3747
4.3745
4.37451
4.37429
4.37409
4.37401
4.37397
4.37392
4.37385
4.37376
4.37368
4.37366
4.37364
4.37362
4.37362
4.37359
4.37355
4.37349
4.37342
4.37336
4.37331
4.37327
4.37319
4.37469
4.37466
4.37459
4.37457
4.37435
4.37412
4.37406
4.37405
4.37401
4.37393
4.37384
4.37376
4.37373
4.37372
4.37368
4.37367
4.37364
4.37359
4.37354
4.3735
4.37344
4.37341
4.37335
4.37469
4.37473
4.37468
4.37467
4.37465
4.37447
4.37426
4.37417
4.37415
4.37409
4.37399
4.3739
4.37382
4.37381
4.37379
4.37374
4.37371
4.37368
4.37363
4.37357
4.37356
4.37352
4.37348
4.37485
4.37476
4.37474
4.37471
4.37469
4.37469
4.37453
4.37435
4.37427
4.37423
4.37416
4.37405
4.37393
4.37383
4.37382
4.37382
4.37378
4.37375
4.37373
4.37369
4.37363
4.37361
4.37362
4.37496
4.37495
4.37483
4.37476
4.37473
4.37468
4.37464
4.37453