# vtk DataFile Version 2.0
track0
ASCII
DATASET POLYDATA
POINTS 12044 float
-0.0205 0.001 1e-05
-0.02052 0.000999985 1e-05
-0.02054 0.000999974 1e-05
-0.02056 0.000999965 1e-05
-0.02058 0.000999959 1e-05
-0.0206 0.000999956 1e-05
-0.0205 0.00367778 1e-05
-0.02052 0.00367778 1e-05
-0.02054 0.00367777 1e-05
-0.02056 0.00367777 1e-05
-0.02058 0.00367777 1e-05
-0.0206 0.00367777 1e-05
-0.0205 0.00635556 1e-05
-0.02052 0.00635555 1e-05
-0.02054 0.00635555 1e-05
-0.02056 0.00635555 1e-05
-0.02058 0.00635555 1e-05
-0.0206 0.00635555 1e-05
-0.0205 0.00903333 1e-05
-0.02052 0.00903333 1e-05
-0.02054 0.00903333 1e-05
-0.02056 0.00903333 1e-05
-0.02058 0.00903333 1e-05
-0.0206 0.00903333 1e-05
-0.0205 0.0117111 1e-05
-0.02052 0.0117111 1e-05
-0.02054 0.0117111 1e-05
-0.02056 0.0117111 1e-05
-0.02058 0.0117111 1e-05
-0.0206 0.0117111 1e-05
-0.0205 0.0143889 1e-05
-0.02052 0.0143889 1e-05
-0.02054 0.0143889 1e-05
-0.02056 0.0143889 1e-05
-0.02058 0.0143889 1e-05
-0.0206 0.0143889 1e-05
-0.0205 0.0170667 1e-05
-0.02052 0.0170667 1e-05
-0.02054 0.0170667 1e-05
-0.02056 0.0170667 1e-05
-0.02058 0.0170667 1e-05
-0.0206 0.0170667 1e-05
-0.0205 0.0197444 1e-05
-0.02052 0.0197444 1e-05
-0.02054 0.0197444 1e-05
-0.02056 0.0197444 1e-05
-0.02058 0.0197444 1e-05
-0.0206 0.0197444 1e-05
-0.0205 0.0224222 1e-05
-0.02052 0.0224222 1e-05
-0.02054 0.0224222 1e-05
-0.02056 0.0224222 1e-05
-0.02058 0.0224222 1e-05
-0.0206 0.0224222 1e-05
-0.0205 0.0251 1e-05
-0.02052 0.0250998 1e-05
-0.02054 0.0250997 1e-05
-0.02056 0.0250995 1e-05
-0.02058 0.0250995 1e-05
-0.0206 0.0250994 1e-05
-0.0205 0.001 1e-05
-0.0202034 0.00100022 1e-05
-0.0199069 0.00100067 1e-05
-0.0196103 0.00100133 1e-05
-0.0193137 0.00100219 1e-05
-0.0190172 0.00100326 1e-05
-0.0187132 0.00100467 1e-05
-0.0184093 0.00100589 1e-05
-0.0181054 0.00100711 1e-05
-0.0178015 0.00100833 1e-05
-0.0174976 0.00100954 1e-05
-0.0172058 0.00101083 1e-05
-0.016914 0.00101194 1e-05
-0.0166222 0.00101304 1e-05
-0.0163305 0.00101413 1e-05
-0.0160387 0.00101523 1e-05
-0.0157586 0.00101637 1e-05
-0.0154784 0.00101745 1e-05
-0.0151983 0.00101857 1e-05
-0.0149182 0.00101972 1e-05
-0.0146381 0.00102091 1e-05
-0.014375 0.00102209 1e-05
-0.0141119 0.00102328 1e-05
-0.0138489 0.00102449 1e-05
-0.0135858 0.00102574 1e-05
-0.0133637 0.00102682 1e-05
-0.0133496 0.00102689 1e-05
-0.0133356 0.00102696 1e-05
-0.0133215 0.00102703 1e-05
-0.0133075 0.0010271 1e-05
-0.0132934 0.00102717 1e-05
-0.0130353 0.00102845 1e-05
-0.0127771 0.00102976 1e-05
-0.0125189 0.00103108 1e-05
-0.0122607 0.00103241 1e-05
-0.0120025 0.00103377 1e-05
-0.0117547 0.00103508 1e-05
-0.0115068 0.00103639 1e-05
-0.0112589 0.00103771 1e-05
-0.0110111 0.00103904 1e-05
-0.0107632 0.00104037 1e-05
-0.0105252 0.00104165 1e-05
-0.0102873 0.00104293 1e-05
-0.0100493 0.00104421 1e-05
-0.00981133 0.00104549 1e-05
-0.00957337 0.00104677 1e-05
-0.00934491 0.00104799 1e-05
-0.00911645 0.00104922 1e-05
-0.00888799 0.00105044 1e-05
-0.00865954 0.00105166 1e-05
-0.00843108 0.00105288 1e-05
-0.00821175 0.00105403 1e-05
-0.00799242 0.0010552 1e-05
-0.00777309 0.00105635 1e-05
-0.00755376 0.00105751 1e-05
-0.00733443 0.00105865 1e-05
-0.00712387 0.00105975 1e-05
-0.0069133 0.00106084 1e-05
-0.00670273 0.00106193 1e-05
-0.00649216 0.00106302 1e-05
-0.0062816 0.0010641 1e-05
-0.00607944 0.00106513 1e-05
-0.00587729 0.00106617 1e-05
-0.00567514 0.00106719 1e-05
-0.00547298 0.00106822 1e-05
-0.00527083 0.00106924 1e-05
-0.00507675 0.00107021 1e-05
-0.00488267 0.00107118 1e-05
-0.0046886 0.00107215 1e-05
-0.00449452 0.00107312 1e-05
-0.00430044 0.00107408 1e-05
-0.00411412 0.00107499 1e-05
-0.0039278 0.00107591 1e-05
-0.00374147 0.00107683 1e-05
-0.00355515 0.00107774 1e-05
-0.00336883 0.00107865 1e-05
-0.00318995 0.00107952 1e-05
-0.00301107 0.00108039 1e-05
-0.00283219 0.00108126 1e-05
-0.00265331 0.00108213 1e-05
-0.00247443 0.001083 1e-05
-0.0023027 0.00108383 1e-05
-0.00213097 0.00108467 1e-05
-0.00195924 0.0010855 1e-05
-0.0017875 0.00108634 1e-05
-0.00161577 0.00108718 1e-05
-0.0014509 0.00108798 1e-05
-0.00128603 0.00108878 1e-05
-0.00112116 0.00108959 1e-05
-0.000956289 0.00109041 1e-05
-0.000791418 0.00109124 1e-05
-0.000633135 0.00109203 1e-05
-0.000474851 0.00109283 1e-05
-0.000316568 0.00109364 1e-05
-0.000158284 0.00109446 1e-05
0 0.00109528 1e-05
0.000105677 0.00109582 1e-05
0.000211355 0.00109637 1e-05
0.000317032 0.00109693 1e-05
0.00042271 0.00109747 1e-05
0.000528387 0.00109802 1e-05
0.000634886 0.00109857 1e-05
0.000741385 0.00109912 1e-05
0.000847885 0.00109966 1e-05
0.000954384 0.00110019 1e-05
0.00106088 0.00110073 1e-05
0.00116821 0.00110125 1e-05
0.00127554 0.00110178 1e-05
0.00138286 0.00110229 1e-05
0.00149019 0.0011028 1e-05
0.00159752 0.0011033 1e-05
0.00170568 0.00110379 1e-05
0.00181384 0.00110428 1e-05
0.001922 0.00110476 1e-05
0.00203016 0.00110523 1e-05
0.00213833 0.00110569 1e-05
0.00224733 0.00110613 1e-05
0.00235633 0.00110658 1e-05
0.00246533 0.00110701 1e-05
0.00257434 0.00110744 1e-05
0.00268334 0.00110786 1e-05
0.00279319 0.00110826 1e-05
0.00290304 0.00110866 1e-05
0.00301289 0.00110906 1e-05
0.00312274 0.00110944 1e-05
0.00323259 0.00110982 1e-05
0.00334329 0.00111018 1e-05
0.003454 0.00111054 1e-05
0.0035647 0.0011109 1e-05
0.0036754 0.00111124 1e-05
0.00378611 0.00111158 1e-05
0.00389767 0.0011119 1e-05
0.00400924 0.00111223 1e-05
0.0041208 0.00111254 1e-05
0.00423237 0.00111285 1e-05
0.00434393 0.00111314 1e-05
0.00445636 0.00111343 1e-05
0.00456879 0.00111371 1e-05
0.00468123 0.00111399 1e-05
0.00479366 0.00111425 1e-05
0.00490609 0.00111451 1e-05
0.0050194 0.00111476 1e-05
0.0051327 0.001115 1e-05
0.00524601 0.00111523 1e-05
0.00535932 0.00111546 1e-05
0.00547262 0.00111568 1e-05
0.00558681 0.00111589 1e-05
0.005701 0.00111609 1e-05
0.00581518 0.00111628 1e-05
0.00592937 0.00111647 1e-05
0.00604356 0.00111665 1e-05
0.00615863 0.00111682 1e-05
0.00627371 0.00111698 1e-05
0.00638878 0.00111714 1e-05
0.00650386 0.00111728 1e-05
0.00661893 0.00111742 1e-05
0.0067349 0.00111755 1e-05
0.00685087 0.00111768 1e-05
0.00696684 0.00111779 1e-05
0.00708281 0.0011179 1e-05
0.00719878 0.001118 1e-05
0.00731565 0.00111809 1e-05
0.00743252 0.00111817 1e-05
0.00754939 0.00111825 1e-05
0.00766626 0.00111832 1e-05
0.00778313 0.00111838 1e-05
0.00782664 0.00111839 1e-05
0.00787014 0.00111841 1e-05
0.00791364 0.00111843 1e-05
0.00795714 0.00111844 1e-05
0.0079997 0.00111846 1e-05
0.00807416 0.00111848 1e-05
0.00814863 0.0011185 1e-05
0.0082231 0.00111852 1e-05
0.00829757 0.00111853 1e-05
0.00837203 0.00111854 1e-05
0.00849073 0.00111854 1e-05
0.00860942 0.00111854 1e-05
0.00872812 0.00111853 1e-05
0.00884682 0.00111852 1e-05
0.00896551 0.00111849 1e-05
0.00908513 0.00111845 1e-05
0.00920475 0.00111841 1e-05
0.00932437 0.00111835 1e-05
0.00944398 0.00111829 1e-05
0.0095636 0.00111822 1e-05
0.00968415 0.00111813 1e-05
0.0098047 0.00111804 1e-05
0.00992525 0.00111795 1e-05
0.0100458 0.00111784 1e-05
0.0101663 0.00111772 1e-05
0.0102878 0.00111759 1e-05
0.0104093 0.00111745 1e-05
0.0105308 0.00111731 1e-05
0.0106523 0.00111715 1e-05
0.0107738 0.00111699 1e-05
0.0108962 0.0011168 1e-05
0.0110186 0.00111662 1e-05
0.0111411 0.00111642 1e-05
0.0112635 0.00111622 1e-05
0.0113859 0.00111601 1e-05
0.0115093 0.00111577 1e-05
0.0116327 0.00111554 1e-05
0.0117561 0.00111529 1e-05
0.0118795 0.00111504 1e-05
0.0120028 0.00111478 1e-05
0.0121272 0.00111449 1e-05
0.0122515 0.0011142 1e-05
0.0123759 0.00111391 1e-05
0.0125002 0.0011136 1e-05
0.0126245 0.00111329 1e-05
0.0127498 0.00111295 1e-05
0.0128752 0.00111261 1e-05
0.0130005 0.00111226 1e-05
0.0131258 0.0011119 1e-05
0.0132511 0.00111153 1e-05
0.0133774 0.00111113 1e-05
0.0135036 0.00111074 1e-05
0.0136299 0.00111034 1e-05
0.0137562 0.00110992 1e-05
0.0138825 0.00110949 1e-05
0.0140098 0.00110905 1e-05
0.014137 0.0011086 1e-05
0.0142643 0.00110814 1e-05
0.0143915 0.00110766 1e-05
0.0145188 0.00110718 1e-05
0.0146471 0.00110668 1e-05
0.0147753 0.00110617 1e-05
0.0149036 0.00110565 1e-05
0.0150318 0.00110512 1e-05
0.0151601 0.00110458 1e-05
0.0152893 0.00110402 1e-05
0.0154186 0.00110346 1e-05
0.0155478 0.00110288 1e-05
0.0156771 0.00110229 1e-05
0.0158063 0.00110169 1e-05
0.0159366 0.00110108 1e-05
0.0160668 0.00110045 1e-05
0.0161971 0.00109981 1e-05
0.0163274 0.00109916 1e-05
0.0164576 0.0010985 1e-05
0.0165889 0.00109783 1e-05
0.0167201 0.00109714 1e-05
0.0168514 0.00109644 1e-05
0.0169827 0.00109573 1e-05
0.0171139 0.00109501 1e-05
0.0172462 0.00109429 1e-05
0.0173785 0.00109354 1e-05
0.0175108 0.00109278 1e-05
0.0176431 0.001092 1e-05
0.0177754 0.00109122 1e-05
0.0179087 0.00109044 1e-05
0.018042 0.00108963 1e-05
0.0181753 0.0010888 1e-05
0.0183087 0.00108797 1e-05
0.018442 0.00108713 1e-05
0.0185763 0.00108628 1e-05
0.0187107 0.00108541 1e-05
0.018845 0.00108452 1e-05
0.0189794 0.00108362 1e-05
0.0191137 0.00108272 1e-05
0.0192491 0.00108181 1e-05
0.0193845 0.00108088 1e-05
0.0195199 0.00107992 1e-05
0.0196553 0.00107896 1e-05
0.0197907 0.00107799 1e-05
0.0199272 0.00107702 1e-05
0.0200636 0.00107603 1e-05
0.0202001 0.00107501 1e-05
0.0203365 0.00107398 1e-05
0.020473 0.00107295 1e-05
0.0206105 0.00107192 1e-05
0.020748 0.00107086 1e-05
0.0208855 0.00106978 1e-05
0.021023 0.00106868 1e-05
0.0211606 0.00106759 1e-05
0.0212991 0.00106649 1e-05
0.0214377 0.00106537 1e-05
0.0215763 0.00106422 1e-05
0.0217149 0.00106306 1e-05
0.0218535 0.0010619 1e-05
0.0219931 0.00106074 1e-05
0.0221328 0.00105956 1e-05
0.0222724 0.00105834 1e-05
0.0224121 0.00105711 1e-05
0.0225517 0.00105589 1e-05
0.0226925 0.00105467 1e-05
0.0228332 0.00105341 1e-05
0.022974 0.00105213 1e-05
0.0231147 0.00105083 1e-05
0.0232555 0.00104955 1e-05
0.0233973 0.00104826 1e-05
0.0235391 0.00104693 1e-05
0.023681 0.00104558 1e-05
0.0238228 0.00104422 1e-05
0.0239647 0.00104286 1e-05
0.0241076 0.00104151 1e-05
0.0242505 0.00104012 1e-05
0.0243935 0.00103869 1e-05
0.0245364 0.00103726 1e-05
0.0246794 0.00103584 1e-05
0.0248234 0.00103441 1e-05
0.0249675 0.00103295 1e-05
0.0251115 0.00103146 1e-05
0.0252556 0.00102996 1e-05
[...]
POINT_DATA 12044
 FIELD attributes 2
p 1 12044 float
-3.66331 -3.66 -3.6567 -3.65339 -3.65008 -3.64677
-3.81658 -3.81656 -3.81653 -3.81651 -3.81649 -3.81647
-3.99092 -3.99079 -3.99067 -3.99055 -3.99042 -3.99032
-4.08461 -4.08456 -4.08451 -4.08445 -4.0844 -4.08434
-4.13014 -4.13002 -4.12991 -4.1298 -4.12968 -4.12957
-4.13712 -4.13696 -4.1368 -4.13664 -4.13648 -4.13632
-4.11061 -4.11053 -4.11046 -4.11039 -4.11032 -4.11025
-4.04137 -4.04133 -4.04129 -4.04125 -4.04121 -4.04117
-3.92037 -3.92037 -3.92038 -3.92039 -3.92039 -3.9204
-1.70795 -1.72727 -1.74647 -1.76553 -1.78446 -1.80325
-3.66331 -3.66264 -3.65906 -3.6554 -3.65167 -3.64339 -3.65728 -3.67228 -3.68728 -3.70228 -3.72672 -3.74846 -3.77836 -3.80826 -3.83816 -3.87086 -3.88646 -3.9081 -3.92974 -3.95139 -3.97465 -3.99343 -4.01422 -4.03501 -4.05581 -4.07337 -4.07448 -4.07559 -4.07669 -4.0778 -4.0789 -4.10046 -4.12202 -4.14358 -4.16514 -4.18643 -4.20507 -4.22351 -4.24195 -4.26039 -4.27826 -4.29373 -4.30891 -4.32409 -4.33928 -4.3539 -4.36748 -4.3808 -4.39411 -4.40743 -4.4203 -4.43275 -4.44494 -4.45712 -4.4693 -4.48105 -4.49252 -4.50367 -4.51483 -4.52598 -4.5367 -4.54725 -4.55749 -4.56774 -4.57798 -4.58785 -4.59765 -4.60712 -4.61659 -4.62606 -4.63519 -4.64433 -4.65319 -4.66204 -4.6709 -4.67955 -4.68817 -4.69636 -4.70455 -4.71274 -4.72076 -4.729 -4.7373 -4.74559 -4.75389 -4.7626 -4.77163 -4.78015 -4.78866 -4.79718 -4.80593 -4.81607 -4.8281 -4.84014 -4.85217 -4.86557 -4.87874 -4.8944 -4.91006 -4.92571 -4.94107 -4.95508 -4.96905 -4.98303 -4.99701 -5.00944 -5.01936 -5.02955 -5.03975 -5.04994 -5.06036 -5.06951 -5.07857 -5.08764 -5.09671 -5.10567 -5.11461 -5.12231 -5.13002 -5.13773 -5.1443 -5.15179 -5.15784 -5.1639 -5.16995 -5.17473 -5.1808 -5.18571 -5.19062 -5.19552 -5.1994 -5.20435 -5.20836 -5.21238 -5.21639 -5.21964 -5.2236 -5.22683 -5.23006 -5.23329 -5.23599 -5.23909 -5.24166 -5.24422 -5.24678 -5.24901 -5.25153 -5.25367 -5.25582 -5.25796 -5.25992 -5.26217 -5.26416 -5.26616 -5.26815 -5.27003 -5.27214 -5.27407 -5.27601 -5.27794 -5.27981 -5.28181 -5.2837 -5.2856 -5.2875 -5.28938 -5.29011 -5.29081 -5.29151 -5.29221 -5.2929 -5.2941 -5.2953 -5.2965 -5.2977 -5.29901 -5.30082 -5.30276 -5.3047 -5.30663 -5.30894 -5.31059 -5.31265 -5.31471 -5.31676 -5.31952 -5.32104 -5.32326 -5.32549 -5.32772 -5.33101 -5.33236 -5.33472 -5.33709 -5.33946 -5.34324 -5.3444 -5.34688 -5.34936 -5.35184 -5.35606 -5.35706 -5.35966 -5.36226 -5.36486 -5.36951 -5.37039 -5.37313 -5.37587 -5.3786 -5.38363 -5.38446 -5.38733 -5.39021 -5.39308 -5.39845 -5.39926 -5.40227 -5.40527 -5.40828 -5.4139 -5.41475 -5.41789 -5.42102 -5.42416 -5.42997 -5.43102 -5.43417 -5.43743 -5.44096 -5.44663 -5.44805 -5.45111 -5.4545 -5.45836 -5.46389 -5.46567 -5.4687 -5.4722 -5.47634 -5.48174 -5.48387 -5.4869 -5.49052 -5.49488 -5.50015 -5.5026 -5.50566 -5.50939 -5.51392 -5.51905 -5.52181 -5.52493 -5.52875 -5.5334 -5.53842 -5.54143 -5.54465 -5.54855 -5.55326 -5.55816 -5.5614 -5.56471 -5.56867 -5.57342 -5.57821 -5.58165 -5.58509 -5.58914 -5.59384 -5.59853 -5.60215 -5.60577 -5.60988 -5.61448 -5.61908 -5.62286 -5.62665 -5.63082 -5.63537 -5.63992 -5.64387 -5.64783 -5.65206 -5.65656 -5.66107 -5.66513 -5.6692 -5.67346 -5.67792 -5.68237 -5.68649 -5.69062 -5.69489 -5.69931 -5.70372 -5.70786 -5.712 -5.71628 -5.72067 -5.72507 -5.72921 -5.73336 -5.73764 -5.74201 -5.74638 -5.75052 -5.75468 -5.75894 -5.76327 -5.76762 -5.77173 -5.77588 -5.78011 -5.78439 -5.7887 -5.79277 -5.7969 -5.80109 -5.80532 -5.80959 -5.8136 -5.81769 -5.82183 -5.82599 -5.8302 -5.83415 -5.83819 -5.84226 -5.84634 -5.85049 -5.85435 -5.85834 -5.86233 -5.86632 -5.87038 -5.87417 -5.87806 -5.88196 -5.88586 -5.8898 -5.8935 -5.89729 -5.90108 -5.90487 -5.90869 -5.91229 -5.91595 -5.91961 -5.92327 -5.92696 -5.93043 -5.93395 -5.93747 -5.94099 -5.94452 -5.94775 -5.95101 -5.95427 -5.95753 -5.96064 -5.96077 -5.96089 -5.96102 -5.96115 -5.96128 -5.96448 -5.96767 -5.97087 -5.97407 -5.97728 -5.9803 -5.98332 -5.98633 -5.98935 -5.99238 -5.99521 -5.99802 -6.00083 -6.00364 -6.00646 -6.00907 -6.01164 -6.0142 -6.01677 -6.01933 -6.0217 -6.024 -6.02629 -6.02859 -6.03086 -6.03297 -6.03498 -6.03699 -6.03899 -6.04094 -6.04276 -6.04449 -6.04619 -6.04786 -6.0495 -6.051 -6.05244 -6.05382 -6.05514 -6.05644 -6.05761 -6.05875 -6.05978 -6.06073 -6.06167 -6.06248 -6.0633 -6.06395 -6.0645 -6.06504 -6.06547 -6.0659 -6.06617 -6.0663 -6.06644 -6.06646 -6.06649 -6.06634 -6.06602 -6.0657 -6.06528 -6.06487 -6.06428 -6.0635 -6.06271 -6.06182 -6.06094 -6.05988 -6.05861 -6.05733 -6.05596 -6.05454 -6.05298 -6.05126 -6.04946 -6.04758 -6.0456 -6.04352 -6.04134 -6.039 -6.03659 -6.03401 -6.03138 -6.02872 -6.02583 -6.02285 -6.01965 -6.01644 -6.01324 -6.00982 -6.0062 -6.0024 -5.9986 -5.99481 -5.99088 -5.98658 -5.98217 -5.97777 -5.97336 -5.96891 -5.96607 -5.96319 -5.96031 -5.95743 -5.95465 -5.9525 -5.95036 -5.94821 -5.94606 -5.94387 -5.9383 -5.93268 -5.92706 -5.92145 -5.91568 -5.90958 -5.9033 -5.89703 -5.89077 -5.88423 -5.87759 -5.87065 -5.86372 -5.85678 -5.84946 -5.8422 -5.83466 -5.82706 -5.81931 -5.81131 -5.80337 -5.79529 -5.787 -5.77844 -5.76975 -5.76112 -5.75248 -5.7435 -5.73412 -5.72475 -5.71542 -5.7061 -5.69641 -5.68633 -5.67626 -5.66624 -5.65623 -5.64584 -5.63507 -5.6243 -5.6136 -5.60287 -5.59175 -5.58034 -5.56888 -5.55749 -5.54591 -5.53409 -5.52213 -5.50997 -5.49789 -5.48546 -5.47295 -5.46044 -5.44762 -5.4348 -5.42161 -5.40843 -5.39526 -5.38192 -5.36826 -5.35441 -5.34057 -5.32673 -5.31288 -5.31114 -5.30937 -5.3076 -5.30583 -5.30408 -5.29141 -5.27875 -5.26609 -5.25344 -5.24067 -5.22568 -5.21062 -5.19557 -5.18052 -5.16523 -5.14972 -5.13404 -5.11837 -5.10263 -5.08664 -5.07052 -5.05433 -5.03804 -5.02155 -5.00495 -4.98824 -4.97154 -4.95462 -4.9374 -4.92018 -4.90289 -4.8856 -4.86801 -4.85015 -4.83229 -4.81439 -4.79647 -4.77816 -4.75967 -4.74113 -4.72259 -4.70379 -4.68479 -4.66575 -4.64646 -4.62719 -4.60744 -4.58769 -4.56794 -4.54801 -4.53015 -4.51203 -4.49392 -4.47581 -4.45861 -4.45597 -4.45333 -4.45069 -4.44805 -4.44539 -4.42402 -4.40265 -4.38129 -4.35993 -4.33842 -4.31635 -4.2942 -4.27206 -4.2499 -4.22746 -4.20462 -4.18175 -4.15885 -4.13576 -4.11256 -4.08895 -4.06536 -4.04165 -4.01763 -3.99361 -3.9692 -3.94479 -3.9201 -3.89523 -3.87037 -3.84512 -3.81976 -3.79407 -3.76834 -3.74255 -3.71641 -3.68984 -3.66317 -3.63652 -3.60973 -3.58236 -3.55462 -3.5269 -3.49918 -3.47146 -3.47075 -3.47004 -3.46932 -3.46861 -3.46789 -3.43981 -3.41175 -3.38369 -3.35564 -3.32714 -3.2974 -3.26737 -3.23735 -3.20719 -3.1763 -3.14535 -3.11422 -3.08287 -3.05078 -3.01849 -2.98619 -2.95389 -2.92088 -2.88709 -2.85329 -2.81951 -2.78568 -2.7508 -2.71552 -2.68009 -2.64474 -2.60849 -2.57191 -2.53533 -2.49821 -2.46542 -2.43185 -2.39828 -2.36472 -2.33335 -2.32811 -2.32287 -2.31763 -2.31239 -2.30701 -2.26701 -2.22692 -2.18684 -2.14677 -2.10546 -2.0642 -2.02212 -1.97996 -1.93698 -1.89313 -1.84971 -1.80631 -1.76165 -1.71552 -1.66935 -1.62368 -1.57802 -1.53051 -1.48211 -1.43347 -1.38536 -1.33572 -1.2856 -1.23549 -1.18459 -1.15705 -1.12859 -1.10013 -1.07168 -1.04461 -1.02016 -0.995721 -0.97128 -0.946843 -0.921565 -0.867092 -0.811886 -0.756698 -0.701055 -0.643487 -0.586684 -0.529642 -0.471302 -0.410643 -0.349913 -0.289991 -0.230087 -0.167851 -0.104306 -0.0404034 0.0226564 0.0880095 0.153747 0.219469 0.285812 0.299841 0.314421 0.329001 0.34358 0.357841 0.411979 0.466103 0.52021 0.574301 0.630543 0.7009 0.772499 0.844447 0.91845 0.993366 1.0673 1.1412 1.21739 1.29584 1.37447 1.45209 1.53203 1.61252 1.69299 1.774 1.78185 1.78995 1.79809 1.80622 1.81427 1.88953 1.96477 2.03998 2.11541 2.19339 2.27864 2.36416 2.45131 2.54089 2.63076 2.71957 2.80917 2.90062 2.99203 3.08524 3.12034 3.15616 3.19221 3.22826 3.26275 3.32121 3.37965 3.43806 3.49682 3.55692 3.65242 3.74847 3.8453 3.94421 4.04359 4.1419 4.24086 4.34102 4.44113 4.54252 4.56324 4.58416 4.60521 4.62625 4.64681 4.72777 4.80869 4.88956 4.97085 5.05332 5.156 5.25861 5.36219 5.46674 5.57195 5.64556 5.71941 5.79348 5.86751 5.93599 5.96784 5.99969 6.03152 6.06346 6.0956 6.20034 6.30547 6.41058 6.51591 6.62203 6.72299 6.8238 6.92443 7.02497 7.11629 7.12231 7.12833 7.13435 7.14036 7.14638 7.25078 7.35513 7.45938 7.56318 7.66757 7.77067 7.87333 7.97514 8.07686 8.17938 8.18128 8.18318 8.18505 8.18693 8.1888 8.28785 8.38682 8.48571 8.58366 8.68179 8.78036 8.87829 8.97486 9.07138 9.16298 9.1641 9.16522 9.16634 9.16745 9.16855 9.26372 9.35881 9.45386 9.54707 9.64024 9.71299 9.78528 9.85591 9.92653 9.99554 10.0151 10.0346 10.0541 10.0732 10.0923 10.1804 10.2682 10.3553 10.4403 10.5254 10.5697 10.6138 10.6566 10.6995 10.7424 10.7819 10.8215 10.861 10.8995 10.9377 11.0176 11.0976 11.1756 11.2524 11.3289 11.3491 11.3692 11.3887 11.4081 11.4278 11.4829 11.538 11.5931 11.6466 11.6995 11.7709 11.842 11.9107 11.9795 12.0476 12.0519 12.0562 12.0603 12.0645 12.0686 12.1309 12.1933 12.2558 12.3165 12.3761 12.4365 12.4962 12.5543 12.6124 12.6765 12.6776 12.6786 12.6797 12.6807 12.6817 12.7399 12.7981 12.8563 12.9131 12.9686 13.0229 13.0768 13.1291 13.1815 13.2331 13.2392 13.2452 13.2511 13.257 13.2629 13.3067 13.3505 13.3943 13.4374 13.4793 13.5256 13.5719 13.617 13.6611 13.7048 13.7315 13.7575 13.7832 13.8089 13.8375 13.8524 13.8673 13.8822 13.8969 13.9113 13.95 13.9882 14.0265 14.0637 14.1004 14.1354 14.1704 14.2043 14.2378 14.2709 14.2971 14.3225 14.3477 14.373 14.4026 14.407 14.4113 14.4157 14.4201 14.4243 14.4524 14.4804 14.5085 14.5363 14.5633 14.5885 14.6137 14.6386 14.6627 14.6868 14.7091 14.7314 14.7531 14.7745 14.7958 14.8155 14.8346 14.8537 14.8727 14.8915 14.8999 14.9081 14.9162 14.9244 14.9334 14.9419 14.9504 14.9589 14.9674 14.9758 14.9906 15.0054 15.0202 15.035 15.0494 15.0621 15.0749 15.0876 15.1002 15.1126 15.1234 15.1343 15.1451 15.1557 15.1663 15.1754 15.1845 15.1935 15.2024 15.2114 15.219 15.2265 15.2339 15.2413 15.2488 15.255 15.2611 15.2671 15.2732 15.2793 15.2842 15.289 15.2939 15.2987 15.3036 15.3074 15.3112 15.315 15.3188 15.3225 15.3233 15.3241 15.3249 15.3257 15.3265 15.3286 15.3307 15.3328 15.3349 15.3371 15.3391 15.3413 15.3434 15.3456 15.3477 15.3491 15.3507 15.3522 15.3537 15.3553 15.3563 15.3574 15.3585 15.3596 15.3609 15.3616 15.3625 15.3635 15.3645 15.3657 15.3665 15.3674 15.3685 15.3698 15.3714 15.3728 15.3741 15.3753 15.3769 15.3788 15.3805 15.3824 15.3846 15.3883 15.3926 15.3966 15.3996 15.4 15.4 15.3997 15.3986 15.3986 15.4004 15.4058 15.4138 15.4218 15.4264 15.4199 15.3975 15.3739 15.3473 15.3206 15.2935 15.266 15.2384 15.2085 15.1785 15.1489 15.1209 15.093 15.0631 15.0328 15.0021 14.9713 14.9402 14.9069 14.8729 14.8387 14.8045 14.7694 14.7317 14.6933 14.6548 14.6164 14.5774 14.535 14.4922 14.4494 14.4066 14.3635 14.3618 14.3601 14.3584 14.3567 14.355 14.3093 14.2636 14.2179 14.1722 14.1262 14.074 14.0213 13.9685 13.9158 13.8623 13.8048 13.7459 13.6871 13.6282 13.5678 13.5039 13.4385 13.3727 13.3062 13.2387 13.1674 13.0952 13.0215 12.9461 12.8701 12.7901 12.71 12.6271 12.5419 12.4566 12.3669 12.2772 12.1844 12.0885 11.9927 11.8921 11.7914 11.6872 11.5791 11.471 11.3576 11.2437 11.1262 11.0058 10.8843 10.7572 10.6274 10.4948 10.3603 10.2224 10.0783 9.93047 9.78174 9.633 9.47985 9.31858 9.14877 8.97896 8.80915 8.63361 8.44657 8.25905 8.07152 7.88397 7.69608 7.53068 7.35859 7.18652 7.01446 6.79796 6.7553 6.71263 6.66996 6.62729 6.5832 6.3483 6.11481 5.88131 5.64782 5.42297 5.14599 4.82916 4.51199 4.19448 3.80534 3.40946 3.1467 2.88284 2.61793 2.53205 2.46015 2.04158 1.59385 0.942509 0