# vtk DataFile Version 2.0
track0
ASCII
DATASET POLYDATA
POINTS 12044 float
-0.0205 0.001 1e-05
-0.02052 0.000999985 1e-05
-0.02054 0.000999974 1e-05
-0.02056 0.000999965 1e-05
-0.02058 0.000999959 1e-05
-0.0206 0.000999956 1e-05
-0.0205 0.00367778 1e-05
-0.02052 0.00367778 1e-05
-0.02054 0.00367777 1e-05
-0.02056 0.00367777 1e-05
-0.02058 0.00367777 1e-05
-0.0206 0.00367777 1e-05
-0.0205 0.00635556 1e-05
-0.02052 0.00635555 1e-05
-0.02054 0.00635555 1e-05
-0.02056 0.00635555 1e-05
-0.02058 0.00635555 1e-05
-0.0206 0.00635555 1e-05
-0.0205 0.00903333 1e-05
-0.02052 0.00903333 1e-05
-0.02054 0.00903333 1e-05
-0.02056 0.00903333 1e-05
-0.02058 0.00903333 1e-05
-0.0206 0.00903333 1e-05
-0.0205 0.0117111 1e-05
-0.02052 0.0117111 1e-05
-0.02054 0.0117111 1e-05
-0.02056 0.0117111 1e-05
-0.02058 0.0117111 1e-05
-0.0206 0.0117111 1e-05
-0.0205 0.0143889 1e-05
-0.02052 0.0143889 1e-05
-0.02054 0.0143889 1e-05
-0.02056 0.0143889 1e-05
-0.02058 0.0143889 1e-05
-0.0206 0.0143889 1e-05
-0.0205 0.0170667 1e-05
-0.02052 0.0170667 1e-05
-0.02054 0.0170667 1e-05
-0.02056 0.0170667 1e-05
-0.02058 0.0170667 1e-05
-0.0206 0.0170667 1e-05
-0.0205 0.0197444 1e-05
-0.02052 0.0197444 1e-05
-0.02054 0.0197444 1e-05
-0.02056 0.0197444 1e-05
-0.02058 0.0197444 1e-05
-0.0206 0.0197444 1e-05
-0.0205 0.0224222 1e-05
-0.02052 0.0224222 1e-05
-0.02054 0.0224222 1e-05
-0.02056 0.0224222 1e-05
-0.02058 0.0224222 1e-05
-0.0206 0.0224222 1e-05
-0.0205 0.0251 1e-05
-0.02052 0.0250998 1e-05
-0.02054 0.0250997 1e-05
-0.02056 0.0250995 1e-05
-0.02058 0.0250995 1e-05
-0.0206 0.0250994 1e-05
-0.0205 0.001 1e-05
-0.0202034 0.00100022 1e-05
-0.0199069 0.00100067 1e-05
-0.0196103 0.00100133 1e-05
-0.0193137 0.00100219 1e-05
-0.0190172 0.00100326 1e-05
-0.0187132 0.00100467 1e-05
-0.0184093 0.00100589 1e-05
-0.0181054 0.00100711 1e-05
-0.0178015 0.00100833 1e-05
-0.0174976 0.00100954 1e-05
-0.0172058 0.00101083 1e-05
-0.016914 0.00101194 1e-05
-0.0166222 0.00101304 1e-05
-0.0163305 0.00101413 1e-05
-0.0160387 0.00101523 1e-05
-0.0157586 0.00101637 1e-05
-0.0154784 0.00101745 1e-05
-0.0151983 0.00101857 1e-05
-0.0149182 0.00101972 1e-05
-0.0146381 0.00102091 1e-05
-0.014375 0.00102209 1e-05
-0.0141119 0.00102328 1e-05
-0.0138489 0.00102449 1e-05
-0.0135858 0.00102574 1e-05
-0.0133637 0.00102682 1e-05
-0.0133496 0.00102689 1e-05
-0.0133356 0.00102696 1e-05
-0.0133215 0.00102703 1e-05
-0.0133075 0.0010271 1e-05
-0.0132934 0.00102717 1e-05
-0.0130353 0.00102845 1e-05
-0.0127771 0.00102976 1e-05
-0.0125189 0.00103108 1e-05
-0.0122607 0.00103241 1e-05
-0.0120025 0.00103377 1e-05
-0.0117547 0.00103508 1e-05
-0.0115068 0.00103639 1e-05
-0.0112589 0.00103771 1e-05
-0.0110111 0.00103904 1e-05
-0.0107632 0.00104037 1e-05
-0.0105252 0.00104165 1e-05
-0.0102873 0.00104293 1e-05
-0.0100493 0.00104421 1e-05
-0.00981133 0.00104549 1e-05
-0.00957337 0.00104677 1e-05
-0.00934491 0.00104799 1e-05
-0.00911645 0.00104922 1e-05
-0.00888799 0.00105044 1e-05
-0.00865954 0.00105166 1e-05
-0.00843108 0.00105288 1e-05
-0.00821175 0.00105403 1e-05
-0.00799242 0.0010552 1e-05
-0.00777309 0.00105635 1e-05
-0.00755376 0.00105751 1e-05
-0.00733443 0.00105865 1e-05
-0.00712387 0.00105975 1e-05
-0.0069133 0.00106084 1e-05
-0.00670273 0.00106193 1e-05
-0.00649216 0.00106302 1e-05
-0.0062816 0.0010641 1e-05
-0.00607944 0.00106513 1e-05
-0.00587729 0.00106617 1e-05
-0.00567514 0.00106719 1e-05
-0.00547298 0.00106822 1e-05
-0.00527083 0.00106924 1e-05
-0.00507675 0.00107021 1e-05
-0.00488267 0.00107118 1e-05
-0.0046886 0.00107215 1e-05
-0.00449452 0.00107312 1e-05
-0.00430044 0.00107408 1e-05
-0.00411412 0.00107499 1e-05
-0.0039278 0.00107591 1e-05
-0.00374147 0.00107683 1e-05
-0.00355515 0.00107774 1e-05
-0.00336883 0.00107865 1e-05
-0.00318995 0.00107952 1e-05
-0.00301107 0.00108039 1e-05
-0.00283219 0.00108126 1e-05
-0.00265331 0.00108213 1e-05
-0.00247443 0.001083 1e-05
-0.0023027 0.00108383 1e-05
-0.00213097 0.00108467 1e-05
-0.00195924 0.0010855 1e-05
-0.0017875 0.00108634 1e-05
-0.00161577 0.00108718 1e-05
-0.0014509 0.00108798 1e-05
-0.00128603 0.00108878 1e-05
-0.00112116 0.00108959 1e-05
-0.000956289 0.00109041 1e-05
-0.000791418 0.00109124 1e-05
-0.000633135 0.00109203 1e-05
-0.000474851 0.00109283 1e-05
-0.000316568 0.00109364 1e-05
-0.000158284 0.00109446 1e-05
0 0.00109528 1e-05
0.000105677 0.00109582 1e-05
0.000211355 0.00109637 1e-05
0.000317032 0.00109693 1e-05
0.00042271 0.00109747 1e-05
0.000528387 0.00109802 1e-05
0.000634886 0.00109857 1e-05
0.000741385 0.00109912 1e-05
0.000847885 0.00109966 1e-05
0.000954384 0.00110019 1e-05
0.00106088 0.00110073 1e-05
0.00116821 0.00110125 1e-05
0.00127554 0.00110178 1e-05
0.00138286 0.00110229 1e-05
0.00149019 0.0011028 1e-05
0.00159752 0.0011033 1e-05
0.00170568 0.00110379 1e-05
0.00181384 0.00110428 1e-05
0.001922 0.00110476 1e-05
0.00203016 0.00110523 1e-05
0.00213833 0.00110569 1e-05
0.00224733 0.00110613 1e-05
0.00235633 0.00110658 1e-05
0.00246533 0.00110701 1e-05
0.00257434 0.00110744 1e-05
0.00268334 0.00110786 1e-05
0.00279319 0.00110826 1e-05
0.00290304 0.00110866 1e-05
0.00301289 0.00110906 1e-05
0.00312274 0.00110944 1e-05
0.00323259 0.00110982 1e-05
0.00334329 0.00111018 1e-05
0.003454 0.00111054 1e-05
0.0035647 0.0011109 1e-05
0.0036754 0.00111124 1e-05
0.00378611 0.00111158 1e-05
0.00389767 0.0011119 1e-05
0.00400924 0.00111223 1e-05
0.0041208 0.00111254 1e-05
0.00423237 0.00111285 1e-05
0.00434393 0.00111314 1e-05
0.00445636 0.00111343 1e-05
0.00456879 0.00111371 1e-05
0.00468123 0.00111399 1e-05
0.00479366 0.00111425 1e-05
0.00490609 0.00111451 1e-05
0.0050194 0.00111476 1e-05
0.0051327 0.001115 1e-05
0.00524601 0.00111523 1e-05
0.00535932 0.00111546 1e-05
0.00547262 0.00111568 1e-05
0.00558681 0.00111589 1e-05
0.005701 0.00111609 1e-05
0.00581518 0.00111628 1e-05
0.00592937 0.00111647 1e-05
0.00604356 0.00111665 1e-05
0.00615863 0.00111682 1e-05
0.00627371 0.00111698 1e-05
0.00638878 0.00111714 1e-05
0.00650386 0.00111728 1e-05
0.00661893 0.00111742 1e-05
0.0067349 0.00111755 1e-05
0.00685087 0.00111768 1e-05
0.00696684 0.00111779 1e-05
0.00708281 0.0011179 1e-05
0.00719878 0.001118 1e-05
0.00731565 0.00111809 1e-05
0.00743252 0.00111817 1e-05
0.00754939 0.00111825 1e-05
0.00766626 0.00111832 1e-05
0.00778313 0.00111838 1e-05
0.00782664 0.00111839 1e-05
0.00787014 0.00111841 1e-05
0.00791364 0.00111843 1e-05
0.00795714 0.00111844 1e-05
0.0079997 0.00111846 1e-05
0.00807416 0.00111848 1e-05
0.00814863 0.0011185 1e-05
0.0082231 0.00111852 1e-05
0.00829757 0.00111853 1e-05
0.00837203 0.00111854 1e-05
0.00849073 0.00111854 1e-05
0.00860942 0.00111854 1e-05
0.00872812 0.00111853 1e-05
0.00884682 0.00111852 1e-05
0.00896551 0.00111849 1e-05
0.00908513 0.00111845 1e-05
0.00920475 0.00111841 1e-05
0.00932437 0.00111835 1e-05
0.00944398 0.00111829 1e-05
0.0095636 0.00111822 1e-05
0.00968415 0.00111813 1e-05
0.0098047 0.00111804 1e-05
0.00992525 0.00111795 1e-05
0.0100458 0.00111784 1e-05
0.0101663 0.00111772 1e-05
0.0102878 0.00111759 1e-05
0.0104093 0.00111745 1e-05
0.0105308 0.00111731 1e-05
0.0106523 0.00111715 1e-05
0.0107738 0.00111699 1e-05
0.0108962 0.0011168 1e-05
0.0110186 0.00111662 1e-05
0.0111411 0.00111642 1e-05
0.0112635 0.00111622 1e-05
0.0113859 0.00111601 1e-05
0.0115093 0.00111577 1e-05
0.0116327 0.00111554 1e-05
0.0117561 0.00111529 1e-05
0.0118795 0.00111504 1e-05
0.0120028 0.00111478 1e-05
0.0121272 0.00111449 1e-05
0.0122515 0.0011142 1e-05
0.0123759 0.00111391 1e-05
0.0125002 0.0011136 1e-05
0.0126245 0.00111329 1e-05
0.0127498 0.00111295 1e-05
0.0128752 0.00111261 1e-05
0.0130005 0.00111226 1e-05
0.0131258 0.0011119 1e-05
0.0132511 0.00111153 1e-05
0.0133774 0.00111113 1e-05
0.0135036 0.00111074 1e-05
0.0136299 0.00111034 1e-05
0.0137562 0.00110992 1e-05
0.0138825 0.00110949 1e-05
0.0140098 0.00110905 1e-05
0.014137 0.0011086 1e-05
0.0142643 0.00110814 1e-05
0.0143915 0.00110766 1e-05
0.0145188 0.00110718 1e-05
0.0146471 0.00110668 1e-05
0.0147753 0.00110617 1e-05
0.0149036 0.00110565 1e-05
0.0150318 0.00110512 1e-05
0.0151601 0.00110458 1e-05
0.0152893 0.00110402 1e-05
0.0154186 0.00110346 1e-05
0.0155478 0.00110288 1e-05
0.0156771 0.00110229 1e-05
0.0158063 0.00110169 1e-05
0.0159366 0.00110108 1e-05
0.0160668 0.00110045 1e-05
0.0161971 0.00109981 1e-05
0.0163274 0.00109916 1e-05
0.0164576 0.0010985 1e-05
0.0165889 0.00109783 1e-05
0.0167201 0.00109714 1e-05
0.0168514 0.00109644 1e-05
0.0169827 0.00109573 1e-05
0.0171139 0.00109501 1e-05
0.0172462 0.00109429 1e-05
0.0173785 0.00109354 1e-05
0.0175108 0.00109278 1e-05
0.0176431 0.001092 1e-05
0.0177754 0.00109122 1e-05
0.0179087 0.00109044 1e-05
0.018042 0.00108963 1e-05
0.0181753 0.0010888 1e-05
0.0183087 0.00108797 1e-05
0.018442 0.00108713 1e-05
0.0185763 0.00108628 1e-05
0.0187107 0.00108541 1e-05
0.018845 0.00108452 1e-05
0.0189794 0.00108362 1e-05
0.0191137 0.00108272 1e-05
0.0192491 0.00108181 1e-05
0.0193845 0.00108088 1e-05
0.0195199 0.00107992 1e-05
0.0196553 0.00107896 1e-05
0.0197907 0.00107799 1e-05
0.0199272 0.00107702 1e-05
0.0200636 0.00107603 1e-05
0.0202001 0.00107501 1e-05
0.0203365 0.00107398 1e-05
0.020473 0.00107295 1e-05
0.0206105 0.00107192 1e-05
0.020748 0.00107086 1e-05
0.0208855 0.00106978 1e-05
0.021023 0.00106868 1e-05
0.0211606 0.00106759 1e-05
0.0212991 0.00106649 1e-05
0.0214377 0.00106537 1e-05
0.0215763 0.00106422 1e-05
0.0217149 0.00106306 1e-05
0.0218535 0.0010619 1e-05
0.0219931 0.00106074 1e-05
0.0221328 0.00105956 1e-05
0.0222724 0.00105834 1e-05
0.0224121 0.00105711 1e-05
0.0225517 0.00105589 1e-05
0.0226925 0.00105467 1e-05
0.0228332 0.00105341 1e-05
0.022974 0.00105213 1e-05
0.0231147 0.00105083 1e-05
0.0232555 0.00104955 1e-05
0.0233973 0.00104826 1e-05
0.0235391 0.00104693 1e-05
0.023681 0.00104558 1e-05
0.0238228 0.00104422 1e-05
0.0239647 0.00104286 1e-05
0.0241076 0.00104151 1e-05
0.0242505 0.00104012 1e-05
0.0243935 0.00103869 1e-05
0.0245364 0.00103726 1e-05
0.0246794 0.00103584 1e-05
0.0248234 0.00103441 1e-05
0.0249675 0.00103295 1e-05
0.0251115 0.00103146 1e-05
0.0252556 0.00102996 1e-05
[...]
POINT_DATA 12044
 FIELD attributes 1
U 3 12044 float
10.0004 	0.00734853 	0 10.0004 	0.00587882 	0 10.0003 	0.00440912 	0 10.0002 	0.00293941 	0 10.0001 	0.0014697 	0 10 	0 	0
10.0001 	0.000879705 	0 10 	0.000703764 	0 10 	0.000527823 	0 10 	0.000351882 	0 10 	0.000175941 	0 10 	0 	0
10.0001 	0.000468276 	0 10.0001 	0.000374432 	0 10.0001 	0.000280588 	0 10 	0.000186744 	0 10 	9.29004e-05 	0 10 	0 	0
10 	0.000268981 	0 10 	0.000215185 	0 10 	0.000161389 	0 10 	0.000107592 	0 10 	5.37962e-05 	0 10 	0 	0
10 	8.33702e-05 	0 10 	6.66961e-05 	0 10 	5.00221e-05 	0 10 	3.33481e-05 	0 10 	1.6674e-05 	0 10 	0 	0
10 	-2.35048e-05 	0 10 	-1.88038e-05 	0 10 	-1.41029e-05 	0 10 	-9.40191e-06 	0 10 	-4.70096e-06 	0 10 	0 	0
10 	-0.000214118 	0 10 	-0.000171294 	0 10 	-0.000128471 	0 10 	-8.56472e-05 	0 10 	-4.28236e-05 	0 10 	0 	0
10 	-0.000376313 	0 10 	-0.00030105 	0 10 	-0.000225788 	0 10 	-0.000150525 	0 10 	-7.52625e-05 	0 10 	0 	0
9.99999 	-0.000425659 	0 9.99999 	-0.000340527 	0 9.99999 	-0.000255395 	0 10 	-0.000170263 	0 10 	-8.51317e-05 	0 10 	0 	0
9.17387 	0.0871273 	0 9.1308 	0.0697019 	0 9.08741 	0.0522761 	0 9.04368 	0.0348502 	0 8.99963 	0.017424 	0 8.95524 	0 	0
10.0004 	0.00734853 	0 10.0024 	0.0152077 	0 10.0045 	0.0222305 	0 10.0065 	0.0292087 	0 10.0086 	0.0361428 	0 10.0136 	0.0463357 	0 10.0164 	0.0402175 	0 10.0208 	0.0401696 	0 10.0252 	0.0401218 	0 10.0297 	0.0400743 	0 10.0356 	0.0445344 	0 10.0385 	0.0378985 	0 10.0424 	0.0378569 	0 10.0464 	0.0378154 	0 10.0504 	0.0377737 	0 10.0545 	0.0408762 	0 10.0567 	0.0388013 	0 10.0591 	0.0401128 	0 10.0615 	0.041426 	0 10.064 	0.0427408 	0 10.0661 	0.0452002 	0 10.0676 	0.0453131 	0 10.0689 	0.0465162 	0 10.0703 	0.0477204 	0 10.0716 	0.0489257 	0 10.0727 	0.0499444 	0 10.0728 	0.0500092 	0 10.0729 	0.0500741 	0 10.0729 	0.0501389 	0 10.073 	0.0502038 	0 10.0731 	0.0502589 	0 10.0736 	0.0508892 	0 10.0741 	0.0515133 	0 10.0746 	0.052138 	0 10.0751 	0.0527631 	0 10.0756 	0.053224 	0 10.0755 	0.0535242 	0 10.0751 	0.0537188 	0 10.0748 	0.0539136 	0 10.0744 	0.0541084 	0 10.0739 	0.0540647 	0 10.0734 	0.0542157 	0 10.0723 	0.0541981 	0 10.0712 	0.0541805 	0 10.0701 	0.0541628 	0 10.0685 	0.0538761 	0 10.0681 	0.0539645 	0 10.0665 	0.0538389 	0 10.0648 	0.0537132 	0 10.0632 	0.0535875 	0 10.0606 	0.0531757 	0 10.0606 	0.0532409 	0 10.0585 	0.0530572 	0 10.0565 	0.0528734 	0 10.0544 	0.0526895 	0 10.0509 	0.0522075 	0 10.0515 	0.052276 	0 10.0491 	0.0520706 	0 10.0468 	0.0518651 	0 10.0444 	0.0516596 	0 10.0398 	0.0511487 	0 10.0412 	0.0512443 	0 10.0386 	0.0510416 	0 10.0361 	0.0508388 	0 10.0335 	0.050636 	0 10.0277 	0.0501156 	0 10.0301 	0.0502495 	0 10.0274 	0.0500714 	0 10.0247 	0.0498933 	0 10.022 	0.0497152 	0 10.015 	0.0492145 	0 10.0186 	0.0494038 	0 10.0158 	0.0492589 	0 10.013 	0.049114 	0 10.0102 	0.048969 	0 10.002 	0.0484861 	0 10.0068 	0.0487441 	0 10.004 	0.0486935 	0 10.0012 	0.0486429 	0 9.99836 	0.0485922 	0 9.98899 	0.0482229 	0 9.99514 	0.0486141 	0 9.99233 	0.0486388 	0 9.98953 	0.0486635 	0 9.98673 	0.0486882 	0 9.97614 	0.0483323 	0 9.98372 	0.0488274 	0 9.98107 	0.0491594 	0 9.97842 	0.0494915 	0 9.97577 	0.0498236 	0 9.96408 	0.0498545 	0 9.97334 	0.0506073 	7.2434e-22 9.97154 	0.0509798 	4.95711e-21 9.96974 	0.0513523 	9.18955e-21 9.96795 	0.0517249 	1.34217e-20 9.956 	0.0515457 	1.12903e-20 9.96676 	0.0519759 	7.96962e-20 9.96536 	0.0518921 	7.4091e-20 9.96396 	0.0518082 	6.84851e-20 9.96256 	0.0517244 	6.28784e-20 9.95043 	0.0511263 	-1.28244e-20 9.96122 	0.0510284 	-3.47899e-20 9.95985 	0.0505925 	-3.86441e-20 9.95848 	0.0501565 	-4.24965e-20 9.9571 	0.0497205 	-4.6347e-20 9.94501 	0.0490093 	-1.77496e-20 9.95534 	0.0486403 	-1.56779e-20 9.95361 	0.0478536 	-1.08704e-20 9.95188 	0.0470667 	-6.06344e-21 9.95014 	0.0462798 	-1.25699e-21 9.93794 	0.045305 	6.14899e-21 9.94784 	0.0449267 	-4.34619e-21 9.94574 	0.0439715 	-2.00121e-20 9.94364 	0.0430162 	-3.56801e-20 9.94153 	0.0420606 	-5.13501e-20 9.92917 	0.040803 	-7.3768e-20 9.93856 	0.0405701 	-1.0634e-19 9.93603 	0.0396701 	-9.59562e-20 9.9335 	0.0387698 	-8.55654e-20 9.93096 	0.0378693 	-7.51675e-20 9.91841 	0.0364941 	-2.49532e-20 9.92717 	0.0363849 	3.1848e-20 9.92419 	0.0355738 	4.32516e-20 9.92121 	0.0347625 	5.46466e-20 9.91821 	0.0339509 	6.6033e-20 9.90554 	0.0325626 	3.08665e-20 9.91358 	0.0324675 	-4.41797e-20 9.91014 	0.0316881 	-4.93601e-20 9.9067 	0.0309083 	-5.45272e-20 9.90325 	0.0301283 	-5.96809e-20 9.89053 	0.0287712 	-2.41555e-22 9.89774 	0.028634 	5.62453e-20 9.89382 	0.0278683 	4.83692e-20 9.88989 	0.0271024 	4.04798e-20 9.88596 	0.0263362 	3.25772e-20 9.87325 	0.0250482 	-2.33209e-20 9.87945 	0.0248546 	-7.2547e-20 9.87501 	0.0241013 	-9.13251e-20 9.87057 	0.0233477 	-1.10098e-19 9.86612 	0.0225938 	-1.28867e-19 9.85354 	0.0213926 	-1.13656e-19 9.8585 	0.0211441 	-1.33569e-19 9.85354 	0.0204056 	-1.23084e-19 9.84856 	0.0196669 	-1.12595e-19 9.84359 	0.0189278 	-1.02103e-19 9.83131 	0.0178187 	-6.9101e-20 9.83476 	0.0175229 	-5.85605e-20 9.82928 	0.0168015 	-4.29315e-20 9.82378 	0.0160797 	-2.7304e-20 9.81828 	0.0153577 	-1.16782e-20 9.80655 	0.0143366 	2.16937e-21 9.80818 	0.0139837 	0 9.80219 	0.0132724 	0 9.79618 	0.0125607 	0 9.79017 	0.0118487 	0 9.77931 	0.01091 	0 9.77873 	0.010483 	-1.32346e-20 9.77224 	0.00977738 	-2.92735e-20 9.76574 	0.00907139 	-4.5314e-20 9.75923 	0.00836503 	-6.1356e-20 9.74962 	0.00751455 	-7.84659e-20 9.7464 	0.00699304 	-8.46799e-20 9.73942 	0.00629262 	-8.52854e-20 9.73243 	0.0055918 	-8.5886e-20 9.72544 	0.00489058 	-8.64819e-20 9.71752 	0.00414586 	-8.54509e-20 9.71587 	0.00394236 	-7.40339e-20 9.71313 	0.00368541 	-6.49279e-20 9.71038 	0.0034284 	-5.58231e-20 9.70763 	0.00317133 	-4.67195e-20 9.70494 	0.00291979 	-3.78148e-20 9.70017 	0.00247695 	-2.22163e-20 9.69541 	0.00203392 	-6.62128e-21 9.69064 	0.00159071 	8.97018e-21 9.68586 	0.0011473 	2.45581e-20 9.67706 	0.000522333 	4.36008e-20 9.67277 	-1.2436e-05 	4.4434e-20 9.6648 	-0.000709473 	4.53678e-20 9.65681 	-0.00140702 	4.62996e-20 9.64881 	-0.00210509 	4.72294e-20 9.6306 	-0.00324104 	4.93973e-20 9.63151 	-0.00355044 	3.90606e-20 9.62311 	-0.00424589 	2.87222e-20 9.61469 	-0.0049419 	1.83826e-20 9.60626 	-0.00563848 	8.04195e-21 9.5818 	-0.00697825 	-7.08906e-22 9.58758 	-0.00711282 	-7.61639e-21 9.57878 	-0.00780882 	-1.75042e-20 9.56997 	-0.00850542 	-2.73909e-20 9.56114 	-0.00920264 	-3.72765e-20 9.53098 	-0.0106902 	-4.71728e-20 9.54118 	-0.0107034 	-4.80897e-20 9.53202 	-0.0114014 	-5.42948e-20 9.52284 	-0.0121001 	-6.04969e-20 9.51365 	-0.0127994 	-6.6696e-20 9.47845 	-0.014374 	-8.13428e-20 9.49253 	-0.0143205 	-1.20689e-19 9.48303 	-0.0150214 	-1.12609e-19 9.47351 	-0.0157231 	-1.04541e-19 9.46398 	-0.0164255 	-9.64862e-20 9.42446 	-0.0180259 	-3.48415e-20 9.44185 	-0.0179594 	-2.28175e-20 9.43204 	-0.0186642 	-1.61228e-20 9.42221 	-0.0193698 	-9.42746e-21 9.41237 	-0.0200762 	-2.73133e-21 9.36931 	-0.0216444 	0 9.38938 	-0.0216193 	0 9.3793 	-0.0223291 	0 9.36919 	-0.0230398 	0 9.35907 	-0.0237513 	0 9.31322 	-0.02523 	0 9.3354 	-0.0253005 	1.75526e-21 9.32507 	-0.0260154 	7.98268e-21 9.31472 	-0.0267311 	1.42093e-20 9.30435 	-0.0274477 	2.04352e-20 9.25645 	-0.0287795 	3.50317e-20 9.28017 	-0.0289931 	1.29068e-19 9.26962 	-0.0297116 	1.31585e-19 9.25905 	-0.030431 	1.34116e-19 9.24846 	-0.0311513 	1.36662e-19 9.1992 	-0.0322845 	3.51965e-20 9.22395 	-0.0326811 	1.93147e-20 9.2132 	-0.0334021 	1.3696e-20 9.20243 	-0.034124 	8.07636e-21 9.19157 	-0.0348472 	2.49071e-21 9.14165 	-0.0357389 	1.41677e-20 9.16539 	-0.0363564 	8.84752e-20 9.15606 	-0.0370745 	9.29573e-20 9.14513 	-0.0377983 	9.40941e-20 9.13026 	-0.0385123 	8.59388e-20 9.084 	-0.0391404 	3.23105e-21 9.10443 	-0.0399769 	-8.46603e-20 9.09844 	-0.0407195 	-1.06065e-19 9.08736 	-0.0414448 	-1.14711e-19 9.06921 	-0.0420964 	-1.08695e-19 9.02639 	-0.0424883 	-5.13982e-20 9.04376 	-0.0435186 	-1.51063e-19 9.04055 	-0.0443294 	-1.80387e-19 9.02935 	-0.0450557 	-1.82452e-19 9.00858 	-0.0455995 	-1.47528e-19 8.96898 	-0.0457823 	-3.96586e-20 8.98355 	-0.046981 	-2.07654e-20 8.98261 	-0.0478972 	-9.51097e-21 8.97131 	-0.0486247 	-3.36246e-21 8.94853 	-0.0490238 	0 8.91189 	-0.0490258 	0 8.92391 	-0.0503711 	0 8.9248 	-0.0514239 	0 8.91343 	-0.0521534 	0 8.88916 	-0.0523776 	1.61218e-21 8.85526 	-0.0522241 	4.42901e-21 8.86496 	-0.0536936 	1.74837e-21 8.8673 	-0.0549074 	0 8.85586 	-0.0556395 	0 8.83057 	-0.0556678 	1.95769e-21 8.79917 	-0.0553856 	4.7784e-21 8.8068 	-0.0569623 	2.09768e-21 8.81024 	-0.0583572 	1.20924e-21 8.79876 	-0.0590928 	6.77332e-21 8.77285 	-0.0589082 	2.06489e-20 8.74374 	-0.058519 	3.63708e-20 8.7495 	-0.0601819 	1.43399e-19 8.75377 	-0.0617684 	2.41703e-19 8.74227 	-0.0625046 	2.44799e-19 8.71607 	-0.062093 	1.43852e-19 8.68902 	-0.0616142 	3.68395e-20 8.69312 	-0.0633339 	2.13594e-20 8.69716 	-0.0650553 	5.88067e-21 8.68547 	-0.0657483 	2.01057e-22 8.66028 	-0.0652098 	2.91505e-21 8.6351 	-0.0646709 	5.62892e-21 8.63772 	-0.0664413 	3.06021e-21 8.64029 	-0.0682136 	4.92339e-22 8.62902 	-0.0688759 	1.98397e-21 8.60552 	-0.0682854 	-1.28674e-21 8.58202 	-0.0676944 	-4.55663e-21 8.58336 	-0.069502 	-4.15825e-20 8.58463 	-0.0713114 	-7.86123e-20 8.57384 	-0.0719432 	-7.97765e-20 8.55184 	-0.0713144 	-4.59161e-20 8.52986 	-0.0706851 	-1.2054e-20 8.53006 	-0.0725209 	7.2394e-20 8.5302 	-0.0743586 	1.56837e-19 8.51992 	-0.0749634 	1.64089e-19 8.49927 	-0.0743127 	9.36608e-20 8.47864 	-0.0736616 	2.32327e-20 8.47786 	-0.0755183 	1.34572e-20 8.47701 	-0.0773768 	3.67815e-21 8.46725 	-0.0779564 	2.21829e-22 8.44781 	-0.0772935 	4.18649e-21 8.42839 	-0.0766302 	8.15251e-21 8.42674 	-0.0784862 	3.34492e-21 8.42502 	-0.080344 	-1.46772e-21 8.4158 	-0.0808997 	-1.74129e-20 8.39744 	-0.0802475 	-6.0071e-20 8.3791 	-0.0795948 	-1.02731e-19 8.37668 	-0.081443 	-2.14215e-19 8.3742 	-0.0832928 	-3.25693e-19 8.36552 	-0.0838286 	-3.12265e-19 8.34814 	-0.0831996 	-1.84452e-19 8.33077 	-0.0825701 	-5.66405e-20 8.32768 	-0.0844056 	4.9099e-20 8.32426 	-0.086177 	1.4958e-19 8.31572 	-0.086669 	1.47411e-19 8.2999 	-0.0861637 	7.70306e-20 8.28341 	-0.0855656 	3.29997e-22 8.27972 	-0.0873868 	-7.57596e-20 8.27504 	-0.0889486 	-1.38311e-19 8.26662 	-0.0894542 	-1.46027e-19 8.25269 	-0.0891522 	-9.79061e-20 8.23701 	-0.0885901 	-3.18208e-20 8.23278 	-0.0903965 	-2.23552e-20 8.22709 	-0.0917541 	-1.29722e-20 8.21878 	-0.0922747 	-3.73924e-21 8.2065 	-0.0921745 	1.04251e-20 8.19155 	-0.0916513 	2.79475e-20 8.18683 	-0.0934431 	9.2725e-21 8.18035 	-0.0946033 	-2.4777e-21 8.17213 	-0.0951403 	-7.39832e-21 8.16129 	-0.0952389 	-4.72999e-21 8.14699 	-0.0947568 	7.98502e-21 8.14185 	-0.0965349 	-6.24981e-21 8.13474 	-0.0975054 	-1.46484e-20 8.12662 	-0.0980598 	-2.00404e-20 8.11702 	-0.0983536 	-2.88354e-20 8.10331 	-0.097914 	-4.71837e-20 8.09779 	-0.0996794 	4.49315e-20 8.09022 	-0.100468 	6.30891e-20 8.08218 	-0.101042 	6.48906e-20 8.07365 	-0.101526 	5.92959e-20 8.06048 	-0.101131 	-1.95465e-20 8.05461 	-0.102885 	5.81022e-20 8.04671 	-0.1035 	6.19485e-20 8.03874 	-0.104093 	6.43188e-20 8.03075 	-0.104687 	6.66782e-20 8.01846 	-0.104414 	7.56878e-21 8.01204 	-0.105995 	-4.32606e-22 8.00416 	-0.106609 	-2.99898e-22 7.99626 	-0.107223 	-1.67209e-22 7.98833 	-0.107838 	-3.45409e-23 7.97721 	-0.107772 	1.24578e-20 7.97035 	-0.109165 	0 7.96252 	-0.109801 	0 7.95467 	-0.110438 	0 7.9468 	-0.111075 	0 7.9367 	-0.11121 	9.47962e-21 7.9295 	-0.112426 	0 7.92172 	-0.113085 	0 7.91392 	-0.113744 	0 7.90609 	-0.114404 	0 7.89688 	-0.114737 	0 7.88944 	-0.115782 	0 7.8817 	-0.116464 	0 7.87393 	-0.117148 	0 7.86614 	-0.117831 	0 7.8577 	-0.118358 	-3.03692e-21 7.85032 	-0.119219 	0 7.84283 	-0.119906 	0 7.83531 	-0.120594 	0 7.82777 	-0.121282 	0 7.82056 	-0.121938 	0 7.82025 	-0.121965 	0 7.81995 	-0.121992 	0 7.81964 	-0.122019 	0 7.81934 	-0.122046 	0 7.81907 	-0.122066 	0 7.81116 	-0.122808 	0 7.80323 	-0.123544 	0 7.79527 	-0.12428 	0 7.78728 	-0.125017 	0 7.78021 	-0.125568 	0 7.77197 	-0.1265 	-6.33538e-21 7.76404 	-0.127263 	-1.43758e-20 7.75609 	-0.128026 	-2.24146e-20 7.74811 	-0.128789 	-3.04518e-20 7.74194 	-0.129192 	-3.8502e-20 7.73336 	-0.130309 	-3.44806e-20 7.72543 	-0.131099 	-3.38479e-20 7.71748 	-0.131888 	-3.32118e-20 7.70949 	-0.132679 	-3.25724e-20 7.70421 	-0.132941 	-3.70637e-20 7.69527 	-0.134239 	-2.82906e-20 7.68734 	-0.135057 	-1.94929e-20 7.67937 	-0.135875 	-1.06935e-20 7.67138 	-0.136694 	-1.89228e-21 7.66696 	-0.136824 	0 7.65765 	-0.1383 	-5.83526e-22 7.6497 	-0.139148 	-4.52558e-21 7.64171 	-0.139996 	-8.46673e-21 7.63369 	-0.140844 	-1.2407e-20 7.63012 	-0.140848 	-1.63417e-20 7.62056 	-0.142445 	-4.49441e-20 7.61246 	-0.143376 	-6.22682e-20 7.60444 	-0.144253 	-7.86843e-20 7.59726 	-0.14497 	-8.92591e-20 7.59364 	-0.145016 	-7.56405e-20 7.58407 	-0.146626 	-5.46683e-20 7.57556 	-0.147746 	-4.17041e-20 7.56751 	-0.148655 	-3.22053e-20 7.56119 	-0.149237 	-3.46063e-20 7.55747 	-0.149336 	-5.45101e-20 7.54787 	-0.150962 	-6.58746e-20 7.53895 	-0.15227 	-6.49406e-20 7.53085 	-0.153211 	-4.98483e-20 7.52537 	-0.153663 	-2.7245e-20 7.52153 	-0.153812 	-1.59504e-23 7.5119 	-0.155455 	3.33524e-21 7.50257 	-0.156946 	4.95972e-21 7.4944 	-0.157919 	6.94567e-22 7.48974 	-0.158244 	0 7.48577 	-0.158443 	0 7.4761 	-0.160101 	0 7.46637 	-0.161759 	0 7.45835 	-0.16273 	0 7.45425 	-0.162978 	0 7.45014 	-0.163225 	0 7.44041 	-0.164898 	0 7.43063 	-0.166571 	0 7.42308 	-0.167566 	-1.04633e-20 7.41884 	-0.167863 	-2.48007e-20 7.41458 	-0.168159 	-3.91374e-20 7.4048 	-0.169848 	-2.33781e-20 7.39496 	-0.171537 	-7.61232e-21 7.38786 	-0.172557 	1.55634e-21 7.38347 	-0.172902 	4.82746e-21 7.37906 	-0.173247 	8.09839e-21 7.36921 	-0.174953 	3.43109e-20 7.3593 	-0.176659 	6.05217e-20 7.35263 	-0.177705 	6.35984e-20 7.34809 	-0.178097 	5.15261e-20 7.34352 	-0.178489 	3.9451e-20 7.33359 	-0.180212 	1.97762e-20 7.3236 	-0.181936 	9.29426e-23 7.31743 	-0.182977 	7.46552e-21 7.31264 	-0.183447 	1.49146e-20 7.30791 	-0.183885 	2.2365e-20 7.2979 	-0.185626 	7.30165e-20 7.28876 	-0.187204 	1.10771e-19 7.28245 	-0.188275 	1.08642e-19 7.27709 	-0.188951 	7.43275e-20 7.27218 	-0.189434 	2.43367e-20 7.26208 	-0.191192 	1.7684e-20 7.25378 	-0.192625 	1.4557e-20 7.24733 	-0.193727 	1.50039e-20 7.24139 	-0.194605 	1.80907e-20 7.2363 	-0.195131 	2.5294e-20 7.22609 	-0.196907 	7.42864e-20 7.21862 	-0.198198 	8.46928e-20 7.212 	-0.199331 	8.25046e-20 7.20549 	-0.200406 	7.56512e-20 7.20021 	-0.200974 	2.73447e-20 7.18996 	-0.202756 	2.09573e-20 7.18322 	-0.203918 	1.43988e-20 7.17644 	-0.205079 	7.84262e-21 7.16962 	-0.206241 	1.28867e-21 7.16387 	-0.206957 	0 7.15446 	-0.20859 	0 7.14755 	-0.209779 	0 7.1406 	-0.210969 	0 7.13361 	-0.212159 	0 7.12724 	-0.213077 	0 7.11866 	-0.214562 	0 7.11157 	-0.215778 	0 7.10444 	-0.216994 	0 7.09727 	-0.218211 	0 7.09029 	-0.219329 	2.23343e-21 7.0856 	-0.220136 	2.75149e-21 7.08145 	-0.220846 	6.58856e-21 7.07729 	-0.221556 	1.04263e-20 7.07311 	-0.222266 	1.42649e-20 7.06907 	-0.222952 	1.79686e-20 7.0658 	-0.223488 	2.05297e-20 7.06252 	-0.224024 	2.30904e-20 7.05923 	-0.22456 	2.56506e-20 7.05594 	-0.225096 	2.82103e-20 7.05321 	-0.225565 	3.03437e-20 7.04526 	-0.226898 	2.91888e-20 7.03758 	-0.228162 	3.26418e-20 7.02986 	-0.229427 	3.60781e-20 7.02208 	-0.230692 	3.94978e-20 7.01618 	-0.231737 	5.57799e-20 7.00728 	-0.233248 	3.41873e-20 6.9994 	-0.234535 	2.50186e-20 6.99148 	-0.235823 	1.58332e-20 6.9835 	-0.23711 	6.63084e-21 6.97874 	-0.238025 	2.39758e-20 6.96887 	-0.239715 	2.05682e-20 6.96079 	-0.241023 	1.93475e-20 6.95265 	-0.242332 	1.81219e-20 6.9447 	-0.243616 	1.73881e-20 6.94088 	-0.244426 	2.59306e-20 6.93045 	-0.2462 	1.70152e-20 6.92171 	-0.247619 	1.45252e-20 6.91337 	-0.248947 	1.36611e-20 6.9066 	-0.250093 	1.7376e-20 6.90256 	-0.250928 	2.88716e-20 6.89192 	-0.252714 	3.97849e-20 6.88216 	-0.254313 	4.40649e-20 6.87359 	-0.255659 	3.93757e-20 6.86803 	-0.256665 	2.43417e-20 6.86376 	-0.257522 	4.80546e-21 6.85291 	-0.259318 	2.30043e-21 6.84209 	-0.261096 	-9.46285e-23 6.83343 	-0.262443 	0 6.82896 	-0.263321 	0 6.82446 	-0.264199 	0 6.8134 	-0.266003 	0 6.80226 	-0.267807 	0 6.79409 	-0.269158 	-5.31971e-21 6.78939 	-0.270055 	-1.23645e-20 6.78466 	-0.270952 	-1.94064e-20 6.77337 	-0.272764 	-1.04191e-20 6.76202 	-0.274575 	-1.42402e-21 6.75423 	-0.275945 	3.83796e-21 6.7493 	-0.27686 	8.99181e-21 6.74434 	-0.277775 	1.41479e-20 6.73283 	-0.279593 	9.84243e-21 6.72156 	-0.281377 	5.89207e-21 6.71423 	-0.282727 	6.49343e-21 6.70869 	-0.28373 	1.89854e-20 6.70349 	-0.284662 	3.38959e-20 6.69176 	-0.286486 	1.81622e-20 6.68183 	-0.288108 	6.21877e-21 6.67428 	-0.289468 	-7.78819e-22 6.66757 	-0.29066 	-5.85967e-21 6.66214 	-0.291608 	-8.13902e-21 6.65019 	-0.293437 	-4.40406e-20 6.64162 	-0.294895 	-5.5077e-20 6.63384 	-0.296262 	-6.00082e-20 6.62602 	-0.297629 	-6.49272e-20 6.62028 	-0.298603 	-3.77974e-20 6.60888 	-0.300353 	-6.04662e-20 6.60093 	-0.301725 	-5.62903e-20 6.59293 	-0.303097 	-5.21048e-20 6.58489 	-0.304469 	-4.79096e-20 6.57794 	-0.305633 	-3.0476e-20 6.56795 	-0.30721 	-3.96565e-20 6.55979 	-0.308586 	-3.28743e-20 6.55157 	-0.309962 	-2.60795e-20 6.54331 	-0.311338 	-1.92719e-20 6.53512 	-0.312692 	-1.09324e-20 6.5339 	-0.312882 	-1.06972e-20 6.53288 	-0.31305 	-1.04511e-20 6.53186 	-0.313218 	-1.02049e-20 6.53085 	-0.313386 	-9.95872e-21 6.52984 	-0.313553 	-9.71438e-21 6.52211 	-0.314764 	-7.59493e-21 6.51433 	-0.315975 	-5.47461e-21 6.50652 	-0.317186 	-3.35341e-21 6.49866 	-0.318397 	-1.23135e-21 6.49174 	-0.319465 	0 6.4823 	-0.320995 	0 6.47324 	-0.322378 	0 6.46412 	-0.323761 	0 6.45495 	-0.325143 	0 6.44786 	-0.326218 	0 6.43765 	-0.327917 	-6.35408e-23 6.42836 	-0.329303 	-1.78877e-21 6.41901 	-0.33069 	-3.51292e-21 6.41024 	-0.331987 	-5.21016e-21 6.40349 	-0.332989 	-6.82214e-21 6.393 	-0.334697 	1.04296e-20 6.38296 	-0.336246 	2.00086e-20 6.37339 	-0.337637 	2.19175e-20 6.36561 	-0.338767 	8.41427e-21 6.35866 	-0.339774 	-1.23476e-20 6.34793 	-0.341476 	-7.17386e-21 6.33714 	-0.343178 	-2.00125e-21 6.32765 	-0.344538 	2.97677e-21 6.32055 	-0.345551 	5.98432e-21 6.31341 	-0.346564 	8.99081e-21 6.30246 	-0.348262 	5.23472e-21 6.29144 	-0.349959 	1.47612e-21 6.28242 	-0.351317 	4.07045e-21 6.27513 	-0.352334 	1.26419e-20 6.2678 	-0.353351 	2.12142e-20 6.25664 	-0.35504 	2.58433e-20 6.2456 	-0.356701 	2.95504e-20 6.23707 	-0.358012 	2.17897e-20 6.22937 	-0.35909 	9.24894e-21 6.22186 	-0.360104 	-4.58209e-21 6.21048 	-0.361779 	7.32547e-21 6.20058 	-0.363252 	1.13776e-20 6.19186 	-0.364564 	9.22114e-21 6.18328 	-0.365823 	4.19812e-21 6.17559 	-0.366852 	-1.35447e-20 6.16414 	-0.368514 	-9.11441e-21 6.15527 	-0.369855 	-3.24912e-21 6.14636 	-0.371196 	2.61596e-21 6.13739 	-0.372535 	8.48083e-21 6.12901 	-0.373731 	1.12776e-20 6.11985 	-0.375108 	1.20087e-20 6.1119 	-0.376341 	1.25951e-20 6.10391 	-0.377573 	1.31842e-20 6.09587 	-0.378805 	1.3776e-20 6.08819 	-0.379975 	1.43411e-20 6.08705 	-0.380154 	1.45878e-20 6.08592 	-0.380334 	1.48347e-20 6.08478 	-0.380513 	1.50818e-20 6.08364 	-0.380693 	1.5329e-20 6.08254 	-0.38085 	1.41577e-20 6.07384 	-0.382337 	1.0962e-20 6.06503 	-0.383802 	7.77166e-21 6.05617 	-0.385267 	4.57964e-21 6.04724 	-0.386731 	1.38591e-21 6.03854 	-0.388002 	-3.20617e-21 6.03006 	-0.38971 	0 6.02107 	-0.391232 	0 6.01202 	-0.392753 	0 6.00295 	-0.394246 	-4.50728e-22 5.99425 	-0.395419 	-6.17466e-21 5.98577 	-0.397251 	-1.63917e-21 5.97681 	-0.398912 	1.33423e-21 5.96755 	-0.400476 	3.42287e-21 5.95851 	-0.40183 	8.70407e-21 5.94959 	-0.403046 	1.61024e-20 5.9409 	-0.40492 	2.83552e-20 5.93215 	-0.406792 	4.06096e-20 5.92276 	-0.408363 	4.1066e-20 5.91364 	-0.409627 	3.06009e-20 5.90447 	-0.41089 	2.01354e-20 5.89558 	-0.412808 	2.13398e-20 5.88661 	-0.414724 	2.2547e-20 5.87766 	-0.416341 	1.82235e-20 5.86829 	-0.41766 	8.46247e-21 5.85886 	-0.418979 	-1.29912e-21 5.84973 	-0.42094 	-1.69897e-20 5.84062 	-0.422823 	-2.96972e-20 5.83173 	-0.424457 	-3.29094e-20 5.82241 	-0.425957 	-2.74466e-20 5.81272 	-0.427345 	-1.47354e-20 5.80335 	-0.429362 	5.31512e-21 5.79421 	-0.431125 	6.45928e-21 5.78506 	-0.432826 	3.12567e-21