# vtk DataFile Version 2.0
track0
ASCII
DATASET POLYDATA
POINTS 12030 float
-0.0205 0.001 1e-05
-0.02052 0.000999985 1e-05
-0.02054 0.000999974 1e-05
-0.02056 0.000999965 1e-05
-0.02058 0.000999959 1e-05
-0.0206 0.000999956 1e-05
-0.0205 0.00367778 1e-05
-0.02052 0.00367778 1e-05
-0.02054 0.00367777 1e-05
-0.02056 0.00367777 1e-05
-0.02058 0.00367777 1e-05
-0.0206 0.00367777 1e-05
-0.0205 0.00635556 1e-05
-0.02052 0.00635555 1e-05
-0.02054 0.00635555 1e-05
-0.02056 0.00635555 1e-05
-0.02058 0.00635555 1e-05
-0.0206 0.00635555 1e-05
-0.0205 0.00903333 1e-05
-0.02052 0.00903333 1e-05
-0.02054 0.00903333 1e-05
-0.02056 0.00903333 1e-05
-0.02058 0.00903333 1e-05
-0.0206 0.00903333 1e-05
-0.0205 0.0117111 1e-05
-0.02052 0.0117111 1e-05
-0.02054 0.0117111 1e-05
-0.02056 0.0117111 1e-05
-0.02058 0.0117111 1e-05
-0.0206 0.0117111 1e-05
-0.0205 0.0143889 1e-05
-0.02052 0.0143889 1e-05
-0.02054 0.0143889 1e-05
-0.02056 0.0143889 1e-05
-0.02058 0.0143889 1e-05
-0.0206 0.0143889 1e-05
-0.0205 0.0170667 1e-05
-0.02052 0.0170667 1e-05
-0.02054 0.0170667 1e-05
-0.02056 0.0170667 1e-05
-0.02058 0.0170667 1e-05
-0.0206 0.0170667 1e-05
-0.0205 0.0197444 1e-05
-0.02052 0.0197444 1e-05
-0.02054 0.0197444 1e-05
-0.02056 0.0197444 1e-05
-0.02058 0.0197444 1e-05
-0.0206 0.0197444 1e-05
-0.0205 0.0224222 1e-05
-0.02052 0.0224222 1e-05
-0.02054 0.0224222 1e-05
-0.02056 0.0224222 1e-05
-0.02058 0.0224222 1e-05
-0.0206 0.0224222 1e-05
-0.0205 0.0251 1e-05
-0.02052 0.0250998 1e-05
-0.02054 0.0250997 1e-05
-0.02056 0.0250995 1e-05
-0.02058 0.0250995 1e-05
-0.0206 0.0250994 1e-05
-0.0205 0.001 1e-05
-0.0202034 0.00100022 1e-05
-0.0199069 0.00100067 1e-05
-0.0196103 0.00100133 1e-05
-0.0193137 0.00100219 1e-05
-0.0190172 0.00100326 1e-05
-0.0187132 0.00100467 1e-05
-0.0184093 0.00100589 1e-05
-0.0181054 0.00100711 1e-05
-0.0178015 0.00100833 1e-05
-0.0174976 0.00100954 1e-05
-0.0172058 0.00101084 1e-05
-0.016914 0.00101194 1e-05
-0.0166222 0.00101304 1e-05
-0.0163305 0.00101414 1e-05
-0.0160387 0.00101523 1e-05
-0.0157586 0.00101637 1e-05
-0.0154784 0.00101745 1e-05
-0.0151983 0.00101857 1e-05
-0.0149182 0.00101972 1e-05
-0.0146381 0.00102091 1e-05
-0.0143752 0.00102209 1e-05
-0.0141122 0.00102328 1e-05
-0.0138493 0.00102449 1e-05
-0.0135864 0.00102574 1e-05
-0.0133644 0.00102682 1e-05
-0.0133502 0.00102689 1e-05
-0.013336 0.00102696 1e-05
-0.0133218 0.00102703 1e-05
-0.0133076 0.0010271 1e-05
-0.0132934 0.00102717 1e-05
-0.0130353 0.00102846 1e-05
-0.0127771 0.00102976 1e-05
-0.0125189 0.00103108 1e-05
-0.0122607 0.00103242 1e-05
-0.0120025 0.00103377 1e-05
-0.0117547 0.00103508 1e-05
-0.0115068 0.0010364 1e-05
-0.0112589 0.00103772 1e-05
-0.0110111 0.00103905 1e-05
-0.0107632 0.00104038 1e-05
-0.0105252 0.00104166 1e-05
-0.0102873 0.00104294 1e-05
-0.0100493 0.00104422 1e-05
-0.00981133 0.0010455 1e-05
-0.00957337 0.00104678 1e-05
-0.00934491 0.00104801 1e-05
-0.00911645 0.00104923 1e-05
-0.00888799 0.00105045 1e-05
-0.00865954 0.00105167 1e-05
-0.00843108 0.00105289 1e-05
-0.00821175 0.00105405 1e-05
-0.00799242 0.00105521 1e-05
-0.00777309 0.00105637 1e-05
-0.00755376 0.00105752 1e-05
-0.00733443 0.00105868 1e-05
-0.00712387 0.00105977 1e-05
-0.0069133 0.00106087 1e-05
-0.00670273 0.00106196 1e-05
-0.00649216 0.00106305 1e-05
-0.0062816 0.00106413 1e-05
-0.00607944 0.00106516 1e-05
-0.00587729 0.0010662 1e-05
-0.00567514 0.00106723 1e-05
-0.00547298 0.00106825 1e-05
-0.00527083 0.00106928 1e-05
-0.00507675 0.00107025 1e-05
-0.00488267 0.00107122 1e-05
-0.0046886 0.00107219 1e-05
-0.00449452 0.00107316 1e-05
-0.00430044 0.00107413 1e-05
-0.00411412 0.00107505 1e-05
-0.0039278 0.00107597 1e-05
-0.00374147 0.00107689 1e-05
-0.00355515 0.00107781 1e-05
-0.00336883 0.00107872 1e-05
-0.00318995 0.00107959 1e-05
-0.00301107 0.00108047 1e-05
-0.00283219 0.00108134 1e-05
-0.00265331 0.00108222 1e-05
-0.00247443 0.00108309 1e-05
-0.0023027 0.00108393 1e-05
-0.00213097 0.00108477 1e-05
-0.00195924 0.00108561 1e-05
-0.0017875 0.00108646 1e-05
-0.00161577 0.00108731 1e-05
-0.0014509 0.00108811 1e-05
-0.00128603 0.00108893 1e-05
-0.00112116 0.00108975 1e-05
-0.00095629 0.00109059 1e-05
-0.000791418 0.00109142 1e-05
-0.000633135 0.00109223 1e-05
-0.000474851 0.00109305 1e-05
-0.000316568 0.00109388 1e-05
-0.000158284 0.00109471 1e-05
0 0.00109555 1e-05
0.000105677 0.00109612 1e-05
0.000211355 0.00109668 1e-05
0.000317032 0.00109725 1e-05
0.00042271 0.00109782 1e-05
0.000528387 0.00109838 1e-05
0.000634886 0.00109895 1e-05
0.000741385 0.00109951 1e-05
0.000847885 0.00110007 1e-05
0.000954384 0.00110063 1e-05
0.00106088 0.00110118 1e-05
0.00116821 0.00110172 1e-05
0.00127554 0.00110227 1e-05
0.00138286 0.0011028 1e-05
0.00149019 0.00110332 1e-05
0.00159752 0.00110384 1e-05
0.00170568 0.00110434 1e-05
0.00181384 0.00110485 1e-05
0.001922 0.00110534 1e-05
0.00203016 0.00110582 1e-05
0.00213833 0.00110629 1e-05
0.00224733 0.00110675 1e-05
0.00235633 0.00110721 1e-05
0.00246533 0.00110766 1e-05
0.00257434 0.0011081 1e-05
0.00268334 0.00110853 1e-05
0.00279319 0.00110894 1e-05
0.00290304 0.00110936 1e-05
0.00301289 0.00110976 1e-05
0.00312274 0.00111016 1e-05
0.00323259 0.00111055 1e-05
0.00334329 0.00111092 1e-05
0.003454 0.00111129 1e-05
0.0035647 0.00111166 1e-05
0.0036754 0.00111202 1e-05
0.00378611 0.00111236 1e-05
0.00389767 0.0011127 1e-05
0.00400924 0.00111303 1e-05
0.0041208 0.00111335 1e-05
0.00423237 0.00111367 1e-05
0.00434393 0.00111398 1e-05
0.00445636 0.00111427 1e-05
0.00456879 0.00111456 1e-05
0.00468123 0.00111485 1e-05
0.00479366 0.00111512 1e-05
0.00490609 0.00111539 1e-05
0.0050194 0.00111564 1e-05
0.0051327 0.00111589 1e-05
0.00524601 0.00111614 1e-05
0.00535932 0.00111637 1e-05
0.00547262 0.0011166 1e-05
0.00558681 0.00111681 1e-05
0.005701 0.00111702 1e-05
0.00581518 0.00111722 1e-05
0.00592937 0.00111742 1e-05
0.00604356 0.0011176 1e-05
0.00615863 0.00111778 1e-05
0.00627371 0.00111795 1e-05
0.00638878 0.00111811 1e-05
0.00650386 0.00111827 1e-05
0.00661893 0.00111841 1e-05
0.0067349 0.00111855 1e-05
0.00685087 0.00111868 1e-05
0.00696684 0.0011188 1e-05
0.00708281 0.00111891 1e-05
0.00719878 0.00111902 1e-05
0.00731565 0.00111912 1e-05
0.00743252 0.0011192 1e-05
0.00754939 0.00111929 1e-05
0.00766626 0.00111936 1e-05
0.00778313 0.00111942 1e-05
0.00784584 0.00111945 1e-05
0.00790854 0.00111948 1e-05
0.00797125 0.0011195 1e-05
0.00803395 0.00111953 1e-05
0.00809466 0.00111955 1e-05
0.00815014 0.00111956 1e-05
0.00820561 0.00111958 1e-05
0.00826108 0.00111959 1e-05
0.00831656 0.0011196 1e-05
0.00837203 0.00111961 1e-05
0.00849073 0.00111962 1e-05
0.00860942 0.00111962 1e-05
0.00872812 0.00111962 1e-05
0.00884682 0.0011196 1e-05
0.00896551 0.00111958 1e-05
0.00908513 0.00111955 1e-05
0.00920475 0.0011195 1e-05
0.00932437 0.00111946 1e-05
0.00944398 0.0011194 1e-05
0.0095636 0.00111933 1e-05
0.00968415 0.00111925 1e-05
0.0098047 0.00111916 1e-05
0.00992525 0.00111906 1e-05
0.0100458 0.00111896 1e-05
0.0101663 0.00111884 1e-05
0.0102878 0.00111871 1e-05
0.0104093 0.00111858 1e-05
0.0105308 0.00111843 1e-05
0.0106523 0.00111828 1e-05
0.0107738 0.00111812 1e-05
0.0108962 0.00111793 1e-05
0.0110186 0.00111775 1e-05
0.0111411 0.00111756 1e-05
0.0112635 0.00111735 1e-05
0.0113859 0.00111714 1e-05
0.0115093 0.00111691 1e-05
0.0116327 0.00111667 1e-05
0.0117561 0.00111643 1e-05
0.0118795 0.00111617 1e-05
0.0120028 0.00111591 1e-05
0.0121272 0.00111562 1e-05
0.0122515 0.00111533 1e-05
0.0123759 0.00111504 1e-05
0.0125002 0.00111473 1e-05
0.0126245 0.00111441 1e-05
0.0127498 0.00111407 1e-05
0.0128752 0.00111373 1e-05
0.0130005 0.00111337 1e-05
0.0131258 0.00111301 1e-05
0.0132511 0.00111264 1e-05
0.0133774 0.00111224 1e-05
0.0135036 0.00111184 1e-05
0.0136299 0.00111144 1e-05
0.0137562 0.00111102 1e-05
0.0138825 0.00111059 1e-05
0.0140098 0.00111014 1e-05
0.014137 0.00110968 1e-05
0.0142643 0.00110921 1e-05
0.0143915 0.00110873 1e-05
0.0145188 0.00110825 1e-05
0.0146471 0.00110774 1e-05
0.0147753 0.00110722 1e-05
0.0149036 0.0011067 1e-05
0.0150318 0.00110616 1e-05
0.0151601 0.00110561 1e-05
0.0152893 0.00110505 1e-05
0.0154186 0.00110447 1e-05
0.0155478 0.00110388 1e-05
0.0156771 0.00110329 1e-05
0.0158063 0.00110268 1e-05
0.0159366 0.00110206 1e-05
0.0160668 0.00110142 1e-05
0.0161971 0.00110077 1e-05
0.0163273 0.00110011 1e-05
0.0164576 0.00109944 1e-05
0.0165889 0.00109876 1e-05
0.0167201 0.00109806 1e-05
0.0168514 0.00109735 1e-05
0.0169827 0.00109662 1e-05
0.0171139 0.00109589 1e-05
0.0172462 0.00109515 1e-05
0.0173785 0.00109439 1e-05
0.0175108 0.00109362 1e-05
0.0176431 0.00109283 1e-05
0.0177754 0.00109204 1e-05
0.0179087 0.00109124 1e-05
0.018042 0.00109041 1e-05
0.0181753 0.00108957 1e-05
0.0183087 0.00108872 1e-05
0.018442 0.00108786 1e-05
0.0185763 0.001087 1e-05
0.0187107 0.00108611 1e-05
0.018845 0.00108521 1e-05
0.0189794 0.00108429 1e-05
0.0191137 0.00108337 1e-05
0.0192491 0.00108244 1e-05
0.0193845 0.00108149 1e-05
0.0195199 0.00108051 1e-05
0.0196553 0.00107953 1e-05
0.0197907 0.00107854 1e-05
0.0199272 0.00107755 1e-05
0.0200636 0.00107654 1e-05
0.0202001 0.00107549 1e-05
0.0203365 0.00107444 1e-05
0.020473 0.00107339 1e-05
0.0206105 0.00107234 1e-05
0.020748 0.00107125 1e-05
0.0208855 0.00107014 1e-05
0.021023 0.00106902 1e-05
0.0211606 0.0010679 1e-05
0.0212991 0.00106679 1e-05
0.0214377 0.00106564 1e-05
0.0215763 0.00106446 1e-05
0.0217149 0.00106327 1e-05
0.0218535 0.00106209 1e-05
0.0219931 0.0010609 1e-05
0.0221328 0.00105968 1e-05
0.0222724 0.00105844 1e-05
0.0224121 0.00105718 1e-05
0.0225517 0.00105593 1e-05
0.0226925 0.00105467 1e-05
0.0228332 0.00105339 1e-05
0.022974 0.00105207 1e-05
0.0231147 0.00105074 1e-05
0.0232555 0.00104942 1e-05
0.0233973 0.0010481 1e-05
0.0235391 0.00104675 1e-05
0.023681 0.00104536 1e-05
0.0238228 0.00104396 1e-05
0.0239647 0.00104257 1e-05
0.0241076 0.00104118 1e-05
0.0242505 0.00103975 1e-05
0.0243935 0.00103829 1e-05
0.0245364 0.00103682 1e-05
0.0246794 0.00103536 1e-05
0.0248234 0.00103389 1e-05
0.0249675 0.00103239 1e-05
0.0251115 0.00103086 1e-05
0.0252556 0.00102932 1e-05
[...]
POINT_DATA 12030
 FIELD attributes 2
p 1 12030 float
-4.02144 -4.01813 -4.01482 -4.01151 -4.0082 -4.0049
-4.17476 -4.17474 -4.17472 -4.1747 -4.17468 -4.17465
-4.34924 -4.34912 -4.34899 -4.34887 -4.34875 -4.34864
-4.44312 -4.44307 -4.44301 -4.44296 -4.4429 -4.44285
-4.48884 -4.48873 -4.48861 -4.4885 -4.48839 -4.48828
-4.49601 -4.49585 -4.49569 -4.49553 -4.49537 -4.49521
-4.46967 -4.46959 -4.46952 -4.46945 -4.46938 -4.46931
-4.40056 -4.40052 -4.40048 -4.40044 -4.4004 -4.40036
-4.27963 -4.27964 -4.27964 -4.27965 -4.27966 -4.27966
-2.06724 -2.08657 -2.10576 -2.12483 -2.14376 -2.16255
-4.02144 -4.02076 -4.01718 -4.01352 -4.00978 -4.00149 -4.01537 -4.03036 -4.04536 -4.06035 -4.08478 -4.1065 -4.13638 -4.16627 -4.19615 -4.22884 -4.24442 -4.26604 -4.28766 -4.30928 -4.33252 -4.35126 -4.37201 -4.39276 -4.41352 -4.43105 -4.43216 -4.43328 -4.4344 -4.43551 -4.43662 -4.45815 -4.47967 -4.50119 -4.52272 -4.54396 -4.56255 -4.58095 -4.59935 -4.61774 -4.63556 -4.65098 -4.6661 -4.68123 -4.69636 -4.71092 -4.72443 -4.73768 -4.75093 -4.76418 -4.77698 -4.78935 -4.80145 -4.81355 -4.82564 -4.8373 -4.84868 -4.85973 -4.87078 -4.88183 -4.89243 -4.90287 -4.91298 -4.92309 -4.9332 -4.94294 -4.95258 -4.96189 -4.97119 -4.98049 -4.98945 -4.99839 -5.00704 -5.01568 -5.02432 -5.03277 -5.04116 -5.04908 -5.057 -5.06491 -5.07267 -5.08065 -5.08865 -5.09666 -5.10467 -5.11316 -5.12199 -5.13025 -5.13852 -5.14678 -5.15538 -5.16556 -5.17788 -5.1902 -5.20252 -5.21646 -5.23036 -5.24717 -5.26398 -5.28079 -5.29733 -5.31241 -5.32757 -5.34273 -5.35789 -5.37133 -5.38185 -5.39244 -5.40304 -5.41364 -5.42435 -5.43365 -5.44273 -5.45182 -5.4609 -5.46984 -5.47892 -5.48671 -5.4945 -5.50229 -5.50888 -5.51654 -5.52274 -5.52893 -5.53513 -5.53998 -5.54612 -5.55107 -5.55602 -5.56098 -5.56487 -5.56977 -5.57372 -5.57768 -5.58164 -5.58484 -5.58873 -5.5919 -5.59507 -5.59823 -5.6009 -5.60398 -5.60652 -5.60907 -5.61161 -5.61384 -5.61638 -5.61853 -5.62068 -5.62284 -5.6248 -5.62708 -5.62908 -5.63109 -5.6331 -5.63499 -5.63712 -5.63908 -5.64104 -5.64299 -5.64487 -5.64692 -5.64886 -5.6508 -5.65274 -5.65465 -5.65573 -5.65677 -5.65781 -5.65885 -5.65985 -5.66077 -5.66169 -5.66262 -5.66354 -5.66455 -5.66646 -5.66847 -5.67048 -5.67249 -5.67486 -5.67663 -5.67878 -5.68093 -5.68308 -5.68593 -5.68757 -5.6899 -5.69223 -5.69457 -5.69795 -5.69943 -5.7019 -5.70438 -5.70685 -5.71073 -5.71202 -5.71461 -5.71721 -5.7198 -5.72412 -5.72526 -5.72798 -5.7307 -5.73342 -5.73816 -5.7392 -5.74207 -5.74493 -5.7478 -5.75294 -5.75393 -5.75695 -5.75996 -5.76297 -5.76845 -5.76945 -5.77261 -5.77576 -5.77892 -5.78465 -5.78571 -5.789 -5.79229 -5.79558 -5.8015 -5.80275 -5.8061 -5.80952 -5.81318 -5.81898 -5.82062 -5.82388 -5.82743 -5.83143 -5.83709 -5.8391 -5.84233 -5.84601 -5.85029 -5.8558 -5.85818 -5.86142 -5.86521 -5.86971 -5.87509 -5.87779 -5.88107 -5.88496 -5.88961 -5.89484 -5.89783 -5.90117 -5.90515 -5.90989 -5.91499 -5.91822 -5.92163 -5.92568 -5.93048 -5.93545 -5.9389 -5.94241 -5.94652 -5.95135 -5.95623 -5.95988 -5.96353 -5.96772 -5.97246 -5.97721 -5.98101 -5.98481 -5.98902 -5.99363 -5.99824 -6.00216 -6.00607 -6.01031 -6.01486 -6.0194 -6.02345 -6.0275 -6.03178 -6.03629 -6.04079 -6.04493 -6.04907 -6.05337 -6.05784 -6.0623 -6.06647 -6.07064 -6.07494 -6.07936 -6.08378 -6.08793 -6.09209 -6.09638 -6.10076 -6.10515 -6.10928 -6.11343 -6.11769 -6.12203 -6.12638 -6.13049 -6.13462 -6.13884 -6.14313 -6.14745 -6.1515 -6.1556 -6.15978 -6.16401 -6.16827 -6.17227 -6.17632 -6.18044 -6.1846 -6.18881 -6.19273 -6.19674 -6.20079 -6.20486 -6.20899 -6.21283 -6.21678 -6.22075 -6.22472 -6.22878 -6.23252 -6.2364 -6.24028 -6.24415 -6.24811 -6.25177 -6.25554 -6.25931 -6.26308 -6.26691 -6.27048 -6.27413 -6.27778 -6.28144 -6.28513 -6.28859 -6.29211 -6.29563 -6.29915 -6.3027 -6.30603 -6.3094 -6.31277 -6.31615 -6.31953 -6.32194 -6.32436 -6.32679 -6.32922 -6.33155 -6.33236 -6.33317 -6.33397 -6.33478 -6.33559 -6.33864 -6.34169 -6.34474 -6.3478 -6.35086 -6.35372 -6.35659 -6.35945 -6.36231 -6.36519 -6.36786 -6.37052 -6.37317 -6.37583 -6.3785 -6.38096 -6.38339 -6.38582 -6.38826 -6.3907 -6.39294 -6.39513 -6.39732 -6.39952 -6.40171 -6.40371 -6.40565 -6.40759 -6.40952 -6.41144 -6.41318 -6.41487 -6.41653 -6.41818 -6.41981 -6.42126 -6.42269 -6.42405 -6.42539 -6.42672 -6.42788 -6.42903 -6.43009 -6.43109 -6.43209 -6.43294 -6.43379 -6.43452 -6.43518 -6.43584 -6.43635 -6.43687 -6.43727 -6.43757 -6.43788 -6.43805 -6.43823 -6.43828 -6.43819 -6.43811 -6.4379 -6.4377 -6.43738 -6.4369 -6.43642 -6.43583 -6.43523 -6.43451 -6.43365 -6.43275 -6.43175 -6.43071 -6.42959 -6.42835 -6.42704 -6.42564 -6.42415 -6.4226 -6.421 -6.41926 -6.41744 -6.41548 -6.41349 -6.41152 -6.40934 -6.40705 -6.40462 -6.40219 -6.39977 -6.3972 -6.39442 -6.39153 -6.38865 -6.38576 -6.3828 -6.37951 -6.37616 -6.37281 -6.36946 -6.3661 -6.36561 -6.3651 -6.3646 -6.3641 -6.3636 -6.36031 -6.35703 -6.35375 -6.35047 -6.34713 -6.34294 -6.33868 -6.33441 -6.33016 -6.32573 -6.32116 -6.31639 -6.31163 -6.30688 -6.30185 -6.2969 -6.29164 -6.28638 -6.28105 -6.27546 -6.27001 -6.26436 -6.25859 -6.25265 -6.24655 -6.2406 -6.23458 -6.22831 -6.22173 -6.2151 -6.20865 -6.2022 -6.19539 -6.18821 -6.18104 -6.17406 -6.16709 -6.15974 -6.15199 -6.14425 -6.13674 -6.12923 -6.12133 -6.11302 -6.10471 -6.09668 -6.08854 -6.08006 -6.07132 -6.06243 -6.05387 -6.04499 -6.03591 -6.02675 -6.01721 -6.00806 -5.99836 -5.98867 -5.97899 -5.96893 -5.95897 -5.94864 -5.93832 -5.928 -5.91754 -5.91122 -5.90473 -5.89825 -5.89176 -5.88553 -5.88097 -5.87641 -5.87186 -5.8673 -5.86265 -5.85097 -5.83918 -5.8274 -5.81563 -5.8035 -5.79119 -5.77848 -5.76578 -5.75305 -5.73974 -5.72668 -5.71324 -5.69965 -5.68575 -5.67154 -5.65761 -5.6436 -5.62912 -5.61399 -5.59884 -5.58399 -5.56914 -5.55367 -5.53755 -5.52144 -5.50565 -5.48987 -5.47334 -5.45618 -5.439 -5.4222 -5.40499 -5.38728 -5.36936 -5.35099 -5.33305 -5.31416 -5.29523 -5.27631 -5.25691 -5.23821 -5.21895 -5.1997 -5.18045 -5.16263 -5.16137 -5.1601 -5.15883 -5.15756 -5.15627 -5.1347 -5.11312 -5.09155 -5.06999 -5.04794 -5.02526 -5.00212 -4.97898 -4.95574 -4.93166 -4.90757 -4.88307 -4.85823 -4.83259 -4.80662 -4.7807 -4.7548 -4.72792 -4.70001 -4.6721 -4.6443 -4.61651 -4.58752 -4.55751 -4.52746 -4.49758 -4.46694 -4.43561 -4.40418 -4.37183 -4.33944 -4.30575 -4.27207 -4.23841 -4.2045 -4.19649 -4.1882 -4.17991 -4.17162 -4.1635 -4.13576 -4.10803 -4.08031 -4.05261 -4.02394 -3.98624 -3.94763 -3.90905 -3.87009 -3.82956 -3.78954 -3.74908 -3.70769 -3.66441 -3.62093 -3.57801 -3.53512 -3.49032 -3.44363 -3.39692 -3.35082 -3.30376 -3.25531 -3.20661 -3.15656 -3.10686 -3.05517 -3.00351 -2.95187 -2.90539 -2.90417 -2.90295 -2.90174 -2.90052 -2.89926 -2.84444 -2.7896 -2.73479 -2.68001 -2.62286 -2.56616 -2.50804 -2.44945 -2.38885 -2.32723 -2.26657 -2.20593 -2.14288 -2.0774 -2.01184 -1.94726 -1.88125 -1.81363 -1.74603 -1.67649 -1.63453 -1.59066 -1.54679 -1.50294 -1.46201 -1.43375 -1.4055 -1.37726 -1.34903 -1.31951 -1.24549 -1.17022 -1.09499 -1.01862 -0.939996 -0.86251 -0.78507 -0.704977 -0.622263 -0.539375 -0.457626 -0.374518 -0.289603 -0.204732 -0.117963 -0.0813584 -0.0436252 -0.00575474 0.0321065 0.0681436 0.11902 0.169875 0.220709 0.271707 0.324381 0.414379 0.50581 0.59746 0.691308 0.786111 0.879811 0.973442 1.06962 1.16691 1.26515 1.3304 1.39684 1.46363 1.53038 1.59215 1.62559 1.65901 1.69243 1.72603 1.7603 1.8607 1.96215 2.06351 2.16622 2.27005 2.3728 2.47546 2.57966 2.68428 2.79001 2.84096 2.89227 2.94378 2.99527 3.04405 3.09879 3.1535 3.20819 3.26307 3.31851 3.42452 3.53072 3.63727 3.74428 3.8519 3.95857 4.06506 4.17138 4.27758 4.38344 4.38364 4.38383 4.38403 4.38423 4.38443 4.49063 4.59672 4.7027 4.80826 4.91414 5.01909 5.12391 5.22741 5.33075 5.43471 5.46532 5.4957 5.52578 5.55585 5.58514 5.65744 5.72968 5.80187 5.87343 5.94483 6.04521 6.14548 6.24431 6.34202 6.44038 6.48421 6.52761 6.57032 6.613 6.65437 6.70785 6.76129 6.81471 6.86746 6.91992 7.01364 7.10727 7.19941 7.29006 7.38122 7.42801 7.47433 7.51976 7.56518 7.60953 7.65267 7.6958 7.73891 7.78137 7.82351 7.90957 7.99558 8.08007 8.163 8.24621 8.29284 8.33896 8.38414 8.42932 8.47404 8.5092 8.54435 8.5795 8.6139 8.64797 8.72588 8.80377 8.87993 8.95434 9.02881 9.06593 9.10264 9.13835 9.17407 9.20995 9.24614 9.28234 9.31855 9.35388 9.38879 9.45831 9.52785 9.59571 9.66192 9.72797 9.75696 9.7856 9.81345 9.8413 9.86963 9.90558 9.94154 9.97752 10.0126 10.0472 10.1086 10.17 10.2299 10.2883 10.3464 10.3721 10.3975 10.4221 10.4468 10.4723 10.5036 10.5349 10.5662 10.5968 10.6268 10.6806 10.7343 10.7868 10.8378 10.8885 10.9177 10.9465 10.9745 11.0027 11.0324 11.0526 11.0727 11.0929 11.1127 11.1321 11.1787 11.225 11.2707 11.3149 11.3588 11.3996 11.4396 11.4789 11.5183 11.5625 11.5636 11.5646 11.5656 11.5667 11.5677 11.607 11.6463 11.6857 11.7244 11.7621 11.7987 11.8353 11.871 11.9057 11.9401 11.9652 11.9895 12.0137 12.0378 12.0649 12.0726 12.0803 12.088 12.0957 12.1032 12.1337 12.1639 12.1942 12.224 12.2531 12.281 12.3089 12.3362 12.3627 12.389 12.4143 12.4389 12.4634 12.4878 12.5119 12.5191 12.5261 12.5331 12.5401 12.5475 12.5628 12.5781 12.5934 12.6087 12.6236 12.6442 12.6645 12.6847 12.7046 12.7242 12.7427 12.7611 12.7792 12.7967 12.8143 12.8307 12.8471 12.8631 12.8789 12.8945 12.9092 12.9234 12.9376 12.9518 12.9659 12.9724 12.9788 12.9851 12.9915 12.9986 13.0048 13.011 13.0171 13.0233 13.0294 13.0408 13.0521 13.0634 13.0747 13.0858 13.0959 13.1058 13.1158 13.1256 13.1353 13.1441 13.1529 13.1616 13.1702 13.1787 13.1864 13.194 13.2016 13.209 13.2165 13.2231 13.2298 13.2363 13.2428 13.2493 13.255 13.2608 13.2664 13.272 13.2776 13.2826 13.2875 13.2923 13.2972 13.302 13.3062 13.3104 13.3146 13.3188 13.3229 13.3265 13.33 13.3336 13.3371 13.3407 13.3437 13.3467 13.3497 13.3527 13.3557 13.3561 13.3565 13.3569 13.3573 13.3577 13.3599 13.362 13.3642 13.3664 13.3685 13.3707 13.3728 13.375 13.3771 13.3793 13.3811 13.3829 13.3847 13.3865 13.3883 13.3898 13.3913 13.3928 13.3943 13.3958 13.3971 13.3984 13.3996 13.4009 13.4022 13.4033 13.4044 13.4055 13.4067 13.4078 13.4088 13.4098 13.4109 13.4119 13.413 13.414 13.415 13.416 13.4171 13.4183 13.4194 13.4205 13.4215 13.4228 13.4241 13.4254 13.4267 13.4279 13.4296 13.4314 13.4331 13.4349 13.4362 13.4378 13.4394 13.4411 13.4427 13.4451 13.449 13.4528 13.4566 13.4604 13.4602 13.4572 13.4541 13.4506 13.4471 13.4492 13.4581 13.467 13.4762 13.4854 13.4807 13.4625 13.4442 13.4242 13.4046 13.387 13.3706 13.3549 13.3378 13.3203 13.3026 13.2848 13.2671 13.2476 13.2271 13.2067 13.1863 13.1656 13.1614 13.1571 13.1528 13.1485 13.1441 13.1248 13.1056 13.0863 13.0671 13.0475 13.0211 12.9942 12.9673 12.9404 12.9127 12.883 12.8525 12.8217 12.7904 12.7586 12.7247 12.6907 12.6553 12.6189 12.5825 12.5437 12.5049 12.4647 12.4232 12.3817 12.3376 12.2933 12.2474 12.2004 12.1528 12.1023 12.0507 11.9984 11.946 11.8918 11.8341 11.7744 11.7147 11.6549 11.5943 11.5573 11.5196 11.4818 11.4441 11.4024 11.3731 11.3438 11.3145 11.2853 11.2555 11.1797 11.1032 11.0267 10.9501 10.8716 10.7875 10.7006 10.6136 10.5259 10.4354 10.3403 10.2432 10.1444 10.0431 9.94058 9.83291 9.7252 9.61226 9.49474 9.37715 9.25397 9.13074 9.00322 8.87145 8.7396 8.6017 8.46357 8.31602 8.16102 8.00488 7.84186 7.67815 7.5136 7.34839 7.18209 7.00861 6.81189 6.61086 6.40985 6.18751 5.95969 5.75207 5.54445 5.33684 5.13892 4.91687 4.6505 4.38446 4.11873 3.77025 3.74118 3.7121 3.68301 3.65393 3.62082 3.3633 3.11224 2.86019 2.6072 2.44592 2.23657 1.81363 1.39668 0.928447 0