# vtk DataFile Version 2.0
track0
ASCII
DATASET POLYDATA
POINTS 12030 float
-0.0205 0.001 1e-05
-0.02052 0.000999985 1e-05
-0.02054 0.000999974 1e-05
-0.02056 0.000999965 1e-05
-0.02058 0.000999959 1e-05
-0.0206 0.000999956 1e-05
-0.0205 0.00367778 1e-05
-0.02052 0.00367778 1e-05
-0.02054 0.00367777 1e-05
-0.02056 0.00367777 1e-05
-0.02058 0.00367777 1e-05
-0.0206 0.00367777 1e-05
-0.0205 0.00635556 1e-05
-0.02052 0.00635555 1e-05
-0.02054 0.00635555 1e-05
-0.02056 0.00635555 1e-05
-0.02058 0.00635555 1e-05
-0.0206 0.00635555 1e-05
-0.0205 0.00903333 1e-05
-0.02052 0.00903333 1e-05
-0.02054 0.00903333 1e-05
-0.02056 0.00903333 1e-05
-0.02058 0.00903333 1e-05
-0.0206 0.00903333 1e-05
-0.0205 0.0117111 1e-05
-0.02052 0.0117111 1e-05
-0.02054 0.0117111 1e-05
-0.02056 0.0117111 1e-05
-0.02058 0.0117111 1e-05
-0.0206 0.0117111 1e-05
-0.0205 0.0143889 1e-05
-0.02052 0.0143889 1e-05
-0.02054 0.0143889 1e-05
-0.02056 0.0143889 1e-05
-0.02058 0.0143889 1e-05
-0.0206 0.0143889 1e-05
-0.0205 0.0170667 1e-05
-0.02052 0.0170667 1e-05
-0.02054 0.0170667 1e-05
-0.02056 0.0170667 1e-05
-0.02058 0.0170667 1e-05
-0.0206 0.0170667 1e-05
-0.0205 0.0197444 1e-05
-0.02052 0.0197444 1e-05
-0.02054 0.0197444 1e-05
-0.02056 0.0197444 1e-05
-0.02058 0.0197444 1e-05
-0.0206 0.0197444 1e-05
-0.0205 0.0224222 1e-05
-0.02052 0.0224222 1e-05
-0.02054 0.0224222 1e-05
-0.02056 0.0224222 1e-05
-0.02058 0.0224222 1e-05
-0.0206 0.0224222 1e-05
-0.0205 0.0251 1e-05
-0.02052 0.0250998 1e-05
-0.02054 0.0250997 1e-05
-0.02056 0.0250995 1e-05
-0.02058 0.0250995 1e-05
-0.0206 0.0250994 1e-05
-0.0205 0.001 1e-05
-0.0202034 0.00100022 1e-05
-0.0199069 0.00100067 1e-05
-0.0196103 0.00100133 1e-05
-0.0193137 0.00100219 1e-05
-0.0190172 0.00100326 1e-05
-0.0187132 0.00100467 1e-05
-0.0184093 0.00100589 1e-05
-0.0181054 0.00100711 1e-05
-0.0178015 0.00100833 1e-05
-0.0174976 0.00100954 1e-05
-0.0172058 0.00101084 1e-05
-0.016914 0.00101194 1e-05
-0.0166222 0.00101304 1e-05
-0.0163305 0.00101414 1e-05
-0.0160387 0.00101523 1e-05
-0.0157586 0.00101637 1e-05
-0.0154784 0.00101745 1e-05
-0.0151983 0.00101857 1e-05
-0.0149182 0.00101972 1e-05
-0.0146381 0.00102091 1e-05
-0.0143752 0.00102209 1e-05
-0.0141122 0.00102328 1e-05
-0.0138493 0.00102449 1e-05
-0.0135864 0.00102574 1e-05
-0.0133644 0.00102682 1e-05
-0.0133502 0.00102689 1e-05
-0.013336 0.00102696 1e-05
-0.0133218 0.00102703 1e-05
-0.0133076 0.0010271 1e-05
-0.0132934 0.00102717 1e-05
-0.0130353 0.00102846 1e-05
-0.0127771 0.00102976 1e-05
-0.0125189 0.00103108 1e-05
-0.0122607 0.00103242 1e-05
-0.0120025 0.00103377 1e-05
-0.0117547 0.00103508 1e-05
-0.0115068 0.0010364 1e-05
-0.0112589 0.00103772 1e-05
-0.0110111 0.00103905 1e-05
-0.0107632 0.00104038 1e-05
-0.0105252 0.00104166 1e-05
-0.0102873 0.00104294 1e-05
-0.0100493 0.00104422 1e-05
-0.00981133 0.0010455 1e-05
-0.00957337 0.00104678 1e-05
-0.00934491 0.00104801 1e-05
-0.00911645 0.00104923 1e-05
-0.00888799 0.00105045 1e-05
-0.00865954 0.00105167 1e-05
-0.00843108 0.00105289 1e-05
-0.00821175 0.00105405 1e-05
-0.00799242 0.00105521 1e-05
-0.00777309 0.00105637 1e-05
-0.00755376 0.00105752 1e-05
-0.00733443 0.00105868 1e-05
-0.00712387 0.00105977 1e-05
-0.0069133 0.00106087 1e-05
-0.00670273 0.00106196 1e-05
-0.00649216 0.00106305 1e-05
-0.0062816 0.00106413 1e-05
-0.00607944 0.00106516 1e-05
-0.00587729 0.0010662 1e-05
-0.00567514 0.00106723 1e-05
-0.00547298 0.00106825 1e-05
-0.00527083 0.00106928 1e-05
-0.00507675 0.00107025 1e-05
-0.00488267 0.00107122 1e-05
-0.0046886 0.00107219 1e-05
-0.00449452 0.00107316 1e-05
-0.00430044 0.00107413 1e-05
-0.00411412 0.00107505 1e-05
-0.0039278 0.00107597 1e-05
-0.00374147 0.00107689 1e-05
-0.00355515 0.00107781 1e-05
-0.00336883 0.00107872 1e-05
-0.00318995 0.00107959 1e-05
-0.00301107 0.00108047 1e-05
-0.00283219 0.00108134 1e-05
-0.00265331 0.00108222 1e-05
-0.00247443 0.00108309 1e-05
-0.0023027 0.00108393 1e-05
-0.00213097 0.00108477 1e-05
-0.00195924 0.00108561 1e-05
-0.0017875 0.00108646 1e-05
-0.00161577 0.00108731 1e-05
-0.0014509 0.00108811 1e-05
-0.00128603 0.00108893 1e-05
-0.00112116 0.00108975 1e-05
-0.00095629 0.00109059 1e-05
-0.000791418 0.00109142 1e-05
-0.000633135 0.00109223 1e-05
-0.000474851 0.00109305 1e-05
-0.000316568 0.00109388 1e-05
-0.000158284 0.00109471 1e-05
0 0.00109555 1e-05
0.000105677 0.00109612 1e-05
0.000211355 0.00109668 1e-05
0.000317032 0.00109725 1e-05
0.00042271 0.00109782 1e-05
0.000528387 0.00109838 1e-05
0.000634886 0.00109895 1e-05
0.000741385 0.00109951 1e-05
0.000847885 0.00110007 1e-05
0.000954384 0.00110063 1e-05
0.00106088 0.00110118 1e-05
0.00116821 0.00110172 1e-05
0.00127554 0.00110227 1e-05
0.00138286 0.0011028 1e-05
0.00149019 0.00110332 1e-05
0.00159752 0.00110384 1e-05
0.00170568 0.00110434 1e-05
0.00181384 0.00110485 1e-05
0.001922 0.00110534 1e-05
0.00203016 0.00110582 1e-05
0.00213833 0.00110629 1e-05
0.00224733 0.00110675 1e-05
0.00235633 0.00110721 1e-05
0.00246533 0.00110766 1e-05
0.00257434 0.0011081 1e-05
0.00268334 0.00110853 1e-05
0.00279319 0.00110894 1e-05
0.00290304 0.00110936 1e-05
0.00301289 0.00110976 1e-05
0.00312274 0.00111016 1e-05
0.00323259 0.00111055 1e-05
0.00334329 0.00111092 1e-05
0.003454 0.00111129 1e-05
0.0035647 0.00111166 1e-05
0.0036754 0.00111202 1e-05
0.00378611 0.00111236 1e-05
0.00389767 0.0011127 1e-05
0.00400924 0.00111303 1e-05
0.0041208 0.00111335 1e-05
0.00423237 0.00111367 1e-05
0.00434393 0.00111398 1e-05
0.00445636 0.00111427 1e-05
0.00456879 0.00111456 1e-05
0.00468123 0.00111485 1e-05
0.00479366 0.00111512 1e-05
0.00490609 0.00111539 1e-05
0.0050194 0.00111564 1e-05
0.0051327 0.00111589 1e-05
0.00524601 0.00111614 1e-05
0.00535932 0.00111637 1e-05
0.00547262 0.0011166 1e-05
0.00558681 0.00111681 1e-05
0.005701 0.00111702 1e-05
0.00581518 0.00111722 1e-05
0.00592937 0.00111742 1e-05
0.00604356 0.0011176 1e-05
0.00615863 0.00111778 1e-05
0.00627371 0.00111795 1e-05
0.00638878 0.00111811 1e-05
0.00650386 0.00111827 1e-05
0.00661893 0.00111841 1e-05
0.0067349 0.00111855 1e-05
0.00685087 0.00111868 1e-05
0.00696684 0.0011188 1e-05
0.00708281 0.00111891 1e-05
0.00719878 0.00111902 1e-05
0.00731565 0.00111912 1e-05
0.00743252 0.0011192 1e-05
0.00754939 0.00111929 1e-05
0.00766626 0.00111936 1e-05
0.00778313 0.00111942 1e-05
0.00784584 0.00111945 1e-05
0.00790854 0.00111948 1e-05
0.00797125 0.0011195 1e-05
0.00803395 0.00111953 1e-05
0.00809466 0.00111955 1e-05
0.00815014 0.00111956 1e-05
0.00820561 0.00111958 1e-05
0.00826108 0.00111959 1e-05
0.00831656 0.0011196 1e-05
0.00837203 0.00111961 1e-05
0.00849073 0.00111962 1e-05
0.00860942 0.00111962 1e-05
0.00872812 0.00111962 1e-05
0.00884682 0.0011196 1e-05
0.00896551 0.00111958 1e-05
0.00908513 0.00111955 1e-05
0.00920475 0.0011195 1e-05
0.00932437 0.00111946 1e-05
0.00944398 0.0011194 1e-05
0.0095636 0.00111933 1e-05
0.00968415 0.00111925 1e-05
0.0098047 0.00111916 1e-05
0.00992525 0.00111906 1e-05
0.0100458 0.00111896 1e-05
0.0101663 0.00111884 1e-05
0.0102878 0.00111871 1e-05
0.0104093 0.00111858 1e-05
0.0105308 0.00111843 1e-05
0.0106523 0.00111828 1e-05
0.0107738 0.00111812 1e-05
0.0108962 0.00111793 1e-05
0.0110186 0.00111775 1e-05
0.0111411 0.00111756 1e-05
0.0112635 0.00111735 1e-05
0.0113859 0.00111714 1e-05
0.0115093 0.00111691 1e-05
0.0116327 0.00111667 1e-05
0.0117561 0.00111643 1e-05
0.0118795 0.00111617 1e-05
0.0120028 0.00111591 1e-05
0.0121272 0.00111562 1e-05
0.0122515 0.00111533 1e-05
0.0123759 0.00111504 1e-05
0.0125002 0.00111473 1e-05
0.0126245 0.00111441 1e-05
0.0127498 0.00111407 1e-05
0.0128752 0.00111373 1e-05
0.0130005 0.00111337 1e-05
0.0131258 0.00111301 1e-05
0.0132511 0.00111264 1e-05
0.0133774 0.00111224 1e-05
0.0135036 0.00111184 1e-05
0.0136299 0.00111144 1e-05
0.0137562 0.00111102 1e-05
0.0138825 0.00111059 1e-05
0.0140098 0.00111014 1e-05
0.014137 0.00110968 1e-05
0.0142643 0.00110921 1e-05
0.0143915 0.00110873 1e-05
0.0145188 0.00110825 1e-05
0.0146471 0.00110774 1e-05
0.0147753 0.00110722 1e-05
0.0149036 0.0011067 1e-05
0.0150318 0.00110616 1e-05
0.0151601 0.00110561 1e-05
0.0152893 0.00110505 1e-05
0.0154186 0.00110447 1e-05
0.0155478 0.00110388 1e-05
0.0156771 0.00110329 1e-05
0.0158063 0.00110268 1e-05
0.0159366 0.00110206 1e-05
0.0160668 0.00110142 1e-05
0.0161971 0.00110077 1e-05
0.0163273 0.00110011 1e-05
0.0164576 0.00109944 1e-05
0.0165889 0.00109876 1e-05
0.0167201 0.00109806 1e-05
0.0168514 0.00109735 1e-05
0.0169827 0.00109662 1e-05
0.0171139 0.00109589 1e-05
0.0172462 0.00109515 1e-05
0.0173785 0.00109439 1e-05
0.0175108 0.00109362 1e-05
0.0176431 0.00109283 1e-05
0.0177754 0.00109204 1e-05
0.0179087 0.00109124 1e-05
0.018042 0.00109041 1e-05
0.0181753 0.00108957 1e-05
0.0183087 0.00108872 1e-05
0.018442 0.00108786 1e-05
0.0185763 0.001087 1e-05
0.0187107 0.00108611 1e-05
0.018845 0.00108521 1e-05
0.0189794 0.00108429 1e-05
0.0191137 0.00108337 1e-05
0.0192491 0.00108244 1e-05
0.0193845 0.00108149 1e-05
0.0195199 0.00108051 1e-05
0.0196553 0.00107953 1e-05
0.0197907 0.00107854 1e-05
0.0199272 0.00107755 1e-05
0.0200636 0.00107654 1e-05
0.0202001 0.00107549 1e-05
0.0203365 0.00107444 1e-05
0.020473 0.00107339 1e-05
0.0206105 0.00107234 1e-05
0.020748 0.00107125 1e-05
0.0208855 0.00107014 1e-05
0.021023 0.00106902 1e-05
0.0211606 0.0010679 1e-05
0.0212991 0.00106679 1e-05
0.0214377 0.00106564 1e-05
0.0215763 0.00106446 1e-05
0.0217149 0.00106327 1e-05
0.0218535 0.00106209 1e-05
0.0219931 0.0010609 1e-05
0.0221328 0.00105968 1e-05
0.0222724 0.00105844 1e-05
0.0224121 0.00105718 1e-05
0.0225517 0.00105593 1e-05
0.0226925 0.00105467 1e-05
0.0228332 0.00105339 1e-05
0.022974 0.00105207 1e-05
0.0231147 0.00105074 1e-05
0.0232555 0.00104942 1e-05
0.0233973 0.0010481 1e-05
0.0235391 0.00104675 1e-05
0.023681 0.00104536 1e-05
0.0238228 0.00104396 1e-05
0.0239647 0.00104257 1e-05
0.0241076 0.00104118 1e-05
0.0242505 0.00103975 1e-05
0.0243935 0.00103829 1e-05
0.0245364 0.00103682 1e-05
0.0246794 0.00103536 1e-05
0.0248234 0.00103389 1e-05
0.0249675 0.00103239 1e-05
0.0251115 0.00103086 1e-05
0.0252556 0.00102932 1e-05
[...]
POINT_DATA 12030
 FIELD attributes 1
U 3 12030 float
10.0004 	0.00734863 	0 10.0004 	0.0058789 	0 10.0003 	0.00440918 	0 10.0002 	0.00293945 	0 10.0001 	0.00146972 	0 10 	0 	0
10.0001 	0.000880201 	0 10 	0.00070416 	0 10 	0.00052812 	0 10 	0.00035208 	0 10 	0.00017604 	0 10 	0 	0
10.0001 	0.00046904 	0 10.0001 	0.000375043 	0 10.0001 	0.000281047 	0 10 	0.000187051 	0 10 	9.30539e-05 	0 10 	0 	0
10 	0.00026986 	0 10 	0.000215888 	0 10 	0.000161916 	0 10 	0.000107944 	0 10 	5.3972e-05 	0 10 	0 	0
10 	8.42298e-05 	0 10 	6.73838e-05 	0 10 	5.05379e-05 	0 10 	3.36919e-05 	0 10 	1.6846e-05 	0 10 	0 	0
10 	-2.27331e-05 	0 10 	-1.81865e-05 	0 10 	-1.36399e-05 	0 10 	-9.09325e-06 	0 10 	-4.54663e-06 	0 10 	0 	0
10 	-0.000213573 	0 10 	-0.000170859 	0 10 	-0.000128144 	0 10 	-8.54294e-05 	0 10 	-4.27147e-05 	0 10 	0 	0
10 	-0.000375954 	0 10 	-0.000300763 	0 10 	-0.000225572 	0 10 	-0.000150381 	0 10 	-7.51907e-05 	0 10 	0 	0
9.99999 	-0.000425437 	0 9.99999 	-0.000340349 	0 9.99999 	-0.000255262 	0 10 	-0.000170175 	0 10 	-8.50873e-05 	0 10 	0 	0
9.17387 	0.0871274 	0 9.1308 	0.0697019 	0 9.08741 	0.0522761 	0 9.04368 	0.0348502 	0 8.99963 	0.017424 	0 8.95524 	0 	0
10.0004 	0.00734863 	0 10.0024 	0.015208 	0 10.0045 	0.0222311 	0 10.0065 	0.0292096 	0 10.0086 	0.0361439 	0 10.0135 	0.046337 	0 10.0164 	0.0402191 	0 10.0208 	0.0401716 	0 10.0252 	0.0401243 	0 10.0297 	0.0400772 	0 10.0356 	0.0445377 	0 10.0385 	0.0379025 	0 10.0424 	0.0378614 	0 10.0464 	0.0378204 	0 10.0504 	0.0377793 	0 10.0545 	0.0408818 	0 10.0566 	0.0388078 	0 10.0591 	0.0401199 	0 10.0615 	0.0414337 	0 10.0639 	0.0427491 	0 10.0661 	0.0452087 	0 10.0676 	0.0453222 	0 10.0689 	0.0465255 	0 10.0702 	0.0477298 	0 10.0716 	0.0489353 	0 10.0727 	0.0499541 	0 10.0727 	0.0500196 	0 10.0728 	0.0500852 	0 10.0729 	0.0501507 	0 10.073 	0.0502162 	0 10.073 	0.0502719 	0 10.0736 	0.0509032 	0 10.0741 	0.0515282 	0 10.0746 	0.0521537 	0 10.0751 	0.0527798 	0 10.0756 	0.0532414 	0 10.0754 	0.0535429 	0 10.0751 	0.0537387 	0 10.0747 	0.0539346 	0 10.0743 	0.0541306 	0 10.0738 	0.054088 	0 10.0733 	0.0542407 	0 10.0722 	0.0542246 	0 10.0711 	0.0542086 	0 10.07 	0.0541926 	0 10.0684 	0.0539073 	0 10.068 	0.0539979 	0 10.0664 	0.0538744 	0 10.0647 	0.0537509 	0 10.0631 	0.0536273 	0 10.0605 	0.0532177 	0 10.0605 	0.0532859 	0 10.0584 	0.053105 	0 10.0563 	0.0529241 	0 10.0543 	0.0527431 	0 10.0507 	0.0522641 	0 10.0513 	0.0523368 	0 10.0489 	0.0521355 	0 10.0466 	0.0519341 	0 10.0442 	0.0517327 	0 10.0395 	0.0512263 	0 10.041 	0.0513278 	0 10.0384 	0.0511308 	0 10.0358 	0.0509338 	0 10.0332 	0.0507366 	0 10.0274 	0.0502225 	0 10.0298 	0.0503649 	0 10.0271 	0.0501956 	0 10.0244 	0.0500262 	0 10.0217 	0.0498569 	0 10.0147 	0.0493664 	0 10.0183 	0.0495696 	0 10.0154 	0.049439 	0 10.0126 	0.0493083 	0 10.0098 	0.0491776 	0 10.0016 	0.0487109 	0 10.0064 	0.0489916 	0 10.0035 	0.0489671 	0 10.0007 	0.0489427 	0 9.99782 	0.0489182 	0 9.98842 	0.0485789 	0 9.99456 	0.0490079 	0 9.99174 	0.0490758 	0 9.98891 	0.0491437 	0 9.98608 	0.0492116 	0 9.97545 	0.0489039 	0 9.98304 	0.0494618 	0 9.98038 	0.0498663 	0 9.97772 	0.0502708 	0 9.97506 	0.0506754 	0 9.96335 	0.0507799 	0 9.97265 	0.0516304 	6.34724e-22 9.9709 	0.0521131 	4.40021e-21 9.96914 	0.0525959 	8.16533e-21 9.96739 	0.0530789 	1.19301e-20 9.95545 	0.0529896 	1.0013e-20 9.96633 	0.0534973 	7.11095e-20 9.96502 	0.0534752 	6.61225e-20 9.96371 	0.0534531 	6.11353e-20 9.9624 	0.0534309 	5.6148e-20 9.95032 	0.0528601 	-1.15174e-20 9.96126 	0.0527523 	-3.12071e-20 9.95999 	0.0522904 	-3.4643e-20 9.95871 	0.0518284 	-3.80772e-20 9.95743 	0.0513664 	-4.15095e-20 9.94534 	0.0506297 	-1.57984e-20 9.95583 	0.0502188 	-1.39676e-20 9.95415 	0.0493775 	-9.67582e-21 9.95246 	0.048536 	-5.38451e-21 9.95077 	0.0476945 	-1.09368e-21 9.9385 	0.0466763 	5.53737e-21 9.94855 	0.0462796 	-3.79531e-21 9.94646 	0.0452872 	-1.78176e-20 9.94435 	0.0442945 	-3.18418e-20 9.94224 	0.0433017 	-4.58678e-20 9.92974 	0.0419996 	-6.59963e-20 9.9393 	0.0417672 	-9.55774e-20 9.93676 	0.0408463 	-8.62859e-20 9.93421 	0.0399252 	-7.69879e-20 9.93165 	0.0390039 	-6.76836e-20 9.91891 	0.0375876 	-2.22732e-20 9.92786 	0.0374789 	2.91422e-20 9.92485 	0.0366494 	3.93612e-20 9.92183 	0.0358197 	4.95723e-20 9.91881 	0.0349896 	5.97755e-20 9.90591 	0.033563 	2.76191e-20 9.91416 	0.0334608 	-4.06515e-20 9.91068 	0.0326613 	-4.53034e-20 9.90719 	0.0318617 	-4.9943e-20 9.90369 	0.0310617 	-5.45702e-20 9.89069 	0.0296723 	-1.97517e-22 9.89814 	0.0295267 	5.15674e-20 9.89415 	0.0287427 	4.45086e-20 9.89015 	0.0279583 	3.74377e-20 9.88615 	0.0271736 	3.03545e-20 9.87312 	0.0258588 	-2.07565e-20 9.87958 	0.0256594 	-6.5549e-20 9.87506 	0.0248891 	-8.24062e-20 9.87054 	0.0241185 	-9.92589e-20 9.86601 	0.0233476 	-1.16107e-19 9.85305 	0.0221212 	-1.01623e-19 9.85831 	0.0218719 	-1.20259e-19 9.85325 	0.0211178 	-1.10855e-19 9.84818 	0.0203635 	-1.01448e-19 9.84311 	0.0196089 	-9.20368e-20 9.83041 	0.0184734 	-6.17127e-20 9.83419 	0.0181817 	-5.24086e-20 9.82859 	0.0174454 	-3.83777e-20 9.82299 	0.0167089 	-2.43482e-20 9.81738 	0.015972 	-1.03202e-20 9.80519 	0.0149215 	2.03765e-21 9.80716 	0.0145769 	0 9.80105 	0.0138512 	0 9.79493 	0.0131252 	0 9.7888 	0.0123989 	0 9.77743 	0.0114282 	0 9.77721 	0.0110127 	-1.17265e-20 9.77059 	0.0102936 	-2.61421e-20 9.76396 	0.00957418 	-4.05592e-20 9.75732 	0.00885435 	-5.49777e-20 9.74718 	0.00797073 	-7.0468e-20 9.74432 	0.00746227 	-7.66385e-20 9.7372 	0.00674906 	-7.71769e-20 9.73008 	0.00603544 	-7.77109e-20 9.72295 	0.00532139 	-7.82405e-20 9.71447 	0.00454362 	-7.66714e-20 9.71205 	0.00424527 	-6.18827e-20 9.70801 	0.00386808 	-5.00787e-20 9.70397 	0.00349075 	-3.8277e-20 9.69993 	0.0031133 	-2.64776e-20 9.69602 	0.00274774 	-1.50563e-20 9.6924 	0.00241161 	-4.60874e-21 9.68877 	0.00207538 	5.837e-21 9.68515 	0.00173904 	1.62809e-20 9.68152 	0.00140259 	2.67231e-20 9.6749 	0.000930239 	3.94777e-20 9.66952 	0.000340988 	4.02418e-20 9.6614 	-0.000369481 	4.10732e-20 9.65326 	-0.00108049 	4.19028e-20 9.64512 	-0.00179203 	4.27304e-20 9.62779 	-0.00289826 	4.45627e-20 9.62759 	-0.00326131 	3.52642e-20 9.61903 	-0.00397095 	2.5964e-20 9.61047 	-0.00468119 	1.66628e-20 9.60188 	-0.00539201 	7.36058e-21 9.57832 	-0.00670315 	-5.98534e-22 9.58296 	-0.00689197 	-6.98438e-21 9.57401 	-0.0076029 	-1.58894e-20 9.56504 	-0.00831448 	-2.47934e-20 9.55606 	-0.00902669 	-3.36964e-20 9.52683 	-0.0104852 	-4.26085e-20 9.53586 	-0.0105543 	-4.36353e-20 9.52654 	-0.0112678 	-4.92114e-20 9.51721 	-0.0119819 	-5.47847e-20 9.50786 	-0.0126968 	-6.03553e-20 9.47363 	-0.0142403 	-7.32751e-20 9.4865 	-0.0142448 	-1.07233e-19 9.47684 	-0.014962 	-9.99547e-20 9.46716 	-0.0156799 	-9.26877e-20 9.45747 	-0.0163986 	-8.54322e-20 9.41899 	-0.0179659 	-3.12693e-20 9.4351 	-0.0179616 	-2.05858e-20 9.42514 	-0.0186838 	-1.45699e-20 9.41516 	-0.0194068 	-8.55323e-21 9.40516 	-0.0201306 	-2.53592e-21 9.36319 	-0.0216624 	0 9.38194 	-0.0217055 	0 9.3717 	-0.0224334 	0 9.36144 	-0.0231622 	0 9.35117 	-0.0238919 	0 9.30648 	-0.0253282 	0 9.32728 	-0.0254732 	1.65645e-21 9.3168 	-0.0262066 	7.25753e-21 9.30629 	-0.0269409 	1.28579e-20 9.29577 	-0.0276761 	1.84575e-20 9.24911 	-0.0289591 	3.14804e-20 9.2714 	-0.0292532 	1.14872e-19 9.2607 	-0.029991 	1.17146e-19 9.24997 	-0.0307297 	1.19433e-19 9.23923 	-0.0314693 	1.21734e-19 9.19128 	-0.0325479 	3.16294e-20 9.21455 	-0.0330311 	1.74538e-20 9.20366 	-0.0337723 	1.23879e-20 9.19274 	-0.0345144 	7.32122e-21 9.18181 	-0.0352575 	2.25368e-21 9.13318 	-0.0360897 	1.26067e-20 9.15587 	-0.0367959 	7.96249e-20 9.14593 	-0.0375386 	8.28371e-20 9.13485 	-0.0382835 	8.38832e-20 9.12036 	-0.0390119 	7.74578e-20 9.075 	-0.0395824 	2.87771e-21 9.0944 	-0.0405073 	-7.63982e-20 9.08775 	-0.0412804 	-9.48066e-20 9.07653 	-0.0420278 	-1.02589e-19 9.05882 	-0.0426891 	-9.78312e-20 9.01689 	-0.0430257 	-4.61384e-20 9.03326 	-0.0441433 	-1.3612e-19 9.02935 	-0.0449905 	-1.61579e-19 9.01801 	-0.0457395 	-1.63471e-19 8.99774 	-0.0462875 	-1.33048e-19 8.959 	-0.0464175 	-3.56827e-20 8.97261 	-0.0477004 	-1.864e-20 8.97093 	-0.0486585 	-8.62108e-21 8.9595 	-0.0494095 	-3.08438e-21 8.93727 	-0.0498078 	0 8.90148 	-0.0497618 	0 8.91257 	-0.0511887 	0 8.91269 	-0.0522894 	0 8.90119 	-0.0530438 	0 8.87753 	-0.0532635 	1.4326e-21 8.84443 	-0.0530677 	3.97759e-21 8.85326 	-0.0546165 	1.55643e-21 8.8548 	-0.0558836 	0 8.84324 	-0.0566423 	0 8.81861 	-0.0566627 	1.74698e-21 8.78797 	-0.0563442 	4.29553e-21 8.79478 	-0.0579963 	1.87436e-21 8.7974 	-0.0594488 	1.1323e-21 8.78582 	-0.0602123 	6.14963e-21 8.76059 	-0.0600174 	1.86199e-20 8.73219 	-0.0595982 	3.28312e-20 8.73719 	-0.0613338 	1.29635e-19 8.74063 	-0.0629824 	2.17874e-19 8.72903 	-0.0637471 	2.20698e-19 8.70355 	-0.0633212 	1.30048e-19 8.67717 	-0.0628169 	3.32608e-20 8.68057 	-0.0646046 	1.9271e-20 8.6839 	-0.0663943 	5.28243e-21 8.6721 	-0.0671155 	1.68817e-22 8.64753 	-0.0665571 	2.62529e-21 8.62297 	-0.0659984 	5.08163e-21 8.62495 	-0.0678328 	2.75787e-21 8.62686 	-0.0696692 	4.34888e-22 8.61552 	-0.0703589 	1.85607e-21 8.59258 	-0.0697537 	-1.08584e-21 8.56966 	-0.0691481 	-4.02697e-21 8.5704 	-0.0710151 	-3.7551e-20 8.57107 	-0.0728839 	-7.10787e-20 8.56022 	-0.0735428 	-7.21245e-20 8.53874 	-0.0729059 	-4.14626e-20 8.51728 	-0.0722684 	-1.0799e-20 8.51694 	-0.0741578 	6.56994e-20 8.51654 	-0.0760491 	1.42193e-19 8.50621 	-0.076681 	1.48745e-19 8.48603 	-0.0760297 	8.49249e-20 8.46587 	-0.075378 	2.11045e-20 8.46459 	-0.0772798 	1.22244e-20 8.46325 	-0.0791834 	3.34094e-21 8.45345 	-0.0797891 	1.95446e-22 8.43443 	-0.0791338 	3.79118e-21 8.41543 	-0.0784781 	7.38814e-21 8.41332 	-0.0803696 	3.0184e-21 8.41116 	-0.0822629 	-1.35602e-21 8.40191 	-0.0828446 	-1.57681e-20 8.38392 	-0.0822101 	-5.44643e-20 8.36596 	-0.0815753 	-9.31622e-20 8.36312 	-0.0834551 	-1.94271e-19 8.36023 	-0.0853368 	-2.95376e-19 8.35153 	-0.0858992 	-2.83138e-19 8.33448 	-0.0852939 	-1.67221e-19 8.31745 	-0.0846881 	-5.13026e-20 8.31397 	-0.0865533 	4.4639e-20 8.31015 	-0.0883464 	1.3523e-19 8.30159 	-0.088866 	1.33242e-19 8.28609 	-0.0883948 	6.98619e-20 8.26991 	-0.0878235 	2.9502e-22 8.26585 	-0.0896726 	-6.87279e-20 8.26085 	-0.0912518 	-1.24969e-19 8.25239 	-0.0917853 	-1.31939e-19 8.23873 	-0.0915214 	-8.88832e-20 8.22332 	-0.0909879 	-2.89246e-20 8.21874 	-0.0928206 	-2.03561e-20 8.21278 	-0.0941919 	-1.18595e-20 8.20443 	-0.0947403 	-3.48811e-21 8.19236 	-0.0946812 	9.27954e-21 8.17765 	-0.0941878 	2.51889e-20 8.17261 	-0.0960044 	8.21555e-21 8.1659 	-0.0971751 	-2.30497e-21 8.15764 	-0.0977396 	-6.77178e-21 8.14695 	-0.0978816 	-4.57902e-21 8.13287 	-0.0974301 	6.96574e-21 8.12742 	-0.0992315 	-5.9822e-21 8.12014 	-0.10021 	-1.34887e-20 8.11197 	-0.100791 	-1.83746e-20 8.10247 	-0.10113 	-2.61471e-20 8.08896 	-0.100721 	-4.27964e-20 8.08314 	-0.102509 	4.08466e-20 8.07543 	-0.103303 	5.58689e-20 8.06733 	-0.103902 	5.74686e-20 8.05887 	-0.104434 	5.38429e-20 8.04587 	-0.104069 	-1.77375e-20 8.03972 	-0.105843 	5.27084e-20 8.03172 	-0.106462 	5.48106e-20 8.02369 	-0.107081 	5.69026e-20 8.01564 	-0.1077 	5.89844e-20 8.00358 	-0.10748 	6.73396e-21 7.99689 	-0.109055 	-3.52093e-22 7.98894 	-0.109694 	-2.44966e-22 7.98097 	-0.110333 	-1.37856e-22 7.97298 	-0.110973 	-3.07618e-23 7.96205 	-0.11096 	1.09018e-20 7.95495 	-0.112345 	0 7.94705 	-0.113005 	0 7.93913 	-0.113666 	0 7.93119 	-0.114326 	0 7.92124 	-0.114516 	8.13953e-21 7.91384 	-0.11572 	0 7.90598 	-0.116402 	0 7.8981 	-0.117084 	0 7.89019 	-0.117766 	0 7.88109 	-0.118154 	0 7.87349 	-0.119184 	0 7.86567 	-0.119888 	0 7.85782 	-0.120592 	0 7.84994 	-0.121297 	0 7.84157 	-0.121878 	-2.19259e-21 7.83575 	-0.122564 	0 7.82986 	-0.123114 	0 7.82395 	-0.123664 	0 7.81802 	-0.124214 	0 7.81231 	-0.124744 	0 7.81028 	-0.124927 	0 7.80825 	-0.125109 	0 7.80622 	-0.125292 	0 7.80419 	-0.125475 	0 7.80239 	-0.125611 	0 7.7943 	-0.126407 	0 7.78628 	-0.127161 	0 7.77823 	-0.127916 	0 7.77014 	-0.128671 	0 7.76319 	-0.129199 	0 7.75476 	-0.130186 	-5.39147e-21 7.74674 	-0.130965 	-1.26785e-20 7.73868 	-0.131745 	-1.9964e-20 7.7306 	-0.132526 	-2.7248e-20 7.72457 	-0.132904 	-3.45454e-20 7.71578 	-0.134076 	-3.05037e-20 7.70775 	-0.134881 	-2.99164e-20 7.69969 	-0.135687 	-2.93258e-20 7.6916 	-0.136493 	-2.87322e-20 7.68646 	-0.136728 	-3.32064e-20 7.6773 	-0.138081 	-2.52433e-20 7.66926 	-0.138913 	-1.72558e-20 7.66119 	-0.139746 	-9.26675e-21 7.65308 	-0.140579 	-1.27607e-21 7.64882 	-0.140679 	0 7.63928 	-0.14221 	-3.07733e-22 7.63122 	-0.143071 	-3.87359e-21 7.62313 	-0.143933 	-7.4386e-21 7.61521 	-0.144755 	-1.1003e-20 7.6116 	-0.144767 	-1.45717e-20 7.6019 	-0.146372 	-4.04575e-20 7.59358 	-0.147363 	-5.68966e-20 7.58545 	-0.148254 	-7.17847e-20 7.57844 	-0.148932 	-7.96644e-20 7.57474 	-0.148993 	-6.7342e-20 7.56502 	-0.150608 	-4.83082e-20 7.55628 	-0.151787 	-3.57815e-20 7.54812 	-0.152707 	-2.71352e-20 7.542 	-0.153246 	-3.10604e-20 7.5382 	-0.153357 	-4.90614e-20 7.52845 	-0.154982 	-5.93144e-20 7.51929 	-0.156346 	-6.0279e-20 7.51108 	-0.157295 	-4.66159e-20 7.50583 	-0.157701 	-2.53869e-20 7.50192 	-0.157861 	-7.57827e-22 7.49215 	-0.1595 	2.23162e-21 7.48255 	-0.161043 	4.22325e-21 7.47428 	-0.162022 	3.40687e-22 7.46989 	-0.1623 	0 7.46587 	-0.16251 	0 7.45605 	-0.164162 	0 7.44618 	-0.165814 	0 7.43827 	-0.166787 	0 7.43414 	-0.167046 	0 7.42999 	-0.167304 	0 7.42013 	-0.168971 	0 7.41021 	-0.170638 	0 7.40279 	-0.171633 	-8.27695e-21 7.39853 	-0.171939 	-2.12395e-20 7.39425 	-0.172244 	-3.42014e-20 7.38434 	-0.173927 	-1.99236e-20 7.37436 	-0.175609 	-5.63986e-21 7.36741 	-0.176627 	1.12776e-21 7.36301 	-0.176979 	4.08377e-21 7.35861 	-0.177332 	7.0396e-21 7.34863 	-0.179031 	3.07046e-20 7.3386 	-0.18073 	5.4368e-20 7.33209 	-0.181771 	5.58128e-20 7.32755 	-0.18217 	4.49272e-20 7.32301 	-0.182568 	3.40391e-20 7.31297 	-0.184285 	1.62173e-20 7.30324 	-0.185937 	6.78584e-22 7.29704 	-0.186972 	7.39462e-21 7.29211 	-0.18751 	1.41042e-20 7.28742 	-0.187955 	2.08136e-20 7.27731 	-0.189689 	6.65246e-20 7.26848 	-0.191194 	9.58125e-20 7.26216 	-0.192259 	9.38509e-20 7.25666 	-0.193002 	6.77354e-20 7.25181 	-0.193491 	2.26362e-20 7.24162 	-0.195244 	1.66625e-20 7.23368 	-0.196603 	1.45247e-20 7.22723 	-0.1977 	1.49369e-20 7.22115 	-0.198643 	1.70052e-20 7.21614 	-0.199175 	2.34871e-20 7.20588 	-0.200947 	6.76723e-20 7.19881 	-0.202164 	7.20314e-20 7.19223 	-0.203292 	7.00189e-20 7.1856 	-0.204421 	6.79947e-20 7.18039 	-0.205009 	2.53798e-20 7.17052 	-0.20672 	1.96289e-20 7.16383 	-0.20788 	1.37242e-20 7.15711 	-0.209041 	7.82155e-21 7.15034 	-0.210201 	1.92096e-21 7.14453 	-0.210998 	0 7.13555 	-0.212564 	0 7.12873 	-0.213757 	0 7.12186 	-0.21495 	0 7.11495 	-0.216144 	0 7.10853 	-0.217145 	0 7.10044 	-0.218566 	0 7.09347 	-0.219789 	0 7.08646 	-0.221013 	0 7.0794 	-0.222237 	0 7.07236 	-0.223438 	4.72954e-22 7.0713 	-0.223626 	5.6767e-22 7.07036 	-0.223791 	1.36478e-21 7.06943 	-0.223956 	2.16193e-21 7.0685 	-0.224121 	2.95911e-21 7.06757 	-0.224284 	3.74984e-21 7.06121 	-0.225372 	8.39542e-21 7.05481 	-0.22646 	1.30394e-20 7.04838 	-0.227548 	1.76817e-20 7.04192 	-0.228636 	2.23223e-20 7.0366 	-0.229587 	2.61842e-20 7.02849 	-0.231003 	2.08235e-20 7.02099 	-0.232287 	2.39024e-20 7.01345 	-0.23357 	2.69661e-20 7.00586 	-0.234854 	3.00146e-20 7.00079 	-0.235844 	4.83065e-20 6.99173 	-0.237444 	2.52652e-20 6.98408 	-0.23876 	1.69515e-20 6.97638 	-0.240076 	8.62225e-21 6.96863 	-0.241393 	2.77553e-22 6.96479 	-0.242262 	2.03986e-20 6.95477 	-0.244042 	1.69224e-20 6.94695 	-0.245394 	1.57988e-20 6.93909 	-0.246745 	1.4676e-20 6.93206 	-0.247998 	1.52694e-20 6.92861 	-0.248847 	2.29549e-20 6.91843 	-0.250653 	1.49239e-20 6.90962 	-0.252195 	1.1442e-20 6.90159 	-0.253582 	1.06401e-20 6.89585 	-0.254711 	1.56207e-20 6.89223 	-0.255601 	2.59575e-20 6.8819 	-0.257434 	3.57806e-20 6.87207 	-0.259164 	4.20992e-20 6.86388 	-0.260585 	3.78861e-20 6.85945 	-0.26159 	2.2311e-20 6.85566 	-0.262522 	4.72785e-21 6.84517 	-0.264381 	2.48783e-21 6.83461 	-0.26624 	2.49389e-22 6.82678 	-0.267664 	0 6.82285 	-0.268638 	0 6.81888 	-0.269612 	0 6.80823 	-0.2715 	0 6.79751 	-0.273388 	0 6.79014 	-0.274844 	-2.7404e-21 6.78603 	-0.275863 	-9.13215e-21 6.7819 	-0.276883 	-1.55209e-20 6.77109 	-0.278803 	-7.33234e-21 6.7602 	-0.280723 	8.63588e-22 6.75328 	-0.282212 	4.35563e-21 6.74901 	-0.283282 	9.0266e-21 6.7447 	-0.284352 	1.36998e-20 6.73373 	-0.286308 	9.80723e-21 6.72378 	-0.288151 	7.01752e-21 6.71709 	-0.289647 	7.58656e-21 6.71179 	-0.29091 	1.62479e-20 6.7073 	-0.292032 	2.97648e-20 6.69618 	-0.294028 	1.54759e-20 6.68769 	-0.295744 	6.07065e-21 6.68084 	-0.297283 	-2.81789e-22 6.67438 	-0.298753 	-5.82399e-21 6.66972 	-0.29993 	-7.90719e-21 6.65844 	-0.301965 	-4.06232e-20 6.65145 	-0.303555 	-4.53126e-20 6.64444 	-0.305141 	-4.97557e-20 6.63738 	-0.306726 	-5.41864e-20 6.63197 	-0.308053 	-3.63447e-20 6.62219 	-0.309964 	-5.12456e-20 6.61508 	-0.311596 	-4.74163e-20 6.60792 	-0.313228 	-4.35769e-20 6.60071 	-0.314859 	-3.97276e-20 6.59407 	-0.316396 	-2.94141e-20 6.58882 	-0.317481 	-3.35444e-20 6.58457 	-0.318463 	-2.98611e-20 6.5803 	-0.319445 	-2.61733e-20 6.57601 	-0.320426 	-2.24808e-20 6.57187 	-0.321369 	-1.89272e-20 6.5686 	-0.322064 	-1.62427e-20 6.56532 	-0.322759 	-1.35557e-20 6.56204 	-0.323453 	-1.08663e-20 6.55874 	-0.324148 	-8.17433e-21 6.55591 	-0.324773 	-1.05433e-20 6.54787 	-0.326557 	-7.58279e-21 6.53998 	-0.328282 	-5.3481e-21 6.53204 	-0.330006 	-3.11219e-21 6.52403 	-0.33173 	-8.75062e-22 6.51762 	-0.333237 	0 6.50882 	-0.335247 	0 6.50076 	-0.337073 	0 6.49262 	-0.338899 	0 6.48456 	-0.340707 	0 6.47903 	-0.342196 	0 6.46974 	-0.34438 	0 6.46116 	-0.346383 	-1.16365e-21 6.45281 	-0.348315 	-2.78091e-21 6.44579 	-0.350075 	-4.34236e-21 6.44006 	-0.351666 	-5.8493e-21 6.43057 	-0.353947 	1.03522e-20 6.42116 	-0.356188 	2.43603e-20 6.41258 	-0.358213 	2.62485e-20 6.40659 	-0.359907 	7.41582e-21 6.40062 	-0.36159 	-1.20942e-20 6.39089 	-0.363961 	-7.22702e-21 6.38107 	-0.366332 	-2.36118e-21 6.37299 	-0.368408 	1.6421e-21 6.36683 	-0.370184 	4.52612e-21 6.36061 	-0.371961 	7.40855e-21 6.35063 	-0.374419 	3.76859e-21 6.34057 	-0.376877 	1.25501e-22 6.33296 	-0.379026 	3.44464e-21 6.32646 	-0.38092 	1.14183e-20 6.31995 	-0.382802 	1.95957e-20 6.30968 	-0.385351 	2.4097e-20 6.30052 	-0.38776 	2.32902e-20 6.2928 	-0.389992 	1.57285e-20 6.28535 	-0.392148 	6.31997e-21 6.27856 	-0.394146 	-7.05147e-21 6.26799 	-0.396796 	4.47659e-21 6.25995 	-0.399152 	2.794e-21 6.25194 	-0.401494 	5.13652e-22 6.24385 	-0.403835 	-1.78282e-21 6.23639 	-0.406032 	-1.38633e-20 6.22725 	-0.408528 	-9.15674e-21 6.21943 	-0.410872 	-3.6847e-21 6.21153 	-0.413214 	1.78709e-21 6.20355 	-0.415554 	7.25862e-21 6.19608 	-0.417721 	1.23266e-20 6.19557 	-0.417875 	1.26909e-20 6.19506 	-0.41803 	1.30552e-20 6.19455 	-0.418184 	1.34196e-20 6.19404 	-0.418339 	1.37839e-20 6.19354 	-0.418483 	1.40432e-20 6.18556 	-0.421084 	1.68486e-20 6.17746 	-0.423673 	1.89297e-20 6.16927 	-0.426261 	2.10268e-20 6.161 	-0.428847 	2.314e-20 6.15284 	-0.431258 	1.24796e-20 6.14501 	-0.43415 	9.20814e-21 6.13658 	-0.436882 	6.00296e-21 6.12806 	-0.439613 	2.79505e-21 6.11949 	-0.442304 	-7.53489e-22 6.11112 	-0.44474 	-6.58144e-21 6.10312 	-0.447828 	-2.07653e-21 6.09466 	-0.450805 	0 6.08578 	-0.453687 	0 6.07701 	-0.456373 	-4.13612e-21 6.06823 	-0.458975 	-1.00397e-20 6.05987 	-0.462213 	-5.52881e-21 6.05139 	-0.465449 	-1.02438e-21 6.04235 	-0.468457 	3.30847e-21 6.03325 	-0.471231 	1.11276e-20 6.02404 	-0.474005 	1.89529e-20 6.01527 	-0.4774 	3.19429e-20 6.00639 	-0.480791 	4.49354e-20 5.99759 	-0.483953 	4.62331e-20 5.98804 	-0.486908 	3.56386e-20 5.97836 	-0.489856 	2.46837e-20 5.96915 	-0.493413 	2.62463e-20 5.95991 	-0.49684 	2.41074e-20 5.95065 	-0.50015 	1.86523e-20 5.94119 	-0.503437 	1.26099e-20 5.931 	-0.50657 	2.14364e-21 5.92133 	-0.510258 	-1.24324e-20 5.91166 	-0.513754 	-1.55593e-20 5.90187 	-0.517247 	-1.86646e-20 5.89195 	-0.520736 	-2.17481e-20 5.88175 	-0.524187 	-2.12052e-20 5.87942 	-0.525064 	-1.80879e-20 5.8771 	-0.525907 	-1.91106e-20 5.87478 	-0.52675 	-2.01353e-20 5.87244