/*--------------------------------*- C++ -*----------------------------------*\
  =========                 |
  \\      /  F ield         | OpenFOAM: The Open Source CFD Toolbox
   \\    /   O peration     | Website:  https://openfoam.org
    \\  /    A nd           | Version:  8
     \\/     M anipulation  |
\*---------------------------------------------------------------------------*/
FoamFile
{
    version     2.0;
    format      ascii;
    class       volScalarField;
    location    "50";
    object      p;
}
// * * * * * * * * * * * * * * * * * * * * * * * * * * * * * * * * * * * * * //

dimensions      [0 2 -2 0 0 0 0];

internalField   nonuniform List<scalar> 
404911
(
-7.53776
-7.53007
-7.52858
-7.51711
-7.56244
-7.54336
-7.53607
-7.52879
-7.52335
-7.52024
-7.66671
-7.63782
-7.61296
-7.59147
-7.56505
-7.54539
-7.72779
-7.69645
-7.66271
-7.63499
-7.7958
-7.76574
-7.7375
-7.86349
-7.84099
-7.82913
-7.93449
-7.89993
-7.87278
-8.02993
-8.00401
-7.97579
-7.93537
-7.90014
-8.11034
-8.07069
-8.03821
-8.19102
-8.17856
-8.15204
-8.15068
-8.26559
-8.24922
-8.22238
-8.1989
-8.19539
-8.301
-8.28359
-8.2635
-8.24393
-8.34269
-8.33569
-8.31638
-8.29062
-8.35458
-8.35669
-8.58504
-7.50911
-7.56248
-7.53255
-7.63189
-7.61332
-7.72395
-7.69584
-7.66528
-7.79155
-7.77019
-7.73763
-7.85926
-7.82955
-7.93565
-7.90763
-7.87863
-8.00052
-7.98513
-7.94938
-7.91861
-8.09505
-8.06313
-8.17591
-8.14605
-8.24715
-8.22952
-8.19338
-8.30469
-8.28513
-8.35653
-8.34474
-8.31723
-8.38796
-8.37208
-8.57616
-8.60365
-8.58431
-8.70675
-8.68113
-8.64732
-8.77526
-8.75514
-8.72915
-8.84438
-8.82199
-8.79767
-8.85546
-3.31516
-3.26051
-3.18715
-3.49592
-3.44662
-3.45576
-3.3857
-3.3668
-3.30513
-3.19998
-3.05939
-3.62925
-3.5917
-3.49454
-3.47181
-3.43235
-3.41769
-3.37455
-3.26559
-3.10663
-3.79798
-3.77401
-3.741
-3.68708
-3.61891
-3.53946
-3.49528
-3.49739
-3.49518
-3.47443
-3.39014
-3.34106
-3.29137
-3.24657
-3.16523
-3.07244
-3.91134
-3.87054
-3.84023
-3.81699
-3.79059
-3.74953
-3.68067
-3.59514
-3.53266
-3.52536
-3.51479
-3.49928
-3.40232
-3.41279
-3.21254
-3.99426
-3.96121
-3.92469
-3.89207
-3.85559
-3.83393
-3.81837
-3.79568
-3.74631
-3.67249
-3.62002
-3.57153
-3.52113
-3.4911
-3.40608
-4.0491
-4.03442
-3.9917
-3.95462
-3.92317
-3.88238
-3.83508
-3.82412
-3.82181
-3.77928
-3.72911
-3.6665
-3.61889
-3.56507
-3.51414
-3.44624
-4.12418
-4.10806
-4.07815
-4.04569
-4.019
-3.97852
-3.95124
-3.89782
-3.86602
-3.84441
-3.83951
-3.8121
-3.76886
-3.71482
-3.65985
-3.6056
-3.55337
-4.2685
-4.22622
-4.20462
-4.15811
-4.12842
-4.09993
-4.05991
-4.03739
-4.00542
-3.98248
-3.93054
-3.90337
-3.88423
-3.86941
-3.83408
-3.79744
-3.74922
-3.71175
-4.35199
-4.29823
-4.26893
-4.23696
-4.19869
-4.15378
-4.12507
-4.09798
-4.06337
-4.03406
-3.99802
-3.95513
-3.92745
-3.90415
-3.88706
-3.85288
-3.80827
-3.73979
-4.47386
-4.42435
-4.38643
-4.3418
-4.31291
-4.27941
-4.24304
-4.19903
-4.15497
-4.12338
-4.09183
-4.06771
-4.03297
-3.99725
-3.9696
-3.91443
-3.89073
-3.85902
-4.5269
-4.51739
-4.47305
-4.42277
-4.38104
-4.34955
-4.31654
-4.2808
-4.24439
-4.20665
-4.15979
-4.12544
-4.10119
-4.06186
-4.03134
-3.99853
-3.98823
-4.58966
-4.60229
-4.59754
-4.5717
-4.51215
-4.46126
-4.4186
-4.39259
-4.36196
-4.31913
-4.28865
-4.24118
-4.20055
-4.16733
-4.13799
-4.10205
-4.06334
-4.6839
-4.66166
-4.64369
-4.63251
-4.62353
-4.58357
-4.54279
-4.49458
-4.45543
-4.4259
-4.40005
-4.35673
-4.32124
-4.27586
-4.23891
-4.20191
-4.17344
-4.11489
-4.76251
-4.71842
-4.71199
-4.68258
-4.65329
-4.66021
-4.63693
-4.60263
-4.56581
-4.51671
-4.46917
-4.44697
-4.42815
-4.39592
-4.35574
-4.31421
-4.28119
-4.22984
-4.87011
-4.81131
-4.7806
-4.75273
-4.72267
-4.70426
-4.67697
-4.67246
-4.65588
-4.62663
-4.59436
-4.5513
-4.51774
-4.477
-4.46092
-4.43693
-4.39285
-4.35848
-4.90892
-4.90705
-4.87334
-4.82819
-4.7985
-4.74169
-4.72584
-4.71031
-4.68805
-4.6869
-4.65298
-4.60074
-4.57357
-4.54921
-4.50733
-4.48903
-4.44319
-4.43157
-5.02766
-5.00335
-4.97635
-4.94876
-4.91349
-4.87797
-4.83073
-4.80772
-4.76821
-4.73882
-4.72244
-4.70455
-4.68751
-4.64801
-4.59437
-4.5706
-4.53985
-4.51861
-5.08878
-5.05529
-5.03038
-5.00352
-4.96817
-4.92401
-4.909
-4.86328
-4.83633
-4.81641
-4.78952
-4.75271
-4.72844
-4.71368
-4.68801
-4.64614
-4.60948
-4.54867
-5.16359
-5.12044
-5.11538
-5.08484
-5.05074
-5.02586
-4.99854
-4.95544
-4.92216
-4.89055
-4.86155
-4.84065
-4.81318
-4.78784
-4.75651
-4.74401
-4.72823
-4.75318
-5.18801
-5.17237
-5.15931
-5.12864
-5.10525
-5.08236
-5.05466
-5.02559
-4.98631
-4.9546
-4.92126
-4.90062
-4.87563
-4.84113
-4.80508
-4.79017
-4.76642
-5.30003
-5.26646
-5.24194
-5.207
-5.17994
-5.16004
-5.14158
-5.11299
-5.08643
-5.06021
-5.02716
-4.99
-4.95568
-4.94079
-4.91989
-4.87552
-4.83043
-4.81644
-5.32595
-5.33014
-5.29354
-5.26779
-5.24449
-5.22565
-5.1938
-5.17657
-5.15282
-5.11272
-5.08451
-5.06329
-5.02975
-4.99363
-4.97509
-4.96541
-4.9281
-4.88791
-5.41599
-5.37808
-5.35649
-5.32761
-5.3014
-5.26905
-5.25713
-5.22857
-5.21934
-5.19782
-5.16581
-5.11203
-5.09148
-5.06874
-5.02605
-4.98701
-4.99312
-4.94563
-5.46862
-5.46573
-5.45243
-5.42359
-5.38651
-5.36192
-5.33024
-5.30305
-5.27421
-5.2574
-5.23872
-5.2183
-5.19258
-5.16434
-5.11883
-5.10887
-5.06599
-5.0845
-5.55712
-5.53457
-5.51556
-5.49605
-5.47689
-5.45436
-5.42317
-5.38993
-5.3726
-5.33956
-5.31617
-5.29094
-5.27569
-5.24469
-5.2213
-5.18972
-5.16736
-5.14661
-5.57657
-5.5798
-5.569
-5.5549
-5.5384
-5.51534
-5.48355
-5.45494
-5.41695
-5.38552
-5.36524
-5.34934
-5.32424
-5.30868
-5.27142
-5.25476
-5.22143
-5.24158
-5.65789
-5.6365
-5.61843
-5.60583
-5.59403
-5.58398
-5.57141
-5.5499
-5.51444
-5.48147
-5.44487
-5.42212
-5.3953
-5.37403
-5.35777
-5.34131
-5.3346
-5.28134
-5.69377
-5.68163
-5.67001
-5.65326
-5.63366
-5.61925
-5.60892
-5.6017
-5.58555
-5.55199
-5.51716
-5.47923
-5.44943
-5.42572
-5.40742
-5.38567
-5.36297
-5.34279
-5.7479
-5.7271
-5.70713
-5.69432
-5.67945
-5.65859
-5.64032
-5.62956
-5.6245
-5.61354
-5.58891
-5.55177
-5.50971
-5.47584
-5.44716
-5.4408
-5.42349
-5.41608
-5.78429
-5.77617
-5.75118
-5.73274
-5.71552
-5.70246
-5.68484
-5.65875
-5.64584
-5.64033
-5.63287
-5.61573
-5.58644
-5.54611
-5.51135
-5.48614
-5.4743
-5.42465
-5.88471
-5.83098
-5.80095
-5.77834
-5.76791
-5.76489
-5.74623
-5.72806
-5.70859
-5.69029
-5.66455
-5.65541
-5.6481
-5.6387
-5.61608
-5.58199
-5.5433
-5.53892
-5.90566
-5.89396
-5.87665
-5.83741
-5.81315
-5.80486
-5.7965
-5.78087
-5.76301
-5.73086
-5.71769
-5.69611
-5.67759
-5.66386
-5.66027
-5.64744
-5.62059
-5.58335
-5.96724
-5.94662
-5.92538
-5.90363
-5.87438
-5.8407
-5.82258
-5.81777
-5.81126
-5.79418
-5.77492
-5.75548
-5.73093
-5.70738
-5.68473
-5.6766
-5.66172
-5.62549
-6.0467
-6.01097
-5.97992
-5.95457
-5.93438
-5.9041
-5.87243
-5.84763
-5.83949
-5.83724
-5.82507
-5.80325
-5.78081
-5.75663
-5.73754
-5.71964
-5.70438
-6.11258
-6.09279
-6.06922
-6.0395
-6.01325
-5.98429
-5.96359
-5.93702
-5.90942
-5.87947
-5.86474
-5.85764
-5.84811
-5.8314
-5.81045
-5.79099
-5.76707
-5.76259
-6.14285
-6.13953
-6.11562
-6.08742
-6.07073
-6.0443
-6.01138
-5.98672
-5.97087
-5.94236
-5.90962
-5.89137
-5.87644
-5.86907
-5.85327
-5.83354
-5.8277
-5.79205
-6.21055
-6.19764
-6.17997
-6.14968
-6.1225
-6.09846
-6.07254
-6.04865
-6.00869
-5.99932
-5.97821
-5.95269
-5.9259
-5.90587
-5.89245
-5.87341
-5.84686
-5.82054
-6.27078
-6.26235
-6.23965
-6.22782
-6.21653
-6.18817
-6.15534
-6.1257
-6.10674
-6.08085
-6.04739
-6.02883
-6.01631
-5.98928
-5.97037
-5.94392
-5.92934
-5.90595
-6.33866
-6.31811
-6.29717
-6.28408
-6.26396
-6.25093
-6.22973
-6.19337
-6.15121
-6.14104
-6.11901
-6.08251
-6.05831
-6.04761
-6.02486
-6.01052
-5.9825
-5.98718
-6.37816
-6.36927
-6.35132
-6.33025
-6.31638
-6.29921
-6.28422
-6.26598
-6.23609
-6.20871
-6.19086
-6.15592
-6.12533
-6.09909
-6.07713
-6.05191
-6.04627
-6.01209
-6.44581
-6.41257
-6.39428
-6.37474
-6.35786
-6.34623
-6.33124
-6.31721
-6.30124
-6.26956
-6.23776
-6.2259
-6.19636
-6.16675
-6.14423
-6.11813
-6.08914
-6.06741
-6.47406
-6.45956
-6.43905
-6.41457
-6.39888
-6.38366
-6.37396
-6.36244
-6.34649
-6.33194
-6.30161
-6.26582
-6.25261
-6.22985
-6.20078
-6.17667
-6.15623
-6.52772
-6.51425
-6.50456
-6.49698
-6.47598
-6.4479
-6.42832
-6.41075
-6.39876
-6.39142
-6.37149
-6.3552
-6.33023
-6.30149
-6.27573
-6.26189
-6.2311
-6.20948
-6.58419
-6.56544
-6.54892
-6.53219
-6.52186
-6.50599
-6.48482
-6.45869
-6.43788
-6.41825
-6.41176
-6.39549
-6.37208
-6.34885
-6.33103
-6.30961
-6.29188
-6.26126
-6.63439
-6.61613
-6.60011
-6.58157
-6.56886
-6.55273
-6.53156
-6.51167
-6.48825
-6.47218
-6.4426
-6.43083
-6.41987
-6.39544
-6.37434
-6.36239
-6.34649
-6.32038
-6.68841
-6.66277
-6.64502
-6.63115
-6.61374
-6.59932
-6.58361
-6.56281
-6.5418
-6.51138
-6.49985
-6.48085
-6.45915
-6.44711
-6.42622
-6.39907
-6.39375
-6.37604
-6.72503
-6.70855
-6.69223
-6.67416
-6.65866
-6.64303
-6.6275
-6.61277
-6.59603
-6.57343
-6.5583
-6.54314
-6.5205
-6.49587
-6.478
-6.45921
-6.43103
-6.43533
-6.77267
-6.75665
-6.73723
-6.71814
-6.70137
-6.6866
-6.66958
-6.65197
-6.63635
-6.62362
-6.6054
-6.58661
-6.56914
-6.54926
-6.52627
-6.50887
-6.48418
-6.4682
-6.83041
-6.81044
-6.78878
-6.76249
-6.74082
-6.72534
-6.71221
-6.69222
-6.66982
-6.65195
-6.63946
-6.6313
-6.61564
-6.59908
-6.58128
-6.56108
-6.54103
-6.53037
-6.88339
-6.86508
-6.8398
-6.81586
-6.78629
-6.76443
-6.74792
-6.73645
-6.71552
-6.6893
-6.66845
-6.65337
-6.64756
-6.63795
-6.62476
-6.61417
-6.59685
-6.55633
-6.94787
-6.92961
-6.91302
-6.88975
-6.86546
-6.84096
-6.81642
-6.78966
-6.76756
-6.75542
-6.74288
-6.71173
-6.68826
-6.67884
-6.66967
-6.65684
-6.64378
-6.63492
-6.62042
-7.01747
-6.98678
-6.96254
-6.93875
-6.91913
-6.8944
-6.86312
-6.84699
-6.82847
-6.79742
-6.77112
-6.76433
-6.74744
-6.72362
-6.71092
-6.70003
-6.68022
-6.66741
-7.04013
-7.02712
-7.00379
-6.98266
-6.96011
-6.93371
-6.90953
-6.89941
-6.8711
-6.83758
-6.81417
-6.79539
-6.77895
-6.76156
-6.75227
-6.73956
-6.71254
-7.1127
-7.08342
-7.06718
-7.05582
-7.03826
-7.01787
-6.9979
-6.97408
-6.95249
-6.93863
-6.91429
-6.88192
-6.85573
-6.83496
-6.80871
-6.78991
-6.78406
-6.7692
-7.15576
-7.14711
-7.12418
-7.10418
-7.08858
-7.07229
-7.05128
-7.02702
-7.00484
-6.98886
-6.98177
-6.95678
-6.92202
-6.89552
-6.87266
-6.84675
-6.82486
-6.84068
-7.22608
-7.19395
-7.17989
-7.16121
-7.14084
-7.12215
-7.10317
-7.08458
-7.05634
-7.02881
-7.01556
-7.01074
-6.98634
-6.95662
-6.93126
-6.91018
-6.88236
-6.85416
-7.2359
-7.21805
-7.20883
-7.19305
-7.17389
-7.15331
-7.13305
-7.1192
-7.08936
-7.05397
-7.03625
-7.02781
-7.01031
-6.98659
-6.96671
-6.94384
-6.91677
-7.27495
-7.25866
-7.23433
-7.2322
-7.22039
-7.20301
-7.18084
-7.1592
-7.14911
-7.12327
-7.08815
-7.06806
-7.04958
-7.03262
-7.01271
-6.99561
-6.97157
-7.33154
-7.31713
-7.29826
-7.28406
-7.26432
-7.25884
-7.24843
-7.23358
-7.2069
-7.18224
-7.1759
-7.15269
-7.11865
-7.09881
-7.08062
-7.0562
-7.03417
-7.02176
-7.40746
-7.3889
-7.35305
-7.33457
-7.31778
-7.29613
-7.28663
-7.27536
-7.2569
-7.23308
-7.20165
-7.19759
-7.18061
-7.15134
-7.13089
-7.11694
-7.07853
-7.49561
-7.46297
-7.42752
-7.3943
-7.37399
-7.34107
-7.31661
-7.3088
-7.30266
-7.28892
-7.26711
-7.23742
-7.22002
-7.20228
-7.18205
-7.15921
-7.15213
-7.55503
-7.5379
-7.51942
-7.48887
-7.46354
-7.42901
-7.40249
-7.37824
-7.34787
-7.33273
-7.31606
-7.30873
-7.29961
-7.27674
-7.25726
-7.23674
-7.21355
-7.20485
-7.61532
-7.58966
-7.5736
-7.54726
-7.52264
-7.49427
-7.46537
-7.43822
-7.41012
-7.3795
-7.36416
-7.34263
-7.32151
-7.31113
-7.29748
-7.27985
-7.26235
-7.23921
-7.68673
-7.6531
-7.61624
-7.60228
-7.57203
-7.55229
-7.52526
-7.50017
-7.47371
-7.44528
-7.41877
-7.39836
-7.3747
-7.35097
-7.33523
-7.32779
-7.3121
-7.29015
-7.71319
-7.71174
-7.6826
-7.65484
-7.62898
-7.60407
-7.58593
-7.56205
-7.53192
-7.50893
-7.48053
-7.45519
-7.42975
-7.40326
-7.3779
-7.37051
-7.35865
-7.33855
-7.77949
-7.77204
-7.75882
-7.73868
-7.71452
-7.68709
-7.65976
-7.63655
-7.61701
-7.59463
-7.57006
-7.54583
-7.51597
-7.48824
-7.47044
-7.43845
-7.41867
-7.41304
-7.38311
-7.86975
-7.85035
-7.82204
-7.79773
-7.77013
-7.7461
-7.72205
-7.69776
-7.67397
-7.65288
-7.63205
-7.61182
-7.58569
-7.56124
-7.53371
-7.50687
-7.47604
-7.46655
-7.44643
-7.93409
-7.89425
-7.86399
-7.83776
-7.81167
-7.78696
-7.77048
-7.73964
-7.71457
-7.69541
-7.67688
-7.65041
-7.62378
-7.59551
-7.57264
-7.55087
-7.51463
-7.47682
-7.99911
-7.96332
-7.93053
-7.90771
-7.88619
-7.86558
-7.83882
-7.81083
-7.79063
-7.75973
-7.73156
-7.70804
-7.68652
-7.6615
-7.63559
-7.61678
-7.59718
-8.08605
-8.04879
-8.01087
-7.98138
-7.9557
-7.93232
-7.90833
-7.88805
-7.85653
-7.82895
-7.80442
-7.78184
-7.75106
-7.72213
-7.69666
-7.66934
-7.67294
-8.16023
-8.11379
-8.09133
-8.062
-8.0321
-8.01318
-7.988
-7.95365
-7.92539
-7.88905
-7.86748
-7.84683
-7.82273
-7.79217
-7.76798
-7.74011
-7.71787
-8.27117
-8.24694
-8.21425
-8.18496
-8.14353
-8.11514
-8.08225
-8.06181
-8.03454
-7.99829
-7.96791
-7.93699
-7.90754
-7.88155
-7.86071
-7.82852
-7.79872
-7.7701
-8.32696
-8.30873
-8.29492
-8.25998
-8.2279
-8.19856
-8.17509
-8.14188
-8.10739
-8.08002
-8.04122
-8.00913
-7.97587
-7.95589
-7.93401
-7.90615
-7.87028
-8.39462
-8.37536
-8.35027
-8.32353
-8.29541
-8.27032
-8.24647
-8.22316
-8.18738
-8.15176
-8.11954
-8.08208
-8.04949
-8.02266
-7.9935
-7.97831
-7.94174
-8.48525
-8.44565
-8.42025
-8.38606
-8.36229
-8.33414
-8.31165
-8.28723
-8.26641
-8.22878
-8.19599
-8.15992
-8.12712
-8.09182
-8.05885
-8.02842
-8.02005
-8.54184
-8.51936
-8.48972
-8.45733
-8.43545
-8.4067
-8.38062
-8.35806
-8.33589
-8.30704
-8.27765
-8.24284
-8.21037
-8.17459
-8.14265
-8.10035
-8.08271
-8.62674
-8.58764
-8.55957
-8.53162
-8.50257
-8.47248
-8.45325
-8.4266
-8.39317
-8.37637
-8.35682
-8.32427
-8.29607
-8.26138
-8.23363
-8.19947
-8.15611
-8.70123
-8.68151
-8.64759
-8.60537
-8.57969
-8.55338
-8.52056
-8.50056
-8.47934
-8.44982
-8.42781
-8.40847
-8.37898
-8.34612
-8.30275
-8.28707
-8.24209
-8.75741
-8.72671
-8.70098
-8.66055
-8.63016
-8.59642
-8.56719
-8.54623
-8.52516
-8.49466
-8.47022
-8.44545
-8.41369
-8.39123
-8.33988
-8.29937
-8.81778
-8.7898
-8.76635
-8.74258
-8.70874
-8.68013
-8.64376
-8.61553
-8.5886
-8.56782
-8.53971
-8.51152
-8.48626
-8.45963
-8.42079
-8.93965
-8.91245
-8.86338
-8.84758
-8.81494
-8.79339
-8.75767
-8.73374
-8.69316
-8.66269
-8.63236
-8.60675
-8.58473
-8.559
-8.52101
-8.49998
-9.05155
-8.99313
-8.9387
-8.91482
-8.89451
-8.87077
-8.84924
-8.80343
-8.77477
-8.74339
-8.7074
-8.67079
-8.62566
-8.61361
-8.59061
-8.57644
-9.12034
-9.10103
-9.05346
-9.00163
-8.96546
-8.94027
-8.90762
-8.89026
-8.85553
-8.81889
-8.79732
-8.76655
-8.7243
-8.67857
-8.65116
-8.63007
-9.26817
-9.22629
-9.18263
-9.14865
-9.11372
-9.05971
-9.02796
-8.99909
-8.96302
-8.93334
-8.90605
-8.86649
-8.82588
-8.81805
-8.7715
-8.72115
-9.41846
-9.36052
-9.3113
-9.26027
-9.21857
-9.17761
-9.1236
-9.08767
-9.05486
-9.01896
-8.97409
-8.94312
-8.91671
-8.87884
-8.8508
-8.83216
-9.50502
-9.45098
-9.41143
-9.38677
-9.34748
-9.29569
-9.24404
-9.20448
-9.15648
-9.11683
-9.06479
-9.00185
-8.96598
-8.9567
-8.92823
-8.90179
-9.58512
-9.57634
-9.5187
-9.4466
-9.42297
-9.39699
-9.34809
-9.2995
-9.25417
-9.2183
-9.19537
-9.13293
-9.07518
-9.03353
-9.00384
-8.97367
-9.68968
-9.67225
-9.61871
-9.57594
-9.51889
-9.46276
-9.4349
-9.39718
-9.34081
-9.30283
-9.28496
-9.26713
-9.21532
-9.14316
-9.11672
-9.07199
-9.78852
-9.75741
-9.70188
-9.66577
-9.6158
-9.57689
-9.51952
-9.4807
-9.44115
-9.40136
-9.35914
-9.32086
-9.30273
-9.27994
-9.21814
-9.86819
-9.84064
-9.79797
-9.75711
-9.72462
-9.68793
-9.63653
-9.59179
-9.53907
-9.49781
-9.44962
-9.42011
-9.37614
-9.36056
-9.32779
-9.27487
-9.96462
-9.93237
-9.8977
-9.86171
-9.81857
-9.78089
-9.7359
-9.70144
-9.65953
-9.60915
-9.55673
-9.5135
-9.47216
-9.44612
-9.40663
-9.36363
-10.0135
-10.005
-9.98259
-9.95362
-9.92375
-9.87454
-9.83354
-9.78844
-9.75135
-9.70889
-9.66576
-9.61306
-9.58989
-9.55184
-9.51813
-10.0647
-10.0522
-10.0366
-10.001
-9.9701
-9.91889
-9.89133
-9.84222
-9.79922
-9.76328
-9.72672
-9.68034
-9.64533
-9.63071
-10.1525
-10.1127
-10.0991
-10.0861
-10.0484
-10.0191
-9.97312
-9.94428
-9.89876
-9.84292
-9.83401
-9.798
-9.74224
-10.3386
-10.2832
-10.236
-10.1884
-10.1594
-10.1379
-10.1036
-10.0767
-10.0422
-10.0066
-9.95602
-9.90639
-9.8781
-9.88832
-10.4464
-10.3916
-10.341
-10.3028
-10.263
-10.2236
-10.192
-10.1485
-10.1209
-10.097
-10.0566
-10.0099
-9.96549
-9.93297
-10.5365
-10.5074
-10.4631
-10.4031
-10.3593
-10.3262
-10.2896
-10.2551
-10.2159
-10.1778
-10.1526
-10.1117
-10.0746
-9.99707
-10.6417
-10.6113
-10.5864
-10.5108
-10.4664
-10.4191
-10.3856
-10.3502
-10.3177
-10.2734
-10.228
-10.2279
-10.1901
-10.0994
-10.7201
-10.6782
-10.6588
-10.6097
-10.559
-10.5215
-10.4703
-10.4337
-10.3995
-10.3732
-10.3375
-10.2936
-10.265
-10.2244
-10.8043
-10.791
-10.7254
-10.7152
-10.654
-10.606
-10.5664
-10.5152
-10.4763
-10.4443
-10.413
-10.3799
-10.3267
-10.7362
-10.7006
-10.6448
-10.5996
-10.5568
-10.5174
-10.4661
-10.4657
-10.4475
-10.7726
-10.7492
-10.6685
-10.6431
-10.5928
-10.5693
-10.5268
-10.4584
-10.8928
-10.819
-10.7908
-10.7087
-10.6523
-10.6479
-10.6221
-10.9691
-10.9383
-10.9037
-10.853
-10.7925
-10.7244
-10.7014
-11.0103
-10.9974
-10.9575
-10.8828
-10.7667
-11.1121
-11.085
-11.0787
-11.0718
-11.0136
-10.9329
-11.3616
-11.3072
-11.2017
-11.1497
-11.1577
-11.3878
-11.3546
-11.3466
-11.3212
-11.2623
-11.2529
-11.5042
-11.3753
-11.3641
-11.2784
-11.2256
-11.5962
-11.5161
-11.4504
-0.975238
-0.822789
-0.657568
-1.58788
-1.47308
-1.37965
-1.24197
-1.12098
-1.01594
-0.904466
-0.737648
-0.391409
-1.94878
-1.84648
-1.82975
-1.75557
-1.66515
-1.55116
-1.42042
-1.29057
-1.16097
-1.05444
-0.980974
-0.877621
-0.743292
-0.61954
-0.412045
-2.2669
-2.17231
-2.07153
-2.05143
-1.95993
-1.87002
-1.80008
-1.72282
-1.60472
-1.47517
-1.33112
-1.22158
-1.1274
-1.04694
-0.985191
-0.869981
-0.73452
-0.538598
-0.206488
-0.0619238
-0.189189
-0.240714
-2.44367
-2.29897
-2.32646
-2.29214
-2.23039
-2.16868
-2.09506
-2.02463
-1.93355
-1.85123
-1.77548
-1.66905
-1.52425
-1.33181
-1.26437
-1.17234
-1.12263
-1.05117
-0.943734
-0.817876
-0.621312
-0.381228
-0.279925
-2.42824
-2.48504
-2.46135
-2.46692
-2.42299
-2.39242
-2.32304
-2.28264
-2.22856
-2.17877
-2.09285
-2.00983
-1.91475
-1.84919
-1.76902
-1.57537
-1.33106
-1.14914
-1.22292
-1.13621
-1.10255
-0.994342
-0.864659
-0.680174
-0.551038
-2.57351
-2.5893
-2.54784
-2.51363
-2.50243
-2.54205
-2.54679
-2.46021
-2.37675
-2.25258
-2.25032
-2.22227
-2.16755
-2.09173
-1.98494
-1.90258
-1.82546
-1.64671
-1.39981
-1.21115
-1.27144
-1.18456
-1.12163
-1.02358
-0.966448
-2.67955
-2.64279
-2.60493
-2.58536
-2.58187
-2.53048
-2.48357
-2.45135
-2.41721
-2.39607
-2.36341
-2.28177
-2.24402
-2.24307
-2.21719
-2.12585
-2.08733
-1.90014
-1.8565
-1.7296
-1.53408
-1.32572
-1.36903
-1.25911
-1.2029
-2.74628
-2.73863
-2.72011
-2.70019
-2.65037
-2.63058
-2.60922
-2.55221
-2.51338
-2.50582
-2.39967
-2.37447
-2.3294
-2.30005
-2.23194
-2.19388
-2.17619
-2.09546
-2.08962
-1.93478
-1.86533
-1.7827
-1.65228
-1.50943
-1.45716
-2.84053
-2.81257
-2.78536
-2.76384
-2.75708
-2.74507
-2.73091
-2.70438
-2.649
-2.627
-2.57953
-2.56004
-2.53981
-2.44541
-2.33342
-2.29172
-2.30172
-2.24732
-2.22937
-2.14608
-2.12546
-2.07506
-1.97636
-1.88075
-1.79868
-1.71481
-2.97322
-2.93068
-2.92956
-2.92061
-2.85269
-2.81905
-2.79506
-2.78628
-2.78593
-2.75819
-2.74505
-2.67279
-2.63811
-2.62413
-2.59967
-2.58735
-2.52567
-2.40311
-2.29147
-2.38172
-2.34331
-2.27655
-2.21596
-2.15632
-2.04918
-2.01491
-1.93519
-3.0328
-3.01076
-2.98736
-2.9524
-2.92255
-2.88035
-2.85292
-2.83804
-2.80151
-2.79792
-2.75932
-2.72927
-2.69263
-2.65854
-2.63148
-2.61438
-2.60278
-2.56509
-2.4809
-2.35976
-2.37244
-2.4559
-2.29898
-2.22229
-2.1074
-3.16373
-3.14283
-3.09312
-3.01815
-3.03065
-2.99823
-2.97638
-2.938
-2.91232
-2.88824
-2.86662
-2.83213
-2.80719
-2.78131
-2.74443
-2.71316
-2.68097
-2.65694
-2.63034
-2.6113
-2.57619
-2.51636
-2.45214
-2.4528
-2.38761
-3.21412
-3.1863
-3.15153
-3.13828
-3.0782
-3.03064
-3.01394
-3.00105
-2.97004
-2.93252
-2.90885
-2.87961
-2.85517
-2.82227
-2.80211
-2.76806
-2.73376
-2.70299
-2.68674
-2.66045
-2.63002
-2.59318
-2.53697
-2.4931
-3.35898
-3.30977
-3.29115
-3.23125
-3.22685
-3.18097
-3.16952
-3.11672
-3.06594
-3.03939
-3.0164
-2.98284
-2.95489
-2.91996
-2.89466
-2.87204
-2.83867
-2.8127
-2.7814
-2.7555
-2.73359
-2.69245
-2.67671
-2.65075
-2.6502
-3.45158
-3.45728
-3.42853
-3.35216
-3.30784
-3.27821
-3.23991
-3.18971
-3.16209
-3.12029
-3.08768
-3.06336
-3.02624
-2.99791
-2.96567
-2.94312
-2.91721
-2.89512
-2.86402
-2.83932
-2.80448
-2.78038
-2.74553
-2.72014
-2.72842
-3.58894
-3.56272
-3.51121
-3.48014
-3.44594
-3.4046
-3.35323
-3.31956
-3.26831
-3.19631
-3.15002
-3.11675
-3.09816
-3.07521
-3.03831
-3.01315
-2.98478
-2.94942
-2.92978
-2.90803
-2.87665
-2.84198
-2.81844
-2.79274
-2.75639
-3.77562
-3.70884
-3.67878
-3.63598
-3.59845
-3.54616
-3.50631
-3.46284
-3.44107
-3.40087
-3.36162
-3.31068
-3.24537
-3.18328
-3.12425
-3.11062
-3.08903
-3.05926
-3.03205
-2.99292
-2.96082
-2.94271
-2.91734
-2.88246
-2.84498
-2.82265
-3.85385
-3.78396
-3.78208
-3.75469
-3.72119
-3.6807
-3.63678
-3.58202
-3.52772
-3.49318
-3.46798
-3.43521
-3.3943
-3.36267
-3.30329
-3.24295
-3.18368
-3.14751
-3.12273
-3.08276
-3.04392
-2.99847
-2.97213
-2.9572
-2.93077
-2.90595
-3.90016
-3.89718
-3.88198
-3.84465
-3.82074
-3.7952
-3.76285
-3.73078
-3.6886
-3.6278
-3.56928
-3.53088
-3.49389
-3.46816
-3.43405
-3.39168
-3.34845
-3.28252
-3.2337
-3.18612
-3.13678
-3.12903
-3.07873
-3.02658
-3.00416
-2.98551
-2.97101
-4.08047
-3.99776
-3.96634
-3.94594
-3.9206
-3.89566
-3.86172
-3.8245
-3.79478
-3.76654
-3.73243
-3.68131
-3.61921
-3.5767
-3.53345
-3.49918
-3.46756
-3.4139
-3.37252
-3.32617
-3.27137
-3.23622
-3.20219
-3.171
-3.13783
-3.07459
-3.05571
-4.08024
-4.07727
-4.03832
-4.01421
-3.98861
-3.95642
-3.92771
-3.89281
-3.85657
-3.82073
-3.79342
-3.76617
-3.7267
-3.67545
-3.62139
-3.57242
-3.52935
-3.49055
-3.4369
-3.38828
-3.35694
-3.32601
-3.29115
-3.26739
-3.22725
-3.21383
-4.14869
-4.17212
-4.15146
-4.12135
-4.08882
-4.05114
-4.01993
-3.98812
-3.95006
-3.9128
-3.87176
-3.83947
-3.81731
-3.79399
-3.76021
-3.71907
-3.66726
-3.61547
-3.56701
-3.51502
-3.45378
-3.42719
-3.39656
-3.37075
-3.35473
-3.34206
-4.29254
-4.25965
-4.22233
-4.19249
-4.1705
-4.13717
-4.10797
-4.07648
-4.04313
-4.00851
-3.97205
-3.93579
-3.89746
-3.85928
-3.84215
-3.82025
-3.789
-3.75107
-3.70586
-3.65497
-3.60131
-3.54644
-3.50679
-3.45882
-3.42046
-3.436
-4.36721
-4.33493
-4.30017
-4.26921
-4.22596
-4.19972
-4.16408
-4.13084
-4.09413
-4.0655
-4.03373
-4.00033
-3.96891
-3.93254
-3.90394
-3.87628
-3.84891
-3.81729
-3.781
-3.73985
-3.68889
-3.64844
-3.59219
-3.55608
-3.5177
-4.45628
-4.44764
-4.41078
-4.37771
-4.32958
-4.29534
-4.26383
-4.22955
-4.18736
-4.15413
-4.12431
-4.09327
-4.0628
-4.02958
-3.99526
-3.95546
-3.93176
-3.9037
-3.87468
-3.84163
-3.80507
-3.76392
-3.7252
-3.69428
-3.65153
-3.60436
-4.54956
-4.53191
-4.51325
-4.48391
-4.46483
-4.42072
-4.37675
-4.34563
-4.30853
-4.26561
-4.22761
-4.18976
-4.15536
-4.12486
-4.09094
-4.05812
-4.02876
-3.99861
-3.95771
-3.93156
-3.89591
-3.86242
-3.8346
-3.80009
-3.76038
-3.71951
-4.63332
-4.60429
-4.59222
-4.56403
-4.54963
-4.53001
-4.50138
-4.45962
-4.41881
-4.38937
-4.35186
-4.31568
-4.27635
-4.23325
-4.19412
-4.16195
-4.12863
-4.09198
-4.05679
-4.03481
-3.99467
-3.96235
-3.92112
-3.89426
-3.87465
-3.8287
-3.76474
-4.68168
-4.69114
-4.64989
-4.63212
-4.61395
-4.59591
-4.56952
-4.54128
-4.50099
-4.45489
-4.42189
-4.39212
-4.35013
-4.31539
-4.27732
-4.23906
-4.20921
-4.17287
-4.13404
-4.09365
-4.06199
-4.02545
-3.99098
-3.95938
-3.92457
-3.84533
-4.7707
-4.74766
-4.71812
-4.71489
-4.69547
-4.67239
-4.65036
-4.62752
-4.60477
-4.57826
-4.53685
-4.49594
-4.45869
-4.42525
-4.39024
-4.35381
-4.32023
-4.28071
-4.25016
-4.2087
-4.17475
-4.1339
-4.07322
-4.06376
-4.04866
-3.95495
-4.85024
-4.81366
-4.78106
-4.74355
-4.72576
-4.71188
-4.68019
-4.65869
-4.654
-4.64097
-4.60526
-4.56907
-4.52413
-4.49672
-4.46108
-4.43554
-4.3973
-4.35272
-4.31437
-4.28064
-4.24191
-4.21538
-4.18959
-4.15219
-4.08067
-4.95665
-4.91664
-4.8895
-4.86331
-4.82148
-4.77587
-4.75569
-4.74049
-4.69717
-4.66754
-4.66958
-4.67102
-4.63601
-4.59042
-4.54986
-4.53239
-4.5157
-4.47164
-4.43033
-4.39354
-4.3555
-4.31692
-4.29265
-4.27772
-4.26596
-5.01173
-4.99413
-4.9648
-4.93463
-4.89866
-4.86406
-4.82263
-4.7986
-4.78428
-4.73502
-4.70613
-4.69017
-4.689
-4.65066
-4.59784
-4.5739
-4.55011
-4.53978
-4.49306
-4.45754
-4.41652
-4.37583
-4.35313
-4.33886
-4.21756
-5.10977
-5.08789
-5.06727
-5.04154
-5.00594
-4.97471
-4.93727
-4.89727
-4.86191
-4.83168
-4.8182
-4.78733
-4.75448
-4.72298
-4.70946
-4.67431
-4.6127
-4.59677
-4.56972
-4.54649
-4.52751
-4.48882
-4.46136
-4.42405
-4.42078
-5.13921
-5.1317
-5.11015
-5.09876
-5.07162
-5.04042
-5.00619
-4.96306
-4.91614
-4.8896
-4.84907
-4.82765
-4.81514
-4.80009
-4.78003
-4.75502
-4.7085
-4.66889
-4.64384
-4.60272
-4.56318
-4.55602
-4.54033
-4.497
-4.45636
-5.23837
-5.19852
-5.17274
-5.14974
-5.12813
-5.11781
-5.08534
-5.05726
-5.03083
-4.99018
-4.93803
-4.90954
-4.87196
-4.84121
-4.83428
-4.81993
-4.80186
-4.77489
-4.74098
-4.70864
-4.67722
-4.6511
-4.6143
-4.59365
-4.52241
-5.28152
-5.25685
-5.2337
-5.20608
-5.1701
-5.15527
-5.14565
-5.11377
-5.08281
-5.05335
-5.02123
-4.9806
-4.94375
-4.90455
-4.87987
-4.86719
-4.84868
-4.82096
-4.79445
-4.75965
-4.72854
-4.71869
-4.69502
-4.68869
-5.36183
-5.33841
-5.3173
-5.29674
-5.27112
-5.24078
-5.2087
-5.18673
-5.1772
-5.15005
-5.12491
-5.09441
-5.05399
-5.01342
-4.98541
-4.95079
-4.92615
-4.91087
-4.88321
-4.84759
-4.82604
-4.79501
-4.76576
-4.74974
-4.72797
-5.42095
-5.40247
-5.37662
-5.35089
-5.3275
-5.3022
-5.27255
-5.2425
-5.22398
-5.20958
-5.18894
-5.16607
-5.14273
-5.10193
-5.06521
-5.02462
-4.98393
-4.96889
-4.95148
-4.9199
-4.88364
-4.85702
-4.83341
-4.8353
-5.48786
-5.47193
-5.45371
-5.43632
-5.40952
-5.38255
-5.35739
-5.33028
-5.30521
-5.27088
-5.25299
-5.24055
-5.22107
-5.20247
-5.18723
-5.15137
-5.11495
-5.06749
-5.03003
-4.99982
-4.97878
-4.95266
-4.92722
-4.89831
-4.87201
-5.52783
-5.51834
-5.50463
-5.48668
-5.46735
-5.44453
-5.41915
-5.39067
-5.36533
-5.3421
-5.30656
-5.27717
-5.25524
-5.23195
-5.21931
-5.20301
-5.17994
-5.14302
-5.10579
-5.06713
-5.04052
-5.02028
-4.99422
-4.97217
-5.59061
-5.57315
-5.56056
-5.55163
-5.53377
-5.51662
-5.49926
-5.4767
-5.45153
-5.42363
-5.39555
-5.37575
-5.34603
-5.31586
-5.28626
-5.26326
-5.24713
-5.22787
-5.19893
-5.1644
-5.142
-5.09912
-5.08468
-5.04658
-5.01996
-5.63536
-5.62499
-5.60905
-5.59274
-5.57652
-5.56223
-5.54711
-5.53156
-5.5116
-5.48408
-5.45977
-5.42712
-5.39671
-5.37217
-5.3506
-5.32769
-5.30548
-5.28419
-5.25518
-5.22778
-5.2002
-5.18453
-5.13076
-5.1117
-5.6831
-5.66389
-5.65372
-5.63969
-5.62158
-5.60451
-5.58842
-5.57444
-5.56087
-5.54294
-5.51799
-5.49773
-5.47287
-5.43896
-5.40663
-5.37937
-5.35738
-5.34103
-5.31946
-5.2838
-5.25591
-5.24578
-5.22223
-5.1973
-5.75627
-5.72629
-5.71109
-5.69827
-5.68545
-5.67122
-5.65149
-5.63005
-5.61223
-5.59858
-5.58731
-5.57256
-5.54974
-5.52815
-5.50227
-5.4703
-5.43611
-5.40839
-5.38083
-5.36425
-5.34488
-5.31488
-5.28009
-5.28042
-5.20787
-5.81466
-5.78897
-5.76186
-5.74453
-5.73042
-5.71598
-5.69861
-5.67785
-5.65476
-5.63365
-5.62001
-5.60982
-5.59762
-5.57861
-5.5531
-5.52343
-5.4922
-5.46142
-5.43693
-5.4166
-5.39204
-5.37707
-5.34813
-5.31934
-5.83789
-5.84647
-5.81497
-5.78453
-5.76678
-5.74955
-5.73532
-5.72129
-5.70294
-5.68068
-5.65054
-5.63804
-5.62958
-5.61889
-5.60483
-5.58327
-5.55478
-5.52005
-5.49042
-5.46477
-5.44118
-5.42688
-5.39584
-5.38169
-5.90782
-5.87994
-5.86592
-5.84043
-5.80474
-5.78774
-5.77772
-5.76112
-5.74796
-5.73329
-5.71136
-5.67586
-5.65927
-5.64995
-5.6387
-5.62749
-5.61105
-5.58383
-5.54932
-5.51607
-5.49964
-5.46566
-5.44966
-5.99243
-5.96678
-5.93253
-5.91312
-5.8917
-5.86718
-5.83551
-5.81277
-5.80406
-5.7922
-5.77935
-5.76867
-5.75205
-5.72138
-5.695
-5.67631
-5.65992
-5.64811
-5.63374
-5.61328
-5.58318
-5.55239
-5.5407
-5.525
-6.03694
-6.03109
-6.00323
-5.97534
-5.94896
-5.9229
-5.89765
-5.86803
-5.83801
-5.8216
-5.81391
-5.80583
-5.79345
-5.77828
-5.75509
-5.72973
-5.70657
-5.6864
-5.67179
-5.6545
-5.6339
-5.61476
-5.58321
-5.5532
-6.09727
-6.07569
-6.0571
-6.03363
-6.00637
-5.98024
-5.95385
-5.93019
-5.90228
-5.86181
-5.83684
-5.83271
-5.82859
-5.81874
-5.80255
-5.78215
-5.75774
-5.73594
-5.71581
-5.69924
-5.67965
-5.66269
-5.63973
-6.16275
-6.14679
-6.12654
-6.11242
-6.09452
-6.06461
-6.03682
-6.01016
-5.98311
-5.96193
-5.94164
-5.90241
-5.86606
-5.85577
-5.85071
-5.84261
-5.8291
-5.81122
-5.78805
-5.76424
-5.74039
-5.73027
-5.70222
-5.71029
-6.19663
-6.1994
-6.18434
-6.16325
-6.14305
-6.12207
-6.09604
-6.06924
-6.04066
-6.00704
-5.98288
-5.97218
-5.943
-5.90115
-5.88101
-5.87502
-5.86633
-5.85366
-5.83355
-5.81627
-5.79221
-5.76789
-5.76278
-5.72281
-6.28026
-6.2534
-6.23138
-6.2141
-6.19662
-6.18014
-6.15791
-6.13073
-6.10389
-6.07226
-6.03489
-6.00354
-5.996
-5.98009
-5.94773
-5.91921
-5.90593
-5.89334
-5.87873
-5.85463
-5.84246
-5.82015
-5.79912
-5.76987
-6.31833
-6.29817
-6.28298
-6.26848
-6.24792
-6.22965
-6.21334
-6.19234
-6.16733
-6.14324
-6.1131
-6.07761
-6.04192
-6.02539
-6.0214
-5.9962
-5.96767
-5.94525
-5.92559
-5.90869
-5.8819
-5.87674
-5.84724
-6.4058
-6.36557
-6.35108
-6.33499
-6.31571
-6.2984
-6.28234
-6.26449
-6.24684
-6.22729
-6.20562
-6.18783
-6.15699
-6.12142
-6.0803
-6.05423
-6.04672
-6.0253
-6.00262
-5.97881
-5.95522
-5.94562
-5.91423
-5.90447
-6.42724
-6.42434
-6.40254
-6.38334
-6.36456
-6.34454
-6.3269
-6.31303
-6.29721
-6.27949
-6.26065
-6.2396
-6.22399
-6.19857
-6.16425
-6.12549
-6.09838
-6.08108
-6.05654
-6.03598
-6.01423
-5.98463
-5.97398
-5.95547
-6.47643
-6.46637
-6.45102
-6.43327
-6.41243
-6.3917
-6.37151
-6.35489
-6.34248
-6.32803
-6.31059
-6.29207
-6.26796
-6.24487
-6.22992
-6.20429
-6.17001
-6.1448
-6.11942
-6.08904
-6.06985
-6.0595
-6.01972
-6.51697
-6.50446
-6.49471
-6.47848
-6.46241
-6.4415
-6.41915
-6.3993
-6.3825
-6.3707
-6.35774
-6.33991
-6.32293
-6.297
-6.26689
-6.25318
-6.23368
-6.20385
-6.17833
-6.15291
-6.12287
-6.09798
-6.09669
-6.57932
-6.55776
-6.53726
-6.52135
-6.50633
-6.49246
-6.47429
-6.45139
-6.42905
-6.41033
-6.39733
-6.38566
-6.36934
-6.356
-6.33628
-6.30474
-6.28011
-6.2603
-6.23426