/*--------------------------------*- C++ -*----------------------------------*\
| =========                 |                                                 |
| \\      /  F ield         | OpenFOAM: The Open Source CFD Toolbox           |
|  \\    /   O peration     | Version:  2312                                  |
|   \\  /    A nd           | Website:  www.openfoam.com                      |
|    \\/     M anipulation  |                                                 |
\*---------------------------------------------------------------------------*/
FoamFile
{
    version     2.0;
    format      ascii;
    arch        "LSB;label=64;scalar=64";
    class       volScalarField;
    location    "40";
    object      Ndy;
}
// * * * * * * * * * * * * * * * * * * * * * * * * * * * * * * * * * * * * * //

dimensions      [0 0 0 0 0 0 0];

internalField   nonuniform List<scalar> 
404911
(
0.346868
0.832764
0.0290431
0.0243057
0.940622
0.885079
0.583335
0.0597385
0.0780529
0.0753731
0.433593
0.276493
0.974247
0.44855
0.249097
0.0649814
0.472715
0.96409
1.14154
0.434224
0.419289
0.981913
0.419562
0.418898
0.94894
0.186384
0.434789
1.02285
1.0129
0.11123
0.457091
1.01173
0.934552
0.478436
0.434714
0.941868
0.774353
0.244306
0.402665
0.91831
0.545814
0.113955
0.350771
0.847823
1.06128
0.256861
0.249779
0.79115
0.97519
0.30711
0.175914
0.30749
0.536444
0.121452
0.207603
0.16548
0.0121319
1.16592
0.223244
0.330168
1.31485
1.49077
0.330487
2.21828
1.087
0.452801
2.29347
0.327453
1.01513
2.33524
1.05478
2.78999
1.06188
1.70636
2.00548
0.159768
0.060211
0.316511
1.36709
0.953153
1.50061
0.732702
2.39687
1.10406
1.58866
1.31777
0.358963
1.44959
0.106339
1.20644
0.60018
0.0553763
1.82537
1.15639
0.93836
1.74585
1.1135
1.31378
2.34612
0.328964
0.175393
1.83661
1.68404
0.191265
0.168457
0.300307
0.488476
0.282808
0.433914
0.516699
0.570024
0.528588
0.570044
0.539866
0.107727
0.309303
0.582805
0.0772884
0.250363
0.62175
0.590153
0.628933
0.635465
0.4237
0.187844
0.432135
0.559753
0.588774
0.634547
0.275519
0.29532
0.276637
0.700902
0.668754
0.639641
0.663859
0.527379
0.518967
0.579521
0.385994
0.204081
0.457173
0.620594
0.636631
0.584099
0.590486
0.549611
0.57055
0.271632
0.317455
0.671988
0.704321
0.647684
0.1547
0.398296
0.22725
0.534462
0.702059
0.695518
0.626061
0.541169
0.526487
0.53257
0.540192
0.59523
0.623345
0.603392
0.583441
0.603152
0.443627
0.377744
0.29633
0.316529
0.273554
0.268381
0.241344
0.258366
0.551874
0.552439
0.617104
0.63514
0.64022
0.618491
0.595405
0.583308
0.570804
0.470846
0.262231
0.29919
0.270258
0.248612
0.434424
0.269995
0.241566
0.271524
0.616847
0.636245
0.652324
0.633778
0.619999
0.610741
0.554912
0.192723
0.227035
0.534441
0.297546
0.468483
0.354774
0.341567
0.375196
0.251949
0.278131
0.2615
0.239239
0.277422
0.652007
0.641606
0.629054
0.63266
0.577767
0.323812
0.244498
0.302053
0.431776
0.759861
0.975489
0.569102
0.363983
0.33003
0.457385
0.3719
0.447071
0.62857
0.65965
0.6142
0.622607
0.575253
0.440235
0.191665
0.199288
0.471899
0.86445
0.827805
1.00664
1.06164
1.01062
0.877453
0.503166
0.495394
0.34411
0.832783
0.830917
0.357564
0.2517
0.657795
0.545613
0.193082
0.340205
0.674374
0.903912
0.72144
1.06338
1.02419
1.18078
1.00171
1.00854
0.859916
1.00907
0.960235
0.44812
0.280856
0.292695
0.280021
0.343945
0.322519
0.554121
0.685256
0.58288
1.00927
1.07899
0.983561
1.07844
1.03291
0.936427
1.02431
1.06933
0.622353
0.301236
0.289983
0.307364
0.15631
0.404103
0.66483
0.672672
1.26592
1.24279
1.1232
0.973319
0.987256
1.07848
1.07792
1.03451
1.14569
1.09602
0.561342
0.30298
0.301007
0.539655
0.215308
0.201241
0.226453
0.41395
0.896672
1.85177
2.0054
1.00754
0.987833
1.01036
1.05005
1.09898
1.20048
1.13367
1.06609
0.875334
0.337586
0.640309
0.295542
0.193416
0.47703
0.727299
0.583831
1.16388
1.16374
1.10943
2.00463
0.999248
1.04917
1.10836
1.76846
1.72717
1.10318
1.00034
0.993529
0.466222
0.514472
0.329775
0.703008
1.05868
1.6148
2.06447
1.30327
1.28615
1.17316
1.90391
1.73927
2.10685
2.11461
1.44384
1.21374
1.03456
0.952248
0.612422
0.210319
0.193272
0.469586
0.717935
1.14071
1.98574
2.44602
1.65131
1.33744
1.59501
1.80528
2.42204
1.65637
1.50794
1.35379
0.736791
0.740112
0.425151
0.216249
0.413525
0.755856
0.775677
1.34261
1.48171
1.64841
1.09341
1.64532
1.96177
2.10748
2.12645
1.78043
1.67354
1.16618
1.12791
0.787588
0.450589
0.257673
0.191202
0.22807
0.462059
1.13679
1.46407
1.65704
1.36112
1.43536
1.50102
1.68982
2.12112
2.20941
2.30924
1.88705
1.13175
0.845919
0.807877
0.362863
0.333386
0.646968
0.611434
1.36621
1.71305
1.80263
1.62787
1.41718
1.59447
1.1652
1.4153
2.28912
2.19799
2.08231
1.43376
0.737815
0.461888
0.206796
0.61036
0.868271
1.23709
2.13537
1.7651
1.54213
1.72833
1.26422
1.20603
1.19559
1.43693
1.61758
1.93931
1.94525
1.0424
0.696985
0.41361
0.333926
0.787224
1.24322
1.54317
2.31745
2.24316
1.51901
1.85694
1.52848
1.49844
1.23136
1.37568
1.82292
1.20132
1.75831
0.969813
0.66391
0.20233
0.488675
0.920401
1.68955
2.52735
2.54339
2.25326
1.88839
1.15471
2.12808
2.15256
1.7651
1.76363
1.4493
1.23596
0.99725
0.696065
0.469423
0.196385
0.319538
0.653499
1.13656
2.11414
2.60195
2.39438
1.83326
1.70281
2.05229
2.09093
2.08856
2.25584
2.29605
2.29603
1.11731
0.929767
0.661695
0.223395
0.185277
0.509928
0.902519
1.33079
2.18419
2.62718
2.26096
2.11727
2.04922
1.66281
2.16639
1.74739
1.83359
2.05091
2.0145
1.44924
0.725871
0.445758
0.32355
0.716371
1.16025
2.12833
2.48527
2.4621
2.33416
2.37862
1.83636
2.12485
2.15511
2.20454
1.58675
2.17755
1.52165
0.973205
0.631159
0.210049
0.180305
0.499947
0.877704
1.61109
2.43082
2.49537
2.3671
2.35676
2.21988
2.21483
1.65947
1.74352
1.70426
2.17582
2.28532
1.83513
0.625181
0.443608
0.202655
0.675348
1.10901
2.17683
2.54209
2.38978
2.42874
2.40325
2.33775
2.21011
2.17213
2.27806
2.36762
2.39391
2.30882
0.978629
0.572819
0.402646
0.42799
0.737741
1.41213
2.13805
2.37691
2.40559
2.3388
2.41087
2.4953
2.45366
2.43717
2.42344
2.44315
2.39539
1.69318
1.02584
0.665882
0.305655
0.470815
0.716549
1.53793
2.16275
2.2687
2.44533
2.44647
2.22589
2.19737
2.46682
2.54629
2.56934
2.56231
2.21385
1.40046
0.82979
0.479397
0.188969
0.186656
0.625251
1.18707
1.74065
1.74288
2.42164
2.34094
2.49717
1.75169
1.77107
2.17798
2.47228
2.46229
2.41821
2.21539
1.1386
0.6725
0.325021
0.208985
0.686078
1.1356
2.16979
2.41601
2.32787
2.42601
2.29768
2.21598
1.8784
2.07913
2.37806
2.26256
2.36366
2.07845
1.08643
0.639798
0.191064
0.426388
0.765047
1.11912
2.14778
2.3966
2.26406
2.18584
2.31905
2.23239
2.23558
2.3501
2.55759
2.42266
2.42995
1.58404
0.900538
0.618858
0.182895
0.44383
0.866214
1.56314
2.21343
2.52263
2.16991
1.79064
2.02002
2.20395
2.32667
2.34769
2.34189
2.33505
2.34198
1.55845
0.821169
0.434853
0.190781
0.566796
0.878277
1.62469
2.357
2.28063
2.19608
1.81733
1.82705
2.10469
2.19787
2.43666
2.40295
2.29582
2.22747
1.19035
0.710291
0.320165
0.319596
0.715684
1.09287
1.64588
2.3886
2.46568
2.3794
2.08841
1.68054
1.7394
2.37504
2.22488
2.22742
2.24969
2.13592
1.1292
0.648305
0.192648
0.416889
0.836862
1.61305
2.28594
2.46906
2.5991
1.84187
1.76415
1.67387
2.04448
1.74961
2.14957
2.17239
2.20226
2.05853
1.02885
0.50441
0.178361
0.184628
0.596932
0.891894
1.6195
2.27585
2.46735
2.36318
1.88108
1.96768
1.67965
1.70549
2.2334
2.06352
1.81131
2.51329
1.58797
0.850409
0.44785
0.18454
0.635631
1.09379
2.0608
2.41715
2.341
2.32213
2.19703
1.87917
1.70854
1.74607
1.89301
2.15458
2.15419
2.30366
1.59709
0.754869
0.322277
0.185528
0.64594
1.10877
2.19202
2.44533
2.2979
2.33279
2.26801
2.13134
2.05812
2.43817
2.03988
2.03769
2.18679
1.99574
1.13056
0.693583
0.202147
0.187224
0.647634
1.11784
2.2117
2.53559
2.27197
2.25596
2.30912
2.26367
2.05315
2.11463
2.41746
1.87435
1.7215
2.32326
1.0408
0.494025
0.179472
0.423701
0.730536
1.11884
2.22534
2.51153
2.41552
2.34741
2.29572
2.36456
2.4126
2.42762
2.43663
2.11203
1.70356
2.27515
1.13761
0.433178
0.174025
0.458425
0.84927
1.56154
2.26566
2.44236
2.37867
2.40547
2.33344
2.21349
2.32252
2.50294
2.16333
1.90553
2.26498
2.14587
1.10528
0.458913
0.180149
0.632356
1.01694
1.57711
2.29772
2.36136
2.37456
2.25265
2.19404
2.21696
2.14516
2.26911
2.1801
1.81145
1.80921
1.7095
0.954671
0.445202
0.191075
0.652065
1.08022
2.05393
2.34922
2.25015
2.34188
2.50951
1.96018
1.94699
2.10669
2.31428
2.2754
2.16534
2.32005
1.62853
0.811726
0.434718
0.185244
0.6518
1.08948
2.13214
2.44235
2.24228
2.27729
2.29384
2.28564
1.83744
1.9955
2.36527
2.28843
2.37156
2.37688
1.53135
0.79069
0.406689
0.187275
0.645596
1.08425
2.15817
2.5715
2.24903
2.37353
2.35779
2.21481
2.14998
2.26136
2.59741
2.42724
2.4211
2.23132
1.3331
0.73801
0.315382
0.201046
0.675735
1.08489
2.14534
2.62797
2.32376
2.36299
2.30121
2.31276
2.23554
2.29194
2.44744
2.40259
2.35969
2.18188
1.12118
0.646458
0.193517
0.416727
0.692552
1.09228
2.10483
2.44277
2.355
2.38313
2.35803
2.26269
2.26656
2.32877
2.46551
2.4314
2.41068
2.20942
1.12066
0.637004
0.184717
0.397091
0.696482
1.16508
2.4081
2.38559
2.1926
2.39117
2.4331
2.56185
2.48727
2.42606
2.25261
2.33176
2.44346
2.1735
1.12911
0.649904
0.187513
0.176046
0.541232
0.711138
1.10753
2.27029
2.04346
1.82214
2.49349
2.48219
2.43648
2.1517
2.23105
2.21624
2.2915
2.43185
2.15555
1.09855
0.61268
0.188949
0.184559
0.641297
0.89694
1.25216
2.13162
2.45875
1.91283
2.1145
2.27615
2.24898
2.30484
2.40248
2.27802
2.06945
2.32323
2.0421
1.02102
0.476678
0.63923
1.08106
2.01662
2.47107
2.31702
2.22099
2.26555
2.66502
2.27333
2.14421
2.41158
2.55057
2.33664
2.51138
1.62557
0.883989
0.469057
0.188677
0.610619
1.10718
2.12138
2.63608
2.35321
2.281
2.21528
2.26984
2.2777
2.31461
2.41979
2.19907
2.35751
2.35874
1.56025
0.822209
0.408556
0.180468
0.628825
1.11942
2.18398
2.59999
2.38728
2.38694
2.28388
2.11425
2.26318
2.30574
2.35419
2.16642
2.4183
2.46483
1.52055
0.757586
0.318361
0.166641
0.609258
1.09196
2.12444
2.43386
2.34315
2.46798
2.50508
2.46673
2.37797
2.34071
2.2818
2.08175
2.4208
2.37648
1.31342
0.710168
0.196572
0.637617
0.927509
1.98673
2.35579
2.30332
2.35982
2.32292
2.50538
2.19324
2.05576
2.29563
2.23821
2.39709
2.22869
1.13347
0.63403
0.190626
0.182552
0.647741
2.0184
2.31812
2.39469
2.31826
2.30205
2.19021
2.49043
2.18573
2.26669
2.1295
2.42878
2.15448
1.05582
0.610576
0.174793
0.116221
0.416625
1.24925
1.69091
2.25555
2.43973
2.37811
2.32918
2.19819
2.15925
2.37375
2.12582
2.27056
2.3434
1.59768
0.860473
0.579829
0.175195
0.395924
1.14442
1.50336
1.80881
2.37489
2.31319
2.40923
2.3937
2.48944
2.2155
2.14934
2.19772
2.32087
2.4868
1.53124
0.816813
0.423164
0.422512
0.799969
1.52427
2.1451
2.39904
2.37514
2.1515
2.19914
2.33512
2.11772
2.27655
1.84226
2.07712
2.28506
1.52142
0.78059
0.406002
0.170884
0.467961
0.956229
1.69512
1.96563
1.80039
1.77967
1.80033
2.24154
2.25343
2.43606
2.46264
2.25532
2.42497
2.08648
1.09279
0.682371
0.205813
0.189811
0.552323
1.03553
2.14358
1.8265
1.72302
1.80318
1.82819
2.02539
2.4997
2.22871
2.08008
2.18062
1.97942
1.9337
1.05777
0.614721
0.18371
0.216653
0.795429
1.07302
1.81874
1.74233
1.70644
2.11667
3.41585
2.36773
2.20801
2.27893
2.10538
1.75905
1.7128
1.76327
1.02267
0.581242
0.177978
0.310092
0.833152
1.31729
1.63185
1.70836
1.80244
1.91249
2.52715
2.60333
2.31987
2.00549
1.73309
1.70882
1.70059
1.71095
1.31535
0.582509
0.178408
0.192712
0.486714
0.805708
1.66926
1.66638
1.72923
1.8667
3.29587
2.94269
1.97505
1.71835
1.64833
1.68585
1.7282
2.2419
2.06692
1.1948
0.380363
0.193175
0.215288
0.751063
1.20387
2.01863
1.7794
1.72404
2.24449
3.74621
2.74367
1.83244
1.66935
2.11468
2.15378
2.22892
2.35508
2.06685
1.0814
0.553774
0.182791
0.560803
1.64254
2.27828
1.72287
1.7976
2.41462
3.59939
2.82964
2.20682
1.84519
2.40335
2.28803
2.29094
2.38711
1.64749
0.870469
0.476594
0.173792
0.460387
1.36863
1.89045
1.75176
1.83621
3.18479
3.62666
2.25749
2.28433
1.9254
2.03745
2.2448
2.40133
2.34706
1.59736
0.826904
0.421523
0.489159
1.31217
1.95996
1.69711
1.89429
2.60709
4.16545
2.73218
1.90837
2.17819
1.8604
2.42337
2.28383
2.39912
1.50316
0.767166
0.317464
0.535305
1.21454
1.93516
1.66984
1.77366
3.51156
3.39953
2.58693
2.61792
2.18731
2.01531
2.33927
2.35434
2.24079
1.33494
0.733199
0.203504
0.219637
0.755717
1.53872
1.9591
1.66086
1.85805
2.42742
3.10003
2.33021
2.22272
1.88163
1.73095
1.88016
2.2357
2.04739
1.04299
0.627794
0.194665
0.214506
0.707694
1.52879
1.8345
1.66402
1.91003
3.19585
2.93779
2.28583
2.07186
1.75556
1.76323
1.73218
2.49536
1.67786
0.880663
0.467544
0.21427
0.794167
1.7534
1.99208
1.68192
1.80879
2.5161
3.25723
2.68893
2.18843
1.60156
1.69185
2.19277
2.48603
1.73803
0.864216
0.414441
0.209512
0.803396
1.71216
2.04139
1.63939
1.98834
3.46668
2.40837
1.69636
1.63839
1.74317
1.71479
2.58369
2.43165
1.60948
0.807297
0.414718
0.208467
0.766856
1.7356
2.36536
1.6879
1.85666
3.20285
2.3961
1.93766
1.85023
1.81213
1.75147
2.45565
2.39908
1.45927
0.769354
0.211111
0.217496
0.746245
1.65744
1.98483
1.69904
1.69849
1.81592
2.8476
2.48976
1.71345
1.65474
1.75392
2.47077
2.32968
1.21419
0.68934
0.207687
0.484312
0.786475
0.882778
1.84008
1.68081
2.0586
2.10695
1.96328
1.70605
1.77212
1.74234
2.22912
2.43769
2.22772
1.15923
0.668206
0.198582
0.3997
0.80156
1.5261
1.6231
1.92928
3.78348
2.77378
1.92799
1.79258
1.73922
2.27651
2.40598
1.78008
1.02362
0.530594
0.184973
0.403123
1.16966
1.1941
1.56479
3.20254
3.58186
2.97052
1.78577
1.63886
1.65386
1.71044
2.2035
1.64214
0.840451
0.44086
0.494963
0.492017
1.1609
1.15404
1.53464
3.23113
3.34425
2.24851
2.02626
1.59984
1.66724
2.15606
2.12314
1.47076
0.789695
0.399624
0.484738
0.914219
1.51227
1.09515
1.24674
2.00886
3.64103
2.94497
1.85202
1.5895
1.73559
1.73532
1.78957
0.927084
0.673719
0.207188
0.47772
0.934165
0.951843
1.23837
1.10093
1.31739
2.05337
1.77119
1.66128
1.62811
1.70845
1.66629
1.36816
1.01458
0.597119
0.187168
0.217849
0.504584
0.736754
1.41101
1.26436
1.15813
1.08774
1.27291
1.93931
1.167
1.28827
1.50089
1.70832
1.12469
0.825777
0.292652
0.215182
0.668032
0.955702
1.44683
2.30972
1.2973
1.1013
1.20151
2.26551
1.52404
1.688
1.32092
1.14675
1.12891
0.494324
0.510391
0.234531
0.667918
0.773975
1.24897
2.35817
1.64262
1.41437
1.35933
1.43744
1.56708
1.16035
1.1456
1.32425
1.10595
0.46529
0.223364
0.501995
0.890056
0.565978
0.977892
1.59067
2.54818
1.69689
1.64016
1.63438
1.72491
1.79057
1.98024
1.29979
0.968036
0.40823
0.0843656
0.485411
0.32797
0.589685
1.14721
1.20379
1.83469
1.68966
1.18054
1.17108
1.35396
1.67041
1.2643
1.01232
0.610971
0.467694
0.251432
0.215515
0.299472
0.368627
1.07108
1.6544
1.27689
1.87346
1.61478
1.46139
1.30513
1.0456
0.878191
0.485376
0.606526
0.430249
0.194969
0.669103
0.337996
0.70134
1.29172
1.40781
1.71587
1.61355
1.028
1.0722
1.21751
1.10878
0.801104
0.603266
0.569842
0.182614
0.188236
0.556725
0.717998
0.400764
0.68998
0.999533
1.71759
1.67986
1.16668
1.09026
1.08362
1.05641
1.12889
0.818101
0.453946
0.200566
0.279081
0.576361
0.718739
0.273977
0.261945
0.897422
1.68168
1.33579
1.08593
1.08237
0.984949
0.799828
0.800372
0.777689
0.461838
0.17952
0.308234
0.265549
0.256605
0.528698
1.21549
1.10721
1.0701
0.934643
1.0581
0.778122
0.709203
0.58403
0.210681
0.217815
0.305996
0.311353
0.251316
0.557851
0.297407
1.00065
1.05345
0.950468
0.812411
0.792571
0.692618
0.43583
0.19114
0.634943
0.728186
0.294311
0.324701
0.900117
0.292969
0.335521
0.927684
0.833782
0.744202
0.677303
0.587105
0.32893
0.192011
0.592248
0.705512
0.286747
0.25924
0.317953
0.874487
0.593404
0.423899
0.328958
0.383061
0.652465
0.573914
0.189991
0.201251
0.596244
0.317515
0.257549
0.247369
0.271137
0.732616
0.358022
0.863215
0.318445
0.282293
0.755419
0.572596
0.188203
0.190143
0.587216
0.30613
0.273629
0.250043
0.235971
0.660072
0.798735
0.957439
0.580789
0.281009
0.744921
0.468361
0.191304
0.189414
0.529988
0.604308
0.283079
0.245134
0.251044
0.29122
0.983817
0.919351
0.262302
0.657518
0.613259
0.458046
0.178435
0.157204
0.184031
0.583134
0.58676
0.263309
0.233498
0.198726
0.317031
0.692056
0.282917
0.274525
0.645403
0.411854
0.576851
0.235371
0.244348
0.225514
0.642519
0.267263
0.300437
0.333263
0.350118
0.567358
0.584993
0.277488
0.247666
0.723773
0.644829
0.541743
0.216342
0.0447425
0.206378
0.681246
0.304595
0.319235
0.62632
0.39763
0.0758349
0.0922419
0.293981
0.243615
0.665678
0.594655
0.198738
0.284126
0.232479
0.668636
0.648508
0.334288
0.203857
0.262318
0.481426
0.606532
0.586006
0.210788
0.17765
0.393787
0.124209
0.224228
0.346812
0.412204
0.594285
0.579868
0.488577
0.491059
0.314582
0.469654
0.550114
0.368855
0.25051
0.17325
0.181166
0.0467762
0.301081
0.214067
0.376476
0.37785
0.233304
0.392965
0.524244
0.651612
0.660974
0.692188
0.777961
0.74359
0.558244
0.234047
0.390758
0.549504
0.697436
0.729039
0.768746
0.78006
0.747945
0.68172
0.727126
0.784398
0.792248
0.769827
0.785405
0.800813
0.249415
0.414482
0.676369
0.738974
0.789373
0.786945
0.787793
0.788843
0.760658
0.709495
0.653574
0.797611
0.834709
0.817407
0.775769
0.767467
0.789185
0.821534
0.765972
0.633025
0.567502
0.324305
0.286303
0.425719
0.693819
0.768651
0.78664
0.811465
0.808745
0.801615
0.791812
0.785624
0.77279
0.751227
0.733827
0.830379
0.38513
0.37963
0.784615
0.71885
0.748544
0.74757
0.785585
0.723416
0.39355
0.373103
0.547372
0.681441
0.785198
0.841309
0.853034
0.816161
0.777984
0.763602
0.774954
0.798665
0.807618
0.782854
0.771659
0.748
0.744564
0.838127
0.377367
0.372354
0.81332
0.682076
0.6065
0.693644
0.671328
0.247901
0.432233
0.804497
0.986646
0.991387
0.792023
0.822405
0.679495
0.660749
0.573993
0.792049
0.674659
0.693707
0.815933
0.859979
0.789407
0.718265
0.710831
0.737034
0.816724
0.374516
0.369341
0.824886
0.691738
0.643356
0.370423
0.180591
0.409638
1.34111
1.5562
2.36207
2.52658
2.67134
2.00924
1.46672
1.53376
1.37618
0.923005
0.68221
0.741753
0.512769
1.1673
0.678725
0.754364
0.700297
0.682699
0.735757
0.366668
0.373501
0.718575
0.376088
0.190474
0.530566
1.14084
1.66592
2.64133
2.91273
2.94616
2.18816
2.54204
2.23041
1.39692
1.3402
1.47758
1.45854
1.27545
1.00491
0.642453
1.48619
0.863614
0.735925
0.683679
0.684725
0.742951
0.719497
0.413779
0.415335
0.196714
0.478515
1.34925
1.80343
2.02188
2.76051
2.83013
2.61287
2.51096
1.88485
2.418
2.60949
1.21757
1.5214
1.53482
1.46322
2.29467
1.50981
1.10113
0.864322
0.918909
0.758184
0.712358
0.536217
0.375313
0.222248
0.42044
0.803279
1.16834
1.24981
2.35327
2.09562
2.37648
2.70362
2.82686
2.37643
2.09686
2.29731
2.49975
2.73752
2.7363
2.70393
2.68832
2.31436
1.70225
0.782809
0.896023
0.882147
0.843314
0.719626
0.397981
0.253904
0.60081
0.975581
1.33623
1.87166
2.59197
2.01759
2.34757
1.98475
1.9653
1.86501
1.94204
1.79018
1.78735
1.75779
2.40595
2.56325
2.69862
2.80108
2.6234
1.5506
0.894773
0.363686
0.378718
0.320052
0.109789
0.238415
0.149318
0.446505
1.65206
2.81932
2.83705
2.86118
2.17001
2.01075
1.84978
1.79193
1.71609
1.78216
1.69167
1.74099
1.84427
1.87415
2.47911
2.64313
2.66828
2.39663
1.57289
0.996242
0.343166
0.185039
0.18815
0.491397
1.66505
2.85676
2.83144
2.48911
2.29198
2.42374
2.36317
2.24624
2.02625
1.96002
1.74883
2.02045
2.07115
1.6924
1.76222
1.86596
2.46697
2.11056
1.43085
0.989705
0.723146
0.400949
0.383982
0.748537
0.542279
1.45968
2.06034
2.79257
2.77833
2.47759
2.40213
2.40901
2.4238
2.41979
2.35546
2.77261
2.22631
2.4437
2.50506
1.98661
1.99968
1.74537
1.67684
1.27917
0.931853
0.713459
0.38714
0.392081
0.755299
1.20342
1.82534
2.82342
2.77395
2.67648
2.26351
2.77426
2.3656
2.37072
2.42155
2.48526
2.85697
2.87565
2.54123
2.39359
2.11682
1.99082
1.86769
1.84775
1.76874
1.09189
0.751002
0.381761
0.418243
0.856253
1.35406
1.87779
2.86068
2.94076
2.82205
2.99595
3.23081
3.22871
3.0337
2.55741
2.55885
2.30683
3.04378
2.99832
2.52823
2.32257
1.89637
1.88883
1.77197
1.6989
1.25649
0.781361
0.25681
0.21333
0.428053
0.878369
1.48638
2.80655
2.97461
2.93503
3.39114
3.4911
3.65598
3.49754
3.46734
3.3778
3.21384
2.57959
2.43568
2.57657
2.5514
2.37341
2.27092
2.45397
2.06664
1.89012
1.73251
0.884202
0.360112
0.222965
0.440727
0.934275
1.5866
2.93294
3.63248
3.71943
3.8061
3.22293
3.22391
3.45763
3.4527
3.59614
3.6081
3.54731
3.23313
3.2162
2.96776
2.85026
2.41081
2.69982
2.66612
2.07749
1.78674
0.807433
0.351978
0.234268
0.597805
0.976467
1.61741
3.08888
3.86477
3.93496
3.95874
3.69931
3.65103
3.49254
3.48289
3.50213
3.44288
3.73205
3.57562
3.50918
3.41941
3.32767
3.49479
2.60508
2.74644
2.56106
1.64448
1.35834
0.414826
0.171562
0.217833
0.57274
0.993172
1.87494
3.38944
3.70626
3.89093
3.93597
3.76938
3.57942
3.55574
3.51471
3.45275
3.50421
3.60638
3.58503
3.6855
3.55974
3.18461
2.64041
3.05111
2.80502
2.65819
1.74434
1.06782
0.698972
0.176491
0.426185
0.948347
1.54337
2.89359
3.59565
3.76224
3.71886
3.67465
3.58664
3.64785
3.53316
3.48984
3.53299
3.57055
3.62657
3.63118
3.6553
3.48416
3.21385
2.65832
2.48269
2.28496
1.90038
1.08522
0.748248
0.393189
0.386073
0.790341
1.3307
2.84871
3.47302
3.45738
3.60629
3.70549
3.68428
3.57759
3.72811
3.54481
3.45387
3.50154
3.62157
3.65574
3.68528
3.58037
3.47329
3.47968
3.29716
2.64524
2.58017
1.52081
0.774849
0.391319
0.236441
0.626417
1.26033
2.10055
3.25176
3.34903
3.49831
3.68195
3.67061
3.56433
3.63308
3.50047
3.43205
3.67476
3.58151
3.6375
3.69249
3.61578
3.51419
3.58266
3.62601
3.4131
2.9356
1.56311
0.86217
0.422981
0.424867
0.945135
1.94184
3.57172
3.70289
3.64533
3.93593
3.8035
3.73085
3.65946
3.5608
3.59757
3.49083
3.6356
3.72543
3.70115
3.65239
3.56911
3.65171
3.63116
3.53011
3.3311
1.98963
1.06534
0.525465
0.378727
0.841195
1.51295
2.96926
3.70722
3.69667
3.89437
4.00771
3.94169
3.75228
3.68707
3.72106
3.86955
3.64338
3.61841
3.89006
3.66087
3.57107
3.56412
3.56983
3.64145
3.37869
2.92175
1.49615
0.790467
0.253662
0.237556
0.634773
1.24869
2.11946
3.6485
4.03113
3.97483
4.12213
4.10988
4.09455
4.00805
3.97365
3.91745
3.68141
3.75741
3.92374
3.83228
3.58719
3.6036
3.57761
3.64546
3.38215
3.07426
1.61018
0.886153
0.396725
0.236153
0.599585
1.1631
1.97619
3.41288
3.70404
3.86809
4.10072
4.28187
4.06308
4.21415
4.21471
4.09236
4.05422
3.87251
4.04188
3.8682
3.68148
3.74464
3.7063
3.45428
3.57388
3.23987
1.84055
1.06379
0.562387
0.216392
0.397562
1.09444
1.95893
3.34633
3.60942
3.83001
3.80299
4.29036
4.27945
4.14051
3.97125
4.20792
3.98441
3.94431
4.2072
4.10243
3.73327
3.63168
3.64029
3.49263
3.2523
3.14755
1.98452
1.13538
0.612664
0.238594
0.255517
0.688623
1.44269
2.96088
3.4768
3.84073
3.8086
4.02503
4.38176
4.21738
4.07546
4.21516
4.19351
4.28919
4.22334
4.24034
4.01347
3.76722
3.66102
3.61963
3.31902
3.23788
2.07383
1.17984
0.650344
0.249023
0.562419
1.19415
2.85584
3.37227
3.54596
3.81461
4.0161
4.57453
4.61184
4.18715
4.12546
4.20227
4.35956
4.35866
4.35667
4.16103
4.07996
3.85194
3.76886
3.49025
3.18088
3.07888
1.58082
0.685544
0.25441
0.263328
0.842759
1.85945
3.45928
3.69278
3.94527
4.29069
4.11787
4.34976
4.31106
4.65579
4.2429
4.3391
4.40117
4.40204
4.53685
4.09024
4.00986
4.07585
3.76758
3.53597
3.21466
1.93136
1.0614
0.434484
0.549244
1.24029
3.026
3.84192
4.01155
4.28993
4.64235
4.70753
4.43201
4.45111
4.46654
4.58473
4.31792
4.63764
4.71085
4.5204
4.25289
4.08988
3.95035
3.5387
3.3015
2.20231
1.15559
0.622701
0.244297
0.231953
0.682044
1.83226
3.56868
3.98302
4.03311
4.39526
4.67699
4.76898
4.43702
4.49626
4.57861
4.73275
4.78046
4.63473
4.56765
4.17403
3.97408
3.9582
3.65027
3.35917
3.00006
1.65378
0.864514
0.256331
0.436812
1.10237
2.14555
3.68961
3.97166
4.03868
4.47731
4.61191
4.47672
4.39205
4.72536
4.72032
4.79286
4.76517
4.68833
4.39689
4.19571
4.20722
3.89191
3.74236
3.18245
2.02756
1.13176
0.568443
0.211819
0.254531
0.834794
1.81158
3.37544
3.57134
3.91098
4.18485
4.70472
4.62617
4.32372
4.68566
4.66608
4.82442
4.83721
4.84936
4.85834
4.49703
4.23526
4.18264
3.72679
3.42399
3.04245
1.29083
0.626404
0.246783
0.601997
1.36025
2.91996
3.57142
3.89407
4.24358
4.33282
4.61565
4.95984
4.72069
4.51357
4.6082
4.23201
4.59522
4.85962
4.75542
4.63464
4.4318
3.91333
3.773
3.229
1.91168
0.929437
0.397511
0.256639
0.816871
1.83644
3.50986
4.06081
4.09552
4.38921
4.75407
4.68489
4.63143
4.61128
4.40751
4.30717
4.24104
4.43198
4.55507
4.45791
4.5682
4.31327
3.90381
3.63236
3.01833
1.2698
0.611156
0.229446
0.529269
1.18963
2.95883
3.60753
4.02486
4.41781
4.616
4.80969
4.79397
4.61997
4.88277
4.62738
4.50655
4.33461
4.38038
4.44991
4.33833
4.33794
4.0485
3.77132
3.22859
2.0277
1.02714
0.394495
0.252054
0.815193
1.75902
3.21497
3.834
4.17655
4.65027
4.88481
4.90127
4.80093
4.67789
4.48549
4.86156
4.82744
4.82828
4.60556
4.28201
4.32898
4.26465
3.85607
3.71122
3.22771
1.60322
0.758522
0.228871
0.520837
1.15288
2.87468
3.55777
4.06813
4.22484
4.66701
4.92261
4.93134
4.77192
4.76831
4.65588
4.74234
4.99287
4.8932
4.75181
4.65203
4.43052
4.04364
3.8237
3.31415
2.06899
1.10246
0.51874
0.245658
0.799521
1.74157
3.31253
3.66816
4.04167
4.46426
4.74299
4.90939
4.99929
4.85815
4.78365
4.79312
4.82411
4.86354
4.56025
4.63261
4.62045
4.37688
3.76188
3.65919
3.18028
1.66697
0.825205
0.236679
0.494308
1.16748
2.85479
3.60132
3.88828
4.25784
4.7413
4.82569
4.92347
4.87284
4.81097
4.84097
4.83276
4.87607
4.91295
4.60202
4.62555
4.47824
4.18205
3.80889
3.23351
2.90429
1.17355
0.546302
0.589794
1.40274
3.07421
3.80448
3.98872
4.44987
4.89873
4.92347
4.9232
4.87931
4.81053
4.80729
4.75926
4.91867
4.69542
4.66519
4.56501
4.12189
3.77035
3.78384
3.13585
1.7771
0.875618
0.263496
0.242869
0.82538
1.86964
3.45685
3.84931
4.15811
4.83432
4.94742
4.97808
4.94115
4.81315
4.81426
4.86122
4.91324
4.92403
4.90213
4.78047
4.70626
4.09972
3.65317
3.7217
3.04513
1.19277
0.576488
0.214822
0.25311
1.07641
2.86478
3.77882
4.0148
4.39397
4.83279
4.95334
5.03123
4.93561
4.88329
4.87881
4.88459
5.00132
5.01784
4.94414
4.77408
4.61439
4.18735
3.721
3.30427
2.89188
1.05563
0.265692
0.378686
1.15462
2.95167
3.85918
4.08622
4.55763
4.67377
4.92866
5.0218
4.94693
4.9086
4.90394
5.00683
5.07608
5.02711
4.87516
4.68684
4.43773
3.88916
3.67634
3.12408
1.73186
0.672208
0.2395
0.585243
1.39617
3.2341
4.09087
4.29854
4.75936
4.65467
4.86951
4.94318
4.97188
4.86124
4.88943
5.05461
5.12037
4.95016
4.79551
4.73545
4.24136
3.69924
3.3815
2.99408
1.14609
0.524083
0.249868
0.963472
1.91461
3.50705
3.93031
4.3219
4.85238
4.87456
4.92101
4.98145
4.92397
4.89357
5.05951
5.09119
5.19483
4.96641
4.80719
4.63839
4.15784
3.64905
3.16634
1.79149
0.856108
0.247977
0.370562
1.09747
2.92506
3.86922
4.16348
4.31617
4.72281
4.8805
4.91241
4.93335
4.88587
4.88638
4.99811
5.12371
5.12758
4.96447
4.88049
4.60112
4.03612
3.72059
3.20674
1.68908
0.636997
0.20949
0.591209
1.3516
2.9429
3.86622
4.09272
4.56866
4.70163
4.97006
4.92625
4.76291
4.74234
4.86533
4.88789
5.03049
4.99966
4.86902
4.81852
4.42205
3.82998
3.58235
3.00549
1.25195
0.53522
0.233813
0.788364
1.76052
3.36177
3.83556
4.07503
4.62215
4.80384
4.9489
4.92285
4.93244
4.93336
4.86453
5.02666
5.05598
4.98061
4.81465
4.76738
4.24299
3.71655
3.30446
2.845
1.06128
0.376035
0.363818
1.07053
2.83418
3.63938
3.93588
4.22956
4.60365
4.78468
4.98861
4.98075
4.88915
4.88357
4.89378
5.06771
5.12637
4.83811
4.78093
4.77046
4.11275
3.59262
3.14561
1.79687
0.839608
0.241813
0.476649
1.2283
2.91957
3.81768
3.99237
4.45497
4.72506
4.90884
5.00955
4.94055
4.96706
4.87059
4.85316
4.84459
5.12113
4.88518
4.84112
4.77486
4.08416
3.6524
3.07604
1.66748
0.616591
0.202778
0.561238
1.36707
3.16577
3.97508
4.15874
4.56665
4.66899
4.9144
5.0031
4.94975
4.91762
4.85237
4.88167
5.07556
5.07298
4.89632
4.9592
4.48454
3.91438
3.61436
2.99232
1.40127
0.569541
0.209466
0.760762
1.70365
3.42179
3.89225
4.25624
4.6661
4.83677
4.89621
4.96614
4.94871
5.07523
4.89941
4.88622
5.04588
4.91028
4.85993
4.87491
4.36479
3.74171
3.26618
2.89418
1.07059
0.382991
0.239214
0.817352
1.79963
3.37175
3.84153
4.21147
4.752
4.82136
4.97408
4.98585
4.98424
4.91428
4.85932
5.14003
5.14853
4.95467
4.88917
4.80564
4.20924
3.67537
3.06641
1.69167
0.815967
0.241913
0.250969
1.06798
2.67747
3.51042
3.86188
4.2315
4.74697
4.86771
4.90848
4.9802
4.98412
4.9713
4.92481
5.11894
5.23299
4.91845
4.89066
4.80905
4.09808
3.55195
3.07493
1.53012
0.593327
0.471583
1.15704
2.88207
3.75351
3.93801
4.25878
4.82104
4.86917
4.91451
4.94445
4.9682
5.00031
5.02833
5.11127
5.23021
4.93212
4.87821
4.81201
4.0616
3.58581
2.95512
1.16229
0.49587
0.487009
1.25779
3.14923
3.86039
4.09865
4.46946
4.72538
4.86372
4.98267
4.97865
4.95106
4.87608
5.07465
5.17583
5.0728
4.90977
4.88291
4.77876
4.06052
3.59135
2.92403
1.04237
0.259554
0.556958
1.38584
3.27452
3.95498
4.26009
4.47858
4.63595
4.80799
4.97296
4.98121
4.98596
4.99442
4.8528
5.08923
5.07578
4.92129
4.83312
4.61381
3.95835
3.58534
2.07516
0.999515
0.24728
0.566193
1.70282
3.46526
3.92573
4.22811
4.66472
4.75991
4.85106
4.94747
4.98173
4.99202
4.89578
5.07168
5.09469
5.02115
4.87672
4.84226
4.50999
3.86173
3.48318
2.07941
0.939327
0.225936
0.592892
1.72275
3.5499
3.9577
4.27348
4.73069
4.86347
4.84424
4.95198
4.95576
4.93562
4.9248
5.01895
5.20618
5.0176
4.84962
4.84924
4.46847
3.80609
3.70473
1.91972
0.774129
0.208974
0.216929
0.756804
1.77057
3.49817
3.91678
4.25191
4.73174
4.90312
4.82818
4.97961
5.00244
4.90125
4.90834
5.00787
5.18912
5.00241
4.92779
4.78531
4.25522
3.73538
3.17461
1.88132
0.604422
0.247296
0.986551
1.89792
3.54834
3.98822
4.27215
4.72832
4.96419
4.90192
5.0161
4.97883
4.99194
4.87292
5.01359
5.11685
4.96915
4.89113
4.80339
4.15773
3.65194
3.02291
1.69745
0.575133
0.250006
1.09692
2.92355
3.85617
3.99036
4.27613
4.75431
5.00132
4.99878
5.04827
5.03602
4.94828
5.02647
5.00436
5.08613
4.96313
4.83816
4.77274
4.19256
3.6482
3.07203
1.54025
0.563651
0.367456
1.17731
3.00057
3.98412
3.94294
4.25853
4.69822
5.00306
5.05401
5.10999
5.07779
5.1579
5.13314
5.19005
5.12118
4.88377
4.84913
4.73084
4.15406
3.67805
3.11522
1.18184
0.473421
0.488387
1.27221
3.3097
3.94376
3.98644
4.27178
4.72682
4.98398
4.99839
5.24272
5.23653
5.18481
5.18907
5.30685
5.12236
5.02526
4.88004
4.7683
4.14253
3.69598
3.12341
1.16513
0.253735
0.482833
1.24419
3.25727
3.97414
4.12217
4.34702
4.73082
5.00455
5.06717
5.22977
5.30507
5.32462
5.35885
5.45455
5.21769
5.05884
4.97516
4.66288
4.09952
3.56712
3.04597
1.09717
0.245915
0.542292
1.23692
2.98517
3.97261
4.2634
4.59574
4.85899
4.98105
4.98241
5.115
5.28409
5.33354
5.20566
5.46081
5.27717
5.09073
4.97048
4.50787
3.91937
3.6115
2.98349
1.0198
0.24063
0.598403
1.65076
3.41687
3.91536
4.17683
4.69738
4.94409
4.95144
5.00533
5.02528
5.12553
5.30495