/*--------------------------------*- C++ -*----------------------------------*\
| =========                 |                                                 |
| \\      /  F ield         | OpenFOAM: The Open Source CFD Toolbox           |
|  \\    /   O peration     | Version:  2312                                  |
|   \\  /    A nd           | Website:  www.openfoam.com                      |
|    \\/     M anipulation  |                                                 |
\*---------------------------------------------------------------------------*/
FoamFile
{
    version     2.0;
    format      ascii;
    arch        "LSB;label=64;scalar=64";
    class       volScalarField;
    location    "40";
    object      nut_ML_ND;
}
// * * * * * * * * * * * * * * * * * * * * * * * * * * * * * * * * * * * * * //

dimensions      [0 0 0 0 0 0 0];

internalField   nonuniform List<scalar> 
404911
(
0.558236
0.580125
0.34557
0.330912
0.601916
0.590431
0.577331
0.507052
0.526513
0.526122
0.612168
0.584154
0.594051
0.610363
0.569187
0.522669
0.604724
0.582426
0.591792
0.596541
0.567594
0.594338
0.569117
0.561074
0.581442
0.547862
0.591596
0.581095
0.592137
0.530502
0.596642
0.585984
0.634888
0.580187
0.643521
0.592934
0.637392
0.570108
0.61113
0.581947
0.607286
0.529293
0.58115
0.578009
0.588856
0.585272
0.562704
0.576984
0.604072
0.522682
0.546068
0.551874
0.601128
0.510933
0.555534
0.543098
0.386299
0.583673
0.557402
0.574912
0.57747
0.580016
0.567202
0.581072
0.58024
0.566587
0.584388
0.560108
0.579356
0.582982
0.578579
0.558254
0.579314
0.583539
0.584866
0.544964
0.504976
0.567141
0.581473
0.578252
0.583643
0.576495
0.569361
0.57964
0.58183
0.582162
0.559433
0.584945
0.528831
0.577111
0.572177
0.473467
0.584204
0.579739
0.576251
0.58376
0.580409
0.577958
0.586192
0.56777
0.547009
0.584337
0.582015
0.550581
0.54177
0.578198
0.582355
0.581009
0.629218
0.632231
0.583796
0.578222
0.582884
0.577575
0.519575
0.594111
0.606934
0.495649
0.56771
0.581348
0.582395
0.584903
0.589289
0.579407
0.549554
0.602735
0.588387
0.588547
0.586378
0.565806
0.567919
0.56947
0.592683
0.591737
0.583319
0.577706
0.59683
0.582847
0.579147
0.577727
0.558375
0.606893
0.594696
0.589586
0.578962
0.583737
0.577692
0.574915
0.565751
0.58647
0.586915
0.597915
0.603649
0.529804
0.588302
0.566757
0.613076
0.588064
0.58136
0.579753
0.574767
0.575134
0.576561
0.57763
0.58057
0.578908
0.575973
0.574488
0.57628
0.573868
0.602518
0.589527
0.576165
0.565161
0.564698
0.558532
0.564859
0.579645
0.57965
0.589973
0.586741
0.58209
0.581894
0.582878
0.586086
0.589921
0.598638
0.58417
0.580084
0.566573
0.560038
0.567397
0.563383
0.561194
0.567198
0.578635
0.59428
0.596454
0.591344
0.587799
0.589436
0.594205
0.55154
0.567487
0.612831
0.593085
0.605376
0.574893
0.578605
0.56146
0.562351
0.563906
0.561209
0.558605
0.570693
0.587776
0.596172
0.594574
0.591266
0.592195
0.591204
0.571612
0.598502
0.614162
0.579747
0.577549
0.573792
0.561794
0.566669
0.568391
0.554206
0.570534
0.584817
0.580136
0.592735
0.593571
0.592861
0.6013
0.551487
0.555769
0.603519
0.591866
0.589384
0.578044
0.57905
0.577612
0.576307
0.567828
0.571718
0.569436
0.575603
0.576126
0.582756
0.560071
0.584577
0.595322
0.551652
0.599677
0.591684
0.596093
0.59655
0.578862
0.577032
0.580135
0.57784
0.578925
0.578572
0.578622
0.577261
0.566391
0.569708
0.573269
0.570913
0.612533
0.598252
0.586258
0.578766
0.584602
0.577943
0.579456
0.577769
0.579593
0.577558
0.57646
0.578753
0.578747
0.572355
0.572384
0.572511
0.584732
0.533411
0.614702
0.608165
0.580776
0.582551
0.588483
0.578876
0.578614
0.579306
0.578933
0.578048
0.577778
0.577954
0.578982
0.573654
0.572981
0.572959
0.606822
0.561863
0.554804
0.566836
0.618925
0.585135
0.58263
0.587454
0.578735
0.57833
0.578694
0.579813
0.577668
0.579549
0.578809
0.578778
0.576741
0.5831
0.592339
0.578356
0.551974
0.598031
0.595713
0.594209
0.58207
0.578559
0.580153
0.587767
0.580037
0.578026
0.579103
0.580596
0.581507
0.579033
0.577459
0.578011
0.583002
0.608924
0.598149
0.597623
0.604881
0.593264
0.580528
0.576508
0.576621
0.580722
0.583697
0.581997
0.582577
0.583572
0.581753
0.581515
0.577411
0.575986
0.606491
0.559248
0.552019
0.598996
0.587329
0.586675
0.585668
0.582775
0.581327
0.580261
0.581058
0.583701
0.585096
0.58029
0.581644
0.581421
0.578265
0.579521
0.577943
0.563904
0.617674
0.604947
0.583984
0.578383
0.584869
0.583729
0.578521
0.585652
0.585164
0.585401
0.585429
0.58163
0.582077
0.580063
0.578745
0.604005
0.598614
0.578072
0.550502
0.569709
0.595611
0.57918
0.578349
0.583354
0.582819
0.580541
0.583617
0.586747
0.586635
0.58594
0.585204
0.582414
0.584149
0.589448
0.613253
0.593525
0.597455
0.594483
0.593231
0.581338
0.581253
0.585923
0.5846
0.582379
0.584946
0.58183
0.584384
0.585286
0.583001
0.588893
0.590563
0.578814
0.600289
0.558371
0.605406
0.613764
0.596561
0.582709
0.581135
0.583697
0.585542
0.583061
0.581595
0.580333
0.579584
0.581869
0.582759
0.588225
0.607742
0.594301
0.597577
0.597234
0.617036
0.605615
0.590378
0.584192
0.58568
0.584101
0.585855
0.585414
0.582705
0.579138
0.58128
0.580282
0.579211
0.587246
0.591034
0.59194
0.555492
0.600322
0.61159
0.603839
0.586719
0.584919
0.586693
0.585205
0.580056
0.587054
0.586156
0.58267
0.583319
0.580524
0.578833
0.602069
0.59829
0.60182
0.553969
0.596862
0.610228
0.61549
0.598576
0.586066
0.585364
0.582693
0.585857
0.587716
0.586581
0.583347
0.585698
0.585235
0.58453
0.588745
0.605995
0.592593
0.566938
0.547916
0.607792
0.616781
0.607357
0.592614
0.585028
0.585158
0.586442
0.586575
0.584404
0.586181
0.585505
0.584129
0.584223
0.589169
0.595304
0.588568
0.595599
0.593206
0.61029
0.610992
0.598083
0.587448
0.585321
0.586162
0.585255
0.58542
0.585081
0.58501
0.586815
0.584061
0.582083
0.590801
0.592724
0.59545
0.560177
0.545358
0.598694
0.604957
0.601334
0.590027
0.585475
0.585439
0.58582
0.586141
0.585706
0.584598
0.586036
0.585808
0.586864
0.58199
0.58595
0.578289
0.59401
0.55542
0.598758
0.599858
0.592587
0.585908
0.585013
0.585134
0.58529
0.585333
0.58549
0.58627
0.585415
0.585056
0.584472
0.583092
0.596717
0.585308
0.599087
0.584903
0.585881
0.586914
0.58499
0.585467
0.585491
0.584823
0.58507
0.585467
0.58589
0.585911
0.585671
0.584928
0.585126
0.591965
0.592247
0.601728
0.58486
0.590837
0.60259
0.586276
0.583651
0.585014
0.586011
0.586015
0.585707
0.584436
0.585397
0.586269
0.585582
0.585193
0.589477
0.597573
0.606309
0.60345
0.54963
0.548456
0.604401
0.601279
0.588464
0.584181
0.584819
0.585657
0.585807
0.585319
0.586191
0.583236
0.586839
0.585763
0.585305
0.590635
0.605784
0.604879
0.587546
0.5593
0.612966
0.617529
0.597413
0.584933
0.585704
0.585721
0.585594
0.586393
0.585819
0.585529
0.58326
0.585777
0.585184
0.590008
0.602646
0.599189
0.550607
0.596438
0.617107
0.611148
0.593663
0.583256
0.584286
0.585094
0.585215
0.584255
0.58551
0.586403
0.586191
0.585519
0.584376
0.594405
0.593135
0.593647
0.546467
0.598132
0.615418
0.609895
0.589932
0.585219
0.583652
0.585691
0.585984
0.584502
0.584679
0.584751
0.585585
0.585418
0.58808
0.59394
0.604347
0.595404
0.550457
0.604229
0.613559
0.606065
0.58761
0.584741
0.586265
0.583908
0.585625
0.587474
0.584634
0.585069
0.585088
0.585255
0.590755
0.602515
0.595009
0.580922
0.591039
0.607028
0.605906
0.596368
0.584388
0.585207
0.586369
0.58687
0.583764
0.585963
0.588301
0.584951
0.584927
0.584935
0.58979
0.604742
0.598866
0.551286
0.592106
0.606855
0.603717
0.589187
0.58522
0.586198
0.585714
0.585401
0.586056
0.586932
0.584253
0.582339
0.586548
0.583402
0.588801
0.600166
0.589481
0.544829
0.547534
0.606794
0.607226
0.601171
0.587371
0.585419
0.586151
0.583697
0.586112
0.58606
0.585821
0.586533
0.58471
0.585942
0.584475
0.590068
0.59247
0.588571
0.54759
0.601103
0.612656
0.597202
0.586854
0.5856
0.587649
0.586407
0.582925
0.585927
0.586076
0.585646
0.586971
0.586162
0.584158
0.586369
0.588954
0.5774
0.548161
0.600409
0.613158
0.596363
0.585608
0.585452
0.588388
0.588034
0.586495
0.586405
0.587502
0.582525
0.582926
0.58668
0.584105
0.593645
0.58826
0.55475
0.548726
0.596295
0.608549
0.595511
0.585939
0.584638
0.587017
0.58861
0.585299
0.584572
0.586083
0.587299
0.584104
0.586045
0.584311
0.587829
0.582459
0.545222
0.592015
0.60635
0.604828
0.593231
0.585828
0.585366
0.58693
0.587645
0.587073
0.586232
0.586927
0.586008
0.586277
0.585709
0.583973
0.583266
0.575587
0.541865
0.60266
0.609828
0.604603
0.589481
0.585102
0.586074
0.587154
0.58719
0.586764
0.586436
0.587145
0.574785
0.584322
0.586429
0.582689
0.587856
0.581482
0.545288
0.607075
0.616135
0.600336
0.587432
0.585589
0.585213
0.583748
0.583408
0.585619
0.586548
0.585551
0.586773
0.585526
0.584238
0.58116
0.58418
0.588499
0.550595
0.606389
0.61625
0.597128
0.586932
0.585296
0.586189
0.58627
0.586293
0.586306
0.582292
0.585231
0.584062
0.584493
0.584191
0.586471
0.584071
0.594675
0.548055
0.606381
0.616769
0.59668
0.585774
0.584894
0.584756
0.585529
0.586578
0.58591
0.586293
0.583471
0.584537
0.584443
0.586576
0.592913
0.595066
0.590098
0.548926
0.60816
0.616572
0.597342
0.585727
0.585827
0.585555
0.585187
0.584673
0.585686
0.586182
0.586158
0.585699
0.585109
0.588552
0.593655
0.603494
0.579903
0.555987
0.615757
0.615475
0.597134
0.585987
0.586794
0.58915
0.588425
0.586069
0.585281
0.584705
0.585524
0.586069
0.585032
0.588854
0.602385
0.597097
0.55195
0.595378
0.615718
0.603227
0.59189
0.585173
0.585979
0.587623
0.586602
0.586863
0.58619
0.585465
0.584797
0.58489
0.585211
0.590145
0.602834
0.598277
0.547327
0.588678
0.606367
0.600285
0.582801
0.584183
0.584279
0.58631
0.586189
0.587278
0.587199
0.587253
0.584936
0.584938
0.585467
0.591431
0.602825
0.600224
0.548819
0.542505
0.605513
0.606608
0.604506
0.58771
0.583339
0.586066
0.587331
0.586782
0.584906
0.578113
0.561365
0.576994
0.585256
0.585073
0.591108
0.604027
0.591344
0.549531
0.547514
0.611481
0.616608
0.598757
0.589466
0.585177
0.584079
0.584079
0.568612
0.566117
0.571428
0.562879
0.569553
0.586003
0.58271
0.589628
0.604384
0.58804
0.601999
0.612169
0.596252
0.586971
0.584682
0.585391
0.586685
0.584372
0.560251
0.562152
0.554253
0.580705
0.586562
0.584732
0.592574
0.597211
0.593093
0.54946
0.598639
0.609965
0.594317
0.585705
0.584947
0.584542
0.585064
0.586583
0.584056
0.555317
0.55332
0.564746
0.586739
0.584104
0.596042
0.598269
0.58894
0.546074
0.594245
0.608287
0.594609
0.585704
0.586824
0.586137
0.585169
0.585308
0.586479
0.581704
0.555864
0.561384
0.586753
0.584417
0.594605
0.596617
0.577068
0.538911
0.585435
0.597194
0.591399
0.585656
0.58615
0.586551
0.58636
0.587357
0.586943
0.586058
0.584668
0.581064
0.586881
0.583219
0.58814
0.596888
0.552267
0.586821
0.582561
0.584858
0.584794
0.58591
0.586012
0.586131
0.58705
0.571168
0.573757
0.586922
0.586322
0.585464
0.58467
0.595729
0.590039
0.550109
0.548535
0.577859
0.582087
0.585613
0.586749
0.586559
0.585581
0.585865
0.585892
0.561888
0.577678
0.584043
0.585206
0.588475
0.593956
0.591333
0.543163
0.514099
0.580224
0.578771
0.582477
0.584646
0.586472
0.586979
0.585364
0.584623
0.586265
0.586476
0.575513
0.586981
0.584114
0.593342
0.585439
0.591008
0.543083
0.586959
0.580582
0.582551
0.583238
0.58621
0.586359
0.586394
0.58611
0.587087
0.582797
0.582454
0.586878
0.586189
0.584521
0.592486
0.598257
0.588186
0.587874
0.576693
0.579962
0.584203
0.585969
0.586002
0.583284
0.584795
0.586285
0.584535
0.567349
0.585123
0.583313
0.58643
0.591637
0.59897
0.5851
0.540043
0.584055
0.582674
0.580872
0.583214
0.58548
0.585727
0.585881
0.587359
0.586642
0.582332
0.577369
0.585766
0.58608
0.584088
0.59261
0.589906
0.5562
0.549791
0.579951
0.580452
0.584226
0.584193
0.585887
0.585879
0.585168
0.584669
0.582147
0.581097
0.577958
0.586398
0.584208
0.582412
0.587394
0.581283
0.5473
0.559212
0.590304
0.569399
0.581832
0.585724
0.585868
0.576838
0.548698
0.570166
0.568931
0.565365
0.57898
0.585956
0.58561
0.583654
0.581425
0.578224
0.544896
0.58588
0.58557
0.582186
0.584421
0.585801
0.583516
0.578806
0.555821
0.554898
0.574463
0.582382
0.585857
0.58562
0.585478
0.582656
0.581896
0.581608
0.544517
0.551304
0.592592
0.581928
0.581327
0.583935
0.585671
0.57193
0.543091
0.545552
0.572033
0.586023
0.585849
0.584223
0.583789
0.584405
0.581091
0.588697
0.607119
0.551764
0.560547
0.593246
0.580566
0.583592
0.585099
0.58581
0.553627
0.541049
0.545172
0.574832
0.585326
0.586845
0.586405
0.585938
0.58454
0.585857
0.592504
0.578288
0.546268
0.590758
0.581785
0.586149
0.585825
0.583629
0.548828
0.541416
0.544613
0.55936
0.584182
0.586992
0.586117
0.586124
0.584936
0.592319
0.585857
0.59403
0.542234
0.578401
0.582145
0.582603
0.586059
0.578899
0.542209
0.541048
0.550199
0.55543
0.576041
0.584369
0.585319
0.586497
0.584409
0.595425
0.599794
0.591593
0.590831
0.583597
0.581145
0.586014
0.576966
0.54274
0.540803
0.54286
0.572237
0.563865
0.585081
0.586661
0.584895
0.585426
0.595872
0.597503
0.575627
0.606942
0.585568
0.580136
0.586145
0.581226
0.541699
0.541482
0.546323
0.554515
0.563585
0.580079
0.587477
0.585849
0.588297
0.595727
0.598672
0.55532
0.564702
0.615676
0.59105
0.58049
0.586298
0.585308
0.550028
0.543299
0.552721
0.562925
0.58449
0.58619
0.586136
0.581976
0.587439
0.601846
0.59032
0.552012
0.560261
0.59881
0.586701
0.58103
0.586556
0.58273
0.543898
0.542023
0.557539
0.581111
0.585272
0.586014
0.584938
0.584412
0.587468
0.593534
0.594872
0.558379
0.595439
0.586217
0.582281
0.586298
0.5847
0.547455
0.542249
0.546091
0.579185
0.586365
0.586207
0.585715
0.58429
0.593742
0.595971
0.587201
0.556575
0.592669
0.589601
0.582577
0.586006
0.581156
0.543205
0.546298
0.579023
0.585973
0.586375
0.58579
0.585304
0.583997
0.596347
0.598638
0.586429
0.556694
0.59193
0.58454
0.586016
0.584505
0.585914
0.545648
0.5452
0.566912
0.585759
0.586261
0.585872
0.584978
0.589036
0.598727
0.600264
0.558201
0.561059
0.600376
0.58809
0.582772
0.585487
0.585926
0.585568
0.56031
0.557149
0.585813
0.586102
0.585249
0.584808
0.589678
0.608385
0.600867
0.558721
0.626481
0.607942
0.617734
0.580758
0.585968
0.577088
0.575849
0.58584
0.585953
0.585629
0.586113
0.586543
0.584925
0.587507
0.604971
0.59761
0.554075
0.613418
0.595231
0.582661
0.586357
0.578272
0.542507
0.550061
0.585905
0.58571
0.585965
0.586499
0.58496
0.593932
0.59483
0.58851
0.547652
0.609783
0.581761
0.581442
0.586153
0.544002
0.541703
0.543873
0.581052
0.586007
0.585754
0.585148
0.58209
0.593678
0.595137
0.586961
0.611521
0.606867
0.5835
0.578839
0.584348
0.544354
0.542758
0.55405
0.576331
0.586279
0.585954
0.586097
0.584443
0.585181
0.58878
0.577707
0.607871
0.613804
0.584066
0.58006
0.580186
0.582082
0.544649
0.545673
0.585867
0.584229
0.583748
0.582902
0.582467
0.579491
0.584504
0.555871
0.610562
0.60772
0.616709
0.580228
0.578297
0.581417
0.585997
0.586006
0.584995
0.585287
0.58312
0.579925
0.580602
0.581369
0.587399
0.54852
0.569001
0.613539
0.585684
0.588167
0.589587
0.57736
0.579106
0.581019
0.582194
0.579424
0.578514
0.580897
0.586112
0.579413
0.57662
0.573854
0.566566
0.618539
0.614936
0.600503
0.585413
0.579448
0.579183
0.582501
0.586714
0.585567
0.582257
0.58036
0.580719
0.578011
0.563629
0.589694
0.570752
0.609816
0.595307
0.582423
0.584229
0.579822
0.583332
0.581047
0.583699
0.585216
0.578752
0.583347
0.579771
0.578487
0.585736
0.561597
0.607811
0.608502
0.616385
0.572224
0.579685
0.586048
0.584187
0.585469
0.585962
0.585236
0.580686
0.583569
0.584523
0.583511
0.591971
0.500122
0.604917
0.60279
0.582118
0.578324
0.578349
0.581787
0.584982
0.581241
0.579928
0.580951
0.581707
0.581354
0.583045
0.580296
0.595519
0.571595
0.562231
0.59541
0.5733
0.578293
0.57937
0.581919
0.584546
0.584878
0.580444
0.579816
0.57974
0.578017
0.572894
0.580669
0.592532
0.552633
0.592893
0.593213
0.574569
0.580911
0.581614
0.584768
0.581758
0.578761
0.579631
0.580696
0.57786
0.581798
0.578167
0.594557
0.545965
0.548862
0.58597
0.585758
0.565586
0.574867
0.578404
0.582635
0.58468
0.580679
0.578467
0.580313
0.578427
0.583154
0.60824
0.598737
0.556674
0.589044
0.591817
0.588592
0.569889
0.560879
0.577416
0.579537
0.580812
0.578876
0.579585
0.578565
0.58849
0.578698
0.588877
0.595911
0.546046
0.584114
0.564325
0.561534
0.570656
0.580407
0.580079
0.57926
0.57808
0.578628
0.598457
0.585753
0.59211
0.560507
0.558875
0.579565
0.571638
0.559844
0.574771
0.565913
0.579994
0.578793
0.579115
0.581384
0.580232
0.58058
0.592504
0.550424
0.587005
0.586336
0.574684
0.55979
0.577323
0.566499
0.557418
0.578661
0.577426
0.586
0.580371
0.581752
0.585363
0.550627
0.586051
0.583046
0.575898
0.564759
0.566372
0.576131
0.576538
0.566296
0.561137
0.579995
0.577526
0.585009
0.549646
0.555397
0.58329
0.592729
0.561944
0.56337
0.563585
0.574707
0.571434
0.579738
0.569155
0.571827
0.595237
0.584555
0.548905
0.550093
0.58884
0.581519
0.567098
0.562106
0.559694
0.5731
0.577685
0.578509
0.572202
0.569591
0.598179
0.594879
0.55098
0.54977
0.590297
0.579382
0.573047
0.560065
0.56285
0.54857
0.577183
0.576003
0.560615
0.579769
0.57663
0.586392
0.544515
0.534358
0.546881
0.589014
0.576583
0.56586
0.557839
0.551875
0.553956
0.573609
0.563165
0.566944
0.584302
0.58364
0.583944
0.559149
0.559538
0.556594
0.577284
0.565411
0.570977
0.613429
0.595339
0.582936
0.578059
0.567065
0.561473
0.584305
0.580073
0.595411
0.562035
0.390103
0.553338
0.585626
0.577284
0.594438
0.589097
0.584719
0.51784
0.522448
0.57069
0.571195
0.600172
0.58821
0.553189
0.569253
0.563666
0.593054
0.600321
0.60614
0.553547
0.569018
0.576642
0.577506
0.602571
0.559907
0.54559
0.572724
0.526617
0.561551
0.590161
0.610091
0.586376
0.585998
0.574128
0.573364
0.600811
0.592363
0.584483
0.577684
0.565789
0.542415
0.546022
0.400692
0.575716
0.565706
0.614246
0.611466
0.581361
0.633503
0.629405
0.608361
0.592432
0.581913
0.599016
0.60583
0.604795
0.585726
0.640681
0.645854
0.650485
0.636777
0.634222
0.61841
0.594805
0.579804
0.58404
0.600238
0.608449
0.598521
0.596224
0.603328
0.597014
0.655069
0.660376
0.65531
0.657766
0.658789
0.64828
0.629977
0.608905
0.584932
0.578859
0.606228
0.61594
0.615726
0.62141
0.618406
0.611429
0.62114
0.59219
0.603731
0.642115
0.618165
0.611251
0.657308
0.669366
0.670529
0.671077
0.664529
0.650036
0.637861
0.633909
0.627236
0.621563
0.60944
0.601807
0.600676
0.625793
0.641988
0.623004
0.6203
0.603104
0.594478
0.594969
0.612613
0.631094
0.626926
0.647969
0.656194
0.641995
0.662781
0.659143
0.637971
0.633448
0.622899
0.605575
0.601985
0.6128
0.61782
0.621764
0.617904
0.601943
0.594454
0.596161
0.604856
0.59344
0.58708
0.576396
0.582978
0.624826
0.591141
0.633422
0.641598
0.655287
0.659897
0.642858
0.610856
0.641263
0.649807
0.640136
0.605621
0.578419
0.581819
0.586508
0.625646
0.61395
0.606202
0.59705
0.587719
0.585187
0.586366
0.604891
0.600484
0.588072
0.623725
0.628336
0.544935
0.628921
0.605874
0.596405
0.593276
0.587394
0.585048
0.583366
0.58607
0.57972
0.581679
0.569064
0.578917
0.590433
0.630166
0.603666
0.598467
0.603844
0.599966
0.589988
0.589434
0.589568
0.628611
0.643813
0.631943
0.55051
0.60035
0.578756
0.580295
0.583194
0.584373
0.583261
0.582235
0.587147
0.584556
0.578481
0.579235
0.579821
0.579606
0.588028
0.592615
0.640207
0.589802
0.590178
0.595833
0.587824
0.582286
0.588671
0.612691
0.627942
0.615127
0.554458
0.606845
0.583478
0.579549
0.582455
0.584469
0.585994
0.583987
0.584411
0.585233
0.586206
0.585769
0.584674
0.580745
0.580418
0.587152
0.601071
0.599728
0.616255
0.638088
0.647839
0.624552
0.613305
0.637005
0.630835
0.567425
0.625583
0.628004
0.600275
0.614078
0.58253
0.581425
0.588359
0.584451
0.584069
0.581375
0.585502
0.588286
0.585636
0.584667
0.585562
0.586292
0.585465
0.584355
0.593768
0.628814
0.611327
0.602636
0.605435
0.636793
0.634683
0.600236
0.610739
0.611049
0.607312
0.588978
0.582352
0.582711
0.591246
0.58551
0.587182
0.586378
0.58468
0.5846
0.586293
0.585727
0.586633
0.58528
0.587116
0.584859
0.586805
0.603878
0.612995
0.631592
0.638343
0.614739
0.490331
0.565505
0.535232
0.611838
0.592241
0.581763
0.582988
0.585649
0.586465
0.58642
0.586379
0.585688
0.586089
0.586602
0.5861
0.585739
0.585055
0.584837
0.585437
0.584086
0.587224
0.597182
0.613168
0.640067
0.615084
0.547926
0.549194
0.610615
0.584477
0.583917
0.583606
0.582001
0.586592
0.585953
0.571634
0.577905
0.586201
0.583138
0.585429
0.586916
0.586991
0.586458
0.585596
0.58558
0.582553
0.599105
0.621764
0.632368
0.625323
0.60612
0.617242
0.619465
0.60333
0.584997
0.580284
0.584951
0.58495
0.582784
0.586346
0.576165
0.573347
0.571664
0.573875
0.583082
0.586984
0.582421
0.579721
0.587081
0.585781
0.585126
0.580969
0.60921
0.649933
0.645391
0.617998
0.615816
0.623011
0.611244
0.601813
0.583679
0.583382
0.584452
0.585747
0.588196
0.585161
0.57584
0.575288
0.571758
0.576629
0.576724
0.583289
0.580287
0.585662
0.586557
0.586309
0.580533
0.580975
0.591983
0.634013
0.61044
0.613892
0.620054
0.607362
0.598214
0.586308
0.585865
0.586012
0.585596
0.586329
0.587788
0.588966
0.584836
0.580958
0.573281
0.57691
0.576681
0.581779
0.585531
0.58556
0.584754
0.58489
0.58013
0.577816
0.594158
0.581101
0.563466
0.615503
0.618189
0.609859
0.592558
0.586824
0.584101
0.583448
0.586777
0.587659
0.588701
0.590108
0.593633
0.589986
0.581842
0.582458
0.580836
0.580435
0.58115
0.582767
0.591676
0.582707
0.580267
0.579467
0.583541
0.604057
0.571119
0.622382
0.606923
0.60859
0.594515
0.585834
0.585436
0.586556
0.589168
0.590214
0.587745
0.591473
0.590554
0.591725
0.59344
0.59136
0.589029
0.591848
0.588056
0.585566
0.588765
0.585128
0.584343
0.578846
0.587368
0.590273
0.577486
0.627013
0.627175
0.611347
0.593604
0.584087
0.585417
0.587936
0.589696
0.59019
0.588634
0.569859
0.575353
0.591217
0.590734
0.593791
0.595686
0.593119
0.593079
0.592715
0.586263
0.585551
0.583395
0.589228
0.584128
0.592214
0.54315
0.569778
0.63138
0.630517
0.61025
0.589882
0.585299
0.586891
0.58939
0.590733
0.591378
0.591394
0.591229
0.589585
0.58713
0.588441
0.592643
0.593027
0.593254
0.590061
0.586872
0.588046
0.585121
0.583586
0.594805
0.601877
0.611158
0.542804
0.628715
0.629279
0.620662
0.59572
0.584332
0.58821
0.59134
0.592382
0.592297
0.591981
0.591526
0.591037
0.591172
0.591552
0.592176
0.593189
0.593244
0.594606
0.594497
0.587518
0.579637
0.587226
0.582499
0.589672
0.614859
0.609157
0.620942
0.630732
0.618178
0.597728
0.584338
0.586488
0.590574
0.58147
0.57295
0.569839
0.572768
0.584775
0.589837
0.590948
0.591057
0.591077
0.591723
0.593397
0.594621
0.592549
0.589181
0.585129
0.582019
0.579845
0.605394
0.606395
0.575848
0.6178
0.615439
0.60458
0.585676
0.589668
0.589886
0.582829
0.566716
0.553231
0.550432
0.549626
0.551278
0.569123
0.588815
0.59116
0.591188
0.59137
0.592218
0.5919
0.588804
0.585011
0.582397
0.586359
0.602867
0.606365
0.624017
0.620792
0.607454
0.584855
0.586231
0.589498
0.576998
0.557978
0.551467
0.548867
0.546583
0.546591
0.547732
0.556882
0.58149
0.590706
0.591921
0.592542
0.59184
0.589497
0.586684
0.58457
0.594365
0.60695
0.622091
0.617955
0.625436
0.615105
0.594829
0.584922
0.58998
0.57828
0.56205
0.544674
0.543086
0.544812
0.545977
0.543981
0.544536
0.545558
0.560594
0.587066
0.591468
0.592624
0.589425
0.58725
0.584761
0.585243
0.596818
0.625243
0.585956
0.574771
0.615755
0.60845
0.598875
0.583816
0.586198
0.590556
0.569255
0.544856
0.542221
0.541512
0.541953
0.543066
0.543518
0.542703
0.543535
0.548147
0.558317
0.581801
0.591401
0.58838
0.584528
0.585044
0.594754
0.613783
0.604984
0.574597
0.617083
0.612889
0.600244
0.586254
0.584897
0.589335
0.589669
0.574144
0.546388
0.541957
0.541565
0.541422
0.541373
0.541729
0.542211
0.543239
0.548254
0.56998
0.578783
0.591019
0.585916
0.586161
0.596003
0.611424
0.618015
0.566605
0.616901
0.62184
0.604629
0.586509
0.585444
0.588561
0.59149
0.584809
0.56163
0.544616
0.542072
0.541393
0.541507
0.541751
0.5415
0.542813
0.546598
0.553086
0.570928
0.589547
0.58613
0.583205
0.605041
0.614411
0.61811
0.57595
0.580146
0.620011
0.608835
0.586307
0.585526
0.588485
0.589083
0.587752
0.577177
0.554531
0.543086
0.541961
0.542623
0.545159
0.541707
0.541661
0.542954
0.554935
0.569391
0.582917
0.589352
0.58471
0.601894
0.610729
0.613553
0.579138
0.612669
0.60595
0.591139
0.583697
0.59018
0.581688
0.568818
0.572276
0.565516
0.549661
0.543005
0.542097
0.548833
0.557886
0.550346
0.542364
0.543327
0.553237
0.585523
0.590114
0.587381
0.585739
0.603933
0.6276
0.584891
0.585165
0.617245
0.6014
0.584608
0.586871
0.588974
0.584157
0.553163
0.54941
0.555458
0.554354
0.553579
0.550999
0.553273
0.564111
0.565884
0.548719
0.545745
0.569323
0.587775
0.586884
0.585703
0.601563
0.620166
0.609134
0.616486
0.612158
0.592507
0.584248
0.589033
0.590254
0.585479
0.572608
0.547336
0.544178
0.548917
0.557371
0.560233
0.558294
0.562323
0.572335
0.571722
0.55907
0.57857
0.587656
0.584568
0.598655
0.608018
0.614635
0.578725
0.572371
0.618544
0.605881
0.585131
0.587164
0.589747
0.588006
0.581571
0.570566
0.559525
0.549599
0.546061
0.549086
0.551521
0.549336
0.545133
0.553141
0.581485
0.586712
0.5872
0.583309
0.593518
0.61073
0.6184
0.582924
0.61759
0.611026
0.596545
0.584241
0.589004
0.588213
0.580001
0.568327
0.561726
0.549212
0.546278
0.553524
0.555543
0.553355
0.551397
0.545098
0.546927
0.571176
0.590313
0.585675
0.582351
0.593132
0.607597
0.615505
0.565338
0.578951
0.613712
0.598531
0.584399
0.588621
0.581864
0.567534
0.566046
0.55141
0.544341
0.54369
0.542482
0.54301
0.553363
0.562038
0.564764
0.569711
0.577274
0.584096
0.591196
0.585565
0.587644
0.606881
0.606604
0.576495
0.613514
0.603603
0.588436
0.583617
0.588072
0.584851
0.550728
0.544228
0.543312
0.542201
0.541974
0.541893
0.541277
0.54327
0.558662
0.573118
0.579947
0.58644
0.590766
0.58658
0.584317
0.599338
0.612805
0.608727
0.579062
0.611291
0.59517
0.584467
0.587367
0.589428
0.58767
0.573676
0.547464
0.541647
0.54149
0.540913
0.541313
0.541541
0.542925
0.550278
0.570814
0.582774
0.589266
0.589285
0.58639
0.586873
0.604576
0.620155
0.571713
0.610073
0.603148
0.588064
0.584412
0.589023
0.588052
0.583729
0.574732
0.557546
0.544246
0.541472
0.541521
0.54134
0.543866
0.546442
0.544958
0.565531
0.585984
0.590863
0.589467
0.58496
0.589418
0.604848
0.599006
0.576705
0.611538
0.596145
0.585462
0.587736
0.588949
0.586608
0.578305
0.564292
0.553148
0.549706
0.547046
0.546267
0.548078
0.547114
0.548075
0.547991
0.563886
0.587321
0.590227
0.586738
0.583122
0.58909
0.607135
0.570356
0.607332
0.601402
0.588394
0.584199
0.587925
0.588949
0.585144
0.577628
0.563895
0.547955
0.543236
0.546594
0.548615
0.553123
0.561806
0.566576
0.56975
0.579856
0.590356
0.590243
0.584572
0.593122
0.600512
0.600974
0.573239
0.608902
0.595613
0.584686
0.587369
0.588525
0.587131
0.582051
0.574563
0.565468
0.552617
0.546723
0.543002
0.544444
0.544879
0.558257
0.573688
0.581003
0.587923
0.590987
0.586544
0.585138
0.593794
0.606806
0.571326
0.60035
0.600259
0.588972
0.584578
0.588039
0.58758
0.583942
0.578456
0.572264
0.564907
0.554024
0.544909
0.543725
0.544083
0.545263
0.548298
0.57014
0.583868
0.589687
0.588778
0.584329
0.584065
0.604207
0.603461
0.608054
0.60082
0.586468
0.587005
0.588295
0.585933
0.580482
0.574258
0.569752
0.566676
0.56053
0.551525
0.543612
0.542391
0.543826
0.55348
0.570426
0.585937
0.589834
0.587054
0.583926
0.592122
0.601996
0.582568
0.575018
0.612128
0.59822
0.584973
0.587447
0.587036
0.582523
0.576121
0.571059
0.567692
0.566916
0.565931
0.561273
0.553724
0.55245
0.553888
0.559756
0.576604
0.588259
0.589792
0.585992
0.585737
0.598896
0.606662
0.562811
0.576106
0.612122
0.592216
0.584945
0.587257
0.583948
0.577132
0.570818
0.565516
0.563436
0.564166
0.565293
0.565144
0.564018
0.563617
0.567199
0.573647
0.581583
0.589154
0.589335
0.586134
0.586112
0.604221
0.581801
0.601759
0.60291
0.591035
0.585683
0.586591
0.574674
0.563538
0.564301
0.559256
0.552477
0.553508
0.559737
0.563608
0.565112
0.567245
0.571998
0.579489
0.585815
0.589998
0.587431
0.583161
0.590173
0.60747
0.57244
0.606705
0.601928
0.585292
0.585747
0.587291
0.573205
0.550803
0.552501
0.558451
0.551257
0.543983
0.545611
0.55739
0.563869
0.567887
0.573264
0.580615
0.587956
0.589265
0.586162
0.584445
0.598567
0.608631
0.575876
0.612549
0.596676
0.584241
0.588321
0.588289
0.581962
0.568066
0.556391
0.557967
0.558644
0.551034
0.54422
0.54664
0.559101
0.568128
0.574605
0.581172
0.588278
0.589113
0.585213
0.591258
0.60333
0.577431
0.604532
0.607516
0.590097
0.585959
0.58858
0.587825
0.582115
0.571056
0.560817
0.559103
0.561361
0.561861
0.556818
0.553206
0.557801
0.567178
0.575808
0.583088
0.588406
0.588466
0.584063
0.588841
0.610116
0.560213
0.606704
0.602324
0.588577
0.586916
0.588642
0.586456
0.580089
0.568673
0.551527
0.546346
0.55207
0.558926
0.562472
0.563091
0.563782
0.569482
0.577518
0.584943
0.589363
0.586964
0.58431
0.593278
0.607306
0.569237
0.609027
0.594604
0.584482
0.587226
0.588737
0.585531
0.578012
0.567915
0.555045
0.544584
0.542267
0.548537
0.557807
0.562415
0.566104
0.571269
0.57923
0.58648
0.589105
0.586496
0.584781
0.599566
0.591465
0.597825
0.604516
0.589683
0.584331
0.588219
0.587862
0.584216
0.575751
0.562731
0.552668
0.548268
0.544776
0.542493
0.544545
0.554469
0.564233
0.571701
0.580129
0.587432
0.589023
0.585727
0.590591
0.601463
0.572905
0.600508
0.597582
0.589094
0.586058
0.58803
0.585658
0.58003
0.571585
0.556937
0.545319
0.542438
0.543313
0.546476
0.543423
0.542639
0.553001
0.571136
0.580314
0.588072
0.587866
0.585619
0.590716
0.609139
0.556613
0.60718
0.597762
0.58506
0.586425
0.587463
0.584176
0.577155
0.569815
0.558933
0.545757
0.541357
0.540699
0.542157
0.546368
0.545548
0.547714
0.565303
0.582745
0.58841
0.587561
0.583675
0.591489
0.612047
0.560259
0.606682
0.594021
0.584709
0.587857
0.587614
0.583099
0.575552
0.568431
0.563381
0.554094
0.544804
0.541015
0.54046
0.541575
0.547228
0.557245
0.57006
0.583989
0.589036
0.586694
0.584961
0.601689
0.595597
0.572582
0.608311
0.594619
0.584658
0.587942
0.587469
0.582197
0.574887
0.567966
0.564116
0.561269
0.554712
0.548153
0.543326
0.54075
0.542041
0.554087
0.574998
0.585695
0.589176
0.585305
0.589986
0.603972
0.575693
0.576321
0.607216
0.589548
0.584866
0.587922
0.587231
0.58206
0.574744
0.568383
0.56497
0.562923
0.55995
0.554817
0.548344
0.545057
0.542008
0.546457
0.570157
0.586917
0.587928
0.583369
0.587533
0.609234
0.598498
0.600635
0.588131
0.586621
0.588334
0.586723
0.581179
0.574419
0.567701
0.564176
0.563136
0.559731
0.551187
0.546676
0.544809
0.545861
0.548942
0.568489
0.586736
0.587518
0.584619
0.599037
0.600284
0.602851