/*--------------------------------*- C++ -*----------------------------------*\
| =========                 |                                                 |
| \\      /  F ield         | OpenFOAM: The Open Source CFD Toolbox           |
|  \\    /   O peration     | Version:  2312                                  |
|   \\  /    A nd           | Website:  www.openfoam.com                      |
|    \\/     M anipulation  |                                                 |
\*---------------------------------------------------------------------------*/
FoamFile
{
    version     2.0;
    format      ascii;
    arch        "LSB;label=64;scalar=64";
    class       volScalarField;
    location    "40";
    object      omega;
}
// * * * * * * * * * * * * * * * * * * * * * * * * * * * * * * * * * * * * * //

dimensions      [0 0 -1 0 0 0 0];

internalField   nonuniform List<scalar> 
404911
(
355.673
162.826
3455.89
1549.18
215.156
224.709
183.004
622.571
361.298
299.481
279.774
350.127
207.362
222.153
476.695
1138.47
306.356
183.418
218.737
345.626
584.413
251.039
627.578
531.387
190.561
1013.15
436.058
182.6
205.674
1044.64
289.896
189.756
290.054
504.647
280.256
219.823
408.69
492.559
287.33
195.316
407.851
1080.5
271.827
146.463
190.626
446.029
396.176
174.343
212.517
817.409
442.651
453.289
304.163
1411.33
384.31
644.339
9416.83
128.066
374.314
274.77
175.313
107.915
215.088
24.3513
98.4399
228.887
33.0725
326.312
110.314
28.4589
133.76
7.04474
109.503
85.23
34.463
649.367
2312.92
287.726
110.179
147.086
84.5934
190.475
12.8878
118.482
112.221
94.7154
354.416
68.6485
1189.02
329.196
233.106
3014.02
77.462
129.643
159.046
88.6602
111.246
154.355
51.5589
282.705
676.933
71.2223
94.3084
534.608
1281.52
539.662
278.654
741.339
363.828
284.259
222.874
237.303
233.543
246.457
2325.73
544.489
248.237
4562.02
627.856
193.761
199.459
205.551
211.514
278.785
1350.26
341.313
232.158
220.931
210.856
549.456
517.018
550.644
205.142
190.623
215.814
215.642
252.406
250.241
189.239
307.349
1234.82
348.234
229.038
207.166
201.299
196.713
200.909
198.989
555.356
502.572
211.741
195.598
216.433
1847.36
297.849
1048.22
291.963
200.992
183.034
188.6
186.331
193.746
198.734
199.309
201.607
202.231
207.137
211.686
226.159
281.584
437.738
630.352
485.931
443.345
473.859
466.078
552.062
186.491
199.048
196.552
202.442
206.022
215.573
228.13
230.885
220.524
321.648
751.431
493.217
427.102
435.811
292.603
377.079
568.014
474.865
176.681
190.18
192.473
207.176
218.669
224.914
260.689
1211.02
1048.94
286.696
620.426
329.173
303.966
281.645
377.113
461.409
343.254
417.142
470.051
482.492
174.07
196.864
206.105
208.129
239.03
538.227
923.536
643.945
291.669
247.207
203.878
192.439
358.65
301.969
296.484
447.659
250.992
280.34
158.118
194.224
205.811
229.753
325.986
1246
1280.49
320.211
153.184
290.306
197.016
190.811
202.568
189.451
279.15
215.353
252.395
200.505
198.68
327.301
521.587
190.585
238.982
1151.07
513.391
196.142
133.158
312.111
189.354
190.487
176.629
191.048
168.112
166.53
180.078
189.241
312.125
405.553
496.41
570.834
457.747
509.977
242.989
188.926
487.821
264.602
176.784
198.304
153.328
188.571
225.279
165.542
177.329
261.712
390.171
460.469
503.024
1731.34
392.166
198.003
168.136
141.301
173.415
195.768
165.808
143.465
186.715
207.459
178.656
210.502
179.07
217.957
417.827
462.118
285.192
1087.86
1020.9
939.264
321.786
315.459
110.085
83.502
175.855
175.594
157.511
156.339
217.971
202.068
192.532
176.957
209.361
390.591
222.291
599.133
1147
273.788
163.95
196.111
213.071
200.45
154.601
71.6398
182.388
188.532
164.307
167.085
117.815
183.8
197.671
204.02
505.795
307.448
507.806
187.11
136.185
143.991
159.983
222.024
190.622
120.09
103.603
138.905
116.363
100.635
108.22
127.607
223.241
294.411
219.392
1053.56
1178.4
293.409
176.98
150.115
137.578
155.706
119.7
154.068
132.846
109.407
98.8997
161.501
125.812
136.937
123.309
149.453
506.489
922.255
384.529
163.458
134.931
187.491
193.969
107.915
147.17
66.9162
70.4123
73.0743
77.147
135.85
135.249
180.655
246.569
157.325
306.853
757.556
1138.9
941.615
443.507
276.575
206.152
101.843
124.645
124.072
96.8295
58.4379
69.0394
80.3828
86.3188
130.654
238.88
275.064
179.015
494.885
457.221
182.652
184.043
190.321
152.883
68.7476
78.9999
114.078
83.3658
126.134
76.3667
89.0829
123.913
133.671
128.398
156.199
313.283
1002.9
206.438
138.426
160.932
119.946
138.198
85.5402
70.0594
99.48
144.563
160.291
150.551
135.979
143.796
157.185
170.798
170.486
337.94
456.246
155.117
175.103
171.513
126.227
86.0506
84.5232
51.1804
61.2487
107.121
178.494
176.661
195.158
178.502
171.925
208.573
192.376
1017.06
265.569
131.941
147.104
131.915
112.838
67.6108
74.4959
116.742
51.7476
65.6196
111.27
129.409
173.096
238.248
260.022
190.334
315.47
1220.08
485.826
191.522
141.539
136.953
130.887
89.7436
116.573
61.1528
51.4601
60.5176
79.5373
79.887
90.4871
108.163
239.182
137.096
223.69
1070.33
1154.09
252.439
133.371
184.022
139.062
121.873
87.7546
64.428
66.0772
74.713
35.8392
64.5825
87.7427
129.208
139.207
134.285
181.121
333.892
457.087
168.593
142.946
132.147
117.499
92.5815
81.5789
92.9652
71.2288
31.5106
33.04
44.6561
80.3211
142.58
204.265
212.206
203.211
1048.23
1161.72
252.344
134.937
133.442
127.816
107.779
84.2747
90.919
79.6769
81.331
76.9153
56.8179
65.5202
66.8218
162.981
185.659
197.561
291.311
925.557
173.672
136.568
121.684
112.782
93.8764
96.5957
100.949
100.195
85.7245
65.259
82.5974
91.3471
109.585
145.174
160.195
224.337
352.569
276.71
133.948
164.333
115.998
88.1011
90.9121
94.0806
97.6128
97.6155
96.5253
93.1528
91.7107
104.484
121.299
148.054
174.194
184.333
546.435
252.88
164.872
181.191
108.228
93.0286
75.343
80.968
69.8593
85.4777
91.6795
91.2521
95.8142
111.034
135.116
134.656
139.881
268.334
1153.87
1188.48
193.828
131.348
159.975
89.4475
97.7075
89.0339
83.4974
68.8644
60.7083
88.3286
88.3106
93.3266
104.426
129.608
170.139
181.395
490.379
961.806
181.297
133.948
124.584
99.5696
78.5791
82.8019
79.8417
66.9635
62.3117
40.1662
93.5412
96.1838
111.278
121.23
164.4
187.504
1095.12
307.808
155.119
138.845
133.103
129.182
93.2975
80.8821
85.7368
93.1236
66.6769
59.2107
75.6407
100.357
128.591
146.075
128.665
198.725
1132.72
292.343
138.705
125.824
119.815
97.9824
127.953
70.3558
67.5268
87.6959
95.8766
88.8172
80.3814
91.3066
124.14
153.509
139.653
285.571
1064.84
220.961
137.213
133.092
125.094
89.0662
65.283
88.6565
62.5377
56.3675
78.1366
87.6991
88.7261
93.3843
119.025
137.631
165.816
476.125
456.659
163.737
141.845
160.679
140.683
92.7734
71.1079
51.2259
83.4182
62.4988
44.2306
65.5814
88.1156
99.2283
124.17
145.981
186.796
1039.13
293.463
139.48
122.679
117.511
97.543
95.0391
70.3716
60.78
50.097
47.5345
85.1504
27.3344
67.1131
114.412
125.6
176.02
237.289
1171.16
1077.82
196.917
127.836
127.826
113.283
91.4994
75.8826
98.8727
45.7413
45.8523
52.2462
41.1055
80.4187
61.1193
114.823
165.562
131.873
260.404
1069.45
184.979
141.117
125.085
107.504
81.2246
77.5313
67.8957
99.293
54.6478
51.0254
38.1875
44.4375
66.7755
111.711
136.179
150.469
451.28
1053.65
184.651
136.599
125.419
115.667
84.2967
78.8746
75.1988
62.379
63.9616
49.9419
27.5378
28.3362
67.0383
134.962
136.693
169.39
944.455
1048.3
181.196
130.959
121.001
114.008
98.2782
91.3901
83.3356
90.1084
79.5575
52.726
52.885
31.6783
52.8207
119.247
196.114
234.558
1174.82
291.612
159.004
134.774
120.968
110.711
96.2763
94.8255
89.2173
77.1703
69.6969
50.3615
37.9267
39.3579
58.0593
121.659
158.98
256.984
1173.74
266.07
137.792
127.389
120.152
103.028
90.9171
87.6494
86.3505
86.7605
67.0926
48.2443
16.9397
32.7798
63.593
122.515
138.337
251.813
1126.42
183.837
130.372
143.954
117.326
92.7172
89.6625
90.3952
89.7468
80.5324
80.0188
71.8106
51.5231
72.6248
82.8589
143.39
179.26
265.358
1003.33
181.5
139.929
119.632
103.741
79.7162
76.3918
81.5874
65.7059
66.0712
93.1028
86.1478
93.57
84.3347
102.443
131.325
135.74
279.069
1069.46
181.484
132.677
124.515
109.259
87.069
86.8443
74.6045
65.7266
52.5035
48.7145
99.707
100.685
109.495
113.831
151.855
137.602
292.237
1072.88
188.182
144.195
128.1
114.542
87.8881
88.0757
86.3485
86.8233
63.0765
58.7926
69.7514
85.6261
100.861
118.54
128.871
145.604
445.467
1009.7
180.364
137.92
127.721
112.347
89.6121
84.0852
84.5584
83.7138
89.5862
86.0243
79.1684
83.7242
96.2826
117.759
130.546
178.211
1014.18
309.214
176.377
164.389
148.511
103.599
79.9712
83.6545
81.2712
74.0548
75.0072
82.8004
92.9549
96.4484
105.839
123.314
142.456
181.091
1100.57
307.378
171.543
134.764
157.437
97.701
79.8006
69.6288
65.8841
57.1785
45.3172
52.047
70.2435
92.3574
107.698
124.067
150.268
178.843
1068.27
1205.66
222.623
162.852
130.51
121.813
116.126
68.0531
45.1314
45.8636
34.3344
20.7917
8.3891
19.5227
71.6645
101.652
123.82
152.329
196.147
1055.46
1091.9
183.38
127.47
182.274
124.524
86.6543
90.9188
31.8982
12.4665
10.8559
14.3468
9.13947
12.9199
47.9297
120.248
125.822
145.274
235.722
192.875
141.72
126.276
118.14
94.0398
72.6242
48.2834
30.9199
7.88724
8.71908
5.41608
23.4486
52.1493
103.414
126.546
129.24
250.672
1029.06
192.845
132.297
119.484
114.512
94.7438
91.5574
80.5773
45.9487
31.8058
5.82968
5.08354
10.0816
62.6825
111.041
127.229
141.373
297.909
1068.72
182.763
130.025
114.77
107.954
94.9169
87.2776
80.2462
70.1362
41.664
26.0286
6.04297
8.4138
56.9257
105.444
145.899
147.648
457.625
1160.43
181.943
134.123
118.7
97.7647
79.6928
78.1398
69.6434
49.471
45.8414
38.5125
33.4622
24.6504
67.0506
120.162
129.164
151.978
877.233
162.236
186.137
123.739
101.911
84.7589
83.5396
67.2528
44.6324
14.0478
16.134
48.7214
55.9381
80.3077
128.147
137.688
177.714
982.271
768.881
251.12
113.993
88.8326
92.6631
88.3795
86.3797
66.9399
36.0308
8.62053
20.2851
78.9427
102.389
112.21
170.216
181.092
1078.29
2188.58
284.872
196.75
120.209
91.2664
88.4738
86.5739
77.6633
70.5671
55.8113
39.4842
17.571
62.9003
111.25
124.543
129.499
204.824
1128.82
294.656
133.725
146.366
109.974
73.4126
81.9725
84.6382
72.7342
52.0349
28.9627
27.6369
42.8441
73.9474
112.246
144.904
136.334
272.927
281.306
151.978
138.703
88.3405
68.3687
78.9956
89.629
78.3935
50.5383
33.9989
11.5039
37.4536
89.021
115.23
140.388
143.655
294.131
1215.73
245.495
143.6
130.58
127.847
67.2253
59.4925
57.8635
54.9321
55.0579
26.5636
19.1434
39.5172
78.6515
115.051
133.195
166.687
887.095
983.628
186.889
168.055
100.959
90.7426
51.23
50.2306
63.6709
34.6765
25.9685
25.3232
20.2166
38.7723
72.4616
114.666
143.635
177.164
1016.19
864.561
143.027
283.898
138.495
60.3496
40.6683
18.9066
3.4954
13.2498
12.4434
10.3897
21.5546
46.2961
59.2142
98.0272
189.226
179.973
1021.02
457.828
137.322
186.995
74.0107
43.5656
30.2013
21.5866
6.06373
5.66604
16.7111
27.0286
47.9657
56.3616
62.2265
104.96
216.714
178.693
1056.31
1039.19
243.864
135.738
121.736
82.7907
40.3488
14.4859
1.77087
2.50429
14.7665
43.7259
56.5199
79.5897
84.8523
95.0423
152.517
213.013
324.269
1072.65
933.227
152.392
181.94
104.857
65.6688
42.1348
5.1985
1.19084
2.38436
17.0089
36.7352
46.416
65.0533
75.9866
101.665
119.459
143.357
201.719
1104.28
225.559
138.51
85.8243
55.827
30.3387
3.53686
1.29341
2.21675
7.49009
31.9369
48.9227
71.9839
83.5282
105.774
137.831
130.853
254.358
1226.57
257.381
135.556
132.165
46.8381
21.4353
1.51766
1.19073
3.98254
5.86302
18.0263
33.0462
72.444
83.5574
113.608
140.04
141.524
295.003
269.783
168.428
185.537
56.1283
19.0793
1.66853
1.12287
1.70256
14.8038
9.57938
36.3922
72.3087
92.243
116.654
151.73
147.149
457.449
242.954
289.5
204.24
62.6623
25.2671
1.37298
1.31208
2.73756
5.5253
9.45087
23.0867
59.2512
87.4445
130.648
130.049
151.672
899.468
999.204
177.185
211.887
195.046
66.6585
37.0071
3.95201
1.83403
4.87561
9.18948
32.8201
47.2148
57.1523
124.029
137.631
166.329
188.453
1004.33
939.808
182.659
203.43
161.956
60.5338
28.5455
2.00769
1.4648
6.76142
24.9944
36.413
54.7575
76.0971
122.085
142.057
131.857
268.698
874.195
153.594
141.492
145
55.4168
34.4268
3.09962
1.52915
2.67174
22.1453
50.6959
55.811
80.1492
118.188
135.263
141.984
307.316
884.38
150.416
133.66
149.22
56.0087
25.2571
1.80439
2.72868
21.592
40.8161
46.2307
67.772
107.624
127.668
151.738
148.291
309.023
897.586
153.555
139.127
86.5914
81.0231
44.6114
2.53312
2.39287
11.3142
39.3729
46.71
66.2997
102.973
134.673
132.401
153.678
894.041
907.809
149.196
165.892
135.812
59.7139
56.754
64.0229
7.94735
6.60165
41.0609
52.5824
78.5214
106.407
135.213
144.179
186.23
1003.21
294.784
155.472
194.73
172.721
50.4396
19.21
18.1597
50.1074
52.7499
40.3642
50.0087
69.3417
102.155
136.626
147.583
194.241
1084
355.738
310.787
111.541
50.2363
20.7454
1.60289
3.95833
49.6076
57.8906
51.6186
74.6285
108.287
120.736
169.509
239.298
1218.69
336.835
276.209
127.762
48.5669
2.03785
1.374
2.00003
24.7004
49.5823
57.426
82.9473
135.247
129.839
142.392
281.117
300.44
361.684
239.954
196.313
81.7819
2.14243
1.67461
5.36233
18.4618
55.9609
62.6853
69.0511
95.0481
139.639
144.206
302.808
327.828
145.868
172.127
203.566
160.563
27.4416
2.2301
2.53972
41.4382
81.4269
102.437
120.383
123.947
153.42
173.002
882.424
341.511
161.859
194.525
230.931
218.819
153.173
85.2088
63.1771
70.6466
72.2753
112.328
192.729
190.357
255.914
197.6
1070.79
1229.62
310.858
184.014
148.534
218.981
216.981
195.977
152.294
136.233
197.666
246.483
172.102
90.34
166.34
243.831
497.453
1284.56
237.899
152.343
158.272
158.21
237.227
166.327
125.15
47.8126
87.4442
196.012
225.102
214.482
215.972
360.354
259.444
1052.12
221.981
165.375
138.454
126.582
202.022
110.751
130.281
103.443
89.489
168.901
214.46
232.906
214.008
317.818
834.217
327.952
169.971
510.925
277.67
162.197
112.787
115.87
77.5768
66.4173
78.6398
160.704
144.727
132.323
203.29
300.022
4091.82
335.718
574.532
406.527
242.494
221.576
165.649
92.5256
156.658
171.183
127.997
145.077
142.513
160.12
195.354
311.272
824.74
1114.56
670.273
304.4
193.134
221.211
188.445
99.6305
86.6575
151.963
175.519
174.384
165.223
218.213
214.619
337.735
1225.48
233.034
460.98
206.573
141.092
138.976
106.442
131.795
166.557
169.005
191.407
238.892
138.505
210.046
253.028
1442.99
1206.55
234.511
171.436
346.433
215.353
197.742
117.983
88.8565
163.463
202.392
170.165
201.287
282.949
173.357
344.443
1278.36
579.541
218.723
174.492
478.351
313.513
169.015
190.547
151.337
188.181
165.799
173.361
267.792
149.691
200.977
359.75
1156.13
558.861
465.151
352.63
249.218
154.153
148.895
146.643
166.584
195.526
312.894
174.099
256.13
1196.59
716.139
546.847
461.339
388.905
263.008
292.139
150.408
166.088
153.924
239.897
147.931
186.865
337.58
1194.93
228.11
173.344
505.112
396.144
163.536
303.636
381.622
163.425
187.868
259.773
166.686
221.503
553.269
1269.01
232.305
184.901
511.055
468.848
274.753
185.473
171.838
261.327
336.542
349.203
181.041
238.078
1230.22
1190.97
235.74
572.984
496.803
490.858
361.608
200.026
241.977
197.921
339.377
496.645
193.051
245.383
1314.42
1243.54
238.12
593.342
493.322
501.289
457.309
216.055
207.616
196.935
234.272
496.041
198.752
328.923
1359.78
1184.48
234.813
199.144
522.215
474.525
517.824
445.337
206.834
214.538
322.937
173.416
213.132
331.804
1450.29
1462.2
1178.68
184.417
183.278
492.464
493.073
616.143
340.707
281.567
356.786
520.12
204.568
336.405
174.228
524.305
478.725
476.365
151.744
507.282
531.626
556.993
521.25
179.277
165.452
481.004
563.823
182.999
218.264
297.062
1189.98
6249.98
597.577
164.928
500.351
545.897
224.664
369.571
2797.48
2087.99
519.79
805.834
223.012
245.141
1182.04
475.161
798.564
240.238
245.592
589.746
863.615
633.723
258.5
236.501
271.873
1180.79
1159.75
283.185
1959.7
845.684
525.447
347.299
189.804
185.355
225.743
236.268
660.231
292.537
204.464
376.631
698.527
1507.41
1356.84
6399.8
491.717
1448.26
556.866
527.726
1351.34
570.265
380.814
299.355
287.602
273.559
251.661
230.566
324.589
1380.93
582.734
368.943
272.827
261.612
241.72
231.964
235.21
248.431
252.568
241.196
222.094
236.855
253.987
224.862
1306.45
551.913
294.425
260.018
235.155
228.702
225.066
222.361
230.462
236.229
244.339
228.822
217.114
224.52
229.646
228.366
244.637
233.956
257.802
371.866
413.025
859.362
1010.52
534.578
285.628
249.148
238.337
222.136
219.763
223.133
224.843
225.518
225.962
230.386
239.846
223.53
581.531
577.853
223.599
232.343
221.81
246.276
250.079
274.238
621.711
576.106
328.563
257.863
241.287
209.468
195.337
199.669
206.984
216.457
225.25
231.337
221.444
233.092
223.548
225.316
231.702
211.68
537.862
581.338
205.43
223.657
245.075
267.023
304.08
1293.32
436.87
210.278
161.271
151.321
190.742
221.075
534.431
523.219
568.727
168.785
205.289
227.537
210.018
183.217
186.695
211.623
218.541
208.235
194.397
517.336
580.48
217.241
239.26
294.968
621.994
1507.34
399.636
301.867
255.531
195.585
217.278
196.943
235.26
323.221
374.42
237.791
409.045
161.527
196.928
275.713
340.833
680.386
181.445
208.249
223.133
234.979
584.799
591.053
267.555
601.542
1262.64
333.142
384.987
294.831
194.131
174.678
180.145
190.852
108.668
119.949
287.751
326.61
317.027
310.602
349.073
481.493
183.603
300.479
616.942
200.617
221.141
230.644
246.928
282.431
567.397
444.876
1363.72
323.46
354.472
253.879
185.05
135.496
155.912
128.204
120.006
122.031
109.234
122.479
263.8
312.988
356.221
302.505
269.157
208.049
136.976
286.645
165.438
216.445
247.737
359.618
615.939
1123.14
415.626
188.281
205.024
271.633
191.813
216.632
88.0389
118.1
130.538
216.068
103.887
70.5501
100.273
125.57
123.558
122.071
130.734
196.29
215.734
251.18
196.77
198.801
203.56
238.622
550.156
1165.89
242.808
157.995
266.298
212.103
186.053
199.897
74.2424
106.946
89.2236
97.342
125.225
142.5
99.4744
126.472
105.744
118.028
125.651
145.547
165.062
267.01
184.882
612.62
563.405
679.958
4537.94
770.573
1372.99
315.629
240.033
232.284
162.883
113.789
90.7187
103.662
95.6177
103.083
111.834
96.0175
108.587
110.239
123.589
159.365
106.175
141.019
166.282
177.443
177.288
153.5
586.897
1676.41
1286.37
352.562
239.793
172.579
152.311
189.685
50.8948
41.5154
14.6104
20.9166
87.8554
124.757
111.611
78.5342
99.796
113.576
129.048
148.948
166.298
205.048
192.483
140.615
215.77
460.461
457.588
187.202
216.15
281.192
240.385
134.958
107.636
139.203
47.3239
18.8902
16.0783
14.6015
16.5577
26.8607
49.44
28.2733
23.2772
89.3752
140.737
114.497
201.36
269.953
135.876
206.636
494.686
435.827
196.698
172.029
190.316
160.351
138.208
109.558
88.2564
95.3455
37.0374
18.2733
17.6952
14.7195
19.6563
19.1102
30.9085
24.1676
39.033
71.1043
133.179
196.758
258.902
512.736
197.316
489.938
390.111
165.193
213.504
197.701
168.007
125.871
92.2076
82.6879
88.83
82.9882
75.8651
37.3426
25.1666
15.9543
19.7997
19.1499
27.2261
37.8457
84.377
130.473
133.696
261.241
308.011
463.464
888.103
1162.98
377.564
160.366
199.809
180.89
169.985
131.501
138.129
108.971
94.1086
74.9025
67.4994
57.1198
57.7008
27.517
28.6812
25.4415
25.1755
25.7706
29.089
76.5748
139.873
213.363
314.442
396.046
429.02
1147.19
374.427
151.298
188.224
175.297
166.735
125.899
105.664
77.9913
49.7017
39.1344
57.2552
64.7769
61.2606
55.7744
57.4961
51.1679
55.9121
70.2782
39.283
73.675
114.117
169.915
253.965
346.05
461.93
1036.82
265.286
152.657
194.435
184.289
167.084
125.42
107.26
82.1237
59.722
39.1918
13.5085
17.9659
49.5712
64.8587
70.6055
74.8431
85.9789
71.6245
61.1521
88.0522
106.229
161.53
182.454
340.499
329.914
1354.93
1245.86
280.297
146.776
166.568
189.236
149.958
117.271
95.9302
77.6443
66.979
60.0365
52.7932
42.5237
35.5723
36.4986
52.6867
65.8832
72.2155
45.6796
43.9837
43.7992
102.581
153.183
228.067
269.956
200.835
1561.39
420.184
160.406
204.119
190.087
145.595
104.752
80.5409
62.3799
53.5811
50.8233
53.8519
55.4659
55.4899
52.3562
49.0609
50.3527
54.2682
61.9571
61.2941
56.1475
23.1881
64.5376
194.323
266.971
195.903
462.658
470.151
195.203
166.304
177.287
152.797
99.7739
58.3557
25.9931
16.3068
13.8114
16.175
32.1307
47.3181
53.5636
55.7335
56.1826
56.367
60.8377
67.4826
76.5282
77.1841
106.526
154.191
254.924
199.012
481.907
1019.39
243.056
163.355
176.661
169.686
91.8847
60.1095
28.8826
11.7232
5.14871
4.13042
3.83933
4.42041
13.2899
41.9239
52.4075
57.8577
60.5056
66.2969
80.0107
97.1864
131.925
181.325
189.328
168.49
432.232
413.114
157.892
171.343
170.18
110.47
63.8192
20.5717
7.13419
4.49658
3.58556
2.83374
2.83686
3.20752
6.69053
25.3648
46.1456
57.7863
65.6269
75.7966
87.6151
104.37
137.43
203.604
260.856
288.807
472.645
179.323
215.131
193.058
138.518
65.1468
22.1858
9.14934
2.25081
1.77454
2.28923
2.64663
2.03629
2.20172
2.51549
8.33688
34.5978
52.6976
68.2144
86.7104
102.846
133.301
170.738
184.815
171.957
842.457
966.052
231.442
164.48
186.495
172.209
118.088
65.9759
13.7898
2.30738
1.52302
1.32074
1.44635
1.76829
1.90114
1.66169
1.90524
3.34591
7.26122
24.5918
61.5389
91.6989
125.767
177.461
172.866
147.996
409.38
969.08
245.906
165.218
185.111
171.05
123.316
88.24
51.0245
18.3938
2.79007
1.44831
1.33635
1.29548
1.28213
1.38273
1.52024
1.81796
3.39315
14.2531
21.9942
64.2959
118.067
175.077
203.639
240.965
252.843
1100.44
418.005
185.313
181.682
169.607
116.279
88.4295
63.0919
33.5767
9.03631
2.23314
1.4807
1.28831
1.32025
1.38829
1.31784
1.69427
2.84718
5.08838
14.6623
47.9651
88.4642
167.65
207.067
235.65
234.57
936.075
797.189
201.785
214.734
182.582
106.595
77.6113
54.1646
38.9424
21.4557
5.73712
1.77602
1.44908
1.64011
2.39855
1.378
1.36343
1.73624
5.84961
13.4152
29.0536
72.2716
124.92
203.308
213.757
241.272
934.83
251.291
159.617
159.768
135.752
69.5815
26.4135
13.1876
16.0881
11.4705
3.8992
1.75243
1.48843
3.59164
7.06864
4.09557
1.56399
1.84467
5.18953
36.5579
71.977
101.911
191.149
195.031
221.965
935.66
801.668
163.945
158.86
156.494
104.814
70.9998
32.9534
5.14543
3.79832
6.13513
5.69182
5.33416
4.34836
5.20221
10.3769
11.5045
3.54886
2.5793
13.7429
44.0505
95.4983
171.093
212.522
255.717
405.1
275.339
165.083
162.732
138.765
79.7081
54.5294
33.7767
16.5657
3.08752
2.10676
3.63792
6.95924
8.25299
7.25441
9.3798
15.7557
15.2559
7.65683
22.4971
83.4805
127.13
192.068
233.336
249.458
973.886
978.843
216.128
165.33
163.293
97.8225
63.7914
39.0991
26.018
14.7282
7.91519
3.85983
2.68878
3.67859
4.53442
3.77662
2.40166
5.18845
25.3689
38.3091
39.6206
118.359
198.519
193.303
172.806
882.065
346.747
192.094
183.303
126.181
71.3484
44.1351
23.9883
13.3951
9.1485
3.73807
2.755
5.27787
6.10178
5.26341
4.51926
2.38329
2.96089
15.1912
60.7777
105.083
159.917
190.747
244.811
276.38
1253.36
749.854
156.175
155.664
162.365
79.6226
27.1528
12.3705
11.6093
4.57176
2.16305
1.96418
1.60528
1.75964
5.26895
9.02369
10.6591
14.1054
21.4063
32.6308
68.2243
107.923
175.052
219.151
241.109
944.393
220.138
189.773
157.664
128.692
83.6998
35.1552
4.24367
2.12157
1.85007
1.52434
1.45802
1.43456
1.25855
1.83872
7.54014
16.5345
24.3382
36.67
59.0775
100.407
158.775
196.868
155.562
434.821
729.154
155.347
148.639
128.62
89.2965
64.0516
44.4056
17.2209
3.14221
1.36201
1.31833
1.155
1.26695
1.33211
1.73428
4.12258
14.9076
28.1865
47.4003
69.9128
103.476
171.556
203.616
239.707
1044.92
250.102
154.035
146.217
115.724
71.2602
47.9613
30.5396
18.1117
7.0209
2.12799
1.31168
1.32632
1.27506
2.01184
2.80751
2.34631
11.3551
33.2122
54.258
79.5099
113.973
169.243
210.441
413.365
737.48
153.83
147.662
138.927
89.9133
62.1804
38.0404
22.071
10.5245
5.18059
3.89727
3.0021
2.75508
3.33554
3.03884
3.35598
3.30979
10.2636
38.3525
75.5528
103.795
164.666
160.006
175.429
914.846
247.616
151.044
143.1
120.874
79.0072
52.9456
33.7943
21.3769
10.1805
3.31328
1.82457
2.86046
3.52562
5.14295
8.911
11.801
14.4102
25.3392
48.7792
85.3935
125.442
173.815
190.738
268.497
752.026
153.371
142.286
134.779
85.9825
62.2083
42.8971
27.7364
18.2124
11.1614
4.97737
2.90442
1.75469
2.18628
2.32168
7.32324
16.9284
26.2663
40.1176
69.2153
102.096
171.705
166.481
168.397
880.493
253.755
142.046
135.377
112.373
70.7465
47.6356
31.9051
22.4167
15.8107
10.7115
5.51855
2.33255
1.97174
2.07857
2.44198
3.42837
14.3243
30.9037
52.9094
80.0654
123.592
164.94
220.937
269.899
214.95
168.389
140.594
86.6546
57.2626
37.1939
25.4313
17.619
13.737
11.6548
8.28464
4.56501
1.93705
1.57674
2.00215
5.3248
14.5014
35.0784
59.4744
96.7688
149.89
196.542
153.017
745.84
778.803
150.38
139.532
122.741
68.6266
44.226
28.6922
19.7495
14.8243
12.2927
11.7626
11.1595
8.61631
5.40188
4.90445
5.45101
8.08533
20.0402
46.2549
68.8814
108.567
172.172
207.292
241.032
1047.33
743.417
169.094
145.291
106.384
61.0557
32.1417
20.5934
14.7282
11.105
9.80798
10.137
10.7691
10.7212
10.0974
9.93875
12.1535
17.0547
26.4923
45.8586
69.3605
98.9803
160.729
225.622
689.623
370.185
164.817
143.491
92.6232
43.4061
17.7188
9.90897
10.2387
7.74435
4.91222
5.3085
7.90887
9.84467
10.7612
12.119
15.6484
23.6146
35.7778
56.7521
84.5852
133.56
183.769
188.929
828.059
216.362
178.451
154.56
95.3492
52.1477
16.6806
4.27715
4.90711
7.32621
4.46117
2.04833
2.55038
6.89356
10.0769
12.5394
16.7059
25.4181
43.3774
64.7651
94.324
146.848
200.239
250.599
753.497
175.786
163.919
131.673
76.2351
51.0926
28.0017
12.618
6.42754
7.10827
7.37158
4.3736
2.12148
2.87641
7.71602
12.7969
17.8629
26.1148
45.4593
69.531
108.369
168.026
152.22
758.053
389.344
159.437
144.023
106.095
71.3131
45.2089
27.6489
14.9233
8.47145
7.59514
8.61093
8.82954
6.57392
5.18745
7.12912
12.3134
19.2604
29.1888
47.0636
73.6467
122.281
182.466
193.59
1014.85
211.31
184.291
145.603
96.7749
60.5319
38.6446
24.5803
13.2157
4.57782
2.78478
4.75789
7.47579
9.15964
9.51801
9.98175
13.7107
21.0933
33.0317
54.1553
84.3068
140.242
168.381
238.686
782.817
153.127
139.815
120.033
84.4647
57.1754
35.5115
21.8175
12.4995
5.91374
2.23172
1.54098
3.50732
6.98127
9.15236
11.2465
14.8914
23.2353
37.4209
57.6623
86.1077
139.432
181.133
394.602
376.81
151.49
138.134
116.309
67.1005
46.895
32.0099
19.3502
9.56587
4.99114
3.41174
2.28826
1.60592
2.22034
5.64126
10.1559
15.2253
24.7281
42.8311
63.9682
100.876
158.624
147.752
732.255
258.783
136.276
124.325
90.7264
59.4327
36.4072
24.4716
15.4528
6.77766
2.46235
1.59073
1.84841
2.82113
1.87889
1.65009
5.12196
14.7324
24.9531
46.3257
69.052
102.427
178.386
199.174
1022.02
219.421
178.429
141.415
84.5942
54.5192
32.5594
20.5734
13.8137
7.59442
2.59896
1.27933
1.09392
1.50912
2.78726
2.53023
3.23665
11.1328
28.3083
48.2353
83.1295
149.616
153.569
211.817
949.354
156.353
127.909
115.96
71.7586
47.2353
29.8705
18.7181
12.7409
9.74883
5.51823
2.29889
1.18299
1.02794
1.343
3.06816
6.8467
14.1549
30.5319
56.8484
84.2379
141.21
195.433
380.115
761.187
146.762
138.607
109.31
67.9063
46.3217
28.323
18.0635
12.4245
10.1483
8.64407
5.72808
3.36745
1.85188
1.1089
1.47565
5.54776
18.2562
35.4967
64.1401
102.506
168.995
155.034
778.051
702.765
161.836
141.3
106.731
65.507
43.6184
28.0092
17.9712
12.719
10.6186
9.5248
8.00358
5.75477
3.41476
2.37508
1.46571
2.82056
14.3668
40.2138
68.7567
132.869
144.091
209.005
262.749
144.265
130.105
94.1038
65.7123
41.2471
26.2895
17.6511
12.3027
10.1785
9.62255
7.91403
4.42934
2.88748
2.29501
2.62406
3.64371
13.1468
40.1221
78.6298
150.366
166.168
263.901
253.105
136.401
127.84
92.6999
57.9019
37.3595
24.5382
16.3573
11.9868
9.59658
8.93673
8.9534
6.51373
3.07085
1.49729
1.73552
5.3506
17.7853
43.8206
85.7091
158.307
191.251
690.281
223.413
180.713
144.107
79.1951
53.1633
32.6384
21.5432
14.8018
9.94156
6.91044
6.8249
7.65721
8.14555
6.97899
4.32724
3.04828
5.71563
19.3722
49.2692
92.0253
167.281
206.215
725.619
218.698
145.001
124.377
73.7958
48.0742
28.3674
19.012
13.4569
9.48823
4.86893
2.45455
3.03592
6.79791
8.66747
9.62307
9.43791
12.2043
23.6345
50.2159
95.1846
145.653
185.199
865.676
208.543
140.477
116.98
71.0572
47.6226
28.9665
17.7799
13.0642
10.5967
7.73451
4.15877
2.02268
2.78947
7.1295
10.4498
14.1151
19.0661
30.9143
53.1705
95.261
156.293
165.119
971.129
926.078
163.513
135.17
117.788
72.8159
48.7801
29.0712
17.7584
12.387
10.7746
9.61845
8.3308
6.09605
4.66028
5.75324
9.02256
13.6953
21.9496
35.1693
60.2731
86.7726
157.085
197.102
736.002
176.025
167.282
129.236
73.2791
47.4094
28.6505
17.2591
11.9529
9.93834
9.20218
8.78293
8.63187
8.63177
8.4544
9.75542
13.7675
22.1486
39.0212
63.6092
100.896
168.569
202.982
721.951
173.949
143.746
108.237
73.5885
44.5039
26.3963
15.261
10.451
8.81549
7.26064
6.54123
6.56627
7.38546
9.25075
11.0547
14.7419
22.8055
39.7642
67.6621
122.516
143.122
210.202
376.161
152.956
138.923
102.72
62.857
39.4629
18.2358
8.7054
7.03194
6.13103
4.95285
3.60918
2.95922
3.57675
6.44386
10.0544
15.0151
23.9002
40.8003
68.0219
131.081
182.68
265.938
256.865
135.205
133.493
95.8405
61.2271
38.4193
19.2485
4.79671
2.35364
2.60658
2.66725
2.33091
1.34872
1.08004
2.02419
6.88799
14.0324
24.5917
44.1106
70.6097
139.618
183.792
655.364
262.139
136.134
130.502
81.2512
53.5746
36.0335
22.5659
10.2882
2.97475
1.40488
1.00905
0.967796
1.0232
1.07499
1.46338
3.62588
12.6583
25.7009
47.3177
75.4018
140.986
181.441
690.443
226.114
141.021
125.607
78.8663
48.9135
30.2772
20.4412
13.4002
7.65032
3.49217
1.63415
0.817154
0.759672
0.877093
1.87336
4.74591
12.2036
26.9883
51.4755
88.9105
132.911
178.112
720.36
214.317
150.388
136.705
78.5561
48.376
27.9604
17.7283
12.7532
9.85869
6.85542
3.32682
1.31298
0.767584
0.790428
1.38734
4.7289
13.9585
28.2556
52.7083
95.5444
143.267
148.825
789.145
225.069
153.939
131.305
69.586
43.5365
26.4187
16.551
11.9405
8.99428
6.78635
5.18899
3.01317
1.27364
0.886741
1.32527
4.28115
13.7506
30.4799
52.653
82.2921
148.48
193.609
985.756
216.531
157.56
132.94
64.011
40.7962
25.1409
15.834
11.3984
8.32862
4.66854
3.17832
2.85784
2.78319
1.83247
2.08347
5.06437
14.3333
31.5925
58.4911
91.2112
149.672
205.772
924.57
160.849
151.018
99.1148
55.716
34.2451
22.6744
15.2603
11.423
9.47886
6.10523
2.86476
1.26695
1.48084
3.37818
4.98534
8.41017
18.0669
35.7788
58.7593
93.4639
152.757
210.469
732.788
186.747
148.237
51.2142
15.9757
8.5969
12.5232
12.7308
11.1526
9.84315
8.03729
5.09189
2.18251
1.06168
2.00472
6.77428
13.3303
21.9063
40.455
63.4499
95.7721
156.486
217.264
734.038
174.286
143.86
64.5084
8.84484
2.13012
2.96348
7.66099
10.3865
9.53764
6.5852
4.61329
3.53087
2.36813
1.67186
4.78178
14.0699
26.4716
43.2603
71.5064
122.93
160.988
203.08
389.164
154.757
135.493
91.4175
35.5602
6.31687
3.25596
5.68797
8.49783
9.10558
6.44927
3.39407
1.72629
1.89809
3.28398
5.52471
13.1139
28.1723
50.3283
80.066
142.315
169.313
236.933
248.969