/*--------------------------------*- C++ -*----------------------------------*\
| =========                 |                                                 |
| \\      /  F ield         | OpenFOAM: The Open Source CFD Toolbox           |
|  \\    /   O peration     | Version:  2312                                  |
|   \\  /    A nd           | Website:  www.openfoam.com                      |
|    \\/     M anipulation  |                                                 |
\*---------------------------------------------------------------------------*/
FoamFile
{
    version     2.0;
    format      ascii;
    arch        "LSB;label=64;scalar=64";
    class       volScalarField;
    location    "40";
    object      p;
}
// * * * * * * * * * * * * * * * * * * * * * * * * * * * * * * * * * * * * * //

dimensions      [0 2 -2 0 0 0 0];

internalField   nonuniform List<scalar> 
404911
(
-2.09228
-2.08731
-2.0855
-2.08486
-2.09915
-2.09048
-2.08641
-2.0855
-2.08512
-2.08496
-2.12938
-2.12581
-2.11889
-2.10728
-2.09635
-2.08946
-2.14085
-2.1347
-2.12896
-2.12167
-2.15729
-2.14815
-2.14268
-2.1691
-2.1639
-2.16088
-2.18264
-2.17359
-2.16669
-2.20621
-2.19803
-2.18964
-2.1803
-2.17058
-2.21864
-2.20782
-2.20083
-2.24287
-2.2373
-2.22929
-2.22481
-2.25682
-2.25112
-2.24367
-2.23603
-2.23053
-2.26318
-2.25703
-2.25052
-2.24244
-2.27481
-2.27067
-2.26387
-2.25651
-2.27637
-2.27431
-2.31332
-2.08779
-2.10114
-2.09195
-2.12281
-2.11781
-2.14191
-2.13523
-2.12898
-2.15598
-2.1487
-2.14173
-2.16939
-2.16205
-2.18329
-2.17522
-2.16698
-2.19778
-2.19059
-2.18223
-2.17402
-2.21646
-2.20797
-2.23462
-2.22636
-2.25015
-2.2432
-2.23377
-2.26475
-2.25736
-2.2772
-2.2718
-2.26485
-2.28138
-2.27771
-2.3161
-2.32288
-2.31624
-2.34555
-2.33756
-2.32981
-2.35957
-2.35285
-2.34458
-2.37287
-2.36587
-2.36005
-2.37242
-1.03644
-1.02745
-1.01692
-1.08676
-1.07273
-1.05943
-1.04886
-1.04187
-1.03311
-1.02586
-1.00922
-1.11337
-1.10514
-1.08275
-1.06858
-1.05408
-1.04587
-1.0384
-1.02921
-0.988532
-1.14347
-1.1336
-1.12566
-1.11768
-1.1105
-1.105
-1.09082
-1.0765
-1.06268
-1.0525
-1.04342
-1.03355
-1.01772
-1.00283
-0.992366
-0.980555
-1.17073
-1.15882
-1.1475
-1.13721
-1.12865
-1.12116
-1.11362
-1.10775
-1.0996
-1.08607
-1.07271
-1.06139
-1.05058
-1.04157
-0.994727
-1.2015
-1.18753
-1.17416
-1.16248
-1.15063
-1.14018
-1.13145
-1.12418
-1.11676
-1.10905
-1.10048
-1.09026
-1.07926
-1.06922
-1.06016
-1.22033
-1.20903
-1.19622
-1.18334
-1.16986
-1.15768
-1.14474
-1.13383
-1.12738
-1.1198
-1.11188
-1.10322
-1.0938
-1.08362
-1.07294
-1.06398
-1.24935
-1.23834
-1.22711
-1.21519
-1.20271
-1.19125
-1.17699
-1.16467
-1.15145
-1.13824
-1.13149
-1.12365
-1.11584
-1.10755
-1.0983
-1.08893
-1.07794
-1.29022
-1.27755
-1.2686
-1.25759
-1.24601
-1.23356
-1.22104
-1.2092
-1.19628
-1.18391
-1.17099
-1.15704
-1.14467
-1.13652
-1.12865
-1.12066
-1.11267
-1.10256
-1.30918
-1.29756
-1.2862
-1.2757
-1.26503
-1.25293
-1.24162
-1.22946
-1.21633
-1.20394
-1.19203
-1.17844
-1.16069
-1.15101
-1.1424
-1.13415
-1.12609
-1.11777
-1.33975
-1.32802
-1.31881
-1.30525
-1.29343
-1.28227
-1.27123
-1.25969
-1.24837
-1.23656
-1.2231
-1.2117
-1.19972
-1.18582
-1.17116
-1.15628
-1.14849
-1.14007
-1.35865
-1.34624
-1.33466
-1.32455
-1.3125
-1.30003
-1.28901
-1.27754
-1.26671
-1.25484
-1.24273
-1.22987
-1.21893
-1.20683
-1.19356
-1.17974
-1.16451
-1.38438
-1.37464
-1.36515
-1.35536
-1.34263
-1.33149
-1.31974
-1.30832
-1.29633
-1.28394
-1.27365
-1.26095
-1.24931
-1.23697
-1.22588
-1.21535
-1.20459
-1.40865
-1.39681
-1.3887
-1.38158
-1.37257
-1.36113
-1.34998
-1.33859
-1.32675
-1.31578
-1.30563
-1.29154
-1.28031
-1.26837
-1.25643
-1.24432
-1.23279
-1.2218
-1.43598
-1.42895
-1.41676
-1.40408
-1.39348
-1.38886
-1.37813
-1.36755
-1.35671
-1.34531
-1.33413
-1.32267
-1.31197
-1.29967
-1.28735
-1.27418
-1.2622
-1.25147
-1.45877
-1.44976
-1.44165
-1.43441
-1.42154
-1.41024
-1.39957
-1.39297
-1.38393
-1.37308
-1.36248
-1.35187
-1.34461
-1.33063
-1.31823
-1.3061
-1.29521
-1.28053
-1.47398
-1.46438
-1.45525
-1.44731
-1.43945
-1.42672
-1.41636
-1.40717
-1.3973
-1.39038
-1.37761
-1.36521
-1.35699
-1.35091
-1.33724
-1.32427
-1.30833
-1.29998
-1.49789
-1.48853
-1.47989
-1.47036
-1.46092
-1.45183
-1.44319
-1.43487
-1.42395
-1.41488
-1.40423
-1.39587
-1.38465
-1.37256
-1.36058
-1.3558
-1.34625
-1.332
-1.51369
-1.50235
-1.4944
-1.48604
-1.47631
-1.46539
-1.45761
-1.44743
-1.43785
-1.43117
-1.42378
-1.41377
-1.40319
-1.39217
-1.38107
-1.36675
-1.35971
-1.35105
-1.54155
-1.53441
-1.52378
-1.51243
-1.5014
-1.49405
-1.48417
-1.47248
-1.46207
-1.45153
-1.44092
-1.43454
-1.42819
-1.4198
-1.41068
-1.40065
-1.38767
-1.37602
-1.55452
-1.54659
-1.54101
-1.53034
-1.52011
-1.51033
-1.501
-1.49091
-1.47966
-1.46834
-1.45767
-1.44661
-1.43874
-1.43214
-1.42342
-1.41596
-1.40774
-1.57605
-1.56856
-1.56062
-1.55243
-1.54564
-1.53705
-1.52711
-1.51856
-1.5091
-1.49848
-1.48743
-1.47528
-1.46442
-1.45347
-1.44523
-1.43755
-1.42837
-1.4215
-1.58939
-1.58168
-1.57395
-1.56606
-1.55859
-1.55195
-1.54251
-1.53399
-1.52603
-1.51772
-1.50663
-1.49662
-1.48343
-1.47138
-1.45995
-1.45206
-1.44404
-1.43516
-1.602
-1.59454
-1.58713
-1.58004
-1.57158
-1.56303
-1.55613
-1.54788
-1.53979
-1.53375
-1.52632
-1.51598
-1.50471
-1.49204
-1.47944
-1.46689
-1.4583
-1.45005
-1.62238
-1.61526
-1.60818
-1.60056
-1.59296
-1.58663
-1.57882
-1.5695
-1.55969
-1.55202
-1.54368
-1.53725
-1.53121
-1.52374
-1.51202
-1.49981
-1.4883
-1.47707
-1.64128
-1.63433
-1.62716
-1.62037
-1.61384
-1.60668
-1.59882
-1.5914
-1.58464
-1.57562
-1.56676
-1.55828
-1.54898
-1.54145
-1.53532
-1.5272
-1.51741
-1.50787
-1.65319
-1.64585
-1.63923
-1.63237
-1.62582
-1.61917
-1.61288
-1.60583
-1.59652
-1.58745
-1.58004
-1.57287
-1.56388
-1.55492
-1.54684
-1.5407
-1.53169
-1.52305
-1.6706
-1.66428
-1.65746
-1.65081
-1.64382
-1.63698
-1.63037
-1.62389
-1.61819
-1.61235
-1.60304
-1.59475
-1.58645
-1.57742
-1.56973
-1.56162
-1.55379
-1.5459
-1.6816
-1.67547
-1.66935
-1.66247
-1.65551
-1.64828
-1.64136
-1.63484
-1.62853
-1.62268
-1.61722
-1.60956
-1.60127
-1.59286
-1.58391
-1.57493
-1.56726
-1.55991
-1.69263
-1.68638
-1.67989
-1.674
-1.66752
-1.66008
-1.65244
-1.64554
-1.63936
-1.63326
-1.62702
-1.62061
-1.61345
-1.6057
-1.59747
-1.58966
-1.5809
-1.57211
-1.70441
-1.69818
-1.69061
-1.68429
-1.67853
-1.67274
-1.66505
-1.65708
-1.64977
-1.64405
-1.63821
-1.63185
-1.62514
-1.61783
-1.61005
-1.60252
-1.59418
-1.58619
-1.72349
-1.71594
-1.70857
-1.70283
-1.69669
-1.68951
-1.68412
-1.67925
-1.67159
-1.66286
-1.65404
-1.6489
-1.64321
-1.63712
-1.63042
-1.623
-1.61503
-1.60733
-1.73597
-1.72918
-1.7218
-1.71433
-1.70758
-1.70205
-1.69563
-1.68983
-1.68497
-1.67817
-1.66966
-1.66024
-1.65401
-1.64819
-1.64215
-1.63568
-1.62833
-1.62083
-1.74849
-1.74165
-1.73493
-1.72784
-1.71967
-1.71167
-1.70511
-1.69965
-1.69407
-1.68897
-1.68352
-1.67598
-1.66724
-1.65998
-1.65338
-1.64682
-1.64039
-1.63325
-1.76027
-1.75376
-1.74684
-1.74051
-1.7343
-1.72641
-1.71753
-1.70941
-1.7037
-1.69831
-1.69268
-1.68697
-1.68047
-1.67281
-1.66588
-1.65912
-1.65241
-1.77912
-1.77337
-1.76602
-1.75893
-1.75188
-1.74515
-1.73994
-1.733
-1.7237
-1.71416
-1.70814
-1.70287
-1.6973
-1.69159
-1.68532
-1.67794
-1.67118
-1.66397
-1.79124
-1.7848
-1.77875
-1.7723
-1.7651
-1.75724
-1.7496
-1.74385
-1.73828
-1.72996
-1.71887
-1.71277
-1.7076
-1.70235
-1.69671
-1.69029
-1.68377
-1.67667
-1.80135
-1.79623
-1.79054
-1.78493
-1.77913
-1.7718
-1.76387
-1.75591
-1.74859
-1.74352
-1.73675
-1.72792
-1.71904
-1.71293
-1.70772
-1.70189
-1.69506
-1.68861
-1.81797
-1.8124
-1.80624
-1.80114
-1.79598
-1.79068
-1.78586
-1.779
-1.77116
-1.76247
-1.75439
-1.74818
-1.74321
-1.73515
-1.72646
-1.71922
-1.71345
-1.70728
-1.82932
-1.8233
-1.81717
-1.81127
-1.80602
-1.80096
-1.79588
-1.79143
-1.78467
-1.77676
-1.76863
-1.75973
-1.75226
-1.74775
-1.74114
-1.73357
-1.72593
-1.71884
-1.83996
-1.83426
-1.82802
-1.82172
-1.81588
-1.81053
-1.80549
-1.80025
-1.79558
-1.79046
-1.78442
-1.77444
-1.76622
-1.7577
-1.75212
-1.74596
-1.73923
-1.73177
-1.85134
-1.84531
-1.83914
-1.83265
-1.82641
-1.82057
-1.81516
-1.81011
-1.80445
-1.79844
-1.79349
-1.78862
-1.78008
-1.77213
-1.76424
-1.75811
-1.75156
-1.74501
-1.86259
-1.85641
-1.85051
-1.84411
-1.83754
-1.83123
-1.82537
-1.82005
-1.81526
-1.80968
-1.8019
-1.79605
-1.79152
-1.78482
-1.77689
-1.77019
-1.76407
-1.87953
-1.87329
-1.86777
-1.86183
-1.85593
-1.84929
-1.84225
-1.83575
-1.82998
-1.8249
-1.82041
-1.81645
-1.80905
-1.80207
-1.7949
-1.78995
-1.78242
-1.77566
-1.89032
-1.88465
-1.87854
-1.87314
-1.86744
-1.86156
-1.85489
-1.84669
-1.83936
-1.83389
-1.82944
-1.82485
-1.82106
-1.81515
-1.80731
-1.80011
-1.79499
-1.78807
-1.90127
-1.89535
-1.88928
-1.88351
-1.87812
-1.87254
-1.86738
-1.86196
-1.85379
-1.84561
-1.83807
-1.83385
-1.82898
-1.82419
-1.8189
-1.81191
-1.80543
-1.79978
-1.91243
-1.90626
-1.89993
-1.89383
-1.88827
-1.88282
-1.87734
-1.87247
-1.86794
-1.86142
-1.85368
-1.84513
-1.8393
-1.83397
-1.82851
-1.82263
-1.81658
-1.81079
-1.92364
-1.9175
-1.91108
-1.90465
-1.89875
-1.89326
-1.88771
-1.88206
-1.87681
-1.87207
-1.86694
-1.86026
-1.85269
-1.84592
-1.8397
-1.83398
-1.82763
-1.82086
-1.93521
-1.92909
-1.92242
-1.91583
-1.90957
-1.90357
-1.89786
-1.89231
-1.88657
-1.88113
-1.87568
-1.87018
-1.86431
-1.85788
-1.85157
-1.84529
-1.83903
-1.83303
-1.94791
-1.94155
-1.93458
-1.92699
-1.92047
-1.91446
-1.90834
-1.90203
-1.89613
-1.89047
-1.88518
-1.87999
-1.87453
-1.86885
-1.86287
-1.85672
-1.85065
-1.84475
-1.95914
-1.95367
-1.94721
-1.93993
-1.93211
-1.92437
-1.91886
-1.91361
-1.90675
-1.89996
-1.8942
-1.88934
-1.88475
-1.87947
-1.87389
-1.86819
-1.86226
-1.85582
-1.97629
-1.97039
-1.96462
-1.95944
-1.95431
-1.94748
-1.93861
-1.92906
-1.92276
-1.9187
-1.91409
-1.907
-1.90073
-1.89467
-1.8901
-1.88473
-1.87903
-1.87343
-1.86789
-1.98807
-1.98169
-1.97559
-1.97012
-1.96514
-1.96029
-1.95455
-1.94667
-1.93772
-1.92997
-1.92353
-1.91952
-1.9143
-1.90776
-1.90078
-1.89557
-1.89018
-1.88442
-1.99279
-1.98724
-1.98127
-1.97556
-1.96998
-1.96516
-1.9609
-1.9548
-1.94535
-1.93716
-1.93067
-1.92423
-1.92016
-1.91402
-1.90734
-1.90136
-1.89547
-2.00991
-2.00432
-1.99824
-1.99242
-1.98656
-1.98057
-1.97463
-1.9695
-1.96585
-1.96023
-1.9512
-1.94374
-1.93636
-1.92958
-1.92447
-1.91894
-1.91293
-1.90722
-2.02004
-2.01476
-2.00921
-2.00359
-1.99797
-1.99203
-1.98562
-1.97884
-1.97339
-1.96992
-1.96511
-1.95667
-1.94936
-1.9413
-1.93528
-1.92992
-1.92413
-1.91795
-2.03178
-2.02528
-2.01971
-2.01407
-2.00873
-2.0034
-1.99795
-1.99151
-1.98309
-1.97659
-1.97323
-1.9695
-1.96217
-1.95468
-1.94732
-1.94115
-1.93543
-1.92936
-2.03481
-2.03033
-2.02485
-2.01908
-2.01351
-2.00813
-2.00355
-1.99874
-1.99032
-1.98229
-1.97613
-1.97245
-1.96665
-1.96004
-1.95286
-1.94648
-1.94061
-2.05016
-2.0417
-2.03428
-2.02968
-2.02404
-2.01813
-2.01248
-2.00785
-2.00397
-1.99613
-1.98782
-1.98083
-1.97589
-1.97059
-1.96465
-1.95791
-1.95181
-2.07286
-2.06386
-2.05609
-2.04775
-2.03919
-2.03449
-2.02923
-2.02332
-2.01631
-2.0113
-2.00767
-2.00097
-1.99256
-1.98656
-1.98075
-1.97522
-1.9695
-1.96303
-2.08223
-2.07738
-2.07025
-2.06191
-2.05277
-2.04514
-2.03965
-2.03467
-2.02882
-2.02171
-2.01566
-2.0114
-2.00602
-1.99891
-1.99237
-1.98621
-1.9801
-2.09416
-2.08776
-2.08079
-2.07348
-2.06663
-2.05756
-2.04985
-2.04414
-2.04035
-2.0356
-2.02854
-2.02199
-2.01554
-2.01046
-2.00463
-1.99773
-1.99213
-2.11315
-2.10645
-2.09925
-2.09286
-2.086
-2.0782
-2.07148
-2.06416
-2.05504
-2.04938
-2.04405
-2.03936
-2.03439
-2.02841
-2.02184
-2.01592
-2.00996
-2.0035
-2.1252
-2.11832
-2.11195
-2.10489
-2.09839
-2.09074
-2.08315
-2.07603
-2.06971
-2.06116
-2.05691
-2.05021
-2.04264
-2.03773
-2.03296
-2.02739
-2.02149
-2.01534
-2.13793
-2.12923
-2.12259
-2.11738
-2.11051
-2.10375
-2.09529
-2.08736
-2.08082
-2.07579
-2.06972
-2.06383
-2.05704
-2.05022
-2.04316
-2.03792
-2.03261
-2.02668
-2.15223
-2.14621
-2.13723
-2.12999
-2.1233
-2.11663
-2.10954
-2.10181
-2.09372
-2.08728
-2.0829
-2.07681
-2.07074
-2.0641
-2.05722
-2.0498
-2.04255
-2.03755
-2.17023
-2.16366
-2.15695
-2.15134
-2.1433
-2.136
-2.12888
-2.12221
-2.1163
-2.10877
-2.10183
-2.09614
-2.09032
-2.08425
-2.07906
-2.07208
-2.06518
-2.0582
-2.04851
-2.18347
-2.17648
-2.16927
-2.16289
-2.15623
-2.14906
-2.142
-2.13488
-2.12851
-2.12223
-2.11545
-2.10936
-2.10394
-2.09871
-2.09184
-2.08478
-2.07757
-2.07123
-2.06479
-2.19072
-2.18333
-2.17634
-2.16959
-2.16252
-2.15525
-2.14854
-2.14136
-2.13464
-2.12807
-2.12157
-2.11551
-2.10949
-2.10367
-2.09701
-2.09021
-2.08269
-2.07636
-2.20483
-2.19773
-2.19063
-2.18334
-2.17627
-2.16929
-2.16204
-2.15524
-2.14847
-2.14124
-2.13467
-2.12682
-2.12133
-2.11535
-2.10931
-2.10324
-2.09641
-2.21988
-2.21208
-2.20493
-2.19777
-2.19023
-2.18321
-2.1757
-2.16875
-2.16153
-2.15482
-2.1471
-2.14087
-2.13372
-2.12734
-2.12137
-2.11504
-2.10858
-2.23805
-2.22551
-2.2194
-2.21301
-2.20602
-2.19883
-2.1912
-2.18292
-2.1754
-2.16796
-2.16105
-2.15332
-2.14697
-2.14031
-2.13396
-2.12782
-2.12133
-2.2669
-2.25913
-2.24824
-2.2383
-2.22972
-2.22212
-2.21476
-2.20701
-2.19906
-2.19103
-2.18316
-2.17581
-2.16758
-2.1592
-2.15325
-2.14675
-2.14006
-2.13337
-2.28013
-2.27386
-2.26717
-2.25753
-2.24832
-2.24012
-2.23229
-2.22463
-2.21515
-2.20674
-2.19839
-2.19074
-2.18299
-2.17562
-2.16755
-2.16064
-2.15346
-2.2935
-2.28673
-2.28004
-2.27304
-2.26524
-2.25686
-2.24918
-2.24054
-2.23233
-2.22261
-2.21367
-2.20505
-2.19723
-2.19051
-2.18234
-2.17453
-2.16741
-2.30764
-2.30048
-2.29352
-2.2864
-2.27951
-2.27284
-2.26452
-2.25729
-2.24874
-2.23941
-2.23037
-2.22094
-2.21234
-2.20379
-2.1964
-2.1884
-2.18168
-2.32117
-2.31384
-2.30683
-2.29997
-2.2935
-2.28633
-2.27913
-2.27252
-2.26449
-2.25481
-2.24638
-2.2373
-2.22799
-2.21948
-2.21112
-2.20314
-2.19527
-2.33565
-2.32689
-2.31958
-2.31327
-2.30673
-2.30005
-2.29298
-2.28548
-2.27824
-2.26974
-2.26183
-2.25335
-2.24426
-2.23548
-2.22683
-2.21836
-2.21008
-2.35031
-2.34345
-2.3353
-2.32661
-2.32068
-2.31316
-2.30639
-2.29921
-2.29196
-2.28438
-2.27595
-2.26806
-2.26009
-2.25154
-2.2427
-2.23425
-2.22576
-2.36135
-2.35251
-2.34519
-2.33644
-2.3288
-2.32063
-2.31267
-2.30511
-2.29746
-2.2895
-2.28062
-2.27372
-2.26588
-2.25825
-2.24918
-2.24126
-2.38267
-2.37088
-2.36111
-2.35282
-2.34417
-2.33658
-2.32822
-2.32014
-2.31155
-2.30373
-2.29521
-2.2866
-2.27953
-2.27191
-2.26378
-2.41328
-2.40621
-2.39144
-2.38034
-2.3695
-2.36131
-2.35239
-2.34535
-2.33622
-2.32658
-2.31721
-2.30882
-2.30193
-2.29401
-2.28535
-2.2781
-2.43399
-2.42262
-2.41138
-2.40024
-2.38985
-2.3793
-2.37039
-2.36095
-2.35156
-2.34338
-2.33374
-2.32316
-2.31307
-2.30693
-2.30005
-2.29214
-2.45499
-2.44611
-2.43583
-2.4222
-2.41064
-2.40035
-2.39081
-2.3799
-2.36978
-2.36073
-2.35279
-2.34424
-2.33286
-2.32149
-2.31248
-2.30666
-2.4868
-2.4734
-2.46403
-2.45584
-2.44539
-2.43284
-2.4216
-2.41121
-2.40121
-2.39138
-2.37897
-2.36964
-2.35868
-2.35281
-2.34276
-2.33162
-2.50892
-2.49719
-2.48551
-2.4741
-2.46504
-2.45436
-2.44214
-2.4323
-2.42341
-2.41338
-2.40377
-2.39276
-2.37988
-2.36866
-2.3598
-2.35223
-2.53144
-2.51698
-2.50471
-2.49541
-2.48499
-2.47477
-2.46311
-2.45185
-2.44194
-2.43325
-2.42371
-2.41541
-2.40374
-2.39262
-2.37952
-2.36906
-2.5556
-2.54224
-2.52666
-2.51106
-2.50262
-2.49397
-2.48315
-2.47069
-2.45967
-2.45047
-2.44322
-2.43468
-2.42722
-2.41848
-2.40572
-2.39132
-2.5771
-2.56711
-2.55381
-2.53892
-2.52405
-2.51237
-2.50396
-2.49395
-2.48028
-2.4672
-2.45897
-2.45117
-2.44433
-2.43491
-2.42619
-2.41737
-2.59669
-2.58698
-2.57514
-2.56317
-2.54946
-2.53552
-2.52428
-2.51427
-2.50393
-2.49148
-2.47759
-2.46565
-2.45841
-2.45119
-2.4432
-2.61592
-2.60843
-2.59506
-2.58389
-2.57318
-2.55996
-2.54759
-2.53556
-2.52347
-2.5132
-2.5016
-2.48876
-2.47309
-2.46669
-2.45878
-2.45139
-2.63231
-2.62369
-2.61563
-2.60461
-2.59238
-2.58014
-2.56821
-2.55747
-2.54648
-2.53378
-2.5226
-2.51174
-2.50018
-2.48431
-2.476
-2.46731
-2.64789
-2.63929
-2.63053
-2.62222
-2.61241
-2.60081
-2.58898
-2.57715
-2.56684
-2.5561
-2.54426
-2.53253
-2.52359
-2.5119
-2.49826
-2.65874
-2.64872
-2.6405
-2.63017
-2.61889
-2.60893
-2.59743
-2.58667
-2.57615
-2.56571
-2.55414
-2.54212
-2.53123
-2.52005
-2.68171
-2.67096
-2.65894
-2.64952
-2.63854
-2.62752
-2.61756
-2.60642
-2.59556
-2.58416
-2.57543
-2.56389
-2.55221
-2.71107
-2.70221
-2.69193
-2.68115
-2.66785
-2.65847
-2.64764
-2.63597
-2.62601
-2.61509
-2.60393
-2.59237
-2.58211
-2.57118
-2.73204
-2.72034
-2.70966
-2.69997
-2.68864
-2.67805
-2.66645
-2.65621
-2.64433
-2.63359
-2.62292
-2.61198
-2.60174
-2.59082
-2.75325
-2.74208
-2.73079
-2.71836
-2.70818
-2.69782
-2.68733
-2.67596
-2.66503
-2.65379
-2.64204
-2.62845
-2.62015
-2.60983
-2.77391
-2.76408
-2.75477
-2.74029
-2.72707
-2.71619
-2.70645
-2.69633
-2.68492
-2.67447
-2.66402
-2.65132
-2.63977
-2.62876
-2.7921
-2.78085
-2.77314
-2.76268
-2.74985
-2.73589
-2.72535
-2.71422
-2.70315
-2.69266
-2.68095
-2.67218
-2.66043
-2.64982
-2.81189
-2.80222
-2.78679
-2.78151
-2.77065
-2.75957
-2.74718
-2.73547
-2.72496
-2.7116
-2.69984
-2.6873
-2.67926
-2.78811
-2.78179
-2.76677
-2.75546
-2.74389
-2.73605
-2.72197
-2.70959
-2.69571
-2.79411
-2.78986
-2.77622
-2.76307
-2.74857
-2.74329
-2.7318
-2.71839
-2.81935
-2.80388
-2.79518
-2.78663
-2.7741
-2.75995
-2.75072
-2.84942
-2.83148
-2.81803
-2.80481
-2.79459
-2.78251
-2.77051
-2.84372
-2.83242
-2.81865
-2.80548
-2.79398
-2.8907
-2.87201
-2.85173
-2.84281
-2.82956
-2.81653
-2.9732
-2.96429
-2.92218
-2.90806
-2.85324
-2.97834
-2.96598
-2.95837
-2.94935
-2.94005
-2.88664
-3.01019
-2.954
-2.94502
-2.93647
-2.92323
-3.02786
-2.9969
-2.96364
-0.342743
-0.32779
-0.313809
-0.431625
-0.416995
-0.398624
-0.382044
-0.366517
-0.350659
-0.334463
-0.318029
-0.253234
-0.506094
-0.490212
-0.473066
-0.456005
-0.438983
-0.421768
-0.404153
-0.387872
-0.37133
-0.354445
-0.337513
-0.319592
-0.301151
-0.281596
-0.260949
-0.566245
-0.549753
-0.530037
-0.513384
-0.495702
-0.478732
-0.461217
-0.443373
-0.42656
-0.409935
-0.394446
-0.376945
-0.356493
-0.338582
-0.320522
-0.302332
-0.285441
-0.265495
-0.239821
-0.21318
-0.178239
-0.136526
-0.633868
-0.614168
-0.591979
-0.572283
-0.554195
-0.53643
-0.519763
-0.502609
-0.484505
-0.466486
-0.448328
-0.432113
-0.417939
-0.403784
-0.387946
-0.359571
-0.338039
-0.320766
-0.30437
-0.288658
-0.269012
-0.245358
-0.214758
-0.689843
-0.673913
-0.657769
-0.642109
-0.62048
-0.59757
-0.577471
-0.558629
-0.542058
-0.526893
-0.510242
-0.49051
-0.471574
-0.45281
-0.437405
-0.42522
-0.41591
-0.391814
-0.366948
-0.338598
-0.322897
-0.308515
-0.293299
-0.273962
-0.248582
-0.730162
-0.715409
-0.698484
-0.682155
-0.665925
-0.653941
-0.632606
-0.608276
-0.586312
-0.559873
-0.546919
-0.534253
-0.51825
-0.495376
-0.473072
-0.455378
-0.441298
-0.430222
-0.421989
-0.400308
-0.372645
-0.342034
-0.327461
-0.313457
-0.294954
-0.770256
-0.751996
-0.733653
-0.721799
-0.707323
-0.69038
-0.676361
-0.663328
-0.639371
-0.620202
-0.597719
-0.569243
-0.552675
-0.5426
-0.528988
-0.503276
-0.483347
-0.457755
-0.444954
-0.434128
-0.424584
-0.410041
-0.382747
-0.353439
-0.33352
-0.816248
-0.796502
-0.778029
-0.760143
-0.740174
-0.728154
-0.715047
-0.698395
-0.682971
-0.672465
-0.650339
-0.630544
-0.608234
-0.584734
-0.560455
-0.549004
-0.533736
-0.507861
-0.48887
-0.462438
-0.450101
-0.438415
-0.425915
-0.409665
-0.386482
-0.874812
-0.863809
-0.843971
-0.824823
-0.805415
-0.786947
-0.765498
-0.748156
-0.732908
-0.720779
-0.704686
-0.687604
-0.676719
-0.662371
-0.642754
-0.6205
-0.597867
-0.571427
-0.558382
-0.541896
-0.518366
-0.491451
-0.47071
-0.455994
-0.443102
-0.428772
-0.924511
-0.912861
-0.898008
-0.88692
-0.867129
-0.850215
-0.8343
-0.813657
-0.795241
-0.774628
-0.757802
-0.740988
-0.723734
-0.70784
-0.692778
-0.680847
-0.66899
-0.65561
-0.635866
-0.61184
-0.584141
-0.562975
-0.543724
-0.522948
-0.502304
-0.479503
-0.466114
-0.943201
-0.932924
-0.918229
-0.90515
-0.892161
-0.874308
-0.855692
-0.84301
-0.825208
-0.806672
-0.785544
-0.765779
-0.749047
-0.730051
-0.71061
-0.696837
-0.685718
-0.673747
-0.660506
-0.642435
-0.62141
-0.603063
-0.574896
-0.553889
-0.52815
-0.9943
-0.984762
-0.967715
-0.95226
-0.938845
-0.925208
-0.911949
-0.898887
-0.881582
-0.865717
-0.850998
-0.834523
-0.816931
-0.795478
-0.775256
-0.755817
-0.735405
-0.716213
-0.702225
-0.690957
-0.678762
-0.664957
-0.650493
-0.637303
-0.608158
-1.01387
-1.0002
-0.989451
-0.976825
-0.963234
-0.94856
-0.932375
-0.918861
-0.905423
-0.889818
-0.873327
-0.858549
-0.842316
-0.824575
-0.804263
-0.783803
-0.763309
-0.742999
-0.724927
-0.709598
-0.696556
-0.683675
-0.670134
-0.655139
-1.05693
-1.04448
-1.03789
-1.02179
-1.00868
-0.996709
-0.985505
-0.971216
-0.956366
-0.939884
-0.925361
-0.911547
-0.897734
-0.879299
-0.867103
-0.849942
-0.832421
-0.812464
-0.79101
-0.772386
-0.752596
-0.729787
-0.716286
-0.702949
-0.68918
-1.08434
-1.07377
-1.06279
-1.05115
-1.04083
-1.03013
-1.01643
-1.00466
-0.994369
-0.978501
-0.963115
-0.947765
-0.931864
-0.917768
-0.904823
-0.891631
-0.874726
-0.858867
-0.840755
-0.821511
-0.800691
-0.782018
-0.756017
-0.736733
-0.721942
-1.11087
-1.10042
-1.08949
-1.07967
-1.06836
-1.05684
-1.04608
-1.03617
-1.0254
-1.01385
-1.00074
-0.985978
-0.969797
-0.955313
-0.938796
-0.92641
-0.912305
-0.898326
-0.882286
-0.865662
-0.84931
-0.829883
-0.809419
-0.791547
-0.767598
-1.14623
-1.13683
-1.12557
-1.11571
-1.10642
-1.09593
-1.08583
-1.07296
-1.06154
-1.0502
-1.04164
-1.03296
-1.02346
-1.00907
-0.993134
-0.978949
-0.963635
-0.94848
-0.93632
-0.921676
-0.902756
-0.88985
-0.874133
-0.856295
-0.838451
-0.818035
-1.17286
-1.16141
-1.15017
-1.14033
-1.13018
-1.12073
-1.11232
-1.10348
-1.09382
-1.08036
-1.06655
-1.05508
-1.04662
-1.03833
-1.02874
-1.01487
-0.999667
-0.986948
-0.973272
-0.959171
-0.946534
-0.934028
-0.915277
-0.897914
-0.881346
-0.864428
-1.19939
-1.18968
-1.17844
-1.16668
-1.15482
-1.14399
-1.13426
-1.12531
-1.11759
-1.11002
-1.10243
-1.08993
-1.07379
-1.0623
-1.05315
-1.04386
-1.03297
-1.01806
-1.00416
-0.991468
-0.978362
-0.966502
-0.953733
-0.941876
-0.926081
-0.906372
-0.889734
-1.2306
-1.21758
-1.20615
-1.1953
-1.18356
-1.17148
-1.15936
-1.14786
-1.13757
-1.12884
-1.12115
-1.11398
-1.10696
-1.09726
-1.08395
-1.07148
-1.06107
-1.05095
-1.0394
-1.02557
-1.00734
-0.995625
-0.984092
-0.971583
-0.959574
-0.946948
-0.936379
-1.24805
-1.2362
-1.22451
-1.21292
-1.20124
-1.18882
-1.17596
-1.1631
-1.15089
-1.14024
-1.13155
-1.12408
-1.1168
-1.10934
-1.10037
-1.08976
-1.07864
-1.06814
-1.05838
-1.04627
-1.03212
-1.01719
-1.00216
-0.99143
-0.977989
-0.964186
-1.27717
-1.26609
-1.255
-1.24318
-1.23134
-1.21978
-1.20842
-1.19501
-1.18131
-1.16803
-1.15465
-1.14271
-1.1342
-1.12725
-1.12
-1.11225
-1.10358
-1.09391
-1.08375
-1.0732
-1.06217
-1.05046
-1.03665
-1.02292
-1.00986
-0.996672
-1.30504
-1.29339
-1.28317
-1.27217
-1.26068
-1.24925
-1.23762
-1.22604
-1.21422
-1.20179
-1.18882
-1.17554
-1.16203
-1.14786
-1.13826
-1.13138
-1.12396
-1.11613
-1.1076
-1.09841
-1.08879
-1.07759
-1.06678
-1.05418
-1.04193
-1.02885
-1.32469
-1.3113
-1.30063
-1.28973
-1.2785
-1.26799
-1.25571
-1.24382
-1.2322
-1.22036
-1.20829
-1.19543
-1.18224
-1.16804
-1.15462
-1.14444
-1.13653
-1.12881
-1.12084
-1.11236
-1.10331
-1.09449
-1.0828
-1.07222
-1.06035
-1.35461
-1.3432
-1.33161
-1.31972
-1.30816
-1.29743
-1.28504
-1.27403
-1.26265
-1.25075
-1.23912
-1.22739
-1.21531
-1.20249
-1.18897
-1.17348
-1.16017
-1.15072
-1.14254
-1.13438
-1.12618
-1.11758
-1.10856
-1.09966
-1.0889
-1.0776
-1.38037
-1.37025
-1.36039
-1.35013
-1.3389
-1.32765
-1.31709
-1.30629
-1.29311
-1.28104
-1.26953
-1.25749
-1.24596
-1.23439
-1.22231
-1.20976
-1.19818
-1.18362
-1.16834
-1.15782
-1.14931
-1.14051
-1.13214
-1.12308
-1.11462
-1.10374
-1.40559
-1.39607
-1.38709
-1.3773
-1.36719
-1.35697
-1.34617
-1.3349
-1.32428
-1.31311
-1.30044
-1.28851
-1.27677
-1.26486
-1.25305
-1.24142
-1.22951
-1.21693
-1.20581
-1.1945
-1.17939
-1.16571
-1.15652
-1.14719
-1.13866
-1.12913
-1.11984
-1.42299
-1.41262
-1.40298
-1.39307
-1.38358
-1.37405
-1.36416
-1.35367
-1.34228
-1.33076
-1.31939
-1.30771
-1.29568
-1.28384
-1.27185
-1.26008
-1.24883
-1.23695
-1.2253
-1.21372
-1.20323
-1.18993
-1.17538
-1.16445
-1.15449
-1.14469
-1.4468
-1.43756
-1.42845
-1.41937
-1.40918
-1.39823
-1.38893
-1.38029
-1.37061
-1.36051
-1.34933
-1.33795
-1.32708
-1.31588
-1.304
-1.29082
-1.27828
-1.26655
-1.25634
-1.24396
-1.23285
-1.22169
-1.20883
-1.19687
-1.18435
-1.17251
-1.4609
-1.45289
-1.44413
-1.43519
-1.42663
-1.41536
-1.40285
-1.39388
-1.38713
-1.37796
-1.36716
-1.35581
-1.34473
-1.33542
-1.3238
-1.31099
-1.29785
-1.28474
-1.2719
-1.26206
-1.25102
-1.24037
-1.22868
-1.21611
-1.20408
-1.48513
-1.47606
-1.46699
-1.45841
-1.44987
-1.44163
-1.43401
-1.42297
-1.40845
-1.39927
-1.39272
-1.38444
-1.3734
-1.36184
-1.35164
-1.3433
-1.33206
-1.31668
-1.30368
-1.29273
-1.28004
-1.26847
-1.2573
-1.24725
-1.2349
-1.50106
-1.4925
-1.4827
-1.47314
-1.46426
-1.45547
-1.44723
-1.43966
-1.42987
-1.4157
-1.40595
-1.39791
-1.38969
-1.37841
-1.3656
-1.35708
-1.35026
-1.3387
-1.32207
-1.30871
-1.29928
-1.28717
-1.27556
-1.26438
-1.25334
-1.52695
-1.5172
-1.50798
-1.49821
-1.48881
-1.4795
-1.47017
-1.46101
-1.45211
-1.44363
-1.43542
-1.42458
-1.41432
-1.40466
-1.39524
-1.38398
-1.37004
-1.36147
-1.35509
-1.34424
-1.33112
-1.31661
-1.30526
-1.29393
-1.28165
-1.5428
-1.53326
-1.52436
-1.51403
-1.5038
-1.49456
-1.48555
-1.47531
-1.46541
-1.45679
-1.44638
-1.43826
-1.43056
-1.42252
-1.41395
-1.40384
-1.39167
-1.37847
-1.36824
-1.35991
-1.34947
-1.33897
-1.3261
-1.31299
-1.30121
-1.56437
-1.55646
-1.54858
-1.54053
-1.5323
-1.52161
-1.50936
-1.50035
-1.49246
-1.48215
-1.47103
-1.46137
-1.45048
-1.44139
-1.43493
-1.42772
-1.41959
-1.41106
-1.39984
-1.38763
-1.37697
-1.36682
-1.35466
-1.34481
-1.33351
-1.57795
-1.57059
-1.56254
-1.55437
-1.54686
-1.54011
-1.53094
-1.51894
-1.5089
-1.49969
-1.49004
-1.47895
-1.46795
-1.45615
-1.44669
-1.43965
-1.43235
-1.42397
-1.41569
-1.40572
-1.39428
-1.3845
-1.37477
-1.36217
-1.59826
-1.59111
-1.58346
-1.5761
-1.56823
-1.56045
-1.55284
-1.54616
-1.53825
-1.52813
-1.51845
-1.50826
-1.49743
-1.48651
-1.47456
-1.46296
-1.45328
-1.44559
-1.43761
-1.42915
-1.42087
-1.41174
-1.40071
-1.391
-1.38315
-1.6112
-1.60436
-1.59678
-1.58895
-1.58153
-1.5736
-1.56578
-1.55845
-1.55166
-1.5439
-1.53528
-1.5268
-1.51739
-1.50622
-1.49585
-1.48253
-1.46968
-1.46054
-1.45237
-1.4437
-1.43523
-1.42656
-1.41786
-1.40667
-1.63062
-1.62401
-1.61659
-1.60935
-1.60223
-1.5947
-1.58726
-1.57973
-1.57153
-1.56316
-1.55589
-1.54888
-1.54087
-1.53374
-1.52617
-1.51549
-1.50383
-1.49138
-1.47877
-1.468
-1.45882
-1.45012
-1.44141
-1.43271
-1.42387
-1.64257
-1.63628
-1.62929
-1.62187
-1.61474
-1.60776
-1.6004
-1.59303
-1.58601
-1.5783
-1.56889
-1.5599
-1.55231
-1.54456
-1.53796
-1.53113
-1.5223
-1.51137
-1.49957
-1.48779
-1.47663
-1.46613
-1.4571
-1.44827
-1.66032
-1.65418
-1.64755
-1.64099
-1.63414
-1.62715
-1.62009
-1.61334
-1.60624
-1.5988
-1.59133
-1.58395
-1.57524
-1.56629
-1.55731
-1.54913
-1.5425
-1.53544
-1.52701
-1.51715
-1.50682
-1.49536
-1.48433
-1.47345
-1.46399
-1.67198
-1.6661
-1.6593
-1.65241
-1.64571
-1.63892
-1.63214
-1.62537
-1.61873
-1.61214
-1.60516
-1.59669
-1.58823
-1.58014
-1.57215
-1.56323
-1.55487
-1.54803
-1.54041
-1.53198
-1.5228
-1.51339
-1.50196
-1.49149
-1.68274
-1.67626
-1.6704
-1.66402
-1.65747
-1.65063
-1.6437
-1.63691
-1.63022
-1.62375
-1.61767
-1.61143
-1.60337
-1.59465
-1.58593
-1.57739
-1.56952
-1.56145
-1.55414
-1.54582
-1.53716
-1.5286
-1.51942
-1.50897
-1.70068
-1.69396
-1.68773
-1.68171
-1.67541
-1.66893
-1.66227
-1.6554
-1.64834
-1.64146
-1.63487
-1.62853
-1.62248
-1.61632
-1.60894
-1.60082
-1.59225
-1.58313
-1.57449
-1.56703
-1.55968
-1.55155
-1.54237
-1.53428
-1.52509
-1.71286
-1.70577
-1.69921
-1.69284
-1.68656
-1.68011
-1.67376
-1.66718
-1.66004
-1.65275
-1.64592
-1.63952
-1.63326
-1.62698
-1.62035
-1.61308
-1.60528
-1.59724
-1.58898
-1.58061
-1.57287
-1.56525
-1.55733
-1.54802
-1.72541
-1.71838
-1.71056
-1.70418
-1.69772
-1.6909
-1.68436
-1.67863
-1.67242
-1.66489
-1.65688
-1.65028
-1.64427
-1.63815
-1.63175
-1.62488
-1.61746
-1.60986
-1.60219
-1.5943
-1.58605
-1.57864
-1.57014
-1.56336
-1.73685
-1.73021
-1.72381
-1.71652
-1.70962
-1.70339
-1.69686
-1.68976
-1.68411
-1.67848
-1.67083
-1.66181
-1.65485
-1.64915
-1.64314
-1.63679
-1.62984
-1.62249
-1.61498
-1.60742
-1.59991
-1.59153
-1.58404
-1.75587
-1.74943
-1.74247
-1.73595
-1.7293
-1.7222
-1.71516
-1.70829
-1.70196
-1.6955
-1.68964
-1.68428
-1.67739
-1.66857
-1.66071
-1.65438
-1.64824
-1.64184
-1.63506
-1.62787
-1.62056
-1.61277
-1.60579
-1.59792
-1.76901
-1.76146
-1.75483
-1.74828
-1.74148
-1.73472
-1.72785
-1.72029
-1.71253
-1.70581
-1.6999
-1.69423
-1.68873
-1.68259
-1.67503
-1.66714
-1.6601
-1.65347
-1.64702
-1.64031
-1.63301
-1.62628
-1.61775
-1.61104
-1.7798
-1.77351
-1.76665
-1.76017
-1.75364
-1.74692
-1.7402
-1.73368
-1.72618
-1.71731
-1.70979
-1.70419
-1.69856
-1.69283
-1.68678
-1.68003
-1.67277
-1.66569
-1.65893
-1.65235
-1.64568
-1.63846
-1.63188
-1.797
-1.79134
-1.78515
-1.77914
-1.77255
-1.76578
-1.75916
-1.75223
-1.74542
-1.73929
-1.73245
-1.72338
-1.71469
-1.70882
-1.70322
-1.69747
-1.69145
-1.6849
-1.67812
-1.67118
-1.66437
-1.65782
-1.65087
-1.64365
-1.809
-1.80245
-1.79668
-1.79044
-1.78439
-1.77797
-1.77158
-1.76489
-1.75752
-1.7501
-1.74378
-1.73785
-1.72979
-1.7203
-1.71349
-1.70817
-1.70252
-1.69648
-1.68999
-1.68351
-1.67655
-1.66953
-1.6634
-1.65593
-1.81903
-1.81345
-1.80703
-1.80149
-1.79594
-1.79005
-1.78398
-1.77798
-1.77123
-1.76347
-1.75571
-1.74849
-1.74279
-1.73626
-1.72745
-1.71941
-1.71366
-1.70798
-1.70178
-1.69519
-1.68896
-1.68204
-1.67448
-1.66822
-1.82993
-1.82384
-1.81828
-1.81229
-1.80634
-1.80094
-1.79551
-1.79003
-1.78462
-1.77814
-1.77
-1.76185
-1.75411
-1.74798
-1.74238
-1.73481
-1.72658
-1.71966
-1.71357
-1.70716
-1.70039
-1.69414
-1.68753
-1.84722
-1.84152
-1.83539
-1.82935
-1.82333
-1.81728
-1.81133
-1.80586
-1.80056
-1.79537
-1.79036
-1.78436
-1.77635
-1.7679
-1.75949
-1.75278
-1.74738
-1.74075
-1.73323
-1.72588
-1.71919
-1.71264
-1.70587
-1.69853
-1.85772
-1.85174
-1.84609
-1.84026
-1.83424
-1.82815
-1.82211
-1.81613
-1.8106
-1.80531
-1.80004
-1.79491
-1.78941
-1.78245
-1.77389
-1.76533
-1.75798
-1.75232
-1.74601
-1.73911
-1.73199
-1.7248
-1.71805
-1.71154