# vtk DataFile Version 2.0
track0
ASCII
DATASET POLYDATA
POINTS 12040 float
-0.0205 0.001 1e-05
-0.02052 0.000999985 1e-05
-0.02054 0.000999974 1e-05
-0.02056 0.000999965 1e-05
-0.02058 0.000999959 1e-05
-0.0206 0.000999956 1e-05
-0.0205 0.00367778 1e-05
-0.02052 0.00367778 1e-05
-0.02054 0.00367777 1e-05
-0.02056 0.00367777 1e-05
-0.02058 0.00367777 1e-05
-0.0206 0.00367777 1e-05
-0.0205 0.00635556 1e-05
-0.02052 0.00635555 1e-05
-0.02054 0.00635555 1e-05
-0.02056 0.00635555 1e-05
-0.02058 0.00635555 1e-05
-0.0206 0.00635555 1e-05
-0.0205 0.00903333 1e-05
-0.02052 0.00903333 1e-05
-0.02054 0.00903333 1e-05
-0.02056 0.00903333 1e-05
-0.02058 0.00903333 1e-05
-0.0206 0.00903333 1e-05
-0.0205 0.0117111 1e-05
-0.02052 0.0117111 1e-05
-0.02054 0.0117111 1e-05
-0.02056 0.0117111 1e-05
-0.02058 0.0117111 1e-05
-0.0206 0.0117111 1e-05
-0.0205 0.0143889 1e-05
-0.02052 0.0143889 1e-05
-0.02054 0.0143889 1e-05
-0.02056 0.0143889 1e-05
-0.02058 0.0143889 1e-05
-0.0206 0.0143889 1e-05
-0.0205 0.0170667 1e-05
-0.02052 0.0170667 1e-05
-0.02054 0.0170667 1e-05
-0.02056 0.0170667 1e-05
-0.02058 0.0170667 1e-05
-0.0206 0.0170667 1e-05
-0.0205 0.0197444 1e-05
-0.02052 0.0197444 1e-05
-0.02054 0.0197444 1e-05
-0.02056 0.0197444 1e-05
-0.02058 0.0197444 1e-05
-0.0206 0.0197444 1e-05
-0.0205 0.0224222 1e-05
-0.02052 0.0224222 1e-05
-0.02054 0.0224222 1e-05
-0.02056 0.0224222 1e-05
-0.02058 0.0224222 1e-05
-0.0206 0.0224222 1e-05
-0.0205 0.0251 1e-05
-0.02052 0.0250998 1e-05
-0.02054 0.0250997 1e-05
-0.02056 0.0250995 1e-05
-0.02058 0.0250995 1e-05
-0.0206 0.0250994 1e-05
-0.0205 0.001 1e-05
-0.0202034 0.00100022 1e-05
-0.0199069 0.00100067 1e-05
-0.0196103 0.00100133 1e-05
-0.0193137 0.00100219 1e-05
-0.0190172 0.00100326 1e-05
-0.0187132 0.00100467 1e-05
-0.0184093 0.00100589 1e-05
-0.0181054 0.00100711 1e-05
-0.0178015 0.00100832 1e-05
-0.0174976 0.00100954 1e-05
-0.0172058 0.00101083 1e-05
-0.016914 0.00101193 1e-05
-0.0166222 0.00101303 1e-05
-0.0163305 0.00101413 1e-05
-0.0160387 0.00101523 1e-05
-0.0157586 0.00101637 1e-05
-0.0154784 0.00101745 1e-05
-0.0151983 0.00101856 1e-05
-0.0149182 0.00101971 1e-05
-0.0146381 0.0010209 1e-05
-0.0143744 0.00102209 1e-05
-0.0141108 0.00102327 1e-05
-0.0138472 0.00102449 1e-05
-0.0135835 0.00102574 1e-05
-0.0133609 0.00102682 1e-05
-0.0133474 0.00102688 1e-05
-0.0133339 0.00102695 1e-05
-0.0133204 0.00102702 1e-05
-0.0133069 0.00102708 1e-05
-0.0132934 0.00102715 1e-05
-0.0130353 0.00102844 1e-05
-0.0127771 0.00102974 1e-05
-0.0125189 0.00103106 1e-05
-0.0122607 0.00103239 1e-05
-0.0120025 0.00103375 1e-05
-0.0117547 0.00103505 1e-05
-0.0115068 0.00103637 1e-05
-0.0112589 0.00103769 1e-05
-0.0110111 0.00103901 1e-05
-0.0107632 0.00104034 1e-05
-0.0105252 0.00104162 1e-05
-0.0102873 0.00104289 1e-05
-0.0100493 0.00104417 1e-05
-0.00981133 0.00104545 1e-05
-0.00957337 0.00104673 1e-05
-0.00934491 0.00104795 1e-05
-0.00911645 0.00104917 1e-05
-0.00888799 0.00105039 1e-05
-0.00865954 0.0010516 1e-05
-0.00843108 0.00105281 1e-05
-0.00821175 0.00105397 1e-05
-0.00799242 0.00105513 1e-05
-0.00777309 0.00105628 1e-05
-0.00755376 0.00105743 1e-05
-0.00733443 0.00105857 1e-05
-0.00712387 0.00105966 1e-05
-0.0069133 0.00106075 1e-05
-0.00670273 0.00106184 1e-05
-0.00649216 0.00106292 1e-05
-0.0062816 0.00106399 1e-05
-0.00607944 0.00106502 1e-05
-0.00587729 0.00106604 1e-05
-0.00567514 0.00106706 1e-05
-0.00547298 0.00106808 1e-05
-0.00527083 0.00106909 1e-05
-0.00507675 0.00107005 1e-05
-0.00488267 0.00107101 1e-05
-0.0046886 0.00107197 1e-05
-0.00449452 0.00107292 1e-05
-0.00430044 0.00107388 1e-05
-0.00411412 0.00107478 1e-05
-0.0039278 0.00107568 1e-05
-0.00374147 0.00107658 1e-05
-0.00355515 0.00107748 1e-05
-0.00336883 0.00107838 1e-05
-0.00318995 0.00107923 1e-05
-0.00301107 0.00108008 1e-05
-0.00283219 0.00108093 1e-05
-0.00265331 0.00108177 1e-05
-0.00247443 0.00108262 1e-05
-0.0023027 0.00108342 1e-05
-0.00213097 0.00108423 1e-05
-0.00195924 0.00108503 1e-05
-0.0017875 0.00108583 1e-05
-0.00161577 0.00108663 1e-05
-0.0014509 0.00108739 1e-05
-0.00128603 0.00108815 1e-05
-0.00112116 0.00108891 1e-05
-0.000956289 0.00108967 1e-05
-0.000791418 0.00109043 1e-05
-0.000633135 0.00109116 1e-05
-0.000474851 0.00109189 1e-05
-0.000316567 0.00109262 1e-05
-0.000158284 0.00109334 1e-05
0 0.00109406 1e-05
0.000105677 0.00109454 1e-05
0.000211355 0.00109502 1e-05
0.000317032 0.00109549 1e-05
0.00042271 0.00109597 1e-05
0.000528387 0.00109643 1e-05
0.000634886 0.0010969 1e-05
0.000741385 0.00109736 1e-05
0.000847885 0.00109782 1e-05
0.000954384 0.00109828 1e-05
0.00106088 0.00109874 1e-05
0.00116821 0.00109919 1e-05
0.00127554 0.00109964 1e-05
0.00138286 0.00110008 1e-05
0.00149019 0.00110052 1e-05
0.00159752 0.00110096 1e-05
0.00170568 0.00110138 1e-05
0.00181384 0.00110181 1e-05
0.001922 0.00110222 1e-05
0.00203016 0.00110263 1e-05
0.00213833 0.00110302 1e-05
0.00224733 0.00110341 1e-05
0.00235633 0.0011038 1e-05
0.00246533 0.00110418 1e-05
0.00257434 0.00110454 1e-05
0.00268334 0.0011049 1e-05
0.00279319 0.00110525 1e-05
0.00290304 0.0011056 1e-05
0.00301289 0.00110594 1e-05
0.00312274 0.00110627 1e-05
0.00323259 0.00110659 1e-05
0.00334329 0.00110691 1e-05
0.003454 0.00110722 1e-05
0.0035647 0.00110752 1e-05
0.0036754 0.00110782 1e-05
0.00378611 0.0011081 1e-05
0.00389767 0.00110838 1e-05
0.00400924 0.00110866 1e-05
0.0041208 0.00110892 1e-05
0.00423237 0.00110918 1e-05
0.00434393 0.00110944 1e-05
0.00445636 0.00110968 1e-05
0.00456879 0.00110991 1e-05
0.00468123 0.00111015 1e-05
0.00479366 0.00111037 1e-05
0.00490609 0.00111058 1e-05
0.0050194 0.00111079 1e-05
0.0051327 0.00111099 1e-05
0.00524601 0.00111118 1e-05
0.00535932 0.00111137 1e-05
0.00547262 0.00111155 1e-05
0.00558681 0.00111172 1e-05
0.005701 0.00111188 1e-05
0.00581518 0.00111204 1e-05
0.00592937 0.00111219 1e-05
0.00604356 0.00111233 1e-05
0.00615863 0.00111246 1e-05
0.00627371 0.00111259 1e-05
0.00638878 0.00111271 1e-05
0.00650386 0.00111282 1e-05
0.00661893 0.00111293 1e-05
0.0067349 0.00111303 1e-05
0.00685087 0.00111312 1e-05
0.00696684 0.0011132 1e-05
0.00708281 0.00111328 1e-05
0.00719878 0.00111335 1e-05
0.00727306 0.00111338 1e-05
0.00734735 0.00111342 1e-05
0.00742163 0.00111345 1e-05
0.00749592 0.00111348 1e-05
0.00756764 0.00111351 1e-05
0.00761074 0.00111352 1e-05
0.00765384 0.00111354 1e-05
0.00769694 0.00111355 1e-05
0.00774004 0.00111356 1e-05
0.00778313 0.00111357 1e-05
0.00790091 0.00111359 1e-05
0.00801869 0.00111361 1e-05
0.00813647 0.00111361 1e-05
0.00825425 0.00111361 1e-05
0.00837203 0.00111361 1e-05
0.00849073 0.00111359 1e-05
0.00860942 0.00111356 1e-05
0.00872812 0.00111353 1e-05
0.00884682 0.00111349 1e-05
0.00896551 0.00111345 1e-05
0.00908513 0.00111338 1e-05
0.00920475 0.00111332 1e-05
0.00932437 0.00111325 1e-05
0.00944398 0.00111317 1e-05
0.0095636 0.00111308 1e-05
0.00968415 0.00111298 1e-05
0.0098047 0.00111287 1e-05
0.00992525 0.00111276 1e-05
0.0100458 0.00111264 1e-05
0.0101663 0.00111251 1e-05
0.0102878 0.00111236 1e-05
0.0104093 0.00111222 1e-05
0.0105308 0.00111206 1e-05
0.0106523 0.0011119 1e-05
0.0107738 0.00111173 1e-05
0.0108962 0.00111153 1e-05
0.0110186 0.00111134 1e-05
0.0111411 0.00111115 1e-05
0.0112635 0.00111094 1e-05
0.0113859 0.00111073 1e-05
0.0115093 0.00111049 1e-05
0.0116327 0.00111025 1e-05
0.0117561 0.00111001 1e-05
0.0118795 0.00110976 1e-05
0.0120028 0.0011095 1e-05
0.0121272 0.00110922 1e-05
0.0122515 0.00110894 1e-05
0.0123759 0.00110865 1e-05
0.0125002 0.00110836 1e-05
0.0126245 0.00110805 1e-05
0.0127498 0.00110772 1e-05
0.0128752 0.0011074 1e-05
0.0130005 0.00110706 1e-05
0.0131258 0.00110672 1e-05
0.0132511 0.00110637 1e-05
0.0133774 0.00110599 1e-05
0.0135036 0.00110562 1e-05
0.0136299 0.00110524 1e-05
0.0137562 0.00110485 1e-05
0.0138825 0.00110445 1e-05
0.0140098 0.00110403 1e-05
0.014137 0.00110361 1e-05
0.0142643 0.00110318 1e-05
0.0143915 0.00110274 1e-05
0.0145188 0.00110229 1e-05
0.0146471 0.00110182 1e-05
0.0147753 0.00110135 1e-05
0.0149036 0.00110087 1e-05
0.0150318 0.00110038 1e-05
0.0151601 0.00109988 1e-05
0.0152893 0.00109937 1e-05
0.0154186 0.00109885 1e-05
0.0155478 0.00109832 1e-05
0.0156771 0.00109778 1e-05
0.0158063 0.00109723 1e-05
0.0159366 0.00109667 1e-05
0.0160668 0.00109609 1e-05
0.0161971 0.00109551 1e-05
0.0163274 0.00109492 1e-05
0.0164576 0.00109433 1e-05
0.0165889 0.00109371 1e-05
0.0167201 0.00109309 1e-05
0.0168514 0.00109246 1e-05
0.0169827 0.00109182 1e-05
0.0171139 0.00109117 1e-05
0.0172462 0.00109051 1e-05
0.0173785 0.00108984 1e-05
0.0175108 0.00108916 1e-05
0.0176431 0.00108846 1e-05
0.0177754 0.00108776 1e-05
0.0179087 0.00108706 1e-05
0.018042 0.00108634 1e-05
0.0181753 0.0010856 1e-05
0.0183087 0.00108485 1e-05
0.018442 0.00108411 1e-05
0.0185763 0.00108335 1e-05
0.0187107 0.00108258 1e-05
0.018845 0.00108179 1e-05
0.0189794 0.00108099 1e-05
0.0191137 0.00108019 1e-05
0.0192491 0.00107939 1e-05
0.0193845 0.00107857 1e-05
0.0195199 0.00107773 1e-05
0.0196553 0.00107687 1e-05
0.0197907 0.00107603 1e-05
0.0199272 0.00107517 1e-05
0.0200636 0.0010743 1e-05
0.0202001 0.00107341 1e-05
0.0203365 0.00107251 1e-05
0.020473 0.00107161 1e-05
0.0206105 0.00107071 1e-05
0.020748 0.00106978 1e-05
0.0208855 0.00106884 1e-05
0.021023 0.00106788 1e-05
0.0211606 0.00106693 1e-05
0.0212991 0.00106599 1e-05
0.0214377 0.00106501 1e-05
0.0215763 0.00106401 1e-05
0.0217149 0.00106301 1e-05
0.0218535 0.00106201 1e-05
0.0219931 0.00106101 1e-05
0.0221328 0.00105999 1e-05
0.0222724 0.00105894 1e-05
0.0224121 0.00105788 1e-05
0.0225517 0.00105683 1e-05
0.0226925 0.00105578 1e-05
0.0228332 0.00105471 1e-05
0.022974 0.00105361 1e-05
0.0231147 0.0010525 1e-05
0.0232555 0.0010514 1e-05
0.0233973 0.0010503 1e-05
0.0235391 0.00104917 1e-05
0.023681 0.00104802 1e-05
0.0238228 0.00104686 1e-05
0.0239647 0.0010457 1e-05
0.0241076 0.00104455 1e-05
0.0242505 0.00104337 1e-05
0.0243935 0.00104217 1e-05
0.0245364 0.00104095 1e-05
0.0246794 0.00103975 1e-05
0.0248234 0.00103855 1e-05
0.0249675 0.00103732 1e-05
0.0251115 0.00103606 1e-05
[...]
POINT_DATA 12040
 FIELD attributes 2
p 1 12040 float
-4.97307 -4.96976 -4.96645 -4.96315 -4.95984 -4.95653
-5.12607 -5.12605 -5.12603 -5.12601 -5.12599 -5.12596
-5.29985 -5.29973 -5.29961 -5.29948 -5.29936 -5.29925
-5.39282 -5.39276 -5.39271 -5.39265 -5.3926 -5.39255
-5.43756 -5.43745 -5.43733 -5.43722 -5.43711 -5.43699
-5.44382 -5.44366 -5.4435 -5.44334 -5.44318 -5.44302
-5.41668 -5.41661 -5.41654 -5.41647 -5.41639 -5.41632
-5.34698 -5.34694 -5.3469 -5.34686 -5.34682 -5.34678
-5.22569 -5.22569 -5.2257 -5.2257 -5.22571 -5.22572
-3.01316 -3.03248 -3.05168 -3.07074 -3.08967 -3.10846
-4.97307 -4.97241 -4.96884 -4.9652 -4.96148 -4.95321 -4.96714 -4.98218 -4.99722 -5.01226 -5.03673 -5.05853 -5.08849 -5.11846 -5.14842 -5.18119 -5.19688 -5.21861 -5.24034 -5.26207 -5.28542 -5.30436 -5.3253 -5.34624 -5.36719 -5.38489 -5.38596 -5.38702 -5.38809 -5.38916 -5.39023 -5.41193 -5.43363 -5.45533 -5.47703 -5.49845 -5.51726 -5.53588 -5.55449 -5.57311 -5.59116 -5.60683 -5.62223 -5.63763 -5.65303 -5.66788 -5.68172 -5.69531 -5.7089 -5.72249 -5.73563 -5.74841 -5.76093 -5.77345 -5.78597 -5.79807 -5.80995 -5.82153 -5.83312 -5.8447 -5.85586 -5.86692 -5.87771 -5.8885 -5.89929 -5.90972 -5.92017 -5.93035 -5.94053 -5.9507 -5.96056 -5.97051 -5.98027 -5.99003 -5.99979 -6.00934 -6.01898 -6.02834 -6.03771 -6.04708 -6.05623 -6.06565 -6.0752 -6.08475 -6.0943 -6.104 -6.1139 -6.12355 -6.1332 -6.14284 -6.15232 -6.16232 -6.17317 -6.18403 -6.19488 -6.20596 -6.21598 -6.2268 -6.23762 -6.24843 -6.2588 -6.26821 -6.27715 -6.28609 -6.29503 -6.30315 -6.31035 -6.31856 -6.32677 -6.33499 -6.34392 -6.35209 -6.36071 -6.36932 -6.37793 -6.38665 -6.39479 -6.40194 -6.40909 -6.41625 -6.42254 -6.42926 -6.4347 -6.44013 -6.44556 -6.44995 -6.45559 -6.46019 -6.46479 -6.46939 -6.47305 -6.47793 -6.48191 -6.4859 -6.48988 -6.49306 -6.49698 -6.50015 -6.50332 -6.5065 -6.50907 -6.51198 -6.51435 -6.51671 -6.51908 -6.52108 -6.52326 -6.5251 -6.52693 -6.52876 -6.53041 -6.53223 -6.53385 -6.53546 -6.53708 -6.5386 -6.54024 -6.54175 -6.54327 -6.54479 -6.54628 -6.54723 -6.54813 -6.54904 -6.54995 -6.55083 -6.55135 -6.55188 -6.55241 -6.55294 -6.5535 -6.55483 -6.5562 -6.55757 -6.55894 -6.56051 -6.56166 -6.56303 -6.5644 -6.56577 -6.56756 -6.56851 -6.56992 -6.57133 -6.57274 -6.57487 -6.57561 -6.57713 -6.57865 -6.58017 -6.58276 -6.58332 -6.58497 -6.58662 -6.58827 -6.59133 -6.59168 -6.59342 -6.59516 -6.5969 -6.60041 -6.60054 -6.60239 -6.60424 -6.60609 -6.61006 -6.61005 -6.61204 -6.61403 -6.61602 -6.62042 -6.62033 -6.62246 -6.62459 -6.62672 -6.63149 -6.63134 -6.63361 -6.63588 -6.63815 -6.64324 -6.64309 -6.64549 -6.6479 -6.65048 -6.65567 -6.65582 -6.65812 -6.66068 -6.66366 -6.66881 -6.6693 -6.67152 -6.67422 -6.67757 -6.68266 -6.6835 -6.68568 -6.68853 -6.69221 -6.69722 -6.69841 -6.7006 -6.70359 -6.70755 -6.71248 -6.71402 -6.71625 -6.71939 -6.72358 -6.72844 -6.73031 -6.73262 -6.7359 -6.74028 -6.74507 -6.74727 -6.74969 -6.7531 -6.75764 -6.76237 -6.76486 -6.76742 -6.77097 -6.77562 -6.78031 -6.78309 -6.78586 -6.78957 -6.79422 -6.79888 -6.80191 -6.80495 -6.80878 -6.81342 -6.81806 -6.82135 -6.82463 -6.82859 -6.83323 -6.83788 -6.8414 -6.84494 -6.84902 -6.85365 -6.85829 -6.86204 -6.8658 -6.86999 -6.8746 -6.87921 -6.88316 -6.88711 -6.89138 -6.89597 -6.90056 -6.90466 -6.90875 -6.9131 -6.9177 -6.9223 -6.92652 -6.93073 -6.93516 -6.93978 -6.94441 -6.94872 -6.95306 -6.95756 -6.96219 -6.96686 -6.97125 -6.97569 -6.98025 -6.98491 -6.98962 -6.99408 -6.99861 -7.00323 -7.00792 -7.01267 -7.01719 -7.02179 -7.02645 -7.03117 -7.03595 -7.04051 -7.04517 -7.04987 -7.05459 -7.05941 -7.06399 -7.0687 -7.07342 -7.07816 -7.08299 -7.08759 -7.09233 -7.09707 -7.10182 -7.10665 -7.11128 -7.11602 -7.12077 -7.12551 -7.13033 -7.13497 -7.13971 -7.14445 -7.14918 -7.15397 -7.15862 -7.16333 -7.16805 -7.17277 -7.17752 -7.18215 -7.18683 -7.19151 -7.19619 -7.20089 -7.20549 -7.21012 -7.21475 -7.21939 -7.22402 -7.22642 -7.22882 -7.23122 -7.23363 -7.23598 -7.23815 -7.24033 -7.2425 -7.24467 -7.24685 -7.25134 -7.25583 -7.26032 -7.26481 -7.26932 -7.27371 -7.27811 -7.2825 -7.2869 -7.29131 -7.29561 -7.29989 -7.30418 -7.30847 -7.31277 -7.31696 -7.32112 -7.32528 -7.32944 -7.33361 -7.33767 -7.34168 -7.34568 -7.34969 -7.3537 -7.35761 -7.36144 -7.36528 -7.36911 -7.37293 -7.37667 -7.38033 -7.38398 -7.38761 -7.39123 -7.39477 -7.39825 -7.40169 -7.40509 -7.40848 -7.4118 -7.41508 -7.41828 -7.42142 -7.42455 -7.42763 -7.43069 -7.43362 -7.43647 -7.43931 -7.44212 -7.44494 -7.44758 -7.45011 -7.45264 -7.45516 -7.45768 -7.46002 -7.46221 -7.46441 -7.4666 -7.46881 -7.47082 -7.47265 -7.47448 -7.47633 -7.47818 -7.47985 -7.48128 -7.48272 -7.4842 -7.48567 -7.48696 -7.48798 -7.489 -7.49006 -7.4911 -7.49196 -7.49259 -7.49316 -7.49379 -7.49433 -7.49473 -7.49496 -7.49505 -7.49521 -7.49522 -7.49513 -7.49494 -7.49452 -7.49418 -7.49362 -7.49301 -7.49238 -7.49142 -7.49054 -7.48937 -7.4882 -7.48704 -7.48559 -7.48406 -7.48231 -7.48056 -7.47881 -7.47687 -7.47466 -7.47229 -7.46992 -7.46756 -7.4651 -7.46272 -7.46027 -7.45781 -7.45536 -7.45304 -7.45246 -7.45188 -7.45131 -7.45073 -7.45013 -7.4465 -7.44285 -7.43921 -7.43557 -7.43179 -7.42761 -7.42325 -7.41889 -7.41454 -7.40991 -7.40515 -7.40005 -7.39496 -7.38986 -7.38433 -7.37898 -7.37311 -7.36724 -7.36128 -7.35489 -7.34875 -7.34226 -7.33558 -7.32865 -7.32143 -7.31447 -7.30734 -7.29983 -7.29187 -7.28379 -7.27598 -7.26817 -7.25976 -7.25079 -7.24182 -7.23312 -7.22443 -7.21514 -7.20525 -7.19536 -7.18575 -7.17615 -7.16595 -7.15511 -7.14427 -7.13372 -7.12312 -7.11191 -7.10021 -7.08839 -7.07688 -7.06506 -7.05286 -7.0404 -7.02758 -7.01507 -7.00199 -6.98877 -6.97555 -6.9617 -6.94805 -6.93378 -6.91951 -6.90524 -6.89062 -6.87564 -6.86029 -6.84495 -6.82962 -6.81421 -6.81021 -6.80614 -6.80206 -6.79799 -6.79398 -6.78171 -6.76945 -6.75719 -6.74493 -6.73247 -6.71526 -6.69786 -6.68046 -6.66307 -6.64519 -6.62714 -6.60861 -6.59009 -6.57145 -6.55223 -6.53311 -6.51367 -6.494 -6.47389 -6.4535 -6.43322 -6.41293 -6.39205 -6.37047 -6.3489 -6.32745 -6.306 -6.28389 -6.26112 -6.23835 -6.21571 -6.19305 -6.16964 -6.14575 -6.12177 -6.09792 -6.07367 -6.04904 -6.02428 -5.99909 -5.97402 -5.94815 -5.92229 -5.89644 -5.87025 -5.8467 -5.82276 -5.79883 -5.7749 -5.75241 -5.74898 -5.74554 -5.7421 -5.73867 -5.7352 -5.70697 -5.67873 -5.65049 -5.62227 -5.59369 -5.56447 -5.53499 -5.50551 -5.47598 -5.44591 -5.41553 -5.38497 -5.35426 -5.32315 -5.29184 -5.26022 -5.22861 -5.19658 -5.16402 -5.13147 -5.09861 -5.06576 -5.03238 -4.99859 -4.9648 -4.93071 -4.89638 -4.86168 -4.82689 -4.79188 -4.75656 -4.72063 -4.68471 -4.6488 -4.61273 -4.59006 -4.56715 -4.54425 -4.52135 -4.49935 -4.48498 -4.47062 -4.45625 -4.44189 -4.42736 -4.38923 -4.351 -4.31278 -4.27457 -4.23577 -4.19668 -4.15732 -4.11792 -4.0782 -4.03813 -3.99786 -3.9576 -3.91696 -3.87574 -3.83452 -3.7931 -3.75169 -3.70974 -3.6674 -3.62505 -3.5825 -3.53965 -3.49648 -3.45328 -3.40984 -3.36608 -3.32181 -3.27755 -3.2333 -3.189 -3.18204 -3.17501 -3.16798 -3.16095 -3.15399 -3.11576 -3.07754 -3.03932 -3.00112 -2.9625 -2.91646 -2.87021 -2.82398 -2.77755 -2.73066 -2.68365 -2.63662 -2.58938 -2.54154 -2.49368 -2.4457 -2.39773 -2.34928 -2.30052 -2.25174 -2.20284 -2.15363 -2.10417 -2.05471 -2.00506 -1.96128 -1.91713 -1.87299 -1.82886 -1.78691 -1.78029 -1.77368 -1.76707 -1.76046 -1.75378 -1.70271 -1.65163 -1.60056 -1.5495 -1.49791 -1.4462 -1.39439 -1.34255 -1.29036 -1.23796 -1.1855 -1.13306 -1.08031 -1.02726 -0.974183 -0.921029 -0.867738 -0.814139 -0.760523 -0.706801 -0.653892 -0.600632 -0.547381 -0.494141 -0.443682 -0.442156 -0.44063 -0.439105 -0.437579 -0.436041 -0.38127 -0.326505 -0.271752 -0.217009 -0.161856 -0.10662 -0.05137 0.00388097 0.0593959 0.115043 0.17074 0.226425 0.282297 0.33828 0.394301 0.450381 0.506597 0.562937 0.619267 0.675621 0.709996 0.744502 0.779004 0.813502 0.846949 0.869318 0.891685 0.914051 0.936416 0.95889 1.01585 1.07279 1.12971 1.1867 1.24389 1.30109 1.35827 1.41543 1.47271 1.53005 1.5874 1.64476 1.70222 1.75963 1.81703 1.8675 1.91802 1.96854 2.01905 2.06751 2.07492 2.08233 2.08973 2.09714 2.10456 2.16218 2.21977 2.27734 2.33492 2.3926 2.45026 2.50788 2.56538 2.62288 2.68044 2.73798 2.79551 2.853 2.9104 2.96776 3.01652 3.0652 3.11388 3.16254 3.2095 3.21846 3.22742 3.23638 3.24535 3.2543 3.31151 3.36867 3.42581 3.48293 3.54002 3.59705 3.65408 3.71086 3.76751 3.82421 3.88088 3.93748 3.99392 4.05034 4.1066 4.13956 4.17239 4.20521 4.23802 4.27015 4.29355 4.31695 4.34035 4.36374 4.38706 4.44295 4.49865 4.55434 4.60989 4.66537 4.72078 4.77618 4.83131 4.88614 4.94101 4.99583 5.05039 5.10485 5.15931 5.21373 5.22156 5.22935 5.23712 5.2449 5.25265 5.29892 5.34519 5.39145 5.43769 5.4837 5.53736 5.59093 5.64428 5.69729 5.75033 5.80326 5.8561 5.90863 5.96109 6.01336 6.04319 6.07281 6.10239 6.13198 6.16123 6.18358 6.20593 6.22828 6.25061 6.27281 6.32429 6.37552 6.42675 6.47772 6.52856 6.57923 6.62991 6.68024 6.73017 6.78013 6.82546 6.87042 6.91532 6.96021 7.00472 7.00927 7.01383 7.01838 7.02292 7.02742 7.07627 7.12505 7.17383 7.22245 7.27073 7.31889 7.36705 7.41478 7.46209 7.50941 7.55662 7.60343 7.65009 7.69675 7.74337 7.74569 7.74798 7.75027 7.75257 7.75486 7.79861 7.84237 7.88612 7.92977 7.97299 8.01837 8.06376 8.10869 8.15319 8.19768 8.24205 8.28607 8.32986 8.37366 8.41734 8.42299 8.42859 8.43417 8.43975 8.44535 8.48287 8.5204 8.55793 8.59535 8.63236 8.67479 8.71721 8.75919 8.80074 8.84225 8.88362 8.9247 8.96549 9.00629 9.04689 9.0557 9.0644 9.07309 9.08177 9.09051 9.12185 9.1532 9.18455 9.2158 9.24668 9.28604 9.32535 9.36431 9.40281 9.44126 9.47955 9.51763 9.55535 9.59308 9.63049 9.64498 9.65929 9.67356 9.68783 9.70237 9.72492 9.74747 9.77002 9.79251 9.81472 9.85095 9.887 9.92295 9.95844 9.99382 10.029 10.0641 10.0987 10.1332 10.1675 10.1925 10.2172 10.2419 10.2665 10.2923 10.3011 10.3099 10.3186 10.3274 10.3361 10.369 10.4019 10.4347 10.4674 10.4997 10.5318 10.5638 10.5955 10.6268 10.6581 10.6891 10.7198 10.7504 10.7809 10.8112 10.8232 10.8349 10.8467 10.8585 10.8707 10.8885 10.9063 10.9242 10.942 10.9596 10.9886 11.0174 11.0462 11.0747 11.1031 11.1312 11.1592 11.187 11.2144 11.2417 11.2687 11.2956 11.3224 11.3492 11.3757 11.3921 11.4082 11.4242 11.4403 11.4579 11.4671 11.4763 11.4855 11.4947 11.5037 11.5288 11.5541 11.5793 11.6048 11.6312 11.6572 11.6815 11.7025 11.718 11.733 11.7473 11.7616 11.7859 11.82 11.854 11.8875 11.9114 11.9254 11.9395 11.9471 11.9479 11.9501 11.9527 11.9552 11.9579 11.9626 11.9673 11.972 11.9773 11.9859 11.9973 12.0084 12.0191 12.0291 12.0389 12.0479 12.0567 12.0636 12.0697 12.0752 12.0786 12.081 12.0833 12.0856 12.0882 12.0889 12.0897 12.0904 12.0912 12.0917 12.0921 12.0921 12.0921 12.0916 12.09 12.0868 12.0836 12.0785 12.072 12.0654 12.0571 12.0483 12.0377 12.0266 12.0143 12.0017 11.9871 11.9724 11.9576 11.9398 11.9385 11.9372 11.9359 11.9346 11.9331 11.9112 11.8889 11.8665 11.8441 11.8192 11.7914 11.7622 11.7319 11.6992 11.6659 11.6295 11.5929 11.5534 11.5107 11.4679 11.4216 11.3737 11.3234 11.2725 11.219 11.161 11.0993 11.0375 10.9756 10.9131 10.9012 10.8887 10.8762 10.8637 10.8506 10.7899 10.7291 10.6683 10.6074 10.5437 10.4595 10.3718 10.2841 10.1952 10.102 10.0033 9.9024 9.79786 9.68756 9.57601 9.45841 9.34073 9.21737 9.0886 8.95972 8.82426 8.68875 8.54173 8.38563 8.22849 8.06385 7.89803 7.73099 7.56335 7.39409 7.21701 7.01029 6.80279 6.59534 6.3706 6.14 5.92533 5.7106 5.49583 5.28451 5.21048 5.12077 5.03111 4.94148 4.84164 4.6249 4.40791 4.19068 3.97321 3.72128 3.39852 3.13808 2.8769 2.61503 2.49515 2.39077 1.95594 1.52618 0.939124 0