# vtk DataFile Version 2.0
track0
ASCII
DATASET POLYDATA
POINTS 12040 float
-0.0205 0.001 1e-05
-0.02052 0.000999985 1e-05
-0.02054 0.000999974 1e-05
-0.02056 0.000999965 1e-05
-0.02058 0.000999959 1e-05
-0.0206 0.000999956 1e-05
-0.0205 0.00367778 1e-05
-0.02052 0.00367778 1e-05
-0.02054 0.00367777 1e-05
-0.02056 0.00367777 1e-05
-0.02058 0.00367777 1e-05
-0.0206 0.00367777 1e-05
-0.0205 0.00635556 1e-05
-0.02052 0.00635555 1e-05
-0.02054 0.00635555 1e-05
-0.02056 0.00635555 1e-05
-0.02058 0.00635555 1e-05
-0.0206 0.00635555 1e-05
-0.0205 0.00903333 1e-05
-0.02052 0.00903333 1e-05
-0.02054 0.00903333 1e-05
-0.02056 0.00903333 1e-05
-0.02058 0.00903333 1e-05
-0.0206 0.00903333 1e-05
-0.0205 0.0117111 1e-05
-0.02052 0.0117111 1e-05
-0.02054 0.0117111 1e-05
-0.02056 0.0117111 1e-05
-0.02058 0.0117111 1e-05
-0.0206 0.0117111 1e-05
-0.0205 0.0143889 1e-05
-0.02052 0.0143889 1e-05
-0.02054 0.0143889 1e-05
-0.02056 0.0143889 1e-05
-0.02058 0.0143889 1e-05
-0.0206 0.0143889 1e-05
-0.0205 0.0170667 1e-05
-0.02052 0.0170667 1e-05
-0.02054 0.0170667 1e-05
-0.02056 0.0170667 1e-05
-0.02058 0.0170667 1e-05
-0.0206 0.0170667 1e-05
-0.0205 0.0197444 1e-05
-0.02052 0.0197444 1e-05
-0.02054 0.0197444 1e-05
-0.02056 0.0197444 1e-05
-0.02058 0.0197444 1e-05
-0.0206 0.0197444 1e-05
-0.0205 0.0224222 1e-05
-0.02052 0.0224222 1e-05
-0.02054 0.0224222 1e-05
-0.02056 0.0224222 1e-05
-0.02058 0.0224222 1e-05
-0.0206 0.0224222 1e-05
-0.0205 0.0251 1e-05
-0.02052 0.0250998 1e-05
-0.02054 0.0250997 1e-05
-0.02056 0.0250995 1e-05
-0.02058 0.0250995 1e-05
-0.0206 0.0250994 1e-05
-0.0205 0.001 1e-05
-0.0202034 0.00100022 1e-05
-0.0199069 0.00100067 1e-05
-0.0196103 0.00100133 1e-05
-0.0193137 0.00100219 1e-05
-0.0190172 0.00100326 1e-05
-0.0187132 0.00100467 1e-05
-0.0184093 0.00100589 1e-05
-0.0181054 0.00100711 1e-05
-0.0178015 0.00100832 1e-05
-0.0174976 0.00100954 1e-05
-0.0172058 0.00101083 1e-05
-0.016914 0.00101193 1e-05
-0.0166222 0.00101303 1e-05
-0.0163305 0.00101413 1e-05
-0.0160387 0.00101523 1e-05
-0.0157586 0.00101637 1e-05
-0.0154784 0.00101745 1e-05
-0.0151983 0.00101856 1e-05
-0.0149182 0.00101971 1e-05
-0.0146381 0.0010209 1e-05
-0.0143744 0.00102209 1e-05
-0.0141108 0.00102327 1e-05
-0.0138472 0.00102449 1e-05
-0.0135835 0.00102574 1e-05
-0.0133609 0.00102682 1e-05
-0.0133474 0.00102688 1e-05
-0.0133339 0.00102695 1e-05
-0.0133204 0.00102702 1e-05
-0.0133069 0.00102708 1e-05
-0.0132934 0.00102715 1e-05
-0.0130353 0.00102844 1e-05
-0.0127771 0.00102974 1e-05
-0.0125189 0.00103106 1e-05
-0.0122607 0.00103239 1e-05
-0.0120025 0.00103375 1e-05
-0.0117547 0.00103505 1e-05
-0.0115068 0.00103637 1e-05
-0.0112589 0.00103769 1e-05
-0.0110111 0.00103901 1e-05
-0.0107632 0.00104034 1e-05
-0.0105252 0.00104162 1e-05
-0.0102873 0.00104289 1e-05
-0.0100493 0.00104417 1e-05
-0.00981133 0.00104545 1e-05
-0.00957337 0.00104673 1e-05
-0.00934491 0.00104795 1e-05
-0.00911645 0.00104917 1e-05
-0.00888799 0.00105039 1e-05
-0.00865954 0.0010516 1e-05
-0.00843108 0.00105281 1e-05
-0.00821175 0.00105397 1e-05
-0.00799242 0.00105513 1e-05
-0.00777309 0.00105628 1e-05
-0.00755376 0.00105743 1e-05
-0.00733443 0.00105857 1e-05
-0.00712387 0.00105966 1e-05
-0.0069133 0.00106075 1e-05
-0.00670273 0.00106184 1e-05
-0.00649216 0.00106292 1e-05
-0.0062816 0.00106399 1e-05
-0.00607944 0.00106502 1e-05
-0.00587729 0.00106604 1e-05
-0.00567514 0.00106706 1e-05
-0.00547298 0.00106808 1e-05
-0.00527083 0.00106909 1e-05
-0.00507675 0.00107005 1e-05
-0.00488267 0.00107101 1e-05
-0.0046886 0.00107197 1e-05
-0.00449452 0.00107292 1e-05
-0.00430044 0.00107388 1e-05
-0.00411412 0.00107478 1e-05
-0.0039278 0.00107568 1e-05
-0.00374147 0.00107658 1e-05
-0.00355515 0.00107748 1e-05
-0.00336883 0.00107838 1e-05
-0.00318995 0.00107923 1e-05
-0.00301107 0.00108008 1e-05
-0.00283219 0.00108093 1e-05
-0.00265331 0.00108177 1e-05
-0.00247443 0.00108262 1e-05
-0.0023027 0.00108342 1e-05
-0.00213097 0.00108423 1e-05
-0.00195924 0.00108503 1e-05
-0.0017875 0.00108583 1e-05
-0.00161577 0.00108663 1e-05
-0.0014509 0.00108739 1e-05
-0.00128603 0.00108815 1e-05
-0.00112116 0.00108891 1e-05
-0.000956289 0.00108967 1e-05
-0.000791418 0.00109043 1e-05
-0.000633135 0.00109116 1e-05
-0.000474851 0.00109189 1e-05
-0.000316567 0.00109262 1e-05
-0.000158284 0.00109334 1e-05
0 0.00109406 1e-05
0.000105677 0.00109454 1e-05
0.000211355 0.00109502 1e-05
0.000317032 0.00109549 1e-05
0.00042271 0.00109597 1e-05
0.000528387 0.00109643 1e-05
0.000634886 0.0010969 1e-05
0.000741385 0.00109736 1e-05
0.000847885 0.00109782 1e-05
0.000954384 0.00109828 1e-05
0.00106088 0.00109874 1e-05
0.00116821 0.00109919 1e-05
0.00127554 0.00109964 1e-05
0.00138286 0.00110008 1e-05
0.00149019 0.00110052 1e-05
0.00159752 0.00110096 1e-05
0.00170568 0.00110138 1e-05
0.00181384 0.00110181 1e-05
0.001922 0.00110222 1e-05
0.00203016 0.00110263 1e-05
0.00213833 0.00110302 1e-05
0.00224733 0.00110341 1e-05
0.00235633 0.0011038 1e-05
0.00246533 0.00110418 1e-05
0.00257434 0.00110454 1e-05
0.00268334 0.0011049 1e-05
0.00279319 0.00110525 1e-05
0.00290304 0.0011056 1e-05
0.00301289 0.00110594 1e-05
0.00312274 0.00110627 1e-05
0.00323259 0.00110659 1e-05
0.00334329 0.00110691 1e-05
0.003454 0.00110722 1e-05
0.0035647 0.00110752 1e-05
0.0036754 0.00110782 1e-05
0.00378611 0.0011081 1e-05
0.00389767 0.00110838 1e-05
0.00400924 0.00110866 1e-05
0.0041208 0.00110892 1e-05
0.00423237 0.00110918 1e-05
0.00434393 0.00110944 1e-05
0.00445636 0.00110968 1e-05
0.00456879 0.00110991 1e-05
0.00468123 0.00111015 1e-05
0.00479366 0.00111037 1e-05
0.00490609 0.00111058 1e-05
0.0050194 0.00111079 1e-05
0.0051327 0.00111099 1e-05
0.00524601 0.00111118 1e-05
0.00535932 0.00111137 1e-05
0.00547262 0.00111155 1e-05
0.00558681 0.00111172 1e-05
0.005701 0.00111188 1e-05
0.00581518 0.00111204 1e-05
0.00592937 0.00111219 1e-05
0.00604356 0.00111233 1e-05
0.00615863 0.00111246 1e-05
0.00627371 0.00111259 1e-05
0.00638878 0.00111271 1e-05
0.00650386 0.00111282 1e-05
0.00661893 0.00111293 1e-05
0.0067349 0.00111303 1e-05
0.00685087 0.00111312 1e-05
0.00696684 0.0011132 1e-05
0.00708281 0.00111328 1e-05
0.00719878 0.00111335 1e-05
0.00727306 0.00111338 1e-05
0.00734735 0.00111342 1e-05
0.00742163 0.00111345 1e-05
0.00749592 0.00111348 1e-05
0.00756764 0.00111351 1e-05
0.00761074 0.00111352 1e-05
0.00765384 0.00111354 1e-05
0.00769694 0.00111355 1e-05
0.00774004 0.00111356 1e-05
0.00778313 0.00111357 1e-05
0.00790091 0.00111359 1e-05
0.00801869 0.00111361 1e-05
0.00813647 0.00111361 1e-05
0.00825425 0.00111361 1e-05
0.00837203 0.00111361 1e-05
0.00849073 0.00111359 1e-05
0.00860942 0.00111356 1e-05
0.00872812 0.00111353 1e-05
0.00884682 0.00111349 1e-05
0.00896551 0.00111345 1e-05
0.00908513 0.00111338 1e-05
0.00920475 0.00111332 1e-05
0.00932437 0.00111325 1e-05
0.00944398 0.00111317 1e-05
0.0095636 0.00111308 1e-05
0.00968415 0.00111298 1e-05
0.0098047 0.00111287 1e-05
0.00992525 0.00111276 1e-05
0.0100458 0.00111264 1e-05
0.0101663 0.00111251 1e-05
0.0102878 0.00111236 1e-05
0.0104093 0.00111222 1e-05
0.0105308 0.00111206 1e-05
0.0106523 0.0011119 1e-05
0.0107738 0.00111173 1e-05
0.0108962 0.00111153 1e-05
0.0110186 0.00111134 1e-05
0.0111411 0.00111115 1e-05
0.0112635 0.00111094 1e-05
0.0113859 0.00111073 1e-05
0.0115093 0.00111049 1e-05
0.0116327 0.00111025 1e-05
0.0117561 0.00111001 1e-05
0.0118795 0.00110976 1e-05
0.0120028 0.0011095 1e-05
0.0121272 0.00110922 1e-05
0.0122515 0.00110894 1e-05
0.0123759 0.00110865 1e-05
0.0125002 0.00110836 1e-05
0.0126245 0.00110805 1e-05
0.0127498 0.00110772 1e-05
0.0128752 0.0011074 1e-05
0.0130005 0.00110706 1e-05
0.0131258 0.00110672 1e-05
0.0132511 0.00110637 1e-05
0.0133774 0.00110599 1e-05
0.0135036 0.00110562 1e-05
0.0136299 0.00110524 1e-05
0.0137562 0.00110485 1e-05
0.0138825 0.00110445 1e-05
0.0140098 0.00110403 1e-05
0.014137 0.00110361 1e-05
0.0142643 0.00110318 1e-05
0.0143915 0.00110274 1e-05
0.0145188 0.00110229 1e-05
0.0146471 0.00110182 1e-05
0.0147753 0.00110135 1e-05
0.0149036 0.00110087 1e-05
0.0150318 0.00110038 1e-05
0.0151601 0.00109988 1e-05
0.0152893 0.00109937 1e-05
0.0154186 0.00109885 1e-05
0.0155478 0.00109832 1e-05
0.0156771 0.00109778 1e-05
0.0158063 0.00109723 1e-05
0.0159366 0.00109667 1e-05
0.0160668 0.00109609 1e-05
0.0161971 0.00109551 1e-05
0.0163274 0.00109492 1e-05
0.0164576 0.00109433 1e-05
0.0165889 0.00109371 1e-05
0.0167201 0.00109309 1e-05
0.0168514 0.00109246 1e-05
0.0169827 0.00109182 1e-05
0.0171139 0.00109117 1e-05
0.0172462 0.00109051 1e-05
0.0173785 0.00108984 1e-05
0.0175108 0.00108916 1e-05
0.0176431 0.00108846 1e-05
0.0177754 0.00108776 1e-05
0.0179087 0.00108706 1e-05
0.018042 0.00108634 1e-05
0.0181753 0.0010856 1e-05
0.0183087 0.00108485 1e-05
0.018442 0.00108411 1e-05
0.0185763 0.00108335 1e-05
0.0187107 0.00108258 1e-05
0.018845 0.00108179 1e-05
0.0189794 0.00108099 1e-05
0.0191137 0.00108019 1e-05
0.0192491 0.00107939 1e-05
0.0193845 0.00107857 1e-05
0.0195199 0.00107773 1e-05
0.0196553 0.00107687 1e-05
0.0197907 0.00107603 1e-05
0.0199272 0.00107517 1e-05
0.0200636 0.0010743 1e-05
0.0202001 0.00107341 1e-05
0.0203365 0.00107251 1e-05
0.020473 0.00107161 1e-05
0.0206105 0.00107071 1e-05
0.020748 0.00106978 1e-05
0.0208855 0.00106884 1e-05
0.021023 0.00106788 1e-05
0.0211606 0.00106693 1e-05
0.0212991 0.00106599 1e-05
0.0214377 0.00106501 1e-05
0.0215763 0.00106401 1e-05
0.0217149 0.00106301 1e-05
0.0218535 0.00106201 1e-05
0.0219931 0.00106101 1e-05
0.0221328 0.00105999 1e-05
0.0222724 0.00105894 1e-05
0.0224121 0.00105788 1e-05
0.0225517 0.00105683 1e-05
0.0226925 0.00105578 1e-05
0.0228332 0.00105471 1e-05
0.022974 0.00105361 1e-05
0.0231147 0.0010525 1e-05
0.0232555 0.0010514 1e-05
0.0233973 0.0010503 1e-05
0.0235391 0.00104917 1e-05
0.023681 0.00104802 1e-05
0.0238228 0.00104686 1e-05
0.0239647 0.0010457 1e-05
0.0241076 0.00104455 1e-05
0.0242505 0.00104337 1e-05
0.0243935 0.00104217 1e-05
0.0245364 0.00104095 1e-05
0.0246794 0.00103975 1e-05
0.0248234 0.00103855 1e-05
0.0249675 0.00103732 1e-05
0.0251115 0.00103606 1e-05
[...]
POINT_DATA 12040
 FIELD attributes 1
U 3 12040 float
10.0004 	0.00734819 	0 10.0004 	0.00587855 	0 10.0003 	0.00440891 	0 10.0002 	0.00293927 	0 10.0001 	0.00146964 	0 10 	0 	0
10.0001 	0.00087816 	0 10 	0.000702528 	0 10 	0.000526896 	0 10 	0.000351264 	0 10 	0.000175632 	0 10 	0 	0
10.0001 	0.000465986 	0 10.0001 	0.000372599 	0 10.0001 	0.000279211 	0 10 	0.000185824 	0 10 	9.24364e-05 	0 10 	0 	0
10 	0.000266134 	0 10 	0.000212907 	0 10 	0.00015968 	0 10 	0.000106453 	0 10 	5.32267e-05 	0 10 	0 	0
10 	8.05198e-05 	0 10 	6.44158e-05 	0 10 	4.83119e-05 	0 10 	3.22079e-05 	0 10 	1.6104e-05 	0 10 	0 	0
10 	-2.61096e-05 	0 10 	-2.08877e-05 	0 10 	-1.56658e-05 	0 10 	-1.04438e-05 	0 10 	-5.22192e-06 	0 10 	0 	0
10 	-0.000216023 	0 10 	-0.000172818 	0 10 	-0.000129614 	0 10 	-8.64091e-05 	0 10 	-4.32046e-05 	0 10 	0 	0
10 	-0.000377601 	0 10 	-0.000302081 	0 10 	-0.000226561 	0 10 	-0.000151041 	0 10 	-7.55203e-05 	0 10 	0 	0
9.99999 	-0.000426458 	0 9.99999 	-0.000341166 	0 9.99999 	-0.000255875 	0 10 	-0.000170583 	0 10 	-8.52915e-05 	0 10 	0 	0
9.17387 	0.0871272 	0 9.1308 	0.0697018 	0 9.08741 	0.0522761 	0 9.04368 	0.0348501 	0 8.99963 	0.017424 	0 8.95524 	0 	0
10.0004 	0.00734819 	0 10.0024 	0.0152063 	0 10.0045 	0.022228 	0 10.0065 	0.0292053 	0 10.0086 	0.0361383 	0 10.0136 	0.0463303 	0 10.0164 	0.0402109 	0 10.0208 	0.0401613 	0 10.0253 	0.0401118 	0 10.0297 	0.0400626 	0 10.0356 	0.044521 	0 10.0385 	0.0378825 	0 10.0425 	0.037839 	0 10.0464 	0.0377954 	0 10.0504 	0.0377518 	0 10.0545 	0.0408535 	0 10.0567 	0.0387753 	0 10.0592 	0.0400844 	0 10.0616 	0.0413952 	0 10.064 	0.0427076 	0 10.0662 	0.045166 	0 10.0677 	0.045277 	0 10.0691 	0.0464795 	0 10.0704 	0.0476831 	0 10.0717 	0.0488879 	0 10.0729 	0.0499064 	0 10.0729 	0.0499685 	0 10.073 	0.0500306 	0 10.0731 	0.0500927 	0 10.0731 	0.0501548 	0 10.0732 	0.0502076 	0 10.0737 	0.0508339 	0 10.0743 	0.0514542 	0 10.0748 	0.052075 	0 10.0753 	0.0526964 	0 10.0758 	0.0531538 	0 10.0757 	0.0534489 	0 10.0753 	0.0536386 	0 10.075 	0.0538284 	0 10.0747 	0.0540183 	0 10.0741 	0.0539699 	0 10.0737 	0.0541139 	0 10.0726 	0.0540897 	0 10.0715 	0.0540655 	0 10.0705 	0.0540413 	0 10.0689 	0.0537479 	0 10.0685 	0.053827 	0 10.0669 	0.0536925 	0 10.0653 	0.0535579 	0 10.0637 	0.0534233 	0 10.0611 	0.0530024 	0 10.0611 	0.0530549 	0 10.0591 	0.0528589 	0 10.0571 	0.0526629 	0 10.0551 	0.0524667 	0 10.0515 	0.0519716 	0 10.0522 	0.0520224 	0 10.0499 	0.0517994 	0 10.0475 	0.0515765 	0 10.0452 	0.0513534 	0 10.0406 	0.0508232 	0 10.0421 	0.050893 	0 10.0396 	0.0506644 	0 10.0371 	0.0504356 	0 10.0346 	0.0502068 	0 10.0288 	0.0496575 	0 10.0313 	0.0497522 	0 10.0287 	0.0495337 	0 10.026 	0.0493151 	0 10.0234 	0.0490964 	0 10.0165 	0.0485496 	0 10.0201 	0.0486784 	0 10.0174 	0.0484712 	0 10.0147 	0.048264 	0 10.012 	0.0480567 	0 10.0039 	0.0475033 	0 10.0087 	0.0476639 	0 10.006 	0.0475028 	0 10.0033 	0.0473416 	0 10.0006 	0.0471804 	0 9.99133 	0.046682 	0 9.99752 	0.0469041 	0 9.99483 	0.0467515 	0 9.99215 	0.0465988 	0 9.98946 	0.0464461 	0 9.97904 	0.0459046 	0 9.98659 	0.0461345 	0 9.98399 	0.0461082 	0 9.98139 	0.0460819 	0 9.97879 	0.0460556 	0 9.9672 	0.0456914 	0 9.97622 	0.045988 	8.90322e-22 9.97422 	0.0458461 	5.7783e-21 9.97223 	0.0457042 	1.06664e-20 9.97023 	0.0455623 	1.55547e-20 9.95817 	0.044961 	1.32056e-20 9.96841 	0.0450725 	9.08724e-20 9.96662 	0.0447659 	8.43442e-20 9.96483 	0.0444593 	7.78126e-20 9.96303 	0.0441527 	7.12776e-20 9.95076 	0.0434748 	-1.44649e-20 9.96086 	0.0434312 	-3.91994e-20 9.95911 	0.0431328 	-4.36072e-20 9.95736 	0.0428344 	-4.80136e-20 9.95561 	0.042536 	-5.24185e-20 9.94353 	0.0419626 	-2.06467e-20 9.95317 	0.0417547 	-1.81664e-20 9.95127 	0.0411866 	-1.26454e-20 9.94936 	0.0406183 	-7.12486e-21 9.94745 	0.04005 	-1.60472e-21 9.93558 	0.0392597 	6.78861e-21 9.94481 	0.038943 	-5.51281e-21 9.9427 	0.0381314 	-2.34621e-20 9.94059 	0.0373196 	-4.14134e-20 9.93847 	0.0365077 	-5.93667e-20 9.92669 	0.0354306 	-8.46769e-20 9.93535 	0.0351839 	-1.19529e-19 9.93289 	0.0343644 	-1.076e-19 9.93043 	0.0335447 	-9.56638e-20 9.92796 	0.0327249 	-8.372e-20 9.91617 	0.0315168 	-2.88513e-20 9.9241 	0.0313935 	3.30462e-20 9.92125 	0.0306528 	4.60494e-20 9.91839 	0.0299118 	5.90435e-20 9.91552 	0.0291705 	7.20286e-20 9.9038 	0.0279389 	3.54944e-20 9.91091 	0.0278571 	-4.45959e-20 9.90767 	0.027153 	-5.04471e-20 9.90442 	0.0264487 	-5.62846e-20 9.90117 	0.0257442 	-6.21082e-20 9.88961 	0.0245236 	-3.23117e-22 9.89578 	0.0244038 	5.79207e-20 9.89212 	0.0237069 	4.88506e-20 9.88847 	0.0230097 	3.97666e-20 9.88481 	0.0223123 	3.06689e-20 9.87348 	0.0211398 	-2.76679e-20 9.87852 	0.0209553 	-8.02854e-20 9.87441 	0.0202653 	-1.01675e-19 9.8703 	0.0195751 	-1.23059e-19 9.86618 	0.0188846 	-1.44438e-19 9.85518 	0.0177921 	-1.31874e-19 9.85886 	0.0175384 	-1.50235e-19 9.85428 	0.0168596 	-1.38248e-19 9.84968 	0.0161805 	-1.26257e-19 9.84509 	0.0155012 	-1.14262e-19 9.83459 	0.0145046 	-8.06495e-20 9.83665 	0.0141888 	-6.77168e-20 9.83159 	0.0135267 	-4.98957e-20 9.82652 	0.0128642 	-3.20762e-20 9.82144 	0.0122016 	-1.42584e-20 9.81167 	0.0113044 	1.95496e-21 9.81182 	0.010921 	0 9.80629 	0.010271 	0 9.80075 	0.00962074 	0 9.79521 	0.00897015 	0 9.78646 	0.00816764 	0 9.78434 	0.00770253 	-1.60498e-20 9.77835 	0.00705872 	-3.43226e-20 9.77235 	0.0064146 	-5.2597e-20 9.76635 	0.00577017 	-7.0873e-20 9.75897 	0.00506275 	-8.97163e-20 9.75652 	0.00473303 	-9.31424e-20 9.75243 	0.00432779 	-9.35978e-20 9.74833 	0.00392243 	-9.40512e-20 9.74423 	0.00351692 	-9.45026e-20 9.74027 	0.00312529 	-9.49365e-20 9.73786 	0.00288858 	-9.55981e-20 9.73545 	0.00265182 	-9.62599e-20 9.73304 	0.00241501 	-9.69219e-20 9.73063 	0.00217815 	-9.7584e-20 9.72587 	0.00183592 	-9.75759e-20 9.72108 	0.00129838 	-7.2603e-20 9.71412 	0.000664161 	-4.45501e-20 9.70715 	2.95513e-05 	-1.65064e-20 9.70017 	-0.000605446 	1.15282e-20 9.68447 	-0.00162356 	4.81462e-20 9.6851 	-0.00190563 	4.89989e-20 9.67771 	-0.00253441 	5.01005e-20 9.6703 	-0.00316361 	5.12e-20 9.66289 	-0.00379323 	5.22974e-20 9.64053 	-0.00505597 	5.54382e-20 9.64645 	-0.00511282 	4.3683e-20 9.63865 	-0.00573589 	3.19251e-20 9.63083 	-0.00635941 	2.01661e-20 9.62301 	-0.00698339 	8.40606e-21 9.59433 	-0.00844626 	-1.03985e-21 9.60524 	-0.00832073 	-7.91799e-21 9.59704 	-0.00893835 	-1.91468e-20 9.58884 	-0.00955646 	-3.03745e-20 9.58062 	-0.0101751 	-4.16011e-20 9.5461 	-0.0117862 	-5.28426e-20 9.56159 	-0.0115289 	-5.26996e-20 9.55304 	-0.0121434 	-5.98177e-20 9.54447 	-0.0127584 	-6.69327e-20 9.53589 	-0.013374 	-7.40448e-20 9.49613 	-0.0150792 	-9.22763e-20 9.51571 	-0.0147407 	-1.4572e-19 9.50682 	-0.0153523 	-1.36557e-19 9.49792 	-0.0159645 	-1.27407e-19 9.489 	-0.0165773 	-1.1827e-19 9.44468 	-0.0183166 	-4.02101e-20 9.46777 	-0.0179482 	-2.56937e-20 9.45857 	-0.0185566 	-1.80129e-20 9.44936 	-0.0191656 	-1.03314e-20 9.44013 	-0.0197752 	-2.64907e-21 9.39197 	-0.0214912 	0 9.41799 	-0.0211414 	0 9.4085 	-0.0217475 	0 9.399 	-0.0223543 	0 9.38948 	-0.0229617 	0 9.33825 	-0.024604 	0 9.36659 	-0.0243197 	1.55455e-21 9.35685 	-0.0249255 	8.70772e-21 9.34708 	-0.0255319 	1.58602e-20 9.33731 	-0.026139 	2.30118e-20 9.28374 	-0.0276594 	4.04117e-20 9.31382 	-0.02749 	1.55546e-19 9.30384 	-0.0280957 	1.58377e-19 9.29385 	-0.028702 	1.61222e-19 9.28383 	-0.029309 	1.64081e-19 9.22865 	-0.0306553 	4.05962e-20 9.25992 	-0.0306436 	2.16971e-20 9.24973 	-0.0312477 	1.53012e-20 9.23953 	-0.0318525 	8.9045e-21 9.22673 	-0.0324873 	3.68222e-21 9.17315 	-0.0335841 	1.70528e-20 9.20111 	-0.0338057 	1.01703e-19 9.19475 	-0.0343676 	1.11637e-19 9.18436 	-0.0349701 	1.12822e-19 9.1674 	-0.035611 	9.81723e-20 9.11744 	-0.0364418 	3.88287e-21 9.14203 	-0.0368812 	-9.63357e-20 9.13913 	-0.0374456 	-1.25883e-19 9.12858 	-0.0380453 	-1.3581e-19 9.10816 	-0.0386414 	-1.25104e-19 9.06167 	-0.0392271 	-5.98566e-20 9.0831 	-0.0398637 	-1.73341e-19 9.08309 	-0.0404734 	-2.12511e-19 9.0724 	-0.0410701 	-2.14706e-19 9.04919 	-0.041577 	-1.68708e-19 9.00599 	-0.0419403 	-4.57932e-20 9.02447 	-0.0427535 	-2.42079e-20 9.02684 	-0.0434457 	-1.0613e-20 9.01604 	-0.0440392 	-3.54696e-21 8.99064 	-0.0444188 	0 8.95053 	-0.0445826 	0 8.96629 	-0.0455513 	0 8.97057 	-0.0463573 	0 8.95967 	-0.0469476 	0 8.93264 	-0.0471686 	1.97353e-21 8.89542 	-0.0471562 	5.19361e-21 8.90868 	-0.0482606 	2.12351e-21 8.91446 	-0.0492061 	0 8.90348 	-0.0497932 	0 8.87531 	-0.0498304 	2.35274e-21 8.84077 	-0.0496639 	5.57688e-21 8.85175 	-0.0508844 	2.50629e-21 8.85866 	-0.0519889 	1.17889e-21 8.84763 	-0.0525728 	7.59855e-21 8.81875 	-0.052408 	2.38167e-20 8.78668 	-0.0521094 	4.17841e-20 8.79559 	-0.0534283 	1.63843e-19 8.80332 	-0.0547066 	2.79173e-19 8.79226 	-0.0552876 	2.82537e-19 8.76303 	-0.0549074 	1.64338e-19 8.73324 	-0.0544964 	4.22822e-20 8.74027 	-0.0558962 	2.45736e-20 8.74726 	-0.0572974 	6.86622e-21 8.73596 	-0.057836 	2.85094e-22 8.70823 	-0.0573328 	3.38949e-21 8.68052 	-0.0568293 	6.49375e-21 8.68587 	-0.0582949 	3.54691e-21 8.69117 	-0.059762 	6.00844e-22 8.68025 	-0.0602703 	2.05564e-21 8.65441 	-0.0596921 	-1.76398e-21 8.62859 	-0.0591135 	-5.58267e-21 8.63244 	-0.0606306 	-4.78416e-20 8.63623 	-0.0621494 	-9.01042e-20 8.62572 	-0.0626276 	-9.14176e-20 8.60161 	-0.0619899 	-5.2752e-20 8.57753 	-0.0613517 	-1.40845e-20 8.58003 	-0.0629098 	8.25354e-20 8.58248 	-0.0644694 	1.7915e-19 8.57241 	-0.0649191 	1.87464e-19 8.54989 	-0.0642359 	1.06989e-19 8.52737 	-0.0635521 	2.65153e-20 8.52869 	-0.0651455 	1.54265e-20 8.52996 	-0.0667405 	4.33426e-21 8.52036 	-0.0671632 	4.9277e-22 8.49926 	-0.0664429 	4.9907e-21 8.47817 	-0.0657221 	9.49037e-21 8.47845 	-0.0673386 	4.09889e-21 8.47867 	-0.0689567 	-1.29754e-21 8.46957 	-0.0693532 	-2.0335e-20 8.44976 	-0.0686093 	-6.9133e-20 8.42996 	-0.0678649 	-1.17933e-19 8.42932 	-0.0694906 	-2.4566e-19 8.42863 	-0.0711178 	-3.73382e-19 8.42004 	-0.0714897 	-3.58626e-19 8.40138 	-0.0707383 	-2.1222e-19 8.38274 	-0.0699863 	-6.58163e-20 8.3813 	-0.0716095 	5.50972e-20 8.37978 	-0.0732309 	1.75712e-19 8.37142 	-0.0735489 	1.7337e-19 8.35412 	-0.0728407 	8.82741e-20 8.33653 	-0.0720969 	3.39759e-22 8.33438 	-0.0737132 	-8.69438e-20 8.33134 	-0.0751501 	-1.63297e-19 8.32314 	-0.0754748 	-1.72349e-19 8.30799 	-0.0749351 	-1.11678e-19 8.29135 	-0.0742078 	-3.59029e-20 8.28857 	-0.0758139 	-2.49415e-20 8.28429 	-0.0770662 	-1.40757e-20 8.27623 	-0.077399 	-3.45164e-21 8.26295 	-0.0770316 	1.35642e-20 8.24718 	-0.0763267 	3.36581e-20 8.24384 	-0.0779205 	1.23719e-20 8.23857 	-0.0789907 	-2.37156e-21 8.23064 	-0.0793335 	-8.03335e-21 8.21899 	-0.0791396 	-3.05033e-21 8.20401 	-0.0784623 	1.15164e-20 8.20018 	-0.0800432 	-4.6203e-21 8.19412 	-0.0809364 	-1.52098e-20 8.18632 	-0.0812908 	-2.1454e-20 8.17609 	-0.0812698 	-3.32899e-20 8.16182 	-0.0806237 	-5.44266e-20 8.15756 	-0.0821914 	5.15282e-20 8.15089 	-0.0829134 	8.45177e-20 8.14322 	-0.0832807 	8.6894e-20 8.13421 	-0.0834301 	6.85477e-20 8.1206 	-0.0828175 	-2.2169e-20 8.11595 	-0.084372 	6.73027e-20 8.10883 	-0.0849294 	8.3431e-20 8.10127 	-0.0853106 	8.65851e-20 8.09332 	-0.0856275 	8.44898e-20 8.08031 	-0.085051 	1.00348e-20 8.07531 	-0.086593 	-6.49458e-22 8.06788 	-0.0869933 	-4.63337e-22 8.06042 	-0.0873901 	-2.41592e-22 8.05294 	-0.0877873 	-1.98681e-23 8.04093 	-0.0873327 	1.7702e-20 8.03534 	-0.0887009 	0 8.02799 	-0.0891144 	0 8.02063 	-0.0895282 	0 8.01325 	-0.0899423 	0 8.00243 	-0.0896707 	1.47211e-20 7.99638 	-0.0908693 	0 7.98912 	-0.0913011 	0 7.98185 	-0.0917331 	0 7.97456 	-0.0921654 	0 7.96479 	-0.0920729 	0 7.95838 	-0.0931099 	0 7.95121 	-0.0935611 	0 7.94402 	-0.0940126 	0 7.93681 	-0.0944644 	0 7.92795 	-0.0945468 	-8.09843e-21 7.9213 	-0.0954301 	0 7.9142 	-0.0959019 	0 7.90709 	-0.096374 	0 7.89996 	-0.0968463 	0 7.89188 	-0.0970996 	-9.86482e-21 7.88507 	-0.0978367 	0 7.87804 	-0.0983302 	0 7.871 	-0.0988238 	0 7.86393 	-0.0993178 	0 7.85655 	-0.0997377 	-3.4025e-21 7.85294 	-0.100092 	-4.47806e-21 7.84927 	-0.100364 	-9.80512e-21 7.8456 	-0.100636 	-1.51325e-20 7.84192 	-0.100908 	-2.04602e-20 7.83831 	-0.101174 	-2.56726e-20 7.83489 	-0.101421 	-3.01617e-20 7.83146 	-0.101667 	-3.46505e-20 7.82803 	-0.101914 	-3.9139e-20 7.82459 	-0.10216 	-4.36272e-20 7.82153 	-0.102332 	-4.81186e-20 7.81429 	-0.102941 	-4.66973e-20 7.80717 	-0.103483 	-4.60797e-20 7.80003 	-0.104025 	-4.54594e-20 7.79287 	-0.104567 	-4.48364e-20 7.78687 	-0.104882 	-4.67477e-20 7.77936 	-0.105654 	-3.65498e-20 7.77229 	-0.106221 	-2.63392e-20 7.76519 	-0.106788 	-1.61272e-20 7.75806 	-0.107355 	-5.91374e-21 7.75288 	-0.107548 	0 7.74511 	-0.10848 	-2.5775e-21 7.73806 	-0.109073 	-7.27052e-21 7.73099 	-0.109666 	-1.19628e-20 7.7239 	-0.11026 	-1.66544e-20 7.71951 	-0.110337 	-2.13125e-20 7.71146 	-0.111425 	-4.99197e-20 7.70445 	-0.112045 	-6.92072e-20 7.6974 	-0.112666 	-8.84963e-20 7.69034 	-0.113287 	-1.07787e-19 7.68672 	-0.113255 	-9.98352e-20 7.67839 	-0.114495 	-7.76502e-20 7.67139 	-0.115145 	-6.67791e-20 7.66437 	-0.115794 	-5.59017e-20 7.65732 	-0.116444 	-4.50179e-20 7.65444 	-0.11631 	-6.70181e-20 7.64587 	-0.117684 	-8.07243e-20 7.63884 	-0.11838 	-6.34413e-20 7.63183 	-0.119059 	-4.54357e-20 7.62536 	-0.119633 	-2.55179e-20 7.62264 	-0.11951 	6.96502e-21 7.6141 	-0.120898 	1.12225e-20 7.60676 	-0.121758 	8.3128e-21 7.59975 	-0.122469 	3.37429e-21 7.59406 	-0.122933 	0 7.59127 	-0.122862 	0 7.58274 	-0.124264 	0 7.57509 	-0.125285 	0 7.56807 	-0.126029 	0 7.56314 	-0.126389 	0 7.56028 	-0.126371 	0 7.55176 	-0.127788 	0 7.54378 	-0.128967 	-6.43114e-21 7.53675 	-0.129745 	-2.36953e-20 7.53255 	-0.130006 	-4.10122e-20 7.52961 	-0.130041 	-5.83528e-20 7.5211 	-0.131476 	-3.96373e-20 7.51279 	-0.132811 	-2.02497e-20 7.50573 	-0.133622 	2.56928e-21 7.50225 	-0.133791 	8.6825e-21 7.49921 	-0.133879 	1.26948e-20 7.49069 	-0.135334 	4.44309e-20 7.48213 	-0.136789 	7.61654e-20 7.4753 	-0.137608 	9.27286e-20 7.47217 	-0.137749 	7.8178e-20 7.46903 	-0.137891 	6.36259e-20 7.4605 	-0.139367 	4.02073e-20 7.45193 	-0.140843 	1.67803e-20 7.44552 	-0.14169 	2.61055e-21 7.44227 	-0.141886 	1.17282e-20 7.43902 	-0.142081 	2.08466e-20 7.43048 	-0.143579 	8.26209e-20 7.42189 	-0.145078 	1.44398e-19 7.41587 	-0.145956 	1.45043e-19 7.41251 	-0.146204 	8.38858e-20 7.40913 	-0.146453 	2.27271e-20 7.40057 	-0.147976 	1.43891e-20 7.39195 	-0.149499 	6.05472e-21 7.3863 	-0.150408 	6.21321e-21 7.38281 	-0.150711 	1.51107e-20 7.37931 	-0.151013 	2.40092e-20 7.37071 	-0.152561 	8.43295e-20 7.36205 	-0.154109 	1.44653e-19 7.35677 	-0.155052 	1.45332e-19 7.35314 	-0.155408 	8.56571e-20 7.3495 	-0.155764 	2.5981e-20 7.34086 	-0.157338 	1.78886e-20 7.33263 	-0.158831 	9.78507e-21 7.32749 	-0.159784 	1.58754e-21 7.32345 	-0.160299 	0 7.31966 	-0.160708 	0 7.31096 	-0.16231 	0 7.30346 	-0.163697 	0 7.2982 	-0.164692 	0 7.29367 	-0.165388 	0 7.28973 	-0.16585 	0 7.28097 	-0.167481 	0 7.27417 	-0.168766 	0 7.26878 	-0.169802 	0 7.26377 	-0.170677 	4.79561e-21 7.25965 	-0.171192 	2.02602e-20 7.25082 	-0.172851 	3.19141e-21 7.2447 	-0.174038 	6.81079e-21 7.23917 	-0.175116 	1.51896e-20 7.23368 	-0.176167 	2.37855e-20 7.22938 	-0.176735 	3.63134e-20 7.22064 	-0.178396 	1.16354e-19 7.215 	-0.179516 	1.20746e-19 7.20933 	-0.180635 	1.25115e-19 7.20362 	-0.181755 	1.29463e-19 7.19887 	-0.182481 	4.98212e-20 7.19082 	-0.184038 	1.20864e-19 7.18504 	-0.185199 	1.09263e-19 7.17921 	-0.18636 	9.76401e-20 7.17334 	-0.187521 	8.59948e-20 7.16807 	-0.188431 	3.75901e-20 7.16069 	-0.189886 	3.26864e-20 7.15474 	-0.191089 	3.31557e-20 7.14875 	-0.192291 	3.363e-20 7.14272 	-0.193494 	3.41095e-20 7.13692 	-0.194585 	4.31606e-20 7.13133 	-0.195708 	4.60589e-20 7.12636 	-0.196719 	4.40352e-20 7.12136 	-0.19773 	4.20012e-20 7.11633 	-0.198741 	3.99568e-20 7.11155 	-0.199698 	3.80103e-20 7.11029 	-0.199942 	3.78402e-20 7.10902 	-0.200185 	3.76699e-20 7.10776 	-0.200428 	3.74994e-20 7.10649 	-0.200672 	3.73287e-20 7.10545 	-0.200891 	3.80033e-20 7.09888 	-0.202198 	3.28387e-20 7.09239 	-0.203481 	2.64472e-20 7.08586 	-0.204765 	2.00638e-20 7.07928 	-0.206048 	1.36887e-20 7.07406 	-0.207183 	9.60209e-22 7.0666 	-0.208656 	-2.46317e-22 7.05992 	-0.20998 	-1.73774e-22 7.05319 	-0.211304 	-1.01205e-22 7.04641 	-0.212628 	-2.86098e-23 7.04219 	-0.213681 	0 7.03383 	-0.215319 	-4.24488e-21 7.02694 	-0.216682 	-1.75701e-20 7.02 	-0.218046 	-3.08895e-20 7.01302 	-0.219409 	-4.42031e-20 7.0098 	-0.220382 	-5.42398e-20 7.00051 	-0.22218 	-4.25164e-20 6.99339 	-0.223585 	-2.77734e-20 6.98624 	-0.224988 	-1.30025e-20 6.97982 	-0.226311 	3.56296e-22 6.97683 	-0.227282 	7.45053e-21 6.96733 	-0.229112 	1.27808e-21 6.95924 	-0.230687 	8.02748e-21 6.95186 	-0.232127 	2.15216e-20 6.94648 	-0.233362 	3.8385e-20 6.94324 	-0.234377 	5.88502e-20 6.93352 	-0.236239 	3.75201e-20 6.92443 	-0.237982 	1.81983e-20 6.91681 	-0.23946 	3.34514e-21 6.91248 	-0.240606 	-2.32053e-21 6.909 	-0.241664 	-5.5403e-21 6.89904 	-0.243557 	-5.54535e-20 6.88902 	-0.24545 	-1.05368e-19 6.88148 	-0.246939 	-1.06751e-19 6.87778 	-0.248038 	-6.75118e-20 6.87404 	-0.249137 	-2.82726e-20 6.86384 	-0.25106 	-6.8094e-20 6.85358 	-0.252983 	-1.07923e-19 6.84631 	-0.254514 	-1.07473e-19 6.84234 	-0.255653 	-6.57022e-20 6.83833 	-0.256792 	-2.39301e-20 6.82788 	-0.258744 	-6.58447e-20 6.81737 	-0.260696 	-1.07765e-19 6.81037 	-0.262269 	-1.03505e-19 6.80612 	-0.263445 	-5.61651e-20 6.80184 	-0.264622 	-8.82112e-21 6.79113 	-0.266602 	-6.14076e-21 6.78073 	-0.268545 	-3.44201e-21 6.77402 	-0.270127 	-5.41975e-22 6.76908 	-0.271409 	0 6.76451 	-0.272622 	0 6.75353 	-0.274629 	0 6.74429 	-0.276462 	0 6.73731 	-0.278074 	0 6.73118 	-0.279537 	0 6.72632 	-0.280784 	0 6.71506 	-0.282816 	0 6.70699 	-0.284538 	-2.39886e-21 6.69973 	-0.286179 	-5.42816e-21 6.6924 	-0.287819 	-8.45889e-21 6.68722 	-0.289103 	-6.42733e-22 6.67631 	-0.291099 	-4.74455e-20 6.66881 	-0.292767 	-4.4323e-20 6.66125 	-0.294435 	-4.1179e-20 6.65363 	-0.296102 	-3.80135e-20 6.64719 	-0.29757 	-6.52822e-21 6.6375 	-0.299447 	-7.05121e-21 6.6297 	-0.30114 	1.36069e-21 6.62184 	-0.302833 	9.77388e-21 6.61392 	-0.304526 	1.81884e-20 6.60619 	-0.306178 	2.51418e-20 6.6038 	-0.306641 	3.00003e-20 6.6018 	-0.307066 	3.0041e-20 6.5998 	-0.307492 	3.00807e-20 6.59779 	-0.307917 	3.01193e-20 6.59582 	-0.308335 	3.01562e-20 6.58933 	-0.309625 	3.12543e-20 6.5828 	-0.310915 	3.23477e-20 6.57623 	-0.312205 	3.34365e-20 6.56963 	-0.313495 	3.45204e-20 6.56381 	-0.314685 	3.92599e-20 6.55451 	-0.316531 	4.06882e-20 6.54556 	-0.318266 	3.85726e-20 6.53654 	-0.32 	3.64619e-20 6.52746 	-0.321734 	3.43563e-20 6.52026 	-0.323236 	1.80899e-20 6.51002 	-0.32525 	3.4178e-20 6.50072 	-0.327004 	2.83223e-20 6.49134 	-0.328758 	2.24781e-20 6.48236 	-0.330458 	1.29124e-20 6.47553 	-0.331897 	-1.48629e-20 6.46479 	-0.333958 	-7.97138e-21 6.45464 	-0.335851 	-6.1481e-21 6.4449 	-0.337622 	-8.00956e-21 6.43675 	-0.339201 	-8.37509e-21 6.42958 	-0.34066 	-7.80375e-21 6.41846 	-0.342732 	-6.48452e-21 6.40729 	-0.344797 	-5.06152e-21 6.39737 	-0.346561 	3.64962e-22 6.38991 	-0.348036 	5.44017e-21 6.38239 	-0.349512 	1.0519e-20 6.37088 	-0.351594 	6.39797e-21 6.35929 	-0.353675 	2.28086e-21 6.34963 	-0.355464 	0 6.34181 	-0.356953 	0 6.33393 	-0.358443 	0 6.32202 	-0.360532 	0 6.3101 	-0.362614 	0 6.30077 	-0.364397 	0 6.29241 	-0.36594 	0 6.28416 	-0.367441 	0 6.27185 	-0.369536 	0 6.26088 	-0.371472 	2.26414e-21 6.25118 	-0.373261 	6.65635e-21 6.24169 	-0.374986 	1.10543e-20 6.23306 	-0.376495 	1.5466e-20 6.2204 	-0.378586 	1.20612e-20 6.21038 	-0.380378 	1.28635e-20 6.20029 	-0.382171 	1.36717e-20 6.19013 	-0.383962 	1.44858e-20 6.18061 	-0.385592 	1.63278e-20 6.17019 	-0.387316 	6.00917e-21 6.161 	-0.3889 	9.36364e-22 6.15176 	-0.390484 	-4.1266e-21 6.14245 	-0.392067 	-9.17968e-21 6.13365 	-0.393555 	-1.39222e-20 6.13235 	-0.393784 	-1.46729e-20 6.13104 	-0.394012 	-1.54233e-20 6.12974 	-0.394241 	-1.61736e-20 6.12843 	-0.39447 	-1.69236e-20 6.12714 	-0.394678 	-1.83743e-20 6.11688 	-0.396497 	-2.00049e-20 6.10649 	-0.398293 	-1.93944e-20 6.09603 	-0.400087 	-1.88032e-20 6.08549 	-0.401882 	-1.82315e-20 6.07507 	-0.403493 	-5.26265e-21 6.0