# vtk DataFile Version 2.0
track0
ASCII
DATASET POLYDATA
POINTS 12075 float
-0.0205 0.001 1e-05
-0.02052 0.000999985 1e-05
-0.02054 0.000999974 1e-05
-0.02056 0.000999965 1e-05
-0.02058 0.000999959 1e-05
-0.0206 0.000999956 1e-05
-0.0205 0.00367778 1e-05
-0.02052 0.00367778 1e-05
-0.02054 0.00367777 1e-05
-0.02056 0.00367777 1e-05
-0.02058 0.00367777 1e-05
-0.0206 0.00367777 1e-05
-0.0205 0.00635556 1e-05
-0.02052 0.00635555 1e-05
-0.02054 0.00635555 1e-05
-0.02056 0.00635555 1e-05
-0.02058 0.00635555 1e-05
-0.0206 0.00635555 1e-05
-0.0205 0.00903333 1e-05
-0.02052 0.00903333 1e-05
-0.02054 0.00903333 1e-05
-0.02056 0.00903333 1e-05
-0.02058 0.00903333 1e-05
-0.0206 0.00903333 1e-05
-0.0205 0.0117111 1e-05
-0.02052 0.0117111 1e-05
-0.02054 0.0117111 1e-05
-0.02056 0.0117111 1e-05
-0.02058 0.0117111 1e-05
-0.0206 0.0117111 1e-05
-0.0205 0.0143889 1e-05
-0.02052 0.0143889 1e-05
-0.02054 0.0143889 1e-05
-0.02056 0.0143889 1e-05
-0.02058 0.0143889 1e-05
-0.0206 0.0143889 1e-05
-0.0205 0.0170667 1e-05
-0.02052 0.0170667 1e-05
-0.02054 0.0170667 1e-05
-0.02056 0.0170667 1e-05
-0.02058 0.0170667 1e-05
-0.0206 0.0170667 1e-05
-0.0205 0.0197444 1e-05
-0.02052 0.0197444 1e-05
-0.02054 0.0197444 1e-05
-0.02056 0.0197444 1e-05
-0.02058 0.0197444 1e-05
-0.0206 0.0197444 1e-05
-0.0205 0.0224222 1e-05
-0.02052 0.0224222 1e-05
-0.02054 0.0224222 1e-05
-0.02056 0.0224222 1e-05
-0.02058 0.0224222 1e-05
-0.0206 0.0224222 1e-05
-0.0205 0.0251 1e-05
-0.02052 0.0250998 1e-05
-0.02054 0.0250997 1e-05
-0.02056 0.0250995 1e-05
-0.02058 0.0250995 1e-05
-0.0206 0.0250994 1e-05
-0.0205 0.001 1e-05
-0.0202034 0.00100022 1e-05
-0.0199069 0.00100067 1e-05
-0.0196103 0.00100132 1e-05
-0.0193137 0.00100219 1e-05
-0.0190172 0.00100326 1e-05
-0.0187132 0.00100466 1e-05
-0.0184093 0.00100589 1e-05
-0.0181054 0.0010071 1e-05
-0.0178015 0.00100832 1e-05
-0.0174976 0.00100954 1e-05
-0.0172058 0.00101083 1e-05
-0.016914 0.00101193 1e-05
-0.0166222 0.00101304 1e-05
-0.0163305 0.00101413 1e-05
-0.0160387 0.00101523 1e-05
-0.0157586 0.00101637 1e-05
-0.0154784 0.00101745 1e-05
-0.0151983 0.00101857 1e-05
-0.0149182 0.00101973 1e-05
-0.0146381 0.00102092 1e-05
-0.0143756 0.0010221 1e-05
-0.014113 0.00102328 1e-05
-0.0138505 0.00102449 1e-05
-0.013588 0.00102574 1e-05
-0.0133663 0.00102682 1e-05
-0.0133518 0.00102689 1e-05
-0.0133372 0.00102696 1e-05
-0.0133226 0.00102703 1e-05
-0.013308 0.00102711 1e-05
-0.0132934 0.00102718 1e-05
-0.0130353 0.00102847 1e-05
-0.0127771 0.00102978 1e-05
-0.0125189 0.0010311 1e-05
-0.0122607 0.00103244 1e-05
-0.0120025 0.00103379 1e-05
-0.0117547 0.0010351 1e-05
-0.0115068 0.00103642 1e-05
-0.0112589 0.00103774 1e-05
-0.0110111 0.00103907 1e-05
-0.0107632 0.00104041 1e-05
-0.0105252 0.00104169 1e-05
-0.0102873 0.00104297 1e-05
-0.0100493 0.00104425 1e-05
-0.00981133 0.00104554 1e-05
-0.00957337 0.00104682 1e-05
-0.00934491 0.00104805 1e-05
-0.00911645 0.00104928 1e-05
-0.00888799 0.0010505 1e-05
-0.00865954 0.00105173 1e-05
-0.00843108 0.00105295 1e-05
-0.00821175 0.00105411 1e-05
-0.00799242 0.00105528 1e-05
-0.00777309 0.00105644 1e-05
-0.00755376 0.0010576 1e-05
-0.00733443 0.00105876 1e-05
-0.00712387 0.00105986 1e-05
-0.0069133 0.00106096 1e-05
-0.00670273 0.00106206 1e-05
-0.00649216 0.00106316 1e-05
-0.0062816 0.00106425 1e-05
-0.00607944 0.00106529 1e-05
-0.00587729 0.00106633 1e-05
-0.00567514 0.00106737 1e-05
-0.00547298 0.00106841 1e-05
-0.00527083 0.00106944 1e-05
-0.00507675 0.00107043 1e-05
-0.00488267 0.00107142 1e-05
-0.0046886 0.00107241 1e-05
-0.00449452 0.00107339 1e-05
-0.00430044 0.00107437 1e-05
-0.00411412 0.00107531 1e-05
-0.0039278 0.00107626 1e-05
-0.00374147 0.0010772 1e-05
-0.00355515 0.00107814 1e-05
-0.00336883 0.00107909 1e-05
-0.00318995 0.00107999 1e-05
-0.00301107 0.00108089 1e-05
-0.00283219 0.00108181 1e-05
-0.00265331 0.00108272 1e-05
-0.00247443 0.00108364 1e-05
-0.0023027 0.00108453 1e-05
-0.00213097 0.00108542 1e-05
-0.00195924 0.00108632 1e-05
-0.00178751 0.00108724 1e-05
-0.00161577 0.00108815 1e-05
-0.0014509 0.00108904 1e-05
-0.00128603 0.00108994 1e-05
-0.00112116 0.00109086 1e-05
-0.00095629 0.0010918 1e-05
-0.000791418 0.00109276 1e-05
-0.000633135 0.0010937 1e-05
-0.000474851 0.00109466 1e-05
-0.000316568 0.00109565 1e-05
-0.000158285 0.00109667 1e-05
0 0.0010977 1e-05
0.000105677 0.00109841 1e-05
0.000211355 0.00109912 1e-05
0.000317032 0.00109984 1e-05
0.000422709 0.00110056 1e-05
0.000528387 0.00110129 1e-05
0.000634886 0.00110202 1e-05
0.000741385 0.00110275 1e-05
0.000847885 0.00110346 1e-05
0.000954384 0.00110417 1e-05
0.00106088 0.00110487 1e-05
0.00116821 0.00110557 1e-05
0.00127554 0.00110625 1e-05
0.00138286 0.00110692 1e-05
0.00149019 0.00110758 1e-05
0.00159752 0.00110821 1e-05
0.00170568 0.00110884 1e-05
0.00181384 0.00110946 1e-05
0.001922 0.00111006 1e-05
0.00203016 0.00111065 1e-05
0.00213833 0.00111122 1e-05
0.00224733 0.00111178 1e-05
0.00235633 0.00111233 1e-05
0.00246533 0.00111286 1e-05
0.00257434 0.00111338 1e-05
0.00268334 0.00111389 1e-05
0.00279319 0.00111438 1e-05
0.00290304 0.00111486 1e-05
0.00301289 0.00111533 1e-05
0.00312274 0.00111579 1e-05
0.00323259 0.00111623 1e-05
0.00334329 0.00111666 1e-05
0.003454 0.00111708 1e-05
0.0035647 0.00111749 1e-05
0.0036754 0.00111788 1e-05
0.00378611 0.00111826 1e-05
0.00389767 0.00111863 1e-05
0.00400924 0.00111899 1e-05
0.0041208 0.00111934 1e-05
0.00423237 0.00111967 1e-05
0.00434393 0.00111999 1e-05
0.00445636 0.00112029 1e-05
0.00456879 0.00112059 1e-05
0.00468123 0.00112088 1e-05
0.00479366 0.00112115 1e-05
0.00490609 0.00112141 1e-05
0.0050194 0.00112165 1e-05
0.0051327 0.00112189 1e-05
0.00524601 0.00112211 1e-05
0.00535932 0.00112232 1e-05
0.00547262 0.00112252 1e-05
0.00558681 0.00112271 1e-05
0.005701 0.00112288 1e-05
0.00581518 0.00112305 1e-05
0.00592937 0.0011232 1e-05
0.00604356 0.00112334 1e-05
0.00615863 0.00112347 1e-05
0.00627371 0.00112358 1e-05
0.00638878 0.00112369 1e-05
0.00650386 0.00112379 1e-05
0.00661893 0.00112387 1e-05
0.0067349 0.00112393 1e-05
0.00685087 0.00112399 1e-05
0.00696684 0.00112404 1e-05
0.00708281 0.00112408 1e-05
0.00719878 0.00112411 1e-05
0.00731565 0.00112412 1e-05
0.00743252 0.00112412 1e-05
0.00754939 0.00112411 1e-05
0.00766626 0.00112409 1e-05
0.00778313 0.00112406 1e-05
0.00790091 0.00112401 1e-05
0.00801869 0.00112395 1e-05
0.00813647 0.00112389 1e-05
0.00825425 0.00112381 1e-05
0.00837203 0.00112372 1e-05
0.00838819 0.0011237 1e-05
0.00840434 0.00112369 1e-05
0.0084205 0.00112368 1e-05
0.00843665 0.00112366 1e-05
0.00845266 0.00112365 1e-05
0.00855523 0.00112355 1e-05
0.0086578 0.00112345 1e-05
0.00876037 0.00112334 1e-05
0.00886294 0.00112321 1e-05
0.00896551 0.00112308 1e-05
0.00908513 0.00112292 1e-05
0.00920475 0.00112275 1e-05
0.00932437 0.00112256 1e-05
0.00944398 0.00112236 1e-05
0.0095636 0.00112216 1e-05
0.00968415 0.00112193 1e-05
0.0098047 0.00112169 1e-05
0.00992525 0.00112145 1e-05
0.0100458 0.00112119 1e-05
0.0101663 0.00112092 1e-05
0.0102878 0.00112063 1e-05
0.0104093 0.00112033 1e-05
0.0105308 0.00112002 1e-05
0.0106523 0.0011197 1e-05
0.0107738 0.00111936 1e-05
0.0108962 0.00111901 1e-05
0.0110186 0.00111865 1e-05
0.0111411 0.00111827 1e-05
0.0112635 0.00111789 1e-05
0.0113859 0.00111749 1e-05
0.0115093 0.00111707 1e-05
0.0116327 0.00111664 1e-05
0.0117561 0.0011162 1e-05
0.0118795 0.00111574 1e-05
0.0120028 0.00111528 1e-05
0.0121272 0.00111479 1e-05
0.0122515 0.00111429 1e-05
0.0123759 0.00111379 1e-05
0.0125002 0.00111326 1e-05
0.0126245 0.00111273 1e-05
0.0127498 0.00111217 1e-05
0.0128752 0.00111161 1e-05
0.0130005 0.00111103 1e-05
0.0131258 0.00111043 1e-05
0.0132511 0.00110983 1e-05
0.0133774 0.0011092 1e-05
0.0135036 0.00110856 1e-05
0.0136299 0.00110791 1e-05
0.0137562 0.00110725 1e-05
0.0138825 0.00110657 1e-05
0.0140098 0.00110587 1e-05
0.014137 0.00110516 1e-05
0.0142643 0.00110443 1e-05
0.0143915 0.00110369 1e-05
0.0145188 0.00110294 1e-05
0.0146471 0.00110217 1e-05
0.0147753 0.00110138 1e-05
0.0149036 0.00110058 1e-05
0.0150318 0.00109976 1e-05
0.0151601 0.00109893 1e-05
0.0152893 0.00109809 1e-05
0.0154186 0.00109722 1e-05
0.0155478 0.00109634 1e-05
0.0156771 0.00109544 1e-05
0.0158063 0.00109453 1e-05
0.0159366 0.00109361 1e-05
0.0160668 0.00109267 1e-05
0.0161971 0.00109171 1e-05
0.0163273 0.00109073 1e-05
0.0164576 0.00108974 1e-05
0.0165889 0.00108874 1e-05
0.0167201 0.00108772 1e-05
0.0168514 0.00108667 1e-05
0.0169827 0.00108561 1e-05
0.0171139 0.00108454 1e-05
0.0172462 0.00108346 1e-05
0.0173785 0.00108235 1e-05
0.0175108 0.00108122 1e-05
0.0176431 0.00108007 1e-05
0.0177754 0.00107891 1e-05
0.0179087 0.00107775 1e-05
0.018042 0.00107655 1e-05
0.0181753 0.00107533 1e-05
0.0183087 0.00107409 1e-05
0.018442 0.00107285 1e-05
0.0185763 0.0010716 1e-05
0.0187107 0.00107032 1e-05
0.018845 0.001069 1e-05
0.0189794 0.00106767 1e-05
0.0191137 0.00106633 1e-05
0.0192491 0.00106499 1e-05
0.0193845 0.00106362 1e-05
0.0195199 0.00106221 1e-05
0.0196553 0.00106078 1e-05
0.0197907 0.00105935 1e-05
0.0199272 0.00105792 1e-05
0.0200636 0.00105644 1e-05
0.0202001 0.00105493 1e-05
0.0203365 0.00105341 1e-05
0.020473 0.00105188 1e-05
0.0206105 0.00105035 1e-05
0.020748 0.00104878 1e-05
0.0208855 0.00104717 1e-05
0.021023 0.00104554 1e-05
0.0211606 0.00104392 1e-05
0.0212991 0.00104228 1e-05
0.0214377 0.00104061 1e-05
0.0215763 0.0010389 1e-05
0.0217149 0.00103716 1e-05
0.0218535 0.00103543 1e-05
0.0219931 0.00103369 1e-05
0.0221328 0.00103191 1e-05
0.0222724 0.00103009 1e-05
0.0224121 0.00102825 1e-05
0.0225517 0.00102641 1e-05
0.0226925 0.00102456 1e-05
0.0228332 0.00102267 1e-05
0.022974 0.00102073 1e-05
0.0231147 0.00101878 1e-05
0.0232555 0.00101683 1e-05
0.0233973 0.00101486 1e-05
0.0235391 0.00101285 1e-05
0.023681 0.0010108 1e-05
0.0238228 0.00100873 1e-05
0.0239647 0.00100666 1e-05
0.0241076 0.00100457 1e-05
0.0242505 0.00100244 1e-05
0.0243935 0.00100027 1e-05
0.0245364 0.00099808 1e-05
0.0246794 0.000995882 1e-05
0.0248234 0.000993664 1e-05
0.0249675 0.000991403 1e-05
0.0251115 0.000989109 1e-05
0.0252556 0.000986793 1e-05
[...]
POINT_DATA 12075
 FIELD attributes 2
p 1 12075 float
-5.61075 -5.60744 -5.60412 -5.60081 -5.59749 -5.59418
-5.76345 -5.76343 -5.7634 -5.76338 -5.76336 -5.76334
-5.93823 -5.9381 -5.93798 -5.93786 -5.93774 -5.93763
-6.03233 -6.03228 -6.03223 -6.03217 -6.03212 -6.03207
-6.07816 -6.07804 -6.07793 -6.07782 -6.0777 -6.07759
-6.08528 -6.08512 -6.08496 -6.08479 -6.08463 -6.08447
-6.05877 -6.0587 -6.05863 -6.05856 -6.05849 -6.05842
-5.98946 -5.98942 -5.98938 -5.98934 -5.9893 -5.98926
-5.8683 -5.86831 -5.86832 -5.86832 -5.86833 -5.86833
-3.65574 -3.67507 -3.69427 -3.71334 -3.73227 -3.75107
-5.61075 -5.61003 -5.6064 -5.60269 -5.5989 -5.5905 -5.60431 -5.61923 -5.63415 -5.64907 -5.67344 -5.69513 -5.72498 -5.75482 -5.78467 -5.81733 -5.83287 -5.85445 -5.87604 -5.89762 -5.92082 -5.93949 -5.96015 -5.98082 -6.00149 -6.01894 -6.02009 -6.02123 -6.02238 -6.02352 -6.02466 -6.0461 -6.06754 -6.08898 -6.11042 -6.13158 -6.15006 -6.16833 -6.18661 -6.20489 -6.22258 -6.23783 -6.25279 -6.26775 -6.28271 -6.2971 -6.31038 -6.32339 -6.3364 -6.34941 -6.36196 -6.37402 -6.38578 -6.39755 -6.40931 -6.42062 -6.43156 -6.44214 -6.45272 -6.4633 -6.47342 -6.48325 -6.4927 -6.50215 -6.5116 -6.52066 -6.52948 -6.53784 -6.5462 -6.55457 -6.56257 -6.57039 -6.57775 -6.58511 -6.59247 -6.59968 -6.60663 -6.61278 -6.61892 -6.62507 -6.63116 -6.63747 -6.64367 -6.64987 -6.65608 -6.66343 -6.67138 -6.67823 -6.6851 -6.69196 -6.70006 -6.7116 -6.72777 -6.74394 -6.76012 -6.78065 -6.80276 -6.83136 -6.85996 -6.88857 -6.91689 -6.94348 -6.97147 -6.99945 -7.02744 -7.05165 -7.06979 -7.08715 -7.10451 -7.12187 -7.13812 -7.15044 -7.16177 -7.17309 -7.18442 -7.19556 -7.20614 -7.21515 -7.22416 -7.23318 -7.24108 -7.25023 -7.25771 -7.26519 -7.27268 -7.27858 -7.2858 -7.29151 -7.29722 -7.30293 -7.30727 -7.31237 -7.31629 -7.32022 -7.32415 -7.32725 -7.33076 -7.33341 -7.33607 -7.33873 -7.34098 -7.34351 -7.34539 -7.34727 -7.34915 -7.35082 -7.35286 -7.3544 -7.35593 -7.35746 -7.35884 -7.36069 -7.36212 -7.36355 -7.36499 -7.36626 -7.36794 -7.36929 -7.37065 -7.372 -7.37322 -7.37472 -7.37601 -7.3773 -7.37859 -7.3798 -7.3813 -7.38269 -7.38409 -7.38549 -7.38688 -7.38712 -7.38736 -7.3876 -7.38783 -7.38807 -7.38956 -7.39106 -7.39255 -7.39405 -7.39587 -7.39767 -7.39978 -7.4019 -7.40402 -7.40687 -7.40858 -7.41096 -7.41335 -7.41573 -7.41923 -7.42081 -7.4234 -7.42599 -7.42858 -7.43266 -7.43417 -7.43702 -7.43987 -7.44272 -7.44739 -7.44895 -7.45211 -7.45527 -7.45844 -7.46368 -7.46539 -7.46888 -7.47238 -7.47587 -7.48163 -7.48356 -7.48738 -7.4912 -7.49502 -7.50119 -7.5034 -7.50753 -7.51165 -7.51578 -7.52226 -7.5248 -7.52921 -7.53361 -7.53812 -7.54471 -7.54778 -7.55227 -7.55693 -7.5619 -7.56841 -7.57201 -7.5766 -7.58148 -7.58684 -7.59326 -7.59735 -7.60207 -7.60717 -7.61281 -7.61918 -7.6237 -7.62859 -7.63386 -7.63972 -7.64603 -7.65093 -7.65603 -7.66148 -7.66751 -7.67378 -7.67904 -7.68437 -7.68999 -7.69609 -7.70228 -7.70781 -7.71334 -7.71908 -7.72513 -7.7312 -7.7369 -7.74261 -7.74839 -7.7543 -7.76022 -7.76602 -7.77182 -7.77757 -7.78331 -7.78905 -7.79484 -7.80064 -7.80632 -7.81189 -7.81746 -7.82319 -7.82891 -7.8345 -7.83992 -7.84534 -7.85096 -7.85659 -7.86208 -7.86735 -7.87262 -7.87811 -7.8836 -7.88896 -7.89404 -7.89912 -7.90443 -7.90971 -7.91487 -7.91978 -7.92465 -7.92972 -7.93474 -7.93965 -7.94436 -7.94894 -7.95372 -7.95842 -7.96304 -7.96751 -7.97179 -7.97625 -7.98059 -7.98487 -7.98908 -7.99302 -7.99712 -8.00106 -8.00497 -8.00888 -8.01243 -8.01616 -8.01967 -8.02319 -8.02671 -8.02992 -8.03321 -8.03629 -8.03937 -8.04245 -8.04525 -8.04802 -8.05058 -8.05314 -8.0557 -8.05807 -8.06019 -8.06217 -8.06415 -8.06614 -8.06808 -8.06864 -8.06917 -8.0697 -8.07023 -8.07074 -8.07163 -8.07251 -8.0734 -8.07429 -8.07512 -8.076 -8.07679 -8.07758 -8.07837 -8.07901 -8.07938 -8.07949 -8.07961 -8.07973 -8.07956 -8.07941 -8.07881 -8.0782 -8.07761 -8.07654 -8.07585 -8.07443 -8.07302 -8.07151 -8.06951 -8.06796 -8.06589 -8.06359 -8.06103 -8.05813 -8.05569 -8.05295 -8.04972 -8.04602 -8.04212 -8.0387 -8.03523 -8.03093 -8.02592 -8.02091 -8.01634 -8.01178 -8.00644 -8.00041 -7.99438 -7.98874 -7.98311 -7.97683 -7.96983 -7.96283 -7.95616 -7.94949 -7.94221 -7.93413 -7.92607 -7.91829 -7.91034 -7.90184 -7.89285 -7.88358 -7.87458 -7.86514 -7.85538 -7.84542 -7.83486 -7.82455 -7.81351 -7.80242 -7.79134 -7.77957 -7.76767 -7.75521 -7.74275 -7.73031 -7.71752 -7.70407 -7.69034 -7.67662 -7.6629 -7.65028 -7.64994 -7.64959 -7.64924 -7.6489 -7.64854 -7.6334 -7.61825 -7.60312 -7.58799 -7.57252 -7.55633 -7.53973 -7.52314 -7.50656 -7.48926 -7.47205 -7.45397 -7.43591 -7.41763 -7.39865 -7.37993 -7.36076 -7.34115 -7.32089 -7.30032 -7.28002 -7.25972 -7.23848 -7.21638 -7.19428 -7.17243 -7.1506 -7.12785 -7.10416 -7.08047 -7.05699 -7.0335 -7.00909 -6.984 -6.95879 -6.93371 -6.9082 -6.88227 -6.85618 -6.82955 -6.80296 -6.77557 -6.7482 -6.72083 -6.69304 -6.66504 -6.63673 -6.60842 -6.58014 -6.55383 -6.55302 -6.55222 -6.55142 -6.55061 -6.54981 -6.52013 -6.49047 -6.46082 -6.43118 -6.40142 -6.37093 -6.3403 -6.30968 -6.27906 -6.24828 -6.21685 -6.1854 -6.15393 -6.12246 -6.09098 -6.05871 -6.02646 -5.99449 -5.96276 -5.93104 -5.89834 -5.86566 -5.83337 -5.80154 -5.76971 -5.73669 -5.70398 -5.67163 -5.63943 -5.60766 -5.57457 -5.54242 -5.51027 -5.47814 -5.44637 -5.4299 -5.4138 -5.3977 -5.38161 -5.36587 -5.35011 -5.33435 -5.31859 -5.30284 -5.2875 -5.25573 -5.22443 -5.19314 -5.16185 -5.132 -5.10019 -5.06942 -5.03893 -5.00938 -4.98068 -4.94979 -4.91892 -4.88977 -4.86239 -4.83502 -4.80539 -4.77578 -4.74812 -4.7224 -4.69668 -4.66865 -4.64158 -4.61593 -4.59081 -4.56695 -4.54084 -4.51705 -4.49324 -4.46944 -4.44647 -4.4338 -4.42195 -4.41009 -4.39823 -4.3863 -4.37613 -4.36596 -4.35579 -4.34561 -4.33601 -4.31516 -4.29494 -4.27471 -4.25447 -4.23602 -4.21613 -4.19779 -4.17968 -4.16246 -4.14634 -4.12858 -4.11102 -4.09511 -4.08109 -4.06705 -4.05148 -4.03589 -4.02208 -4.01013 -3.99817 -3.98479 -3.97162 -3.95989 -3.94942 -3.9395 -3.92828 -3.91806 -3.90831 -3.89859 -3.89062 -3.88172 -3.87389 -3.86604 -3.85816 -3.85096 -3.8467 -3.84279 -3.83887 -3.83494 -3.83074 -3.82853 -3.82631 -3.8241 -3.82188 -3.81978 -3.81483 -3.81014 -3.80543 -3.80069 -3.79631 -3.79214 -3.78896 -3.78575 -3.78253 -3.77972 -3.77658 -3.77447 -3.7726 -3.7708 -3.76912 -3.76722 -3.76572 -3.765 -3.7643 -3.7636 -3.76278 -3.76194 -3.76208 -3.76215 -3.76222 -3.76225 -3.76227 -3.76266 -3.76333 -3.76398 -3.76469 -3.76539 -3.76585 -3.76686 -3.76787 -3.769 -3.77008 -3.77054 -3.7716 -3.77274 -3.77409 -3.77514 -3.77564 -3.77641 -3.77743 -3.7787 -3.77936 -3.77962 -3.77997 -3.78058 -3.78152 -3.78142 -3.78117 -3.78091 -3.78083 -3.78096 -3.77992 -3.77889 -3.77785 -3.77683 -3.77568 -3.7736 -3.77152 -3.76944 -3.76729 -3.76451 -3.76113 -3.75774 -3.75435 -3.75092 -3.74863 -3.74611 -3.74359 -3.74108 -3.73867 -3.73624 -3.7338 -3.73137 -3.72894 -3.72629 -3.71965 -3.71293 -3.70621 -3.69949 -3.69203 -3.68355 -3.67472 -3.66589 -3.65706 -3.64685 -3.63635 -3.62513 -3.61391 -3.60269 -3.58938 -3.57664 -3.56285 -3.54897 -3.53448 -3.51824 -3.5027 -3.48646 -3.46965 -3.45135 -3.43206 -3.41348 -3.39471 -3.37468 -3.35213 -3.32947 -3.30755 -3.28562 -3.26166 -3.23543 -3.20918 -3.18368 -3.15817 -3.13014 -3.10003 -3.06989 -3.04053 -3.01038 -2.97803 -2.94465 -2.91042 -2.87698 -2.84114 -2.80456 -2.76797 -2.72961 -2.69083 -2.64984 -2.60883 -2.5678 -2.52645 -2.51985 -2.51293 -2.50601 -2.4991 -2.49238 -2.45418 -2.41599 -2.37778 -2.33957 -2.29957 -2.25143 -2.20175 -2.15206 -2.10174 -2.04854 -1.99621 -1.94309 -1.88856 -1.83093 -1.7728 -1.71556 -1.65829 -1.59811 -1.53508 -1.4719 -1.40962 -1.34573 -1.27987 -1.21383 -1.14556 -1.09176 -1.03549 -0.979196 -0.922888 -0.873599 -0.857729 -0.841857 -0.825986 -0.810113 -0.79352 -0.719312 -0.644421 -0.569519 -0.494162 -0.41555 -0.337773 -0.259673 -0.179472 -0.0962251 -0.0126748 0.0700342 0.153215 0.239261 0.326071 0.414415 0.476265 0.540135 0.604251 0.668377 0.726199 0.753757 0.781315 0.808873 0.836545 0.8651 0.957941 1.05185 1.14576 1.24112 1.33843 1.43496 1.53149 1.6301 1.73091 1.83224 1.91526 1.99976 2.08481 2.16988 2.24622 2.26583 2.28544 2.30505 2.32479 2.34487 2.44958 2.55489 2.66019 2.76662 2.8746 2.98191 3.08922 3.1981 3.30761 3.41831 3.46863 3.5193 3.57023 3.62115 3.66952 3.73013 3.79074 3.85133 3.91223 3.97375 4.08567 4.19763 4.31035 4.4237 4.53786 4.6299 4.7221 4.81448 4.90685 4.99217 5.0152 5.03824 5.06127 5.08436 5.10754 5.2217 5.33608 5.45044 5.56485 5.68009 5.79028 5.90032 6.01013 6.11992 6.22164 6.22769 6.23374 6.23979 6.24583 6.25187 6.36579 6.47968 6.59355 6.70688 6.8207 6.93224 7.04336 7.1537 7.26401 7.36834 7.37122 7.3741 7.37698 7.37984 7.38268 7.49415 7.60556 7.71695 7.82701 7.9372 8.02787 8.11813 8.20705 8.29597 8.38253 8.40203 8.42153 8.44103 8.46025 8.47939 8.58635 8.69298 8.79928 8.90347 9.00784 9.06998 9.13183 9.19237 9.25292 9.31336 9.35498 9.39661 9.43823 9.47899 9.51952 9.61994 9.72037 9.81904 9.91607 10.0129 10.0471 10.081 10.114 10.1471 10.1805 10.2424 10.3044 10.3663 10.4267 10.4866 10.579 10.6715 10.761 10.8503 10.9387 10.9512 10.9636 10.9756 10.9876 10.9997 11.0747 11.1497 11.2247 11.2976 11.3695 11.453 11.5358 11.6163 11.6968 11.7769 11.7784 11.7798 11.7812 11.7826 11.784 11.8608 11.9376 12.0144 12.0893 12.1625 12.237 12.3106 12.3821 12.4537 12.5244 12.5286 12.5327 12.5368 12.5408 12.5449 12.6098 12.6746 12.7395 12.8029 12.8646 12.9299 12.9952 13.0579 13.1204 13.1817 13.2049 13.2276 13.2498 13.272 13.2955 13.3324 13.3692 13.406 13.4422 13.4774 13.5339 13.5902 13.6454 13.6988 13.7519 13.8042 13.8553 13.9055 13.9556 14.0051 14.0142 14.0231 14.0318 14.0406 14.0497 14.0881 14.1264 14.1647 14.2027 14.2394 14.2836 14.3277 14.3711 14.4129 14.4546 14.4951 14.5354 14.5743 14.613 14.6512 14.682 14.7117 14.7413 14.7709 14.8055 14.8105 14.8156 14.8206 14.8257 14.8306 14.8638 14.897 14.9301 14.9631 14.9949 15.0254 15.0557 15.0857 15.1148 15.1438 15.1714 15.1989 15.2258 15.252 15.2782 15.3032 15.3278 15.3518 15.3758 15.3995 15.4219 15.4437 15.4654 15.4871 15.5087 15.5155 15.522 15.5286 15.5352 15.5422 15.5554 15.5685 15.5817 15.5948 15.6078 15.6258 15.6438 15.6618 15.6798 15.6975 15.7138 15.7301 15.7465 15.7627 15.7789 15.7937 15.8086 15.8235 15.8384 15.8533 15.867 15.8807 15.8945 15.9084 15.9224 15.9353 15.9482 15.9614 15.9747 15.988 16.0005 16.0132 16.0263 16.0395 16.0528 16.0655 16.0786 16.0919 16.1052 16.1183 16.131 16.1454 16.16 16.1747 16.1894 16.2036 16.2167 16.2297 16.2426 16.2515 16.2596 16.2745 16.2892 16.3037 16.321 16.3337 16.3272 16.3207 16.3142 16.3047 16.299 16.2927 16.2864 16.2801 16.2734 16.2479 16.2224 16.1968 16.1712 16.1429 16.1054 16.0716 16.0378 16.0039 15.9748 15.9436 15.9122 15.8806 15.849 15.8172 15.7828 15.748 15.7111 15.6715 15.6317 15.5889 15.546 15.5019 15.4562 15.4105 15.3618 15.3131 15.2633 15.2127 15.162 15.1083 15.0545 14.9992 14.943 14.8866 14.827 14.7666 14.705 14.6428 14.5796 14.5131 14.445 14.3765 14.3079 14.2375 14.1636 14.0874 14.0112 13.935 13.8573 13.7743 13.6898 13.6053 13.5207 13.4352 13.3426 13.2488 13.155 13.0612 12.9671 12.9242 12.8809 12.8376 12.7944 12.7465 12.6867 12.6268 12.567 12.5071 12.4467 12.3318 12.2163 12.1007 11.9852 11.8679 11.7413 11.6128 11.4843 11.3557 11.2242 11.0846 10.9412 10.7979 10.6545 10.5063 10.3517 10.1919 10.0321 9.87212 9.70639 9.53528 9.35651 9.17675 8.99509 8.80649 8.61173 8.41352 8.21368 8.0118 7.80683 7.5951 7.37401 7.14304 6.90064 6.65004 6.39107 6.13518 5.88644 5.6455 5.40717 5.16075 4.90513 4.58375 4.18969 3.79054 3.37727 2.96393 2.68254 2.52416 2.36588 2.20188 2.03804 1.55955 0.779194 0