# vtk DataFile Version 2.0
track0
ASCII
DATASET POLYDATA
POINTS 12075 float
-0.0205 0.001 1e-05
-0.02052 0.000999985 1e-05
-0.02054 0.000999974 1e-05
-0.02056 0.000999965 1e-05
-0.02058 0.000999959 1e-05
-0.0206 0.000999956 1e-05
-0.0205 0.00367778 1e-05
-0.02052 0.00367778 1e-05
-0.02054 0.00367777 1e-05
-0.02056 0.00367777 1e-05
-0.02058 0.00367777 1e-05
-0.0206 0.00367777 1e-05
-0.0205 0.00635556 1e-05
-0.02052 0.00635555 1e-05
-0.02054 0.00635555 1e-05
-0.02056 0.00635555 1e-05
-0.02058 0.00635555 1e-05
-0.0206 0.00635555 1e-05
-0.0205 0.00903333 1e-05
-0.02052 0.00903333 1e-05
-0.02054 0.00903333 1e-05
-0.02056 0.00903333 1e-05
-0.02058 0.00903333 1e-05
-0.0206 0.00903333 1e-05
-0.0205 0.0117111 1e-05
-0.02052 0.0117111 1e-05
-0.02054 0.0117111 1e-05
-0.02056 0.0117111 1e-05
-0.02058 0.0117111 1e-05
-0.0206 0.0117111 1e-05
-0.0205 0.0143889 1e-05
-0.02052 0.0143889 1e-05
-0.02054 0.0143889 1e-05
-0.02056 0.0143889 1e-05
-0.02058 0.0143889 1e-05
-0.0206 0.0143889 1e-05
-0.0205 0.0170667 1e-05
-0.02052 0.0170667 1e-05
-0.02054 0.0170667 1e-05
-0.02056 0.0170667 1e-05
-0.02058 0.0170667 1e-05
-0.0206 0.0170667 1e-05
-0.0205 0.0197444 1e-05
-0.02052 0.0197444 1e-05
-0.02054 0.0197444 1e-05
-0.02056 0.0197444 1e-05
-0.02058 0.0197444 1e-05
-0.0206 0.0197444 1e-05
-0.0205 0.0224222 1e-05
-0.02052 0.0224222 1e-05
-0.02054 0.0224222 1e-05
-0.02056 0.0224222 1e-05
-0.02058 0.0224222 1e-05
-0.0206 0.0224222 1e-05
-0.0205 0.0251 1e-05
-0.02052 0.0250998 1e-05
-0.02054 0.0250997 1e-05
-0.02056 0.0250995 1e-05
-0.02058 0.0250995 1e-05
-0.0206 0.0250994 1e-05
-0.0205 0.001 1e-05
-0.0202034 0.00100022 1e-05
-0.0199069 0.00100067 1e-05
-0.0196103 0.00100132 1e-05
-0.0193137 0.00100219 1e-05
-0.0190172 0.00100326 1e-05
-0.0187132 0.00100466 1e-05
-0.0184093 0.00100589 1e-05
-0.0181054 0.0010071 1e-05
-0.0178015 0.00100832 1e-05
-0.0174976 0.00100954 1e-05
-0.0172058 0.00101083 1e-05
-0.016914 0.00101193 1e-05
-0.0166222 0.00101304 1e-05
-0.0163305 0.00101413 1e-05
-0.0160387 0.00101523 1e-05
-0.0157586 0.00101637 1e-05
-0.0154784 0.00101745 1e-05
-0.0151983 0.00101857 1e-05
-0.0149182 0.00101973 1e-05
-0.0146381 0.00102092 1e-05
-0.0143756 0.0010221 1e-05
-0.014113 0.00102328 1e-05
-0.0138505 0.00102449 1e-05
-0.013588 0.00102574 1e-05
-0.0133663 0.00102682 1e-05
-0.0133518 0.00102689 1e-05
-0.0133372 0.00102696 1e-05
-0.0133226 0.00102703 1e-05
-0.013308 0.00102711 1e-05
-0.0132934 0.00102718 1e-05
-0.0130353 0.00102847 1e-05
-0.0127771 0.00102978 1e-05
-0.0125189 0.0010311 1e-05
-0.0122607 0.00103244 1e-05
-0.0120025 0.00103379 1e-05
-0.0117547 0.0010351 1e-05
-0.0115068 0.00103642 1e-05
-0.0112589 0.00103774 1e-05
-0.0110111 0.00103907 1e-05
-0.0107632 0.00104041 1e-05
-0.0105252 0.00104169 1e-05
-0.0102873 0.00104297 1e-05
-0.0100493 0.00104425 1e-05
-0.00981133 0.00104554 1e-05
-0.00957337 0.00104682 1e-05
-0.00934491 0.00104805 1e-05
-0.00911645 0.00104928 1e-05
-0.00888799 0.0010505 1e-05
-0.00865954 0.00105173 1e-05
-0.00843108 0.00105295 1e-05
-0.00821175 0.00105411 1e-05
-0.00799242 0.00105528 1e-05
-0.00777309 0.00105644 1e-05
-0.00755376 0.0010576 1e-05
-0.00733443 0.00105876 1e-05
-0.00712387 0.00105986 1e-05
-0.0069133 0.00106096 1e-05
-0.00670273 0.00106206 1e-05
-0.00649216 0.00106316 1e-05
-0.0062816 0.00106425 1e-05
-0.00607944 0.00106529 1e-05
-0.00587729 0.00106633 1e-05
-0.00567514 0.00106737 1e-05
-0.00547298 0.00106841 1e-05
-0.00527083 0.00106944 1e-05
-0.00507675 0.00107043 1e-05
-0.00488267 0.00107142 1e-05
-0.0046886 0.00107241 1e-05
-0.00449452 0.00107339 1e-05
-0.00430044 0.00107437 1e-05
-0.00411412 0.00107531 1e-05
-0.0039278 0.00107626 1e-05
-0.00374147 0.0010772 1e-05
-0.00355515 0.00107814 1e-05
-0.00336883 0.00107909 1e-05
-0.00318995 0.00107999 1e-05
-0.00301107 0.00108089 1e-05
-0.00283219 0.00108181 1e-05
-0.00265331 0.00108272 1e-05
-0.00247443 0.00108364 1e-05
-0.0023027 0.00108453 1e-05
-0.00213097 0.00108542 1e-05
-0.00195924 0.00108632 1e-05
-0.00178751 0.00108724 1e-05
-0.00161577 0.00108815 1e-05
-0.0014509 0.00108904 1e-05
-0.00128603 0.00108994 1e-05
-0.00112116 0.00109086 1e-05
-0.00095629 0.0010918 1e-05
-0.000791418 0.00109276 1e-05
-0.000633135 0.0010937 1e-05
-0.000474851 0.00109466 1e-05
-0.000316568 0.00109565 1e-05
-0.000158285 0.00109667 1e-05
0 0.0010977 1e-05
0.000105677 0.00109841 1e-05
0.000211355 0.00109912 1e-05
0.000317032 0.00109984 1e-05
0.000422709 0.00110056 1e-05
0.000528387 0.00110129 1e-05
0.000634886 0.00110202 1e-05
0.000741385 0.00110275 1e-05
0.000847885 0.00110346 1e-05
0.000954384 0.00110417 1e-05
0.00106088 0.00110487 1e-05
0.00116821 0.00110557 1e-05
0.00127554 0.00110625 1e-05
0.00138286 0.00110692 1e-05
0.00149019 0.00110758 1e-05
0.00159752 0.00110821 1e-05
0.00170568 0.00110884 1e-05
0.00181384 0.00110946 1e-05
0.001922 0.00111006 1e-05
0.00203016 0.00111065 1e-05
0.00213833 0.00111122 1e-05
0.00224733 0.00111178 1e-05
0.00235633 0.00111233 1e-05
0.00246533 0.00111286 1e-05
0.00257434 0.00111338 1e-05
0.00268334 0.00111389 1e-05
0.00279319 0.00111438 1e-05
0.00290304 0.00111486 1e-05
0.00301289 0.00111533 1e-05
0.00312274 0.00111579 1e-05
0.00323259 0.00111623 1e-05
0.00334329 0.00111666 1e-05
0.003454 0.00111708 1e-05
0.0035647 0.00111749 1e-05
0.0036754 0.00111788 1e-05
0.00378611 0.00111826 1e-05
0.00389767 0.00111863 1e-05
0.00400924 0.00111899 1e-05
0.0041208 0.00111934 1e-05
0.00423237 0.00111967 1e-05
0.00434393 0.00111999 1e-05
0.00445636 0.00112029 1e-05
0.00456879 0.00112059 1e-05
0.00468123 0.00112088 1e-05
0.00479366 0.00112115 1e-05
0.00490609 0.00112141 1e-05
0.0050194 0.00112165 1e-05
0.0051327 0.00112189 1e-05
0.00524601 0.00112211 1e-05
0.00535932 0.00112232 1e-05
0.00547262 0.00112252 1e-05
0.00558681 0.00112271 1e-05
0.005701 0.00112288 1e-05
0.00581518 0.00112305 1e-05
0.00592937 0.0011232 1e-05
0.00604356 0.00112334 1e-05
0.00615863 0.00112347 1e-05
0.00627371 0.00112358 1e-05
0.00638878 0.00112369 1e-05
0.00650386 0.00112379 1e-05
0.00661893 0.00112387 1e-05
0.0067349 0.00112393 1e-05
0.00685087 0.00112399 1e-05
0.00696684 0.00112404 1e-05
0.00708281 0.00112408 1e-05
0.00719878 0.00112411 1e-05
0.00731565 0.00112412 1e-05
0.00743252 0.00112412 1e-05
0.00754939 0.00112411 1e-05
0.00766626 0.00112409 1e-05
0.00778313 0.00112406 1e-05
0.00790091 0.00112401 1e-05
0.00801869 0.00112395 1e-05
0.00813647 0.00112389 1e-05
0.00825425 0.00112381 1e-05
0.00837203 0.00112372 1e-05
0.00838819 0.0011237 1e-05
0.00840434 0.00112369 1e-05
0.0084205 0.00112368 1e-05
0.00843665 0.00112366 1e-05
0.00845266 0.00112365 1e-05
0.00855523 0.00112355 1e-05
0.0086578 0.00112345 1e-05
0.00876037 0.00112334 1e-05
0.00886294 0.00112321 1e-05
0.00896551 0.00112308 1e-05
0.00908513 0.00112292 1e-05
0.00920475 0.00112275 1e-05
0.00932437 0.00112256 1e-05
0.00944398 0.00112236 1e-05
0.0095636 0.00112216 1e-05
0.00968415 0.00112193 1e-05
0.0098047 0.00112169 1e-05
0.00992525 0.00112145 1e-05
0.0100458 0.00112119 1e-05
0.0101663 0.00112092 1e-05
0.0102878 0.00112063 1e-05
0.0104093 0.00112033 1e-05
0.0105308 0.00112002 1e-05
0.0106523 0.0011197 1e-05
0.0107738 0.00111936 1e-05
0.0108962 0.00111901 1e-05
0.0110186 0.00111865 1e-05
0.0111411 0.00111827 1e-05
0.0112635 0.00111789 1e-05
0.0113859 0.00111749 1e-05
0.0115093 0.00111707 1e-05
0.0116327 0.00111664 1e-05
0.0117561 0.0011162 1e-05
0.0118795 0.00111574 1e-05
0.0120028 0.00111528 1e-05
0.0121272 0.00111479 1e-05
0.0122515 0.00111429 1e-05
0.0123759 0.00111379 1e-05
0.0125002 0.00111326 1e-05
0.0126245 0.00111273 1e-05
0.0127498 0.00111217 1e-05
0.0128752 0.00111161 1e-05
0.0130005 0.00111103 1e-05
0.0131258 0.00111043 1e-05
0.0132511 0.00110983 1e-05
0.0133774 0.0011092 1e-05
0.0135036 0.00110856 1e-05
0.0136299 0.00110791 1e-05
0.0137562 0.00110725 1e-05
0.0138825 0.00110657 1e-05
0.0140098 0.00110587 1e-05
0.014137 0.00110516 1e-05
0.0142643 0.00110443 1e-05
0.0143915 0.00110369 1e-05
0.0145188 0.00110294 1e-05
0.0146471 0.00110217 1e-05
0.0147753 0.00110138 1e-05
0.0149036 0.00110058 1e-05
0.0150318 0.00109976 1e-05
0.0151601 0.00109893 1e-05
0.0152893 0.00109809 1e-05
0.0154186 0.00109722 1e-05
0.0155478 0.00109634 1e-05
0.0156771 0.00109544 1e-05
0.0158063 0.00109453 1e-05
0.0159366 0.00109361 1e-05
0.0160668 0.00109267 1e-05
0.0161971 0.00109171 1e-05
0.0163273 0.00109073 1e-05
0.0164576 0.00108974 1e-05
0.0165889 0.00108874 1e-05
0.0167201 0.00108772 1e-05
0.0168514 0.00108667 1e-05
0.0169827 0.00108561 1e-05
0.0171139 0.00108454 1e-05
0.0172462 0.00108346 1e-05
0.0173785 0.00108235 1e-05
0.0175108 0.00108122 1e-05
0.0176431 0.00108007 1e-05
0.0177754 0.00107891 1e-05
0.0179087 0.00107775 1e-05
0.018042 0.00107655 1e-05
0.0181753 0.00107533 1e-05
0.0183087 0.00107409 1e-05
0.018442 0.00107285 1e-05
0.0185763 0.0010716 1e-05
0.0187107 0.00107032 1e-05
0.018845 0.001069 1e-05
0.0189794 0.00106767 1e-05
0.0191137 0.00106633 1e-05
0.0192491 0.00106499 1e-05
0.0193845 0.00106362 1e-05
0.0195199 0.00106221 1e-05
0.0196553 0.00106078 1e-05
0.0197907 0.00105935 1e-05
0.0199272 0.00105792 1e-05
0.0200636 0.00105644 1e-05
0.0202001 0.00105493 1e-05
0.0203365 0.00105341 1e-05
0.020473 0.00105188 1e-05
0.0206105 0.00105035 1e-05
0.020748 0.00104878 1e-05
0.0208855 0.00104717 1e-05
0.021023 0.00104554 1e-05
0.0211606 0.00104392 1e-05
0.0212991 0.00104228 1e-05
0.0214377 0.00104061 1e-05
0.0215763 0.0010389 1e-05
0.0217149 0.00103716 1e-05
0.0218535 0.00103543 1e-05
0.0219931 0.00103369 1e-05
0.0221328 0.00103191 1e-05
0.0222724 0.00103009 1e-05
0.0224121 0.00102825 1e-05
0.0225517 0.00102641 1e-05
0.0226925 0.00102456 1e-05
0.0228332 0.00102267 1e-05
0.022974 0.00102073 1e-05
0.0231147 0.00101878 1e-05
0.0232555 0.00101683 1e-05
0.0233973 0.00101486 1e-05
0.0235391 0.00101285 1e-05
0.023681 0.0010108 1e-05
0.0238228 0.00100873 1e-05
0.0239647 0.00100666 1e-05
0.0241076 0.00100457 1e-05
0.0242505 0.00100244 1e-05
0.0243935 0.00100027 1e-05
0.0245364 0.00099808 1e-05
0.0246794 0.000995882 1e-05
0.0248234 0.000993664 1e-05
0.0249675 0.000991403 1e-05
0.0251115 0.000989109 1e-05
0.0252556 0.000986793 1e-05
[...]
POINT_DATA 12075
 FIELD attributes 1
U 3 12075 float
10.0004 	0.00731876 	0 10.0004 	0.00585501 	0 10.0003 	0.00439126 	0 10.0002 	0.0029275 	0 10.0001 	0.00146375 	0 10 	0 	0
10.0001 	0.000882093 	0 10 	0.000705674 	0 10 	0.000529256 	0 10 	0.000352837 	0 10 	0.000176418 	0 10 	0 	0
10.0001 	0.000470204 	0 10.0001 	0.000375974 	0 10.0001 	0.000281745 	0 10 	0.000187516 	0 10 	9.3286e-05 	0 10 	0 	0
10 	0.000270747 	0 10 	0.000216598 	0 10 	0.000162448 	0 10 	0.000108299 	0 10 	5.41494e-05 	0 10 	0 	0
10 	8.44704e-05 	0 10 	6.75763e-05 	0 10 	5.06822e-05 	0 10 	3.37882e-05 	0 10 	1.68941e-05 	0 10 	0 	0
10 	-2.29061e-05 	0 10 	-1.83249e-05 	0 10 	-1.37437e-05 	0 10 	-9.16244e-06 	0 10 	-4.58122e-06 	0 10 	0 	0
10 	-0.000214148 	0 10 	-0.000171318 	0 10 	-0.000128489 	0 10 	-8.5659e-05 	0 10 	-4.28295e-05 	0 10 	0 	0
10 	-0.000376656 	0 10 	-0.000301325 	0 10 	-0.000225994 	0 10 	-0.000150662 	0 10 	-7.53312e-05 	0 10 	0 	0
9.99999 	-0.000426908 	0 9.99999 	-0.000341527 	0 9.99999 	-0.000256145 	0 10 	-0.000170763 	0 10 	-8.53817e-05 	0 10 	0 	0
9.17387 	0.0870992 	0 9.1308 	0.0696794 	0 9.08741 	0.0522593 	0 9.04368 	0.0348389 	0 8.99962 	0.0174184 	0 8.95524 	0 	0
10.0004 	0.00731876 	0 10.0024 	0.0151711 	0 10.0045 	0.022192 	0 10.0065 	0.0291686 	0 10.0085 	0.0361013 	0 10.0135 	0.0463184 	0 10.0163 	0.0402202 	0 10.0207 	0.0401814 	0 10.0251 	0.0401428 	0 10.0296 	0.0401044 	0 10.0355 	0.0445672 	0 10.0384 	0.0379311 	0 10.0424 	0.0378904 	0 10.0464 	0.0378497 	0 10.0504 	0.0378088 	0 10.0545 	0.0409112 	0 10.0566 	0.0388395 	0 10.0591 	0.040153 	0 10.0615 	0.0414681 	0 10.0639 	0.0427849 	0 10.066 	0.0452446 	0 10.0676 	0.0453595 	0 10.0689 	0.0465629 	0 10.0702 	0.0477674 	0 10.0715 	0.0489731 	0 10.0726 	0.0499921 	0 10.0727 	0.0500596 	0 10.0728 	0.050127 	0 10.0728 	0.0501945 	0 10.0729 	0.050262 	0 10.073 	0.0503193 	0 10.0735 	0.0509541 	0 10.074 	0.0515825 	0 10.0745 	0.0522113 	0 10.075 	0.0528407 	0 10.0755 	0.0533054 	0 10.0753 	0.0536123 	0 10.075 	0.0538132 	0 10.0746 	0.0540143 	0 10.0742 	0.0542154 	0 10.0736 	0.0541778 	0 10.0732 	0.0543386 	0 10.072 	0.0543304 	0 10.0709 	0.0543223 	0 10.0698 	0.0543141 	0 10.0682 	0.0540369 	0 10.0678 	0.0541396 	0 10.0661 	0.054028 	0 10.0644 	0.0539164 	0 10.0628 	0.0538048 	0 10.0602 	0.0534078 	0 10.0601 	0.0534942 	0 10.058 	0.0533315 	0 10.0559 	0.0531688 	0 10.0539 	0.0530061 	0 10.0502 	0.052547 	0 10.0508 	0.0526475 	0 10.0484 	0.0524745 	0 10.046 	0.0523014 	0 10.0436 	0.0521282 	0 10.0389 	0.0516533 	0 10.0402 	0.0517978 	0 10.0376 	0.051645 	0 10.035 	0.0514921 	0 10.0323 	0.0513391 	0 10.0264 	0.0508752 	0 10.0288 	0.0510861 	0 10.026 	0.0509901 	0 10.0232 	0.0508941 	0 10.0204 	0.050798 	0 10.0133 	0.0503929 	0 10.0168 	0.0507086 	0 10.0139 	0.0506962 	0 10.0109 	0.0506839 	0 10.008 	0.0506716 	0 9.99963 	0.0503401 	0 10.0043 	0.0508109 	0 10.0014 	0.0510101 	0 9.99838 	0.0512094 	0 9.99539 	0.0514087 	0 9.98582 	0.0513324 	0 9.99193 	0.0521024 	0 9.98894 	0.0525392 	0 9.98595 	0.0529762 	0 9.98297 	0.0534133 	0 9.97212 	0.0534932 	0 9.97982 	0.0545872 	0 9.97714 	0.0557362 	0 9.97448 	0.0568854 	0 9.97183 	0.0580348 	0 9.96007 	0.0589622 	0 9.96993 	0.0607531 	8.09317e-22 9.96872 	0.0623033 	6.20701e-21 9.96753 	0.0638536 	1.1603e-20 9.96634 	0.0654042 	1.69972e-20 9.95485 	0.0661635 	1.40378e-20 9.96686 	0.0673318 	1.04176e-19 9.96653 	0.0677661 	9.72044e-20 9.9662 	0.0682005 	9.02382e-20 9.96588 	0.0686349 	8.32775e-20 9.95432 	0.0681757 	-1.69381e-20 9.96677 	0.0678999 	-4.62152e-20 9.96647 	0.0671151 	-5.12372e-20 9.96616 	0.0663303 	-5.62549e-20 9.96585 	0.0655454 	-6.1268e-20 9.95398 	0.0644769 	-2.21644e-20 9.96598 	0.0635643 	-1.97226e-20 9.96483 	0.0621427 	-1.35591e-20 9.96367 	0.060721 	-7.39686e-21 9.96251 	0.0592993 	-1.23577e-21 9.94982 	0.0578191 	8.49872e-21 9.96131 	0.0569942 	-4.28943e-21 9.95933 	0.0554889 	-2.42318e-20 9.95735 	0.0539833 	-4.41782e-20 9.95535 	0.0524775 	-6.41287e-20 9.94184 	0.0506998 	-9.35595e-20 9.95292 	0.0501551 	-1.40806e-19 9.95026 	0.048812 	-1.27662e-19 9.94758 	0.0474684 	-1.14504e-19 9.9449 	0.0461245 	-1.01333e-19 9.93067 	0.0442274 	-3.12697e-20 9.94133 	0.0438264 	4.81916e-20 9.938 	0.0425914 	6.28005e-20 9.93467 	0.0413561 	7.73927e-20 9.93132 	0.0401204 	9.19681e-20 9.91645 	0.0382055 	3.88946e-20 9.92661 	0.037799 	-6.93028e-20 9.9226 	0.0366017 	-7.59809e-20 9.91858 	0.0354041 	-8.26328e-20 9.91456 	0.034206 	-8.92584e-20 9.89911 	0.0323539 	-2.38862e-22 9.90861 	0.0319212 	8.50879e-20 9.90389 	0.030755 	7.51691e-20 9.89917 	0.0295884 	6.52245e-20 9.89444 	0.0284214 	5.52542e-20 9.87849 	0.0266665 	-2.73312e-20 9.88716 	0.0262104 	-9.73164e-20 9.88174 	0.0250668 	-1.2124e-19 9.87631 	0.0239228 	-1.45154e-19 9.87087 	0.0227784 	-1.69059e-19 9.85458 	0.021113 	-1.40194e-19 9.86216 	0.0206523 	-1.74023e-19 9.85605 	0.0195387 	-1.60668e-19 9.84993 	0.0184246 	-1.47306e-19 9.8438 	0.01731 	-1.33935e-19 9.82743 	0.0157255 	-8.44074e-20 9.83356 	0.015274 	-7.27322e-20 9.8268 	0.0142026 	-5.28843e-20 9.82002 	0.0131306 	-3.30393e-20 9.81323 	0.0120582 	-1.31974e-20 9.79715 	0.010557 	3.65847e-21 9.80139 	0.0101002 	0 9.79401 	0.00906986 	0 9.78662 	0.00803893 	0 9.77921 	0.00700742 	0 9.76389 	0.00559798 	0 9.76572 	0.00509793 	-1.52241e-20 9.75775 	0.00410089 	-3.55458e-20 9.74978 	0.00310321 	-5.58704e-20 9.74178 	0.00210488 	-7.61978e-20 9.72777 	0.000808126 	-9.88302e-20 9.72661 	0.000222885 	-1.1154e-19 9.7181 	-0.000745046 	-1.12108e-19 9.70957 	-0.00171368 	-1.12667e-19 9.70103 	-0.00268301 	-1.13218e-19 9.68894 	-0.00383446 	-1.06821e-19 9.6842 	-0.00454967 	-6.58481e-20 9.67518 	-0.00549258 	-3.47517e-20 9.66615 	-0.00643624 	-3.67079e-21 9.6571 	-0.00738066 	2.73945e-20 9.64757 	-0.00835051 	5.70109e-20 9.64684 	-0.00844594 	5.8044e-20 9.64555 	-0.00857155 	5.80577e-20 9.64426 	-0.00869717 	5.80711e-20 9.64297 	-0.0088228 	5.80844e-20 9.64169 	-0.00894724 	5.80973e-20 9.6334 	-0.00975062 	5.89727e-20 9.6251 	-0.0105546 	5.98454e-20 9.61678 	-0.0113593 	6.07155e-20 9.60846 	-0.0121647 	6.15829e-20 9.5944 	-0.0132043 	6.33769e-20 9.58952 	-0.0139213 	5.02484e-20 9.57949 	-0.0148393 	3.7118e-20 9.56944 	-0.0157583 	2.39858e-20 9.55937 	-0.0166782 	1.08517e-20 9.53754 	-0.0180304 	-6.86918e-22 9.53769 	-0.0185715 	-1.02345e-20 9.52728 	-0.0194824 	-2.27187e-20 9.51685 	-0.0203944 	-3.5201e-20 9.5064 	-0.0213073 	-4.76814e-20 9.47889 	-0.0227713 	-6.0173e-20 9.48344 	-0.0232078 	-6.19284e-20 9.47269 	-0.0241157 	-6.94655e-20 9.46191 	-0.0250246 	-7.69976e-20 9.45111 	-0.0259346 	-8.45247e-20 9.41879 	-0.0274354 	-1.01947e-19 9.42708 	-0.0278418 	-1.4703e-19 9.41602 	-0.0287505 	-1.37079e-19 9.40495 	-0.0296604 	-1.27147e-19 9.39385 	-0.0305714 	-1.17237e-19 9.35762 	-0.0320346 	-4.28227e-20 9.36895 	-0.0324834 	-2.81227e-20 9.35764 	-0.0333953 	-1.98899e-20 9.3463 	-0.0343083 	-1.16558e-20 9.33494 	-0.0352225 	-3.42048e-21 9.29567 	-0.036575 	0 9.30941 	-0.037132 	0 9.29787 	-0.0380481 	0 9.28631 	-0.0389654 	0 9.27472 	-0.039884 	0 9.23324 	-0.0410598 	0 9.24876 	-0.0417806 	2.06843e-21 9.23704 	-0.0427021 	9.64331e-21 9.22528 	-0.0436249 	1.72169e-20 9.2135 	-0.044549 	2.47893e-20 9.17056 	-0.0454941 	4.31224e-20 9.18734 	-0.0464262 	1.63527e-19 9.17545 	-0.0473548 	1.67095e-19 9.16353 	-0.0482848 	1.70687e-19 9.15159 	-0.0492161 	1.74303e-19 9.10786 	-0.0498867 	4.34333e-20 9.12542 	-0.0510664 	2.32177e-20 9.1134 	-0.0520045 	1.61997e-20 9.10135 	-0.0529441 	9.18024e-21 9.08781 	-0.0538585 	3.19084e-21 9.04534 	-0.0542517 	1.758e-20 9.06052 	-0.055663 	1.10116e-19 9.05116 	-0.0566597 	1.21196e-19 9.03901 	-0.0576111 	1.23131e-19 9.0222 	-0.0584293 	1.07017e-19 8.98316 	-0.058603 	4.22048e-21 8.99545 	-0.0602056 	-1.04859e-19 8.98897 	-0.0613198 	-1.38595e-19 8.97674 	-0.0622859 	-1.49351e-19 8.95739 	-0.0629617 	-1.35477e-19 8.92148 	-0.0629586 	-6.41515e-20 8.93118 	-0.06473 	-1.88107e-19 8.92705 	-0.0660055 	-2.36106e-19 8.91476 	-0.0669894 	-2.39386e-19 8.8935 	-0.0674854 	-1.83497e-19 8.86044 	-0.0673373 	-4.95817e-20 8.86784 	-0.069249 	-2.63036e-20 8.8656 	-0.0707172 	-1.07375e-20 8.85328 	-0.0717201 	-3.24996e-21 8.83066 	-0.0720085 	0 8.80015 	-0.0717485 	0 8.80551 	-0.0737725 	0 8.80477 	-0.0754542 	0 8.79243 	-0.0764779 	0 8.76891 	-0.0765424 	2.43461e-21 8.7407 	-0.0762036 	5.89204e-21 8.74427 	-0.078318 	2.6303e-21 8.74471 	-0.0802276 	0 8.73237 	-0.0812753 	0 8.70834 	-0.0811098 	2.9296e-21 8.6822 	-0.0807231 	6.39271e-21 8.68418 	-0.0829251 	3.13186e-21 8.68554 	-0.0850853 	2.61685e-22 8.67322 	-0.0861631 	6.93995e-21 8.64901 	-0.0857595 	2.61942e-20 8.6247 	-0.0853428 	4.55581e-20 8.62533 	-0.0876374 	1.77879e-19 8.62588 	-0.0899343 	3.10202e-19 8.61367 	-0.0909649 	3.10811e-19 8.59097 	-0.0905149 	1.78579e-19 8.56829 	-0.0900646 	4.63438e-20 8.56775 	-0.0924132 	2.73483e-20 8.56713 	-0.0947641 	8.35522e-21 8.55552 	-0.0957753 	9.76641e-22 8.53425 	-0.0953211 	4.30443e-21 8.51298 	-0.0948667 	7.63217e-21 8.51143 	-0.0972423 	4.51788e-21 8.5098 	-0.0996201 	1.40502e-21 8.49883 	-0.100614 	-1.22722e-21 8.47879 	-0.100184 	-5.16219e-21 8.45876 	-0.0997535 	-9.09673e-21 8.45634 	-0.102142 	-5.49981e-20 8.45384 	-0.104532 	-1.00906e-19 8.44351 	-0.105515 	-1.03639e-19 8.42457 	-0.105135 	-6.17875e-20 8.40562 	-0.104755 	-1.99347e-20 8.40245 	-0.107154 	8.37457e-20 8.39919 	-0.109555 	1.87417e-19 8.38953 	-0.110534 	1.98341e-19 8.37154 	-0.110216 	1.11616e-19 8.35355 	-0.109898 	2.48888e-20 8.34971 	-0.112301 	1.26339e-20 8.34578 	-0.114706 	3.73301e-22 8.33678 	-0.115685 	-5.85823e-21 8.31965 	-0.115438 	-9.17428e-22 8.30251 	-0.11519 	4.02356e-21 8.29808 	-0.117594 	-2.22136e-21 8.29301 	-0.119823 	-9.22078e-21 8.28398 	-0.120788 	-2.15596e-20 8.26885 	-0.120813 	-6.70622e-20 8.25246 	-0.120644 	-1.1942e-19 8.2475 	-0.123051 	-2.55868e-19 8.24129 	-0.125039 	-3.43935e-19 8.23233 	-0.126051 	-3.20043e-19 8.21908 	-0.126365 	-2.11794e-19 8.20335 	-0.126278 	-5.50941e-20 8.19792 	-0.128693 	7.51097e-20 8.19079 	-0.130452 	1.40535e-19 8.1819 	-0.131516 	1.37228e-19 8.17027 	-0.132115 	9.44589e-20 8.15513 	-0.132113 	5.8691e-22 8.14926 	-0.13454 	-9.24177e-20 8.14139 	-0.136083 	-1.28636e-19 8.13254 	-0.137199 	-1.3732e-19 8.12234 	-0.138078 	-1.25424e-19 8.1077 	-0.138159 	-4.46361e-20 8.10145 	-0.140598 	-3.3324e-20 8.093 	-0.141936 	-2.21355e-20 8.08417 	-0.143106 	-1.09687e-20 8.07521 	-0.144259 	3.72815e-22 8.06103 	-0.144427 	2.16888e-20 8.05429 	-0.146803 	-3.90341e-22 8.04552 	-0.148026 	-6.37852e-21 8.0367 	-0.149249 	-1.23683e-20 8.02784 	-0.150474 	-1.83595e-20 8.01501 	-0.150919 	-7.24097e-21 8.00761 	-0.153075 	-2.21197e-20 7.99884 	-0.154349 	-2.86781e-20 7.99002 	-0.155623 	-3.52414e-20 7.98115 	-0.156899 	-4.18097e-20 7.96963 	-0.157626 	-5.73209e-20 7.96172 	-0.159568 	1.48695e-21 7.95294 	-0.160893 	2.46572e-21 7.94411 	-0.162218 	3.41243e-21 7.93523 	-0.163545 	4.32697e-21 7.92485 	-0.164554 	-2.73659e-20 7.91651 	-0.166286 	2.51303e-21 7.90769 	-0.167664 	4.0152e-21 7.89882 	-0.169043 	5.48766e-21 7.88989 	-0.170422 	6.93032e-21 7.88053 	-0.171715 	7.48646e-22 7.87723 	-0.172363 	-2.40295e-22 7.87383 	-0.172915 	-2.2089e-22 7.87041 	-0.173467 	-2.01489e-22 7.86699 	-0.17402 	-1.82089e-22 7.86366 	-0.174557 	-1.6324e-22 7.85795 	-0.175443 	-1.28968e-22 7.85223 	-0.17633 	-9.46881e-23 7.84648 	-0.177217 	-6.04017e-23 7.84071 	-0.178104 	-2.61084e-23 7.83564 	-0.178842 	0 7.82619 	-0.180473 	0 7.81691 	-0.181969 	0 7.80757 	-0.183465 	0 7.79817 	-0.184963 	0 7.79059 	-0.186074 	0 7.78067 	-0.187984 	0 7.77128 	-0.189541 	0 7.76184 	-0.191099 	0 7.75233 	-0.192657 	0 7.74575 	-0.193599 	0 7.73537 	-0.19578 	0 7.72586 	-0.197395 	0 7.71628 	-0.199011 	0 7.70664 	-0.200628 	0 7.70102 	-0.201404 	0 7.69017 	-0.203844 	0 7.68051 	-0.205519 	0 7.67079 	-0.207192 	0 7.66173 	-0.208718 	0 7.6563 	-0.209492 	0 7.64537 	-0.211974 	0 7.63518 	-0.213935 	0 7.6253 	-0.21567 	0 7.61721 	-0.217024 	0 7.61148 	-0.217888 	0 7.60041 	-0.220422 	0 7.58969 	-0.222671 	-3.52537e-21 7.57959 	-0.224463 	-1.27007e-20 7.57242 	-0.225643 	-2.19032e-20 7.56638 	-0.226581 	-3.1116e-20 7.55517 	-0.229158 	-2.07519e-20 7.54393 	-0.231692 	-1.09368e-20 7.53361 	-0.233537 	-9.77758e-21 7.52725 	-0.234555 	-1.90373e-20 7.52086 	-0.235572 	-2.82953e-20 7.50949 	-0.238208 	-1.78306e-20 7.49802 	-0.240844 	-7.35949e-21 7.48833 	-0.242708 	0 7.48156 	-0.243797 	0 7.47476 	-0.244887 	0 7.46321 	-0.247578 	0 7.45155 	-0.25027 	0 7.4424 	-0.2522 	-1.67676e-21 7.4352 	-0.253354 	-6.10724e-21 7.42796 	-0.254508 	-1.05368e-20 7.4162 	-0.257245 	-4.29818e-20 7.40433 	-0.259984 	-7.54231e-20 7.39569 	-0.261981 	-7.55577e-20 7.38804 	-0.263199 	-5.94234e-20 7.38034 	-0.264417 	-4.32794e-20 7.36832 	-0.267195 	-1.86861e-20 7.35705 	-0.269784 	-2.35969e-21 7.34831 	-0.271784 	-1.17389e-20 7.33995 	-0.273321 	-2.93996e-20 7.33178 	-0.2746 	-5.16609e-20 7.31947 	-0.277414 	-6.40249e-20 7.30899 	-0.279787 	-6.85502e-20 7.29985 	-0.281839 	-6.73299e-20 7.2908 	-0.28371 	-5.87539e-20 7.28214 	-0.285051 	-2.85861e-20 7.26951 	-0.287898 	-2.54416e-20 7.25976 	-0.290058 	-1.7637e-20 7.2502 	-0.292158 	-9.43432e-21 7.24056 	-0.294259 	-1.23687e-21 7.23132 	-0.295765 	0 7.21919 	-0.298443 	0 7.20926 	-0.300589 	0 7.19925 	-0.302735 	0 7.18916 	-0.304882 	0 7.17921 	-0.306732 	0 7.16789 	-0.30916 	0 7.1576 	-0.311325 	0 7.14723 	-0.31349 	0 7.13678 	-0.315656 	0 7.12708 	-0.31765 	0 7.1268 	-0.317706 	0 7.12652 	-0.317761 	0 7.12624 	-0.317816 	0 7.12596 	-0.317872 	0 7.12572 	-0.317921 	0 7.11458 	-0.320139 	7.65637e-23 7.10338 	-0.322351 	1.5398e-22 7.09209 	-0.324563 	2.31337e-22 7.08071 	-0.326775 	3.08636e-22 7.07091 	-0.328738 	3.8356e-22 7.05863 	-0.331249 	-1.61271e-20 7.04692 	-0.333466 	-1.89111e-20 7.03512 	-0.335684 	-2.17166e-20 7.02324 	-0.337901 	-2.45438e-20 7.01455 	-0.33962 	3.73117e-21 7.00111 	-0.342419 	4.36719e-22 6.9889 	-0.344636 	7.00905e-21 6.97659 	-0.346854 	1.35759e-20 6.96515 	-0.348931 	2.02073e-20 6.95667 	-0.350556 	2.70596e-20 6.9427 	-0.353366 	1.88928e-20 6.9293 	-0.355874 	1.41612e-20 6.91646 	-0.358089 	1.27652e-20 6.90617 	-0.35991 	1.15674e-20 6.8971 	-0.361535 	1.04641e-20 6.8826 	-0.364335 	8.7802e-21 6.86798 	-0.367134 	7.083e-21 6.85497 	-0.369287 	5.55867e-21 6.84541 	-0.370902 	7.88064e-21 6.83577 	-0.372517 	1.01975e-20 6.82074 	-0.375305 	5.82601e-21 6.80559 	-0.378092 	1.44495e-21 6.79305 	-0.380298 	5.70862e-22 6.78286 	-0.381893 	3.20224e-21 6.77259 	-0.38349 	5.82859e-21 6.75699 	-0.386261 	1.1176e-21 6.74139 	-0.389014 	-3.47401e-21 6.72939 	-0.391179 	-4.15011e-21 6.71835 	-0.392814 	-7.2838e-21 6.70743 	-0.394351 	-1.08807e-20 6.69126 	-0.397062 	-7.98867e-21 6.6769 	-0.399459 	-5.09139e-21 6.66428 	-0.401555 	-2.18883e-21 6.65187 	-0.403495 	0 6.64028 	-0.404951 	0 6.62351 	-0.407576 	-4.16246e-24 6.61036 	-0.409608 	-3.12407e-21 6.59713 	-0.411641 	-6.24604e-21 6.58381 	-0.413674 	-9.37009e-21 6.57115 	-0.415315 	-1.25044e-20 6.55584 	-0.417556 	-1.15775e-20 6.54226 	-0.419492 	-1.22045e-20 6.52861 	-0.421428 	-1.28357e-20 6.51487 	-0.423365 	-1.34711e-20 6.502 	-0.425167 	-1.40663e-20 6.5016 	-0.425223 	-1.41232e-20 6.50119 	-0.425279 	-1.41802e-20 6.50078 	-0.425335 	-1.42372e-20 6.50038 	-0.42539 	-1.42942e-20 6.5 	-0.425438 	-1.4019e-20 6.48535 	-0.427321 	-1.01009e-20 6.47061 	-0.429192 	-6.56177e-21 6.45579 	-0.431064 	-3.00128e-21 6.44087 	-0.432937 	5.80736e-22 6.42704 	-0.434503 	-7.81226e-21 6.41172 	-0.436658 	-8.76404e-21 6.39632 	-0.438386 	-8.15985e-21 6.38083 	-0.440114 	-7.55167e-21 6.36549 	-0.441782 	-6.08467e-21 6.35195 	-0.442953 	2.3662e-21 6.33596 	-0.445142 	-3.06175e-21 6.31989 	-0.446988 	-2.67366e-21 6.30374 	-0.448576 	2.11089e-21 6.28896 	-0.449783 	5.30678e-21 6.27481 	-0.450808 	7.73678e-21 6.25818 	-0.452866 	2.26391e-20 6.24146 	-0.454925 	3.75391e-20 6.22519 	-0.456318 	3.63581e-20 6.21047 	-0.457145 	1.29666e-20 6.19569 	-0.457974 	-1.04396e-20 6.17842 	-0.459849 	-8.21672e-21 6.16105 	-0.461726 	-6.00578e-21 6.14547 	-0.463034 	-3.76514e-21 6.1302 	-0.463623 	-6.55701e-21 6.11488 	-0.464213 	-9.35299e-21 6.09703 	-0.465861 	-8.24323e-21 6.0801 	-0.467218 	-4.33891e-21 6.06436 	-0.468214 	3.04037e-21 6.04856 	-0.469051 	9.55769e-21 6.03273 	-0.469406 	1.34793e-20 6.01448 	-0.470783 	1.099e-20 5.99834 	-0.471523 	1.56792e-20 5.98214 	-0.472264 	2.03747e-20 5.96588 	-0.473005 	2.50763e-20 5.94959 	-0.473476 	3.16461e-20 5.94045 	-0.473936 	3.26737e-20 5.93208 	-0.474181 	3.07482e-20 5.92368 	-0.474425 	2.88223e-20 5.91528 	-0.474669 	2.6896e-20 5.90704 	-0.474908 	2.50119e-20 5.89918 	-0.475162 	2.35505e-20 5.8913 	-0.475416 	2.20894e-20 5.88341 	-0.47567 	2.06288e-20 5.87551 	-0.475925 	1.91686e-20 5.86785 	-0.475963 	1.67352e-20 5.85217 	-0.47647 	7.81143e-21 5.83603 	-0.476722 	4.80118e-21 5.81985 	-0.476976 	1.7827e-21 5.80362 	-0.477229 	-1.24408e-21 5.78821 	-0.476804 	2.96928e-21 5.77287 	-0.477426 	1.71893e-20 5.75671 	-0.477535 	2.06292e-20 5.74032 	-0.477513 	2.13122e-20 5.72443 	-0.477082 	1.34106e-20 5.70901 	-0.47628 	-2.26496e-21 5.6935 	-0.476596 	1.04979e-22 5.67794 	-0.476912 	2.47029e-21 5.66163 	-0.476495 	6.94182e-22 5.64624 	-0.475371 	5.44184e-21 5.63084 	-0.474247 	1.01906e-20 5.61527 	-0.474241 	6.63705e-21 5.59966 	-0.474235 	3.08526e-21 5.58485 	-0.47351 	5.8641e-21 5.56957 	-0.472054 	1.21936e-20 5.55429 	-0.470597 	1.85237e-20 5.53877 	-0.470256 	-7.54221e-21 5.52374 	-0.469578 	-2.14561e-20 5.50948 	-0.4684 	-1.73133e-20 5.49499 	-0.46704 	-6.2596e-21 5.47993 	-0.465244 	2.13514e-20 5.46461 	-0.464532 	1.83627e-20 5.4506 	-0.46301 	1.6987e-20 5.4366 	-0.461488 	1.56103e-20 5.42261 	-0.459965 	1.42326e-20 5.40829 	-0.458172 	1.51996e-20 5.40039 	-0.457451 	1.36698e-20 5.39296 	-0.456445 	1.2136e-20 5.38555 	-0.455438 	1.0602e-20 5.37814 	-0.454432 	9.06768e-21 5.37069 	-0.45342 	7.52429e-21 5.36472 	-0.452594 	5.81619e-21 5.35875 	-0.451767 	4.10823e-21 5.35278 	-0.45094 	2.40041e-21 5.34682 	-0.450113 	6.92746e-22 5.34133 	-0.449049 	0 5.32875 	-0.447131 	-2.84052e-22 5.31605 	-0.445 	-7.24529e-22 5.30337 	-0.442869 	-1.16519e-21 5.29072 	-0.440738 	-1.60603e-21 5.27956 	-0.437868 	-2.04835e-21 5.26774 	-0.436009 	-1.47248e-21 5.25559 	-0.433654 	8.47998e-23 5.24342 	-0.431227 	1.78378e-21 5.23201 	-0.428431 	4.67511e-21 5.22155 	-0.42518 	9.04071e-21 5.21031 	-0.423024 	2.69311e-20 5.19905 	-0.420803 	4.30341e-20 5.18748 	-0.418097 	4.56053e-20 5.17748 	-0.41462 	2.77619e-20 5.16756 	-0.411144 	9.92167e-21 5.15695 	-0.408724 	1.3311e-22 5.14638 	-0.406304 	-9.65583e-21 5.13654 	-0.403255 	-1.27353e-20 5.1271 	-0.399589 	-9.1542e-21 5.11775 	-0.395924 	-5.57472e-21 5.10782 	-0.393272 	-1.36553e-20 5.09813 	-0.390527 	-2.03273e-20 5.08965 	-0.387182 	-1.79256e-20 5.08095 	-0.383515 	-1.13806e-20 5.0722 	-0.379705 	-2.98015e-21 5.06298 	-0.376862 	-4.83657e-21 5.05466 	-0.373592 	-4.97292e-21 5.04681 	-0.370112 	-4.2637e-21 5.03904 	-0.366622 	-3.47868e-21 5.03089 	-0.362717 	6.40714e-22 5.02263 	-0.359622 	1.55244e-21 5.01534 	-0.356057 	1.69542e-21 5.00813 	-0.352493 	1.8374e-21 5.001 	-0.34893 	1.97837e-21 4.99377 	-0.345218 	2.28142e-21 4.98911 	-0.343057 	1.27409e-21 4.98478 	-0.340733 	1.05642e-21 4.9805 	-0.338409 	8.37463e-22 4.97625 	-0.336086 	6.1723e-22 4.97175 	-0.333612 	3.8124e-22 4.96963 	-0.332373 	3.69663e-22 4.96752 	-0.331135 	3.57317e-22 4.96542 	-0.329898 	3.44203e-22 4.96333 	-0.32866 	3.30318e-22 4.96139 	-0.327351 	-8.09228e-22 4.95567 	-0.323835 	-2.75894e-21 4.94995 	-0.320262 	-4.15479e-21 4.94431 	-0.316692 	-5.54653e-21 4.93875 	-0.313122 	-6.93414e-21 4.93372 	-0.309319 	-5.31733e-21 4.92886 	-0.306006 	-4.55902e-21 4.92372 	-0.302506 	-3.83786e-21 4.91867 	-0.299007 	-3.11759e-21 4.9137 	-0.295508 	-2.39774e-21 4.90943 	-0.291674 	-1.6126e-21 4.90531 	-0.288521 	-1.40512e-21 4.90085 	-0.28519 	-9.45776e-22 4.89636 	-0.281818 	-4.24735e-22 4.89215 	-0.278334 	-2.2144e-22 4.88831 	-0.274684 	-4.91014e-22 4.88476 	-0.271666 	-1.8814e-21 4.88109 	-0.268585 	-2.89849e-21 4.87714 	-0.265389 	-3.22318e-21 4.87354 	-0.262018 	-2.40001e-21 4.87011 	-0.258599 	-1.24261e-21 4.86709 	-0.2557