/*--------------------------------*- C++ -*----------------------------------*\
  =========                 |
  \\      /  F ield         | OpenFOAM: The Open Source CFD Toolbox
   \\    /   O peration     | Website:  https://openfoam.org
    \\  /    A nd           | Version:  8
     \\/     M anipulation  |
\*---------------------------------------------------------------------------*/
FoamFile
{
    version     2.0;
    format      ascii;
    class       volScalarField;
    location    "30";
    object      p;
}
// * * * * * * * * * * * * * * * * * * * * * * * * * * * * * * * * * * * * * //

dimensions      [0 2 -2 0 0 0 0];

internalField   nonuniform List<scalar> 
404911
(
-35.8922
-35.8554
-35.8415
-35.8313
-35.9497
-35.8778
-35.8489
-35.8412
-35.8359
-35.8332
-36.3774
-36.2992
-36.1712
-36.0516
-35.9355
-35.874
-36.5335
-36.4354
-36.3458
-36.2404
-36.7602
-36.6334
-36.5181
-36.9897
-36.9047
-36.793
-37.1726
-37.065
-36.9902
-37.5083
-37.4103
-37.2852
-37.1472
-37.0299
-37.6757
-37.5309
-37.4065
-38.0997
-37.9696
-37.8541
-37.7271
-38.2693
-38.1922
-38.0729
-37.9665
-37.8949
-38.3745
-38.2846
-38.178
-38.0494
-38.5644
-38.4837
-38.3692
-38.2902
-38.5866
-38.5581
-39.3015
-35.8357
-35.938
-35.8713
-36.273
-36.1837
-36.5511
-36.442
-36.3538
-36.7655
-36.6493
-36.5381
-36.9733
-36.8713
-37.1765
-37.0762
-36.969
-37.4089
-37.301
-37.1638
-37.0529
-37.6638
-37.5387
-37.954
-37.8131
-38.1817
-38.0923
-37.9376
-38.4009
-38.2831
-38.5838
-38.4968
-38.38
-38.6426
-38.5829
-39.3017
-39.3791
-39.3014
-39.7092
-39.5966
-39.4906
-39.9153
-39.8157
-39.6929
-40.0682
-39.9919
-39.9265
-40.066
-17.8604
-17.709
-17.5193
-18.7405
-18.5381
-18.3502
-18.1481
-17.9886
-17.8054
-17.6295
-17.3515
-19.2551
-19.0798
-18.6762
-18.5028
-18.2424
-18.0767
-17.8993
-17.7042
-17.0625
-19.794
-19.6555
-19.5047
-19.3413
-19.1898
-19.0018
-18.7701
-18.5954
-18.3699
-18.1724
-17.9755
-17.7693
-17.5163
-17.3035
-17.1295
-16.8909
-20.2973
-20.1046
-19.9123
-19.7408
-19.5758
-19.4213
-19.2685
-19.1025
-18.8804
-18.692
-18.4803
-18.2894
-18.0918
-17.8998
-17.1942
-20.77
-20.5886
-20.3979
-20.1972
-19.9984
-19.8106
-19.6462
-19.4962
-19.3433
-19.1812
-18.9999
-18.7947
-18.5921
-18.4066
-18.2253
-21.0889
-20.909
-20.7207
-20.5414
-20.3427
-20.1577
-19.9192
-19.7232
-19.5752
-19.4187
-19.2611
-19.0834
-18.8929
-18.6994
-18.5091
-18.3191
-21.5863
-21.4187
-21.2187
-21.0362
-20.841
-20.6341
-20.4458
-20.2329
-20.0504
-19.8108
-19.6593
-19.5077
-19.3494
-19.1754
-18.991
-18.794
-18.6321
-22.2376
-22.0677
-21.9266
-21.7159
-21.527
-21.3304
-21.1504
-20.9526
-20.7596
-20.561
-20.3342
-20.1271
-19.9211
-19.7602
-19.6023
-19.4427
-19.2755
-19.0947
-22.5365
-22.3496
-22.1769
-22.0151
-21.841
-21.6469
-21.4655
-21.2489
-21.0685
-20.8725
-20.6925
-20.4642
-20.2045
-20.0296
-19.865
-19.7023
-19.5445
-19.3299
-23.0116
-22.862
-22.6875
-22.4824
-22.3034
-22.1216
-21.9489
-21.7615
-21.5796
-21.3826
-21.1772
-20.9924
-20.8113
-20.6171
-20.4021
-20.1471
-19.9662
-19.8316
-23.4097
-23.1979
-22.9917
-22.8012
-22.6181
-22.4197
-22.2483
-22.0573
-21.8735
-21.6933
-21.5009
-21.3031
-21.1106
-20.9277
-20.7418
-20.5013
-20.2806
-23.9057
-23.7169
-23.5188
-23.3339
-23.1293
-22.9478
-22.7513
-22.5448
-22.3676
-22.1775
-21.9916
-21.806
-21.6136
-21.4212
-21.2287
-21.0388
-20.86
-24.3188
-24.1789
-24.0136
-23.8412
-23.6647
-23.4461
-23.2454
-23.0656
-22.8817
-22.6841
-22.5016
-22.2983
-22.1072
-21.9181
-21.7299
-21.5303
-21.354
-21.1266
-24.7859
-24.5551
-24.4189
-24.2824
-24.0801
-23.9667
-23.7563
-23.5683
-23.3606
-23.1676
-23.0075
-22.7959
-22.6045
-22.42
-22.23
-22.0383
-21.8302
-21.6377
-25.126
-24.9853
-24.8515
-24.6947
-24.5255
-24.3549
-24.1788
-24.0349
-23.8641
-23.6775
-23.4651
-23.2542
-23.1308
-22.9131
-22.7002
-22.5275
-22.3545
-22.1488
-25.3746
-25.2232
-25.0681
-24.9257
-24.8011
-24.6203
-24.4397
-24.283
-24.0921
-23.9662
-23.7576
-23.5387
-23.3644
-23.2008
-22.998
-22.8068
-22.6306
-22.4684
-25.8361
-25.691
-25.5009
-25.3286
-25.1693
-25.0087
-24.8655
-24.7386
-24.5369
-24.371
-24.1763
-24.0493
-23.8768
-23.6856
-23.4421
-23.2833
-23.0742
-22.9203
-26.0959
-25.9336
-25.7854
-25.633
-25.447
-25.2405
-25.1151
-24.9447
-24.7797
-24.6447
-24.4821
-24.3073
-24.1376
-23.9582
-23.7748
-23.5469
-23.4102
-23.1446
-26.5171
-26.3383
-26.2107
-26.065
-25.8845
-25.7492
-25.5715
-25.3659
-25.1936
-25.0274
-24.8457
-24.718
-24.5699
-24.4113
-24.2496
-24.0393
-23.8466
-23.6514
-26.7498
-26.5992
-26.4559
-26.3186
-26.1725
-26.0165
-25.846
-25.6767
-25.482
-25.297
-25.1204
-24.9393
-24.8044
-24.6566
-24.5094
-24.3575
-24.1756
-27.0829
-26.9597
-26.8337
-26.6949
-26.5725
-26.4496
-26.2977
-26.1526
-25.9914
-25.7931
-25.5913
-25.4091
-25.2245
-25.0406
-24.9025
-24.7532
-24.6013
-24.4351
-27.3024
-27.1705
-27.0354
-26.9175
-26.7917
-26.6876
-26.5492
-26.4238
-26.2925
-26.1315
-25.9347
-25.7338
-25.5174
-25.3421
-25.159
-25.0054
-24.8507
-24.73
-27.5221
-27.38
-27.2524
-27.1283
-26.9986
-26.8619
-26.763
-26.6555
-26.5327
-26.4189
-26.2886
-26.0643
-25.8575
-25.6534
-25.4574
-25.2693
-25.1099
-24.9006
-27.8856
-27.7498
-27.6114
-27.4683
-27.3374
-27.2305
-27.1024
-26.966
-26.8213
-26.7214
-26.609
-26.4897
-26.3565
-26.2071
-25.9657
-25.7888
-25.5669
-25.441
-28.2131
-28.0988
-27.9629
-27.8344
-27.7025
-27.5592
-27.4255
-27.3073
-27.2061
-27.0707
-26.9506
-26.8392
-26.7033
-26.5762
-26.4402
-26.294
-26.1035
-25.9128
-28.4296
-28.3025
-28.1858
-28.058
-27.9319
-27.7966
-27.6554
-27.5269
-27.3812
-27.2424
-27.1431
-27.0493
-26.9365
-26.7952
-26.6657
-26.5385
-26.3712
-26.2448
-28.7353
-28.6336
-28.5108
-28.394
-28.2755
-28.1501
-28.0207
-27.886
-27.7548
-27.6325
-27.4776
-27.3527
-27.2318
-27.113
-27.0094
-26.9026
-26.7816
-26.6461
-28.9292
-28.8285
-28.7274
-28.6068
-28.4882
-28.3652
-28.2392
-28.1078
-27.9753
-27.8464
-27.7234
-27.5919
-27.4723
-27.3488
-27.2168
-27.1026
-26.9752
-26.864
-29.1027
-29.0208
-28.9243
-28.8162
-28.6982
-28.5795
-28.4553
-28.3274
-28.1972
-28.0652
-27.9361
-27.8085
-27.6794
-27.5547
-27.433
-27.31
-27.1836
-27.0485
-29.2801
-29.1749
-29.0902
-29.0078
-28.8981
-28.7849
-28.6647
-28.5401
-28.4157
-28.2892
-28.1583
-28.0301
-27.9011
-27.7725
-27.6493
-27.5254
-27.4173
-27.2206
-29.592
-29.4749
-29.3622
-29.2488
-29.1683
-29.0756
-28.9801
-28.8751
-28.7554
-28.6385
-28.5002
-28.3841
-28.2555
-28.1271
-28.0024
-27.8786
-27.7489
-27.6042
-29.7988
-29.677
-29.5679
-29.4542
-29.3528
-29.2639
-29.161
-29.0602
-28.9564
-28.8293
-28.717
-28.5938
-28.4776
-28.3541
-28.2281
-28.1032
-27.9781
-27.8534
-29.9926
-29.8951
-29.779
-29.6655
-29.5466
-29.4369
-29.3413
-29.2457
-29.1443
-29.0391
-28.9277
-28.8045
-28.6864
-28.567
-28.4506
-28.3328
-28.1904
-28.0716
-30.183
-30.077
-29.9717
-29.8722
-29.7682
-29.6543
-29.5428
-29.4343
-29.3372
-29.2327
-29.1227
-29.0112
-28.8926
-28.7713
-28.6485
-28.5381
-28.4298
-30.5036
-30.3844
-30.2742
-30.1615
-30.0565
-29.9535
-29.865
-29.7644
-29.6674
-29.5238
-29.4291
-29.325
-29.2127
-29.0998
-28.9889
-28.8718
-28.7451
-28.6108
-30.6983
-30.5809
-30.4687
-30.3593
-30.251
-30.1425
-30.0318
-29.944
-29.8664
-29.7542
-29.6045
-29.5214
-29.4154
-29.3042
-29.1899
-29.0786
-28.9654
-28.8501
-30.8855
-30.7789
-30.6617
-30.5506
-30.4413
-30.3364
-30.2296
-30.1428
-30.0268
-29.9591
-29.871
-29.7489
-29.6066
-29.5071
-29.3938
-29.276
-29.1678
-29.0011
-31.1825
-31.0909
-30.9751
-30.8602
-30.7463
-30.6341
-30.5315
-30.4245
-30.3231
-30.2213
-30.1229
-30.0333
-29.9527
-29.8311
-29.7044
-29.5975
-29.4852
-29.3657
-31.3771
-31.2748
-31.1738
-31.0721
-30.9561
-30.8376
-30.7232
-30.6226
-30.5182
-30.4146
-30.3182
-30.2083
-30.113
-30.0388
-29.9252
-29.8018
-29.6942
-29.5676
-31.573
-31.4686
-31.3661
-31.2626
-31.1608
-31.0487
-30.9313
-30.8177
-30.7174
-30.6364
-30.5668
-30.4152
-30.3237
-30.221
-30.1302
-30.019
-29.8931
-29.7847
-31.7903
-31.6748
-31.5627
-31.4585
-31.3561
-31.25
-31.1371
-31.0221
-30.9096
-30.8017
-30.7137
-30.6509
-30.5303
-30.4335
-30.3384
-30.2356
-30.1288
-29.9431
-31.9828
-31.8856
-31.7744
-31.6555
-31.552
-31.4491
-31.3418
-31.2256
-31.1098
-30.9987
-30.8732
-30.776
-30.7187
-30.6261
-30.5278
-30.4343
-30.3306
-32.2862
-32.1864
-32.0789
-31.9709
-31.8644
-31.7505
-31.6462
-31.5414
-31.4323
-31.3152
-31.204
-31.1094
-30.9803
-30.8806
-30.794
-30.7226
-30.6198
-30.5249
-32.4681
-32.3677
-32.2724
-32.1734
-32.0639
-31.9514
-31.8439
-31.7336
-31.6297
-31.5207
-31.4095
-31.2995
-31.2007
-31.0933
-30.9802
-30.892
-30.8088
-30.7123
-32.6575
-32.5596
-32.4605
-32.3603
-32.2619
-32.1557
-32.0427
-31.9398
-31.8234
-31.7165
-31.6089
-31.5005
-31.3897
-31.2875
-31.19
-31.0873
-30.9884
-30.8956
-32.858
-32.7549
-32.6543
-32.5536
-32.4546
-32.3513
-32.2441
-32.1377
-32.0392
-31.9177
-31.8145
-31.7036
-31.595
-31.4824
-31.3731
-31.2727
-31.1784
-31.0786
-33.0593
-32.9548
-32.8516
-32.751
-32.6501
-32.5475
-32.4423
-32.3356
-32.2293
-32.1297
-32.0255
-31.9124
-31.8074
-31.6971
-31.5845
-31.4762
-31.3713
-31.2599
-33.2545
-33.1591
-33.0561
-32.9512
-32.85
-32.7461
-32.642
-32.536
-32.4267
-32.3192
-32.2159
-32.1092
-32.0016
-31.8971
-31.7923
-31.6861
-31.5736
-31.4703
-33.4392
-33.3423
-33.2459
-33.1478
-33.0466
-32.9459
-32.8405
-32.7334
-32.625
-32.5173
-32.4089
-32.3061
-32.2005
-32.0938
-31.9887
-31.8851
-31.7754
-31.6708
-33.6219
-33.5223
-33.4208
-33.3284
-33.2282
-33.1273
-33.0294
-32.93
-32.8154
-32.7051
-32.6031
-32.5012
-32.4
-32.2951
-32.1865
-32.0821
-31.9777
-31.8683
-33.9097
-33.8098
-33.7068
-33.6059
-33.5069
-33.4071
-33.3109
-33.1834
-33.0912
-33.0138
-32.9355
-32.815
-32.7073
-32.5923
-32.4953
-32.3874
-32.2801
-32.1644
-32.0681
-34.0934
-33.9892
-33.8898
-33.7866
-33.6838
-33.5889
-33.4899
-33.3943
-33.2893
-33.1857
-33.0795
-33.0089
-32.9101
-32.7953
-32.6797
-32.5845
-32.4771
-32.3774
-34.1737
-34.0796
-33.9766
-33.8734
-33.769
-33.6716
-33.593
-33.5228
-33.3731
-33.2631
-33.1786
-33.0659
-32.9856
-32.8821
-32.7771
-32.6754
-32.5688
-34.4881
-34.3909
-34.2816
-34.1712
-34.0655
-33.9593
-33.8562
-33.7587
-33.6807
-33.5932
-33.4532
-33.3543
-33.2524
-33.1474
-33.0617
-32.9661
-32.8577
-32.7555
-34.6767
-34.5749
-34.4769
-34.3736
-34.2678
-34.1581
-34.0513
-33.9403
-33.8396
-33.7632
-33.6784
-33.5339
-33.4382
-33.327
-33.2347
-33.1414
-33.0492
-32.9401
-34.9138
-34.7857
-34.6767
-34.5715
-34.4677
-34.3628
-34.2583
-34.1472
-34.0164
-33.9097
-33.8371
-33.7622
-33.6264
-33.529
-33.4232
-33.3278
-33.2274
-33.1332
-34.9946
-34.8909
-34.7815
-34.6704
-34.563
-34.4547
-34.3599
-34.2736
-34.1238
-34.0109
-33.9034
-33.8227
-33.7179
-33.6145
-33.5167
-33.4182
-33.3165
-35.2043
-35.0981
-34.978
-34.8769
-34.7658
-34.6552
-34.5447
-34.4511
-34.3779
-34.2183
-34.101
-33.993
-33.9007
-33.7988
-33.6952
-33.6023
-33.5063
-35.4416
-35.3566
-35.2763
-35.1813
-35.0626
-34.9661
-34.8566
-34.747
-34.6244
-34.5237
-34.4506
-34.3151
-34.1781
-34.0864
-33.9918
-33.8876
-33.7697
-33.6876
-35.6319
-35.5372
-35.4442
-35.3593
-35.2664
-35.1563
-35.052
-34.9478
-34.843
-34.7081
-34.5977
-34.5056
-34.4015
-34.2751
-34.1716
-34.0749
-33.9734
-35.8359
-35.7308
-35.6213
-35.5285
-35.4477
-35.3444
-35.2405
-35.1321
-35.0417
-34.9496
-34.8164
-34.7009
-34.578
-34.4768
-34.3612
-34.2565
-34.1507
-36.1243
-36.0372
-35.9257
-35.8241
-35.7225
-35.6157
-35.5206
-35.4323
-35.3008
-35.2028
-35.1025
-35.0013
-34.909
-34.7986
-34.6807
-34.5726
-34.4568
-34.3676
-36.3216
-36.2226
-36.1233
-36.017
-35.9181
-35.8156
-35.7068
-35.5892
-35.4869
-35.3603
-35.2899
-35.1846
-35.047
-34.9692
-34.8833
-34.769
-34.6598
-34.5527
-36.4923
-36.3938
-36.2998
-36.2197
-36.1049
-36.0011
-35.8958
-35.7853
-35.6729
-35.5669
-35.467
-35.3626
-35.2569
-35.1556
-35.0507
-34.9634
-34.8572
-34.7496
-36.7098
-36.6083
-36.4886
-36.3944
-36.2943
-36.186
-36.0787
-35.9681
-35.8725
-35.7624
-35.6538
-35.543
-35.4321
-35.3283
-35.228
-35.1445
-35.0379
-34.9386
-36.9878
-36.8935
-36.7888
-36.6918
-36.5823
-36.4723
-36.3663
-36.2612
-36.1642
-36.056
-35.9415
-35.8433
-35.7331
-35.6139
-35.5135
-35.4027
-35.3022
-35.2108
-35.1125
-37.1246
-37.0704
-36.9774
-36.8849
-36.7775
-36.673
-36.5541
-36.4452
-36.3478
-36.2491
-36.1402
-36.0308
-35.9363
-35.8324
-35.7108
-35.5971
-35.4903
-35.3897
-35.3053
-37.2889
-37.1689
-37.0663
-36.9742
-36.8744
-36.7607
-36.6545
-36.5387
-36.4288
-36.335
-36.2233
-36.1189
-36.0216
-35.9179
-35.8093
-35.6996
-35.5891
-35.4278
-37.5142
-37.3902
-37.2795
-37.1752
-37.0723
-36.9693
-36.8591
-36.7521
-36.6576
-36.5297
-36.4297
-36.3125
-36.2133
-36.113
-36.0113
-35.9055
-35.8003
-37.7765
-37.6403
-37.5126
-37.3984
-37.2807
-37.1762
-37.0689
-36.9547
-36.8507
-36.7454
-36.6297
-36.5273
-36.416
-36.3083
-36.2065
-36.111
-35.9899
-38.0656
-37.8922
-37.777
-37.647
-37.5243
-37.4134
-37.2976
-37.178
-37.068
-36.9383
-36.8429
-36.7224
-36.6228
-36.516
-36.4119
-36.308
-36.2148
-38.4503
-38.3284
-38.1943
-38.0546
-37.9187
-37.7879
-37.6641
-37.535
-37.4054
-37.2862
-37.1795
-37.059
-36.9437
-36.8189
-36.7254
-36.6163
-36.5007
-36.4
-38.6703
-38.5614
-38.4398
-38.3077
-38.1803
-38.0581
-37.9291
-37.7985
-37.6577
-37.5249
-37.402
-37.29
-37.1672
-37.0557
-36.9381
-36.8339
-36.7236
-38.888
-38.777
-38.6633
-38.5399
-38.4239
-38.2962
-38.1813
-38.0617
-37.9242
-37.7781
-37.6382
-37.5053
-37.3906
-37.2831
-37.1591
-37.0401
-36.9272
-39.129
-39.0086
-38.8902
-38.7656
-38.6445
-38.5313
-38.4017
-38.2809
-38.1806
-38.034
-37.8906
-37.7505
-37.6214
-37.4919
-37.3786
-37.2564
-37.1312
-39.3693
-39.2463
-39.1265
-38.9959
-38.8885
-38.7473
-38.6256
-38.5091
-38.4035
-38.2653
-38.1326
-37.9981
-37.8604
-37.7327
-37.6084
-37.4832
-37.3879
-39.6291
-39.4839
-39.3559
-39.246
-39.1294
-39.0092
-38.8732
-38.7363
-38.6007
-38.4981
-38.3828
-38.2402
-38.1012
-37.9746
-37.8435
-37.717
-37.5913
-39.8748
-39.7518
-39.6004
-39.466
-39.3633
-39.2497
-39.1189
-38.9943
-38.8542
-38.7292
-38.6097
-38.4917
-38.3536
-38.2102
-38.083
-37.9511
-37.825
-39.9966
-39.8638
-39.7272
-39.5947
-39.4759
-39.3584
-39.2465
-39.1289
-38.9782
-38.8401
-38.7076
-38.5928
-38.457
-38.3226
-38.1991
-37.9894
-40.2853
-40.1168
-39.9567
-39.8242
-39.6939
-39.5875
-39.4697
-39.3578
-39.2281
-39.1027
-38.9546
-38.814
-38.6944
-38.5588
-38.4264
-40.7907
-40.6105
-40.4381
-40.2555
-40.0715
-39.9475
-39.8101
-39.7272
-39.5965
-39.4558
-39.3186
-39.1976
-39.0735
-38.9309
-38.7921
-38.6455
-41.1389
-40.9376
-40.764
-40.6115
-40.4321
-40.2237
-40.0719
-39.9183
-39.8048
-39.7049
-39.5828
-39.4285
-39.2848
-39.1768
-39.0418
-38.9276
-41.5094
-41.3265
-41.1274
-40.9398
-40.7857
-40.6171
-40.4502
-40.2391
-40.0598
-39.9382
-39.8395
-39.7427
-39.5724
-39.427
-39.2699
-39.1552
-42.084
-41.916
-41.7107
-41.5014
-41.3273
-41.1451
-40.994
-40.8452
-40.6687
-40.46
-40.2426
-40.0582
-39.9062
-39.8439
-39.7042
-39.5474
-42.5129
-42.2822
-42.1003
-41.9095
-41.72
-41.5111
-41.3382
-41.1664
-41.0147
-40.8518
-40.6839
-40.4569
-40.2372
-40.0781
-39.9515
-39.8531
-42.9575
-42.7009
-42.4801
-42.2846
-42.0892
-41.918
-41.699
-41.5135
-41.3431
-41.185
-41.0294
-40.8617
-40.6444
-40.4484
-40.2701
-40.1186
-43.3798
-43.1656
-42.9004
-42.618
-42.4427
-42.2601
-42.0499
-41.8228
-41.6445
-41.4786
-41.3441
-41.1831
-41.0263
-40.8344
-40.6473
-40.4682
-43.7204
-43.5478
-43.346
-43.1114
-42.8555
-42.6087
-42.4345
-42.24
-41.979
-41.7684
-41.6107
-41.4672
-41.3279
-41.188
-41.0404
-40.7741
-44.082
-43.8945
-43.6768
-43.4847
-43.2576
-43.0351
-42.8195
-42.6212
-42.4322
-42.1945
-41.9386
-41.7615
-41.6181
-41.4753
-41.3339
-44.4087
-44.251
-44.0317
-43.8385
-43.65
-43.4316
-43.217
-43.0085
-42.8014
-42.6003
-42.395
-42.1571
-41.9255
-41.7769
-41.6124
-41.4795
-44.732
-44.5561
-44.3944
-44.1751
-44.0058
-43.7752
-43.5795
-43.3684
-43.194
-42.974
-42.7682
-42.5475
-42.3287
-42.1078
-41.9714
-41.723
-45.0506
-44.871
-44.6987
-44.5227
-44.3266
-44.1274
-43.9278
-43.7363
-43.5402
-43.3405
-43.1482
-42.9443
-42.7454
-42.5102
-42.2648
-45.1976
-45.0164
-44.8407
-44.6567
-44.4564
-44.266
-44.0572
-43.8762
-43.7001
-43.5005
-43.314
-43.1192
-42.8945
-42.7272
-45.4885
-45.353
-45.1522
-44.9721
-44.7794
-44.5805
-44.3991
-44.2174
-44.0317
-43.8547
-43.6904
-43.4713
-43.2989
-46.0171
-45.843
-45.6572
-45.498
-45.2905
-45.1242
-44.9348
-44.7257
-44.5418
-44.3503
-44.1683
-44.0014
-43.8365
-43.6181
-46.3715
-46.1748
-45.997
-45.8116
-45.6453
-45.4493
-45.2519
-45.0774
-44.8713
-44.6854
-44.4876
-44.3073
-44.1399
-43.9766
-46.7558
-46.5493
-46.3541
-46.1401
-45.9686
-45.7939
-45.6106
-45.4055
-45.2103
-45.0298
-44.8198
-44.6014
-44.4463
-44.2699
-47.157
-46.9707
-46.7455
-46.5094
-46.2889
-46.0879
-45.9304
-45.7452
-45.5417
-45.3585
-45.1664
-44.9558
-44.7913
-44.5112
-47.5153
-47.2824
-47.1194
-46.9196
-46.6804
-46.4561
-46.2345
-46.0485
-45.8656
-45.6783
-45.4905
-45.3249
-45.1444
-44.8741
-47.8732
-47.6679
-47.3951
-47.2616
-47.0411
-46.8186
-46.6026
-46.3862
-46.1965
-46.003
-45.8232
-45.6181
-45.4597
-47.3441
-47.1828
-46.9469
-46.7332
-46.5354
-46.3727
-46.1244
-45.9752
-45.734
-47.4308
-47.315
-47.0696
-46.8558
-46.648
-46.5136
-46.3308
-46.0336
-47.7796
-47.5596
-47.4079
-47.2223
-46.9911
-46.7994
-46.6216
-48.2991
-48.0246
-47.7856
-47.5484
-47.3632
-47.1724
-46.9629
-48.1732
-47.9539
-47.7089
-47.5235
-47.3015
-48.9842
-48.6611
-48.306
-48.1339
-47.8705
-47.6727
-50.4541
-50.2949
-49.5846
-49.263
-48.359
-50.6069
-50.3923
-50.2302
-50.0501
-49.8572
-48.9109
-51.1286
-50.1793
-50.0022
-49.7252
-49.4825
-51.3772
-50.8223
-50.3167
-5.99681
-5.82029
-5.53001
-7.74245
-7.4889
-7.16609
-6.83623
-6.55958
-6.24934
-5.92207
-5.64385
-4.41582
-8.98577
-8.8159
-8.4975
-8.21663
-7.91685
-7.57868
-7.2816
-6.97807
-6.64601
-6.31793
-6.00441
-5.70331
-5.37714
-4.9867
-4.60101
-10.1259
-9.90619
-9.5124
-9.25363
-8.93442
-8.59001
-8.31174
-8.02664
-7.70173
-7.40088
-7.0998
-6.76773
-6.41681
-6.07645
-5.7654
-5.45732
-5.12672
-4.65315
-4.10344
-3.50685
-2.94115
-2.30334
-11.3548
-11.056
-10.6651
-10.326
-9.96167
-9.66979
-9.36507
-9.0376
-8.7136
-8.40502
-8.11688
-7.82875
-7.54005
-7.25435
-6.91326
-6.53174
-6.14231
-5.83451
-5.53587
-5.22508
-4.79559
-4.23518
-3.663
-12.4166
-12.1775
-11.8951
-11.5252
-11.1837
-10.8181
-10.4313
-10.1005
-9.79161
-9.49306
-9.14198
-8.83228
-8.49838
-8.21406
-7.94635
-7.67274
-7.41137
-7.00565
-6.72653
-6.19604
-5.91813
-5.62016
-5.29789
-4.88411
-4.47605
-13.0857
-12.8178
-12.5664
-12.3218
-12.0848
-11.7372
-11.3929
-11.0494
-10.7017
-10.2451
-9.93082
-9.60178
-9.27639
-8.95069
-8.61803
-8.30133
-8.04513
-7.80881
-7.55052
-7.11426
-6.81918
-6.31564
-6.02214
-5.70348
-5.37175
-13.6364
-13.452
-13.18
-12.9662
-12.6845
-12.4268
-12.2014
-11.9315
-11.5259
-11.1615
-10.8106
-10.3979
-10.0718
-9.76807
-9.40499
-9.10539
-8.87207
-8.42682
-8.1521
-7.91889
-7.66347
-7.23954
-6.90175
-6.47857
-6.15346
-14.2885
-14.0151
-13.7731
-13.568
-13.2683
-13.0574
-12.8114
-12.5491
-12.2808
-12.0711
-11.7015
-11.3105
-10.8934
-10.5746
-10.1493
-9.93841
-9.6054
-9.22862
-8.99374
-8.56515
-8.28781
-8.02656
-7.74653
-7.40881
-7.03327
-15.2077
-14.9317
-14.6705
-14.4052
-14.1444
-13.9167
-13.6222
-13.3907
-13.1356
-12.9274
-12.6689
-12.3641
-12.1387
-11.8305
-11.4587
-11.0648
-10.6993
-10.2707
-10.042
-9.73407
-9.34701
-9.04685
-8.70249
-8.43702
-8.18235
-7.76943
-16.1062
-15.9044
-15.6496
-15.3825
-15.0542
-14.8202
-14.5757
-14.2609
-14.0087
-13.7467
-13.5304
-13.2557
-12.9911
-12.7555
-12.4877
-12.2178
-11.9043
-11.5931
-11.2311
-10.8588
-10.4434
-10.1409
-9.83517
-9.50432
-9.19109
-8.86728
-8.55296
-16.428
-16.209
-15.9783
-15.7538
-15.5036
-15.2292
-14.9012
-14.7037
-14.4208
-14.1446
-13.8813
-13.6291
-13.3773
-13.1324
-12.8379
-12.5968
-12.3295
-12.0194
-11.7023
-11.3767
-10.9959
-10.6177
-10.2841
-10.0399
-9.69319
-17.147
-16.9811
-16.7525
-16.4976
-16.3055
-16.0551
-15.8518
-15.6199
-15.3528
-15.074
-14.8235
-14.5548
-14.2869
-13.9972
-13.7464
-13.4819
-13.2384
-12.9393
-12.7037
-12.4406
-12.1404
-11.8289
-11.51
-11.1982
-10.7586
-17.5034
-17.2954
-17.0674
-16.8412
-16.6522
-16.423
-16.1715
-15.9424
-15.707
-15.4209
-15.1799
-14.9511
-14.6701
-14.3963
-14.1377
-13.8543
-13.5869
-13.3391
-13.0437
-12.8175
-12.5531
-12.2485
-11.9193
-11.5929
-18.2193
-18.0185
-17.8319
-17.6235
-17.4414
-17.1932
-16.977
-16.7609
-16.5275
-16.2599
-16.0253
-15.7915
-15.5462
-15.2261
-15.0359
-14.7733
-14.5084
-14.2363
-13.9629
-13.6953
-13.4429
-13.1411
-12.9094
-12.6378
-12.3433
-18.7351
-18.5513
-18.3338
-18.1199
-17.9315
-17.7457
-17.532
-17.321
-17.1329
-16.8655
-16.6123
-16.355
-16.1144
-15.8635
-15.6419
-15.4249
-15.143
-14.8893
-14.6152
-14.3497
-14.0809
-13.8195
-13.4874
-13.2552
-13.0163
-19.2116
-19.0319
-18.8461
-18.6631
-18.4549
-18.2449
-18.0423
-17.862
-17.6752
-17.4638
-17.264
-16.9841
-16.7253
-16.466
-16.184
-15.9785
-15.7282
-15.4762
-15.2461
-14.9919
-14.7166
-14.4749
-14.1901
-13.9385
-13.659
-19.8477
-19.6796
-19.4914
-19.3133
-19.1418
-18.9496
-18.7599
-18.5451
-18.3657
-18.1573
-17.9855
-17.8113
-17.6116
-17.4049
-17.1154
-16.8754
-16.5946
-16.3077
-16.0992
-15.8293
-15.5182
-15.3416
-15.0938
-14.8148
-14.5657
-14.2985
-20.3067
-20.1422
-19.9257
-19.7421
-19.5774
-19.4113
-19.2453
-19.0689
-18.8906
-18.6626
-18.4436
-18.2544
-18.0739
-17.9034
-17.6968
-17.4764
-17.2529
-17.0509
-16.793
-16.4634
-16.2133
-15.9764
-15.672
-15.4205
-15.1694
-14.8953
-20.7558
-20.5847
-20.4061
-20.2058
-20.0151
-19.8261
-19.6531
-19.5021
-19.3479
-19.1868
-19.0286
-18.8285
-18.5368
-18.3561
-18.1839
-17.9879
-17.7707
-17.5217
-17.3259
-17.1157
-16.8394
-16.5906
-16.3232
-16.0753
-15.7782
-15.503
-15.2371
-21.2415
-21.0722
-20.877
-20.6783
-20.5035
-20.3075
-20.0955
-19.9029
-19.7315
-19.5761
-19.425
-19.2732
-19.1141
-18.929
-18.6897
-18.486
-18.298
-18.0993
-17.9027
-17.652
-17.3801
-17.1892
-16.9517
-16.6823
-16.43
-16.1539
-15.8659
-21.5505
-21.3482
-21.1632
-20.9827
-20.7889
-20.5906
-20.3935
-20.1829
-19.9848
-19.8001
-19.6406
-19.4937
-19.3451
-19.1864
-19.0017
-18.8021
-18.6014
-18.4049
-18.213
-18.0354
-17.7669
-17.5492
-17.288
-17.067
-16.7886
-16.5308
-22.0413
-21.8689
-21.6735
-21.473
-21.2803
-21.0856
-20.902
-20.6969
-20.4721
-20.2543
-20.0352
-19.8546
-19.7096
-19.5673
-19.4195
-19.2649
-19.0896
-18.9008
-18.7058
-18.5049
-18.285
-18.0814
-17.863
-17.6552
-17.4015
-17.1511
-22.4957
-22.3194
-22.14
-21.969
-21.7848
-21.5772
-21.386
-21.2036
-21.0171
-20.8109
-20.5981
-20.382
-20.1488
-19.9287
-19.7932
-19.6538
-19.5034
-19.3476
-19.1781
-18.9982
-18.8102
-18.6054
-18.3973
-18.1861
-17.9632
-17.727
-22.8339
-22.6139
-22.4255
-22.2474
-22.0632
-21.9105
-21.6967
-21.4947
-21.3057
-21.1293
-20.934
-20.7286
-20.5071
-20.2491
-20.0504
-19.9021
-19.7516
-19.5966
-19.4392
-19.2744
-19.1016
-18.9214
-18.7169
-18.5143
-18.3058
-23.3571
-23.1591
-22.9443
-22.7476
-22.5414
-22.362
-22.1769
-22.0009
-21.8029
-21.6072
-21.4282
-21.2364
-21.0529
-20.8461
-20.6255
-20.3407
-20.1553
-20.0136
-19.8577
-19.6976
-19.5379
-19.3742
-19.2051
-19.0299
-18.8232
-18.6619
-23.839
-23.6722
-23.4792
-23.2787
-23.0682
-22.8639
-22.69
-22.5223
-22.3105
-22.112
-21.9207
-21.7158
-21.5349
-21.3453
-21.1684
-20.9674
-20.7846
-20.5324
-20.2892
-20.1472
-19.9798
-19.8079
-19.6433
-19.4842
-19.323
-19.1157
-24.2518
-24.1122
-23.9591
-23.7867
-23.5992
-23.4007
-23.1983
-22.9964
-22.8234
-22.6528
-22.4375
-22.2423
-22.0497
-21.855
-21.6632
-21.4732
-21.2869
-21.089
-20.9124
-20.7191
-20.4663
-20.2883
-20.103
-19.9186
-19.7461
-19.5793
-19.3674
-24.5337
-24.3676
-24.2161
-24.0662
-23.8963
-23.7142
-23.5236
-23.331
-23.132
-22.943
-22.7554
-22.557
-22.364
-22.1725
-21.9756
-21.7882
-21.6127
-21.4133
-21.2165
-21.0272
-20.8513
-20.6172
-20.4063
-20.2255
-20.0555
-19.7922
-24.9456
-24.815
-24.646
-24.4759
-24.3154
-24.1627
-24.0025
-23.8232
-23.6443
-23.4613
-23.2561
-23.066
-22.8895
-22.6953
-22.498
-22.287
-22.0791
-21.8956
-21.7412
-21.5338
-21.3485
-21.158
-20.9632
-20.7644
-20.5623
-20.2914
-25.1814
-25.0386
-24.9016
-24.7497
-24.5847
-24.4154
-24.216
-24.0719
-23.944
-23.7831
-23.5755
-23.3641
-23.175
-23.0463
-22.839
-22.6112
-22.4017
-22.1898
-21.9962
-21.8346
-21.6491
-21.4642
-21.2883
-21.1323
-20.8132
-25.5961
-25.4388
-25.2791
-25.1349
-24.987
-24.8453
-24.7194
-24.5497
-24.2933
-24.1273
-24.0296
-23.8998
-23.6766
-23.4619
-23.2743
-23.1538
-22.9878
-22.7019
-22.51
-22.3349
-22.144
-21.954
-21.7602
-21.5801
-21.3929
-25.863
-25.7138
-25.5536
-25.3839
-25.2265
-25.0791
-24.9336
-24.8182
-24.6772
-24.4194
-24.2231
-24.0868
-23.9642
-23.7477
-23.5223
-23.3664
-23.2323
-23.065
-22.7953
-22.6248
-22.462
-22.2775
-22.088
-21.8961
-21.5786
-26.2872
-26.1245
-25.9759
-25.8271
-25.6624
-25.5002
-25.3359
-25.1727
-25.0215
-24.8769
-24.75
-24.5723
-24.3699
-24.1716
-24.0323
-23.8326
-23.5705
-23.4316
-23.2927
-23.1108
-22.9222
-22.7389
-22.58
-22.4034
-22.2752
-26.5602
-26.4051
-26.2413
-26.0848
-25.9253
-25.7666
-25.6086
-25.4268
-25.2418
-25.1033
-24.9059
-24.7695
-24.6486
-24.5061
-24.3444
-24.1566
-23.9368
-23.704
-23.5385
-23.3711
-23.1945
-23.0294
-22.8323
-22.6664
-22.4774
-26.924
-26.7885
-26.6469
-26.5052
-26.3552
-26.1981
-25.9971
-25.8469
-25.713
-25.533
-25.33
-25.1767
-24.9768
-24.8178
-24.7139
-24.5771
-24.4268
-24.2536
-24.0534
-23.8473
-23.6563
-23.4843
-23.316
-23.1727
-22.8557
-27.1373
-27.0086
-26.8792
-26.7416
-26.6002
-26.4861
-26.3517
-26.1421
-25.9708
-25.8203
-25.6625
-25.4727
-25.2819
-25.0751
-24.9157
-24.8013
-24.6593
-24.5046
-24.3417
-24.1556
-23.9617
-23.7702
-23.6028
-23.3866
-27.4818
-27.3542
-27.2195
-27.0904
-26.9609
-26.8335
-26.6998
-26.5924
-26.4863
-26.3113
-26.1426
-25.971
-25.7796
-25.5893
-25.3844
-25.1867
-25.0298
-24.9021
-24.751
-24.6011
-24.4463
-24.2594
-24.0775
-23.8906
-23.6712
-27.6996
-27.5722
-27.4423
-27.3073
-27.1741
-27.042
-26.9188
-26.7925
-26.695
-26.5885
-26.4482
-26.3108
-26.1496
-25.9354
-25.7429
-25.5098
-25.2928
-25.1522
-25.0081
-24.8507
-24.7008
-24.5415
-24.3686
-24.1601
-28.0346
-27.9165
-27.7874
-27.66
-27.5263
-27.3939
-27.2648
-27.1334
-27.0099
-26.8673
-26.761
-26.6674
-26.5452
-26.4301
-26.3103
-26.1114
-25.8789
-25.6558
-25.4479
-25.265
-25.1081
-24.9462
-24.8058
-24.6323
-24.4732
-28.2423
-28.1289
-28.008
-27.8778
-27.7482
-27.6185
-27.481
-27.3522
-27.239
-27.127
-26.9655
-26.8177
-26.7098
-26.5989
-26.4954
-26.3661
-26.2013
-25.9882
-25.786
-25.59
-25.4006
-25.2314
-25.0593
-24.8955
-28.5532
-28.4428
-28.3277
-28.2153
-28.0924
-27.9668
-27.8396
-27.7075
-27.5702
-27.4412
-27.3237
-27.2232
-27.0853
-26.9378
-26.7943
-26.6861
-26.5843
-26.4473
-26.2846
-26.0996
-25.9163
-25.7194
-25.5444
-25.3325
-25.2016
-28.7456
-28.6471
-28.5356
-28.4182
-28.2977
-28.1809
-28.0572
-27.9316
-27.801
-27.6654
-27.5453
-27.4038
-27.2692
-27.1562
-27.0378
-26.9023
-26.7878
-26.6843
-26.5427
-26.3869
-26.2118
-26.0358
-25.846
-25.6574
-28.9407
-28.8298
-28.7323
-28.6244
-28.5108
-28.3921
-28.2712
-28.148
-28.0213
-27.8924
-27.7678
-27.6647
-27.5375
-27.3912
-27.2528
-27.1181
-27.0011
-26.8929
-26.7824
-26.636
-26.4824
-26.3111
-26.1482
-26.0036
-29.2159
-29.1126
-29.0216
-28.9257
-28.8238
-28.7168
-28.6013
-28.4839
-28.3622
-28.2369
-28.109
-27.9815
-27.8594
-27.7505
-27.6301
-27.5003
-27.3588
-27.2098
-27.0782
-26.9721
-26.8591
-26.7224
-26.5802
-26.4164
-26.1683
-29.4098
-29.3001
-29.1974
-29.1029
-29.0144
-28.9164
-28.8059
-28.691
-28.5728
-28.4477
-28.3232
-28.1968
-28.0694
-27.9442
-27.8206
-27.6948
-27.5673
-27.4375
-27.3057
-27.1776
-27.0566
-26.9435
-26.815
-26.7041
-29.6189
-29.5048
-29.3856
-29.2793
-29.1807
-29.0842
-28.9875
-28.8896
-28.7788
-28.656
-28.5143
-28.4002
-28.2853
-28.1601
-28.0348
-27.9082
-27.7822
-27.6532
-27.5283
-27.4014
-27.275
-27.1455
-27.0368
-26.8672
-29.8308
-29.7049
-29.5955
-29.4764
-29.3654
-29.272
-29.1792
-29.0679
-28.9749
-28.879
-28.7534
-28.5863
-28.478
-28.3757
-28.2537
-28.1292
-28.0052
-27.8773
-27.7501
-27.624
-27.5017
-27.3741
-27.2311
-30.1137
-30.0127
-29.9119
-29.7989
-29.6828
-29.5693
-29.4572
-29.3585
-29.2669
-29.1599
-29.0624
-28.9783
-28.8692
-28.7064
-28.5807
-28.4708
-28.3486
-28.2264
-28.1018
-27.9795
-27.8512
-27.7276
-27.6079
-27.4917
-30.3304
-30.2103
-30.0941
-29.9918
-29.889
-29.7764
-29.6637
-29.5482
-29.4325
-29.3332
-29.2404
-29.144
-29.0484
-28.9421
-28.8087
-28.6825
-28.5633
-28.4424
-28.324
-28.2011
-28.0782
-27.9506
-27.8382
-27.65
-30.5275
-30.4082
-30.297
-30.183
-30.0767
-29.974
-29.8673
-29.7637
-29.6525
-29.5088
-29.4005
-29.3217
-29.2269
-29.1236
-29.0131
-28.8928
-28.7721
-28.6528
-28.5344
-28.4185
-28.3007
-28.1807
-28.0531
-30.8238
-30.7185
-30.6113
-30.4992
-30.3854
-30.2724
-30.1647
-30.0585
-29.9541
-29.8639
-29.7776
-29.6266
-29.4862
-29.4065
-29.3144
-29.2094
-29.0989
-28.9847
-28.8655
-28.7465
-28.6283
-28.5139
-28.3937
-28.2638
-31.0243
-30.9133
-30.8061
-30.6957
-30.5809
-30.467
-30.3591
-30.2509
-30.1406
-30.0268
-29.9384
-29.8789
-29.7506
-29.5775
-29.4843
-29.4032
-29.2992
-29.1877
-29.0723
-28.9611
-28.8407
-28.7247
-28.6136
-28.4872
-31.2033
-31.103
-30.9963
-30.8894
-30.7834
-30.6706
-30.5559
-30.4489
-30.3438
-30.2282
-30.1099
-30.0076
-29.9572
-29.8732
-29.7091
-29.5804
-29.4954
-29.3901
-29.2742
-29.1597
-29.0536
-28.9334
-28.8285
-28.6549
-31.4034
-31.288
-31.1893
-31.0857
-30.9781
-30.8699
-30.7561
-30.6456
-30.5475
-30.4568
-30.3377
-30.2159
-30.0975
-30.0288
-29.9673
-29.8356
-29.701
-29.591
-29.4788
-29.3629
-29.2463
-29.1432
-29.0255
-31.697
-31.5991
-31.491
-31.3812
-31.2762
-31.1737
-31.0674
-30.9588
-30.8449
-30.7359
-30.6464
-30.5743
-30.4551
-30.3232
-30.1947
-30.1007
-30.0371
-29.9252
-29.8029
-29.685
-29.5688
-29.4536
-29.3348
-29.2137
-31.899
-31.7883
-31.689
-31.5822
-31.4715
-31.367
-31.2631
-31.1575
-31.0489
-30.936
-30.8277
-30.7363
-30.6707
-30.5843
-30.4426
-30.312
-30.208
-30.1262
-30.0164
-29.9006
-29.7814
-29.6631
-29.5415
-29.4198
-32.1103
-32.0014
-31.891
-31.7871
-31.6761
-31.5664
-31.4594
-31.3537
-31.2476
-31.1383
-31.026
-30.9169
-30.8133
-30.7308
-30.6667
-30.5511
-30.4282
-30.3286
-30.2273
-30.112
-29.9953
-29.8825
-29.7606
-32.294
-32.2006
-32.0942
-31.9838
-31.8817
-31.7706
-31.6597
-31.552
-31.4458
-31.3389
-31.2283
-31.1161
-31.0076
-30.8859
-30.7841
-30.7227
-30.6375
-30.5282
-30.428
-30.3215
-30.2057
-30.0891
-29.9605
-32.4755
-32.3771
-32.2811
-32.1807
-32.0771
-31.9714
-31.8611
-31.7524
-31.6441
-31.5359
-31.4287
-31.3189
-31.2155
-31.1281
-31.0156
-30.8932
-30.8049
-30.7205
-30.6209
-30.5226
-30.4148
-30.3037
-30.2051
-32.6747
-32.5639