/*--------------------------------*- C++ -*----------------------------------*\
| =========                 |                                                 |
| \\      /  F ield         | OpenFOAM: The Open Source CFD Toolbox           |
|  \\    /   O peration     | Version:  5.x                                   |
|   \\  /    A nd           | Web:      www.OpenFOAM.org                      |
|    \\/     M anipulation  |                                                 |
\*---------------------------------------------------------------------------*/
FoamFile
{
    version     2.0;
    format      ascii;
    class       volScalarField;
    location    "600";
    object      epsilon;
}
// * * * * * * * * * * * * * * * * * * * * * * * * * * * * * * * * * * * * * //

dimensions      [0 2 -3 0 0 0 0];

internalField   nonuniform List<scalar> 
20540
(
0.241032
0.157973
0.241032
0.258822
0.241032
0.347297
0.241032
0.418203
0.241032
0.466915
0.241032
0.489712
0.241032
0.484622
0.241032
0.45208
0.241032
0.395584
0.241032
0.32204
0.241032
0.241376
0.241032
0.164971
0.241032
0.10268
0.241032
0.0591027
0.241032
0.0326677
0.241032
0.0204322
0.241032
0.0171312
0.241032
0.0165628
0.241032
0.016475
0.241032
0.0164608
0.241032
0.0164587
0.241032
0.016459
0.241032
0.0164598
0.241032
0.016461
0.241032
0.0164624
0.241032
0.0164642
0.241032
0.0164661
0.241032
0.0164683
0.241032
0.0164705
0.241032
0.0164725
0.241032
0.016474
0.241032
0.0164747
0.241032
0.0164747
0.241032
0.016474
0.241032
0.0164725
0.241032
0.0164705
0.241032
0.0164684
0.241032
0.0164663
0.241032
0.0164644
0.241032
0.0164627
0.241032
0.0164612
0.241032
0.01646
0.241032
0.0164591
0.241032
0.0164587
0.241032
0.0164595
0.241032
0.0164663
0.241032
0.0165064
0.241032
0.01675
0.241032
0.018226
0.241032
0.0250067
0.241032
0.0432241
0.241032
0.0759604
0.241032
0.125888
0.241032
0.192432
0.241032
0.269216
0.241032
0.346409
0.241032
0.413852
0.241032
0.463204
0.241032
0.488955
0.241032
0.488561
0.241032
0.462056
0.241032
0.41151
0.241032
0.340537
0.241032
0.253841
0.241032
0.158308
654831
641979
597341
564756
541008
523132
509194
497994
488790
481101
474593
469023
464210
460017
456338
453092
450212
447645
445346
443279
441414
439726
438195
436802
435533
434372
433308
432331
431432
430603
429838
429131
428478
427873
427314
426796
426317
425874
425466
425091
424747
424435
424154
423905
423688
423507
423362
423257
423195
423182
423222
423320
423484
423718
424032
424431
424925
425523
426237
427079
428062
429200
430575
431646
432741
433848
435019
436256
437558
438925
440357
441857
443423
445059
446767
448548
450408
452351
454384
456517
458763
461142
463681
466435
469456
473092
478045
497754
696500
544906
482873
447903
424614
407829
395050
384923
376681
369845
364091
359187
354964
351295
348083
345253
342747
340516
338519
336726
335109
333647
332321
331115
330016
329012
328092
327247
326469
325753
325091
324481
323916
323393
322910
322463
322050
321669
321318
320997
320704
320439
320203
319996
319821
319679
319573
319505
319482
319507
319586
319725
319931
320210
320570
321020
321569
322229
323011
323927
325002
326222
327769
329037
330247
331419
332687
334044
335482
337001
338599
340280
342046
343899
345844
347887
350032
352291
354673
357193
359874
362744
365849
369250
373107
377512
383439
382223
470752
381862
337023
312184
295899
284267
275460
268505
262857
258180
254247
250898
248015
245512
243321
241391
239683
238161
236801
235578
234476
233479
232575
231753
231004
230319
229692
229116
228586
228097
227646
227229
226844
226488
226158
225853
225571
225311
225072
224852
224652
224471
224310
224169
224049
223952
223879
223832
223816
223832
223885
223980
224119
224309
224553
224859
225232
225680
226210
226833
227561
228390
229425
230264
231096
231904
232760
233673
234640
235660
236732
237858
239039
240276
241572
242929
244352
245845
247413
249067
250817
252678
254675
256841
259237
261927
264628
260184
326158
281058
247946
229372
217293
208720
202260
197175
193056
189649
186788
184354
182260
180442
178852
177452
176212
175109
174122
173236
172437
171714
171059
170463
169920
169424
168969
168552
168167
167813
167486
167184
166905
166646
166407
166186
165981
165792
165618
165459
165313
165181
165064
164960
164872
164800
164745
164709
164694
164702
164736
164799
164894
165023
165192
165403
165661
165971
166339
166770
167275
167851
168557
169118
169699
170271
170864
171492
172156
172854
173587
174356
175159
175999
176877
177793
178749
179749
180794
181890
183041
184256
185545
186925
188403
190013
191133
187503
229534
213809
189206
174834
165501
158908
153961
150081
146945
144356
142185
140339
138752
137376
136172
135113
134176
133341
132595
131925
131322
130776
130281
129830
129420
129045
128702
128386
128096
127828
127581
127353
127142
126947
126766
126599
126444
126301
126169
126048
125938
125837
125747
125668
125600
125544
125500
125470
125455
125457
125477
125519
125583
125672
125789
125936
126117
126334
126593
126897
127252
127659
128147
128525
128934
129344
129762
130201
130663
131148
131656
132186
132740
133316
133916
134540
135189
135863
136564
137293
138053
138847
139678
140551
141453
142387
142771
140431
161930
165815
147869
136551
129150
123932
120031
116981
114523
112498
110801
109361
108124
107051
106114
105290
104561
103912
103332
102811
102342
101918
101533
101183
100865
100573
100306
100061
99835.9
99628
99436.2
99258.9
99095
98943.2
98802.8
98672.7
98552.4
98441.1
98338.5
98244.1
98157.7
98079.1
98008.5
97945.9
97891.6
97846
97809.8
97783.7
97768.6
97765.7
97776.5
97802.3
97844.6
97905.2
97985.7
98088.2
98214.7
98367.7
98549.9
98764.2
99014
99302.7
99639.8
99894.5
100181
100474
100770
101079
101401
101738
102089
102456
102836
103231
103640
104063
104500
104952
105419
105900
106396
106908
107434
107975
108507
109016
109070
107708
113249
129816
117385
108448
102487
98277.1
95136.5
92689.5
90721.9
89104
87750.6
86602.8
85618.2
84765.4
84020.7
83366.1
82787.1
82272.2
81812.1
81399.1
81027
80690.7
80385.8
80108.7
79856.2
79625.4
79413.9
79219.8
79041.2
78876.5
78724.5
78584.1
78454.2
78334
78222.6
78119.5
78024
77935.7
77854.1
77779
77710
77647.2
77590.4
77539.7
77495.4
77457.7
77426.9
77403.7
77388.4
77382.2
77385.9
77400.5
77427.2
77467.1
77521.4
77591.4
77678.7
77784.9
77911.9
78061.6
78235.9
78438.5
78669.4
78838.7
79035.1
79242.2
79450.4
79664.9
79887.7
80119.4
80360.1
80609.5
80867.6
81134
81408.5
81690.8
81980.6
82277.6
82581.4
82891.3
83206.8
83526.5
83847.8
84167.6
84461.3
84708.3
84620
83843.9
77712.6
101780
94095.4
87132.9
82305.8
78868.8
76304.3
74310.4
72710.8
71397.9
70301.3
69372.6
68576.7
67888
67287.1
66759.1
66292.4
65877.6
65507
65174.5
64875
64604.4
64359.1
64136.2
63933.1
63747.5
63577.5
63421.4
63277.7
63145.3
63023.1
62910.2
62805.8
62709.1
62619.5
62536.5
62459.6
62388.4
62322.6
62261.9
62206
62154.9
62108.5
62066.9
62030
61998.2
61971.6
61950.6
61935.3
61926.7
61925.3
61931.9
61947.1
61971.8
62006.8
62053
62111.5
62183.3
62269.7
62372
62491.1
62630.3
62785.1
62894.8
63025.5
63167.6
63310.7
63457
63607.8
63763.7
63924.5
64090.3
64260.8
64435.6
64614.5
64797
64982.8
65171.1
65361.4
65552.7
65743.9
65933.2
66117
66291
66432.6
66521.3
66375.2
65899.8
51763.1
79305.7
75783.8
70554
66666.2
63847.4
61735.2
60093.4
58778.2
57700.3
56801.2
56040.7
55389.7
54826.8
54336
53905.2
53524.5
53186.3
52884.4
52613.5
52369.6
52149.3
51949.7
51768.3
51603
51452
51313.6
51186.7
51069.8
50962.1
50862.8
50770.9
50685.9
50607.3
50534.4
50466.8
50404.2
50346.1
50292.4
50242.7
50196.9
50154.8
50116.4
50081.7
50050.7
50023.4
50000.1
49981
49966
49955.8
49950.8
49951.4
49958.2
49971.8
49992.6
50021.3
50058.5
50104.9
50161.3
50228.6
50307
50399.3
50499.3
50567.4
50650.3
50743.6
50838.2
50934.4
51032.9
51133.8
51237.1
51342.8
51450.6
51560.2
51671.2
51783.3
51895.9
52008.3
52120
52229.8
52336.4
52438
52530.9
52610.3
52657.2
52654.8
52488.4
52151.3
33054.8
60904.2
61018.5
57382.7
54316
52014.2
50270.2
48910.6
47821.3
46929.1
46185.5
45557.1
45019.7
44555.4
44150.9
43796
43482.6
43204.3
42955.9
42733.2
42532.8
42351.7
42187.7
42038.7
41903
41779
41665.4
41561.1
41465.2
41376.8
41295.2
41219.8
41150.1
41085.5
41025.6
40970.1
40918.6
40870.8
40826.5
40785.4
40747.5
40712.5
40680.5
40651.2
40624.8
40601.3
40580.7
40563.2
40548.6
40537.5
40530
40526.4
40527.2
40532.7
40543.1
40558.9
40580.4
40608.2
40642.5
40684
40732.6
40790.2
40851
40890.2
40939
40996.1
41054.7
41114.3
41174.7
41236.1
41298.3
41361.1
41424.5
41488
41551.5
41614.4
41676.3
41736.6
41794.6
41849.4
41899.7
41943.6
41977.9
41998.1
41988.7
41937.4
41769
41496.3
19927.1
45640.4
48830.9
46712.5
44402.8
42555.3
41123.5
39997.8
39093.1
38351.4
37733.2
37210.8
36764.3
36378.7
36043
35748.6
35488.7
35258.1
35052.3
34867.8
34701.9
34552
34416.2
34293
34180.7
34078.1
33984.1
33897.9
33818.6
33745.5
33678
33615.6
33557.9
33504.5
33454.9
33409
33366.3
33326.7
33289.9
33255.7
33224.1
33194.8
33167.7
33142.9
33120.3
33099.9
33081.6
33065.5
33051.6
33040
33030.9
33024.6
33021.1
33020.8
33023.7
33030.2
33040.4
33054.5
33072.8
33095.5
33122.5
33154.9
33187.9
33207.4
33232.4
33263.4
33295.8
33328.8
33362.1
33395.3
33428.5
33461.4
33493.8
33525.6
33556.3
33585.7
33613.3
33638.8
33661.3
33680.1
33694
33701.5
33699.7
33684.6
33644.2
33570.1
33410.2
33176.8
11114
32948
38548.8
37896.9
36320.1
34893.6
33739.5
32815.5
32066.9
31450.7
30936
30500.7
30128.5
29807.1
29527.2
29281.9
29065.4
28873.2
28701.9
28548.3
28410.1
28285.3
28172.4
28069.8
27976.3
27891
27812.9
27741.1
27675.1
27614.3
27558.1
27506.3
27458.3
27413.8
27372.6
27334.3
27298.7
27265.7
27234.9
27206.3
27179.7
27155.1
27132.2
27111
27091.5
27073.7
27057.4
27042.8
27029.6
27018
27008.1
26999.9
26993.6
26989.3
26987.1
26987
26989.2
26993.7
27000.6
27010
27021.6
27036.1
27049.8
27056.1
27065.1
27078
27091.9
27106.2
27120.4
27134.2
27147.4
27159.9
27171.5
27181.9
27190.9
27198.3
27203.7
27206.6
27206.6
27203
27194.7
27180.5
27157.9
27123.6
27068.5
26987.2
26842.3
26642.9
5577.7
22517.6
29710.8
30459.3
29618.7
28603.9
27710.4
26969
26357.8
25850
25423.7
25061.9
24752
24484
24250.5
24045.7
23865
23704.6
23561.5
23433.2
23317.8
23213.6
23119.3
23033.6
22955.6
22884.4
22819.1
22759.2
22704
22653.2
22606.3
22563
22522.9
22485.7
22451.3
22419.2
22389.5
22361.8
22336
22312
22289.6
22268.7
22249.2
22231.1
22214.3
22198.7
22184.3
22171
22158.8
22147.5
22137.2
22128.1
22120.1
22113.3
22107.6
22103.1
22099.9
22097.8
22096.9
22097.2
22098.2
22100.5
22101.3
22099.1
22097.9
22098.9
22100.4
22102
22103.4
22104.2
22104.3
22103.5
22101.5
22098.3
22093.7
22087.3
22079
22068.4
22055.1
22038.4
22017.7
21991.7
21958.5
21915.5
21856.1
21776.4
21650.2
21483.9
2421.82
14213.6
22026.2
24044.5
23955
23362
22727.1
22160.4
21676.5
21266.7
20918.6
20621.2
20365.1
20143
19949
19778.6
19628.1
19494.3
19374.9
19267.8
19171.5
19084.5
19005.6
18934.1
18868.9
18809.3
18754.7
18704.6
18658.5
18616
18576.7
18540.4
18506.9
18475.8
18446.9
18420.1
18395.1
18371.9
18350.2
18329.9
18311
18293.3
18276.8
18261.3
18246.7
18233.1
18220.4
18208.4
18197.2
18186.5
18176.5
18167
18158.1
18149.9
18142.1
18135
18128.3
18122
18116.1
18110.4
18104.7
18099
18091.6
18084.3
18077
18070.7
18064.5
18058.1
18051.5
18044.2
18036.1
18027.1
18017.1
18005.8
17993.2
17979
17963.1
17945.1
17924.7
17901.5
17874.8
17843.6
17806.6
17761.4
17703.6
17630.4
17524.2
17388.9
862.115
7989.42
15362.5
18396.7
19060.9
18912.5
18547.6
18157.9
17799
17482.5
17207.4
16968.7
16761.2
16579.9
16420.8
16280.5
16156.3
16045.6
15946.6
15857.7
15777.6
15705.3
15639.7
15580.1
15525.7
15476.1
15430.5
15388.7
15350.2
15314.7
15281.9
15251.6
15223.5
15197.5
15173.3
15150.9
15130
15110.5
15092.3
15075.2
15059.3
15044.3
15030.2
15017
15004.5
14992.7
14981.5
14970.9
14960.8
14950.9
14941.3
14932
14923
14914.1
14905.4
14896.8
14888.2
14879.5
14870.7
14861.5
14851.8
14841.4
14829.3
14819.3
14808.8
14798.6
14788.1
14777.3
14766
14754.2
14741.7
14728.3
14713.9
14698.5
14681.9
14663.9
14644.4
14623.2
14600
14574.4
14545.9
14513.7
14476.8
14433.4
14380.5
14316.1
14229.1
14121.2
239.124
3783.23
9741.8
13361.2
14730.6
15050.1
14976.5
14775.6
14546.6
14324.8
14121.7
13939.8
13778.3
13635.2
13508.3
13395.5
13295
13205
13124.3
13051.6
12985.9
12926.4
12872.4
12823.3
12778.4
12737.4
12699.7
12665
12633.1
12603.7
12576.4
12551.3
12527.9
12506.3
12486.2
12467.5
12450.1
12433.8
12418.6
12404.4
12391
12378.4
12366.5
12355.3
12344.7
12334.5
12324.8
12315.5
12306.5
12297.6
12288.8
12280
12271.3
12262.5
12253.6
12244.5
12235.2
12225.5
12215.2
12204.4
12192.7
12180
12165.8
12154.6
12142.9
12131
12118.7
12105.9
12092.6
12078.8
12064.4
12049.2
12033.1
12016.2
11998.2
11979.1
11958.8
11937
11913.6
11888.2
11860.5
11829.8
11795.3
11755.7
11709.2
11654.4
11584.7
11500
52.1345
1385.71
5315.96
8904.2
10824.2
11611.6
11853.1
11860.2
11773.2
11652.8
11525.2
11401.6
11286.5
11181.2
11085.6
10999.3
10921.3
10851
10787.3
10729.5
10677.1
10629.5
10586.1
10546.4
10510.2
10476.9
10446.3
10418.1
10392.1
10368.1
10345.8
10325.2
10306.1
10288.4
10271.9
10256.6
10242.2
10228.9
10216.3
10204.6
10193.5
10183
10173.1
10163.7
10154.8
10146.2
10137.9
10129.9
10122.1
10114.3
10106.5
10098.5
10090.4
10082.2
10073.6
10064.8
10055.5
10045.7
10035.2
10024
10011.8
9998.5
9983.81
9972.65
9960.9
9948.86
9936.28
9923.21
9909.67
9895.6
9880.93
9865.63
9849.62
9832.85
9815.24
9796.7
9777.13
9756.39
9734.31
9710.64
9685.07
9657.15
9626.25
9591.54
9551.86
9506.36
9451.53
9385.56
9.62512
349.631
2276.07
5138.29
7291.22
8481.52
9047.57
9283.37
9355.54
9348.55
9304.49
9244.45
9178.95
9113.32
9050.26
8990.98
8935.9
8885.01
8838.16
8795.11
8755.61
8719.38
8686.14
8655.61
8627.5
8601.59
8577.65
8555.51
8535.02
8516.02
8498.42
8482.08
8466.9
8452.79
8439.66
8427.4
8415.95
8405.22
8395.15
8385.68
8376.74
8368.28
8360.23
8352.56
8345.21
8338.12
8331.25
8324.54
8317.92
8311.35
8304.62
8297.7
8290.56
8283.15
8275.4
8267.25
8258.6
8249.37
8239.44
8228.72
8216.98
8204.19
8190.18
8179.71
8168.71
8157.38
8145.52
8133.19
8120.41
8107.13
8093.33
8078.98
8064.03
8048.45
8032.16
8015.12
7997.23
7978.38
7958.44
7937.23
7914.5
7889.93
7863.09
7833.46
7800.4
7763.46
7720.85
7669.86
1.57659
57.4887
659.559
2312.49
4213.15
5618.01
6469.4
6941.54
7189.63
7311.35
7362.68
7374.82
7365.2
7343.84
7316.54
7286.65
7256.08
7225.9
7196.75
7168.99
7142.83
7118.31
7095.42
7074.06
7054.16
7035.59
7018.29
7002.15
6987.11
6973.1
6960.04
6947.88
6936.54
6925.95
6916.06
6906.81
6898.14
6889.98
6882.31
6875.05
6868.18
6861.65
6855.42
6849.45
6843.69
6838.1
6832.64
6827.26
6821.91
6816.57
6811.07
6805.33
6799.31
6792.99
6786.29
6779.17
6771.54
6763.32
6754.42
6744.74
6734.11
6722.52
6709.87
6700.5
6690.66
6680.5
6669.88
6658.83
6647.36
6635.46
6623.1
6610.25
6596.91
6583.02
6568.55
6553.44
6537.64
6521.06
6503.6
6485.11
6465.44
6444.35
6421.58
6396.85
6369.85
6340.41
6307.58
6268.38
0.23313
7.09511
110.734
676.712
1834.42
3103
4097.79
4769.41
5194.57
5456.8
5616.35
5711.72
5766.88
5796.78
5810.69
5814.41
5811.61
5804.71
5795.3
5784.48
5772.96
5761.21
5749.5
5738.01
5726.86
5716.11
5705.82
5696.01
5686.7
5677.89
5669.58
5661.76
5654.38
5647.44
5640.9
5634.74
5628.91
5623.39
5618.16
5613.18
5608.42
5603.87
5599.49
5595.26
5591.14
5587.11
5583.12
5579.15
5575.15
5571.09
5566.93
5562.48
5557.74
5552.66
5547.21
5541.32
5534.94
5528
5520.42
5512.12
5502.96
5492.93
5481.99
5473.92
5465.44
5456.66
5447.5
5437.95
5428.02
5417.72
5407.02
5395.9
5384.35
5372.33
5359.83
5346.8
5333.19
5318.95
5303.99
5288.22
5271.53
5253.8
5234.87
5214.62
5192.96
5169.84
5144.72
5114.7
0.0346147
0.745527
11.5138
105.197
478.567
1195.98
2041.62
2778.43
3333.09
3726.67
3999.3
4186.81
4316.12
4405.74
4468.01
4511.23
4541.06
4561.43
4575.09
4583.97
4589.39
4592.3
4593.38
4593.1
4591.85
4589.91
4587.49
4584.76
4581.84
4578.82
4575.77
4572.72
4569.71
4566.77
4563.89
4561.08
4558.35
4555.69
4553.1
4550.58
4548.12
4545.71
4543.34
4540.99
4538.65
4536.31
4533.92
4531.48
4528.95
4526.3
4523.54
4520.52
4517.18
4513.48
4509.41
4504.91
4499.94
4494.44
4488.34
4481.58
4474.06
4465.76
4456.69
4449.98
4442.91
4435.56
4427.88
4419.86
4411.51
4402.83
4393.8
4384.4
4374.64
4364.48
4353.9
4342.88
4331.38
4319.36
4306.78
4293.57
4279.67
4265.02
4249.57
4233.29
4216.17
4198.24
4179.12
4156.2
0.00739051
0.0690688
0.942858
9.12084
59.6185
242.306
618.18
1132.92
1664.65
2122.01
2481.21
2754.56
2960.78
3116.03
3233.13
3322.05
3390.21
3442.97
3484.16
3516.55
3542.15
3562.5
3578.73
3591.74
3602.21
3610.67
3617.54
3623.15
3627.72
3631.47
3634.54
3637.05
3639.1
3640.76
3642.09
3643.14
3643.97
3644.59
3645.03
3645.33
3645.49
3645.53
3645.45
3645.25
3644.94
3644.51
3643.95
3643.24
3642.37
3641.31
3640.07
3638.64
3636.84
3634.68
3632.12
3629.13
3625.69
3621.73
3617.22
3612.1
3606.29
3599.78
3592.59
3587.24
3581.54
3575.58
3569.34
3562.79
3555.95
3548.8
3541.35
3533.59
3525.49
3517.06
3508.27
3499.11
3489.56
3479.59
3469.18
3458.3
3446.93
3435.05
3422.66
3409.78
3396.44
3382.68
3368.2
3350.78
0.00242374
0.00611489
0.0656285
0.599311
4.07881
21.2671
82.7047
229.694
473.909
786.761
1119.19
1426.89
1687.42
1898.71
2068.19
2204.58
2314.95
2404.64
2477.77
2537.68
2587.06
2628.09
2662.44
2691.44
2716.1
2737.21
2755.37
2771.09
2784.75
2796.66
2807.1
2816.28
2824.37
2831.55
2837.92
2843.6
2848.67
2853.22
2857.31
2860.98
2864.29
2867.26
2869.93
2872.3
2874.41
2876.26
2877.85
2879.19
2880.26
2881.07
2881.6
2881.88
2881.85
2881.4
2880.53
2879.21
2877.42
2875.13
2872.29
2868.88
2864.82
2860.12
2854.8
2850.77
2846.41
2841.79
2836.9
2831.74
2826.31
2820.6
2814.61
2808.34
2801.78
2794.93
2787.78
2780.31
2772.53
2764.42
2755.98
2747.2
2738.09
2728.65
2718.91
2708.9
2698.66
2688.21
2677.33
2664.16
0.00184248
0.000886069
0.00404527
0.0328504
0.214484
1.12222
4.87506
17.7192
52.8536
126.629
247.026
408.396
596.064
792.201
980.67
1150.63
1297.54
1421.67
1525.92
1613.8
1688.49
1752.52
1807.76
1855.63
1897.25
1933.54
1965.28
1993.13
2017.66
2039.36
2058.63
2075.83
2091.24
2105.11
2117.64
2128.99
2139.31
2148.72
2157.31
2165.17
2172.38
2178.98
2185.04
2190.59
2195.67
2200.3
2204.52
2208.33
2211.74
2214.78
2217.43
2219.7
2221.66
2223.18
2224.21
2224.76
2224.81
2224.33
2223.3
2221.7
2219.47
2216.62
2213.18
2210.47
2207.42
2204.11
2200.54
2196.7
2192.6
2188.25
2183.64
2178.77
2173.64
2168.26
2162.63
2156.74
2150.59
2144.2
2137.56
2130.69
2123.59
2116.3
2108.83
2101.23
2093.53
2085.73
2077.65
2067.82
0.00181832
0.000333914
0.000315574
0.00154325
0.00929225
0.0469335
0.200758
0.744304
2.43155
7.06056
18.1855
41.1138
81.1875
141.188
220.135
314.15
418.002
526.221
633.789
736.643
831.97
918.243
995.027
1062.68
1122.04
1174.13
1220.02
1260.68
1296.91
1329.41
1358.7
1385.24
1409.36
1431.34
1451.42
1469.8
1486.64
1502.1
1516.3
1529.36
1541.39
1552.47
1562.68
1572.1
1580.78
1588.79
1596.16
1602.94
1609.15
1614.83
1619.99
1624.65
1628.84
1632.63
1635.86
1638.55
1640.67
1642.23
1643.21
1643.6
1643.36
1642.49
1641.03
1639.68
1637.98
1636.01
1633.77
1631.27
1628.51
1625.5
1622.25
1618.76
1615.04
1611.09
1606.93
1602.55
1597.98
1593.21
1588.26
1583.15
1577.9
1572.52
1567.04
1561.49
1555.9
1550.26
1544.45
1537.3
0.00181797
0.000298835
8.24316e-05
8.9938e-05
0.000342988
0.00159518
0.00661412
0.0240856
0.0780924
0.228607
0.611378
1.50715
3.44826
7.33828
14.4905
26.4724
44.7471
70.259
103.18
142.922
188.358
238.092
290.682
344.762
399.113
452.691
504.649
554.339
601.311
645.285
686.137
723.86
758.539
790.322
819.4
845.984
870.293
892.54
912.93
931.651
948.875
964.754
979.422
992.996
1005.58
1017.25
1028.09
1038.16
1047.51
1056.19
1064.22
1071.64
1078.47
1084.76
1090.56
1095.75
1100.32
1104.27
1107.61
1110.32
1112.38
1113.8
1114.6
1114.79
1114.61
1114.14
1113.38
1112.34
1111.05
1109.5
1107.72
1105.7
1103.48
1101.04
1098.41
1095.61
1092.63
1089.51
1086.24
1082.86
1079.37
1075.79
1072.15
1068.45
1064.72
1060.97
1057.09
1052.27
0.00181828
0.000297968
6.85731e-05
2.34887e-05
1.98654e-05
4.86146e-05
0.000175257
0.000614844
0.00195914
0.00567374
0.0150795
0.0371334
0.085481
0.185275
0.380101
0.741579
1.38199
2.46775
4.22749
6.9473
10.9492
16.5551
24.0442
33.6141
45.355
59.2429
75.1489
92.8624
112.119
132.627
154.093
176.233
198.789
221.528
244.247
266.772
288.956
310.678
331.838
352.359
372.18
391.256
409.556
427.062
443.763
459.658
474.751
489.049
502.567
515.316
527.315
538.577
549.12
558.959
568.155
576.75
584.641
591.826
598.303
604.071
609.124
613.459
617.097
619.17
620.842
622.169
623.173
623.872
624.284
624.427
624.32
623.978
623.419
622.66
621.716
620.605
619.34
617.938
616.414
614.782
613.057
611.252
609.38
607.453
605.482
603.472
601.394
598.794
0.00181863
0.000297998
6.82611e-05
2.06352e-05
8.05779e-06
4.73933e-06
5.75368e-06
1.34036e-05
3.83439e-05
0.00010756
0.000282047
0.000689289
0.0015789
0.00341159
0.00699167
0.0136575
0.0255496
0.0459678
0.0798032
0.134032
0.218276
0.345454
0.532511
0.801097
1.17798
1.69495
2.38808
3.29629
4.45938
5.91584
7.70055
9.84275
12.3644
15.2793
18.5921
22.299
26.3877
30.8385
35.6256
40.7182
46.0816
51.6788
57.4714
63.4203
69.487
75.6335
81.8235
88.0218
94.1953
100.312
106.343
112.259
118.035
123.644
129.065
134.309
139.415
144.359
149.119
153.675
158.007
162.097
165.925
168.327
170.545
172.587
174.462
176.174
177.731
179.14
180.407
181.541
182.548
183.436
184.214
184.887
185.464
185.953
186.359
186.691
186.954
187.155
187.301
187.396
187.447
187.458
187.433
187.364
0.001819
0.000298044
6.82672e-05
2.05857e-05
7.73868e-06
3.47591e-06
1.8414e-06
1.22961e-06
1.22496e-06
1.96201e-06
4.16921e-06
9.50039e-06
2.12235e-05
4.53734e-05
9.24956e-05
0.000180159
0.000336459
0.000604714
0.00104934
0.00176288
0.00287411
0.00455756
0.00704455
0.0106354
0.0157118
0.0227486
0.0323228
0.0451201
0.0619397
0.0836961
0.111421
0.146263
0.189482
0.242444
0.306605
0.383484
0.474635
0.581599
0.705856
0.848764
1.0115
1.19499
1.39984
1.62632
1.87424
2.14294
2.43126
2.73749
3.05935
3.39396
3.73787
4.08706
4.4369
4.78209
5.11579
5.44977
5.79929
6.16225
6.53635
6.91917
7.30813
7.70059
8.09379
8.35147
8.60111
8.84219
9.07427
9.297
9.51016
9.71359
9.90724
10.0911
10.2654
10.4301
10.5856
10.732
10.8697
10.9989
11.1201
11.2335
11.3397
11.4389
11.5315
11.618
11.6987
11.774
11.8442
11.9126
0.00181934
0.000298088
6.82771e-05
2.05879e-05
7.7355e-06
3.45651e-06
1.76949e-06
1.00914e-06
6.29882e-07
4.29533e-07
3.28936e-07
3.02354e-07
3.57174e-07
5.34684e-07
9.20904e-07
1.66546e-06
3.01036e-06
5.32985e-06
9.1815e-06
1.53684e-05
2.50119e-05
3.96351e-05
6.12575e-05
9.24994e-05
0.000136691
0.000197978
0.00028142
0.000393065
0.000540004
0.000730405
0.000973517
0.00127965
0.00166012
0.00212714
0.00269366
0.00337313
0.0041791
0.00512473
0.00622214
0.00748154
0.00891018
0.0105111
0.0122815
0.0142112
0.0162804
0.0184581
0.020699
0.0229422
0.0251083
0.0270981
0.0287908
0.0300408
0.0306803
0.0306708
0.0307526
0.0309211
0.0311759
0.0315158
0.0319394
0.0324446
0.0330287
0.0336882
0.0344186
0.0349292
0.0354525
0.0359849
0.0365233
0.0370645
0.0376057
0.0381445
0.0386784
0.0392054
0.0397239
0.0402321
0.0407289
0.0412132
0.041684
0.0421408
0.0425831
0.0430105
0.0434228
0.0438201
0.0442022
0.0445694
0.0449219
0.04526
0.045584
0.0459128
0.00181958
0.000298119
6.8284e-05
2.05899e-05
7.73616e-06
3.45664e-06
1.76897e-06
1.00701e-06
6.2358e-07
4.13008e-07
2.88895e-07
2.11493e-07
1.61138e-07
1.27609e-07
1.05548e-07
9.23961e-08
8.74897e-08
9.17397e-08
1.07659e-07
1.39597e-07
1.94088e-07
2.80307e-07
4.10602e-07
6.01102e-07
8.72369e-07
1.25006e-06
1.76553e-06
2.45634e-06
3.36669e-06
4.54753e-06
6.05663e-06
7.95822e-06
1.03224e-05
1.3224e-05
1.67409e-05
2.09517e-05
2.59318e-05
3.17492e-05
3.84571e-05
4.60866e-05
5.4635e-05
6.40538e-05
7.42335e-05
8.49867e-05
9.60308e-05
0.000106972
0.000117291
0.000126342
0.00013334
0.000137413
0.000137645
0.000135988
0.000134475
0.000133052
0.000131713
0.000130449
0.000129254
0.000128122
0.000127047
0.000126022
0.000125042
0.000124102
0.000123197
0.000122629
0.000122088
0.000121571
0.000121078
0.000120607
0.000120157
0.000119727
0.000119317
0.000118926
0.000118554
0.0001182
0.000117865
0.000117548
0.00011725
0.00011697
0.000116708
0.000116465
0.000116241
0.000116035
0.000115847
0.000115678
0.000115526
0.000115392
0.000115276
0.000115226
0.00181969
0.000298134
6.82873e-05
2.05908e-05
7.73649e-06
3.45679e-06
1.76904e-06
1.00704e-06
6.23564e-07
4.12912e-07
2.8863e-07
2.10869e-07
1.59781e-07
1.24814e-07
1.00039e-07
8.19627e-08
6.84416e-08
5.81155e-08
5.00967e-08
4.37942e-08
3.88105e-08
3.48793e-08
3.18277e-08
2.95521e-08
2.80039e-08
2.71803e-08
2.71182e-08
2.78912e-08
2.96065e-08
3.24032e-08
3.64491e-08
4.19381e-08
4.90845e-08
5.81166e-08
6.92654e-08
8.2751e-08
9.87605e-08
1.17421e-07
1.38762e-07
1.62668e-07
1.88818e-07
2.1662e-07
2.45137e-07
2.73014e-07
2.98422e-07
3.19041e-07
3.32102e-07
3.34531e-07
3.35409e-07
3.36815e-07
3.38592e-07
3.40817e-07
3.43828e-07
3.48152e-07
3.54617e-07
3.64536e-07
3.79976e-07
4.04186e-07
4.42228e-07
5.01932e-07
5.9528e-07
7.40395e-07
9.64308e-07
1.15638e-06
1.39936e-06
1.70346e-06
2.07989e-06
2.54079e-06
3.09905e-06
3.76807e-06
4.56151e-06
5.49295e-06
6.57558e-06
7.82188e-06
9.2433e-06
1.08499e-05
1.26503e-05
1.4651e-05
1.68568e-05
1.92703e-05
2.18918e-05
2.47197e-05
2.77501e-05
3.09772e-05
3.43933e-05
3.79888e-05
4.17529e-05
4.56793e-05
0.00181969
0.000298134
6.82873e-05
2.05908e-05
7.73649e-06
3.45678e-06
1.76904e-06
1.00704e-06
6.23563e-07
4.12912e-07
2.8863e-07
2.10868e-07
1.59779e-07
1.2481e-07
1.00031e-07
8.19473e-08
6.84141e-08
5.80681e-08
5.00174e-08
4.36652e-08
3.8606e-08
3.45629e-08
3.13494e-08
2.88445e-08
2.69783e-08
2.57218e-08
2.50815e-08
2.50954e-08
2.58311e-08
2.7385e-08
2.98815e-08
3.34738e-08
3.83452e-08
4.4711e-08
5.28241e-08
6.2982e-08
7.5539e-08
9.09253e-08
1.09674e-07
1.32464e-07
1.60176e-07
1.93979e-07
2.35449e-07
2.86737e-07
3.50811e-07
4.318e-07
5.35474e-07
6.69956e-07
8.46719e-07
1.08205e-06
1.39914e-06
1.83111e-06
2.42531e-06
3.24949e-06
4.40046e-06
6.0162e-06
8.29253e-06
1.15057e-05
1.60426e-05
2.24398e-05
3.14344e-05
4.40269e-05
6.15572e-05
7.57047e-05
9.2573e-05
0.000112514
0.000135877
0.000163008
0.000194239
0.000229883
0.000270223
0.000315504
0.000365931
0.000421656
0.000482781
0.000549352
0.000621359
0.000698735
0.00078136
0.00086906
0.000961617
0.00105877
0.00116021
0.00126562
0.00137462
0.00148686
0.00160192
0.00171953
0.00181958
0.000298119
6.82839e-05
2.05898e-05
7.73615e-06
3.45664e-06
1.76897e-06
1.007e-06
6.2356e-07
4.12955e-07
2.88768e-07
2.1121e-07
1.60539e-07
1.26402e-07
1.03212e-07
8.80529e-08
7.9706e-08
7.82465e-08
8.49571e-08
1.0244e-07
1.34859e-07
1.88249e-07
2.70915e-07
3.93871e-07
5.71358e-07
8.21364e-07
1.16619e-06
1.63294e-06
2.25401e-06
3.06748e-06
4.1175e-06
5.45456e-06
7.13594e-06
9.22611e-06
1.17976e-05
1.49318e-05
1.87213e-05
2.32718e-05
2.87063e-05
3.51709e-05
4.28421e-05
5.19385e-05
6.27355e-05
7.55855e-05
9.09461e-05
0.000109416
0.000131784
0.000159091
0.000192719
0.000234492
0.000286827
0.000352913
0.000436944
0.000544417
0.0006825
0.000860479
0.0010903
0.0013872
0.00177042
0.002264
0.00289763
0.00370752
0.00473725
0.00552341
0.00641175
0.00740874
0.00851952
0.00974818
0.0110977
0.0125701
0.0141658
0.0158843
0.0177236
0.0196806
0.0217508
0.023929
0.0262089
0.0285833
0.0310444
0.0335838
0.0361929
0.0388625
0.0415836
0.0443469
0.0471432
0.0499637
0.0527997
0.0556451
0.00181934
0.000298088
6.82771e-05
2.05879e-05
7.73548e-06
3.45642e-06
1.76915e-06
1.00805e-06
6.26856e-07
4.21816e-07
3.10671e-07
2.61875e-07
2.71434e-07
3.5902e-07
5.7389e-07
1.00667e-06
1.80796e-06
3.21484e-06
5.58668e-06
9.44956e-06
1.55499e-05
2.49158e-05
3.89278e-05
5.9397e-05
8.86529e-05
0.000129631
0.000185965
0.00026206
0.000363169
0.000495432
0.00066594
0.00088274
0.00115491
0.00149256
0.00190695
0.00241052
0.00301706
0.00374188
0.00460208
0.00561692
0.0068084
0.00820196
0.0098275
0.0117206
0.0139244
0.0164912
0.0194854
0.0229859
0.0270901
0.0319172
0.0376126
0.0443525
0.0523489
0.0618547
0.0731683
0.0866389
0.10267
0.121723
0.144318
0.171035
0.202505
0.239406
0.282443
0.313611
0.347072
0.382808
0.420748
0.460805
0.502876
0.546844
0.592575
0.639922
0.688726
0.738821
0.790035
0.842194
0.895121
0.948644
1.00259
1.0568
1.1111
1.16536
1.21942
1.27316
1.32645
1.37918
1.43124
1.48263
0.00181901
0.000298046
6.82675e-05
2.05854e-05
7.73641e-06
3.46545e-06
1.80468e-06
1.12132e-06
9.42087e-07
1.23659e-06
2.35699e-06
5.2119e-06
1.16607e-05
2.52143e-05
5.21405e-05
0.000103077
0.000195326
0.00035598
0.000626049
0.00106551
0.00175926
0.00282393
0.00441587
0.00674024
0.0100612
0.0147118
0.021104
0.029735
0.0411942
0.0561654
0.0754316
0.0998741
0.130479
0.168333
0.21463
0.270662
0.337819
0.417575
0.511482
0.621151
0.748244
0.894458
1.06152
1.25117
1.46521
1.70543
1.9737
2.27195
2.6022
2.96656
3.3673
3.8068
4.28762
4.81246
5.38419
6.00578
6.68032
7.41093
8.20071
9.05263
9.96939
10.9531
12.0045
12.7256
13.4601
14.2054
14.959
15.7187
16.4824
17.2479
18.0132
18.7763
19.5354
20.2886
21.0344
21.7712
22.4976
23.2123
23.9141
24.6022
25.2755
25.9333
26.575
27.2001
27.8081
28.3986
28.9717
29.5336
0.00181866
0.000298001
6.8259e-05
2.06051e-05
7.88266e-06
4.09278e-06
3.8168e-06
7.25635e-06
1.96463e-05
5.51957e-05
0.000146922
0.000365467
0.000852103
0.00187324
0.00390475
0.00775371
0.0147322
0.0268969
0.047361
0.0806621
0.133177
0.213594
0.333456
0.507765
0.755531
1.10008
1.56896
2.1933
3.00664
4.04329
5.33659
6.91694
8.81025
11.0366
13.6092
16.5343
19.8108
23.4312
27.3818
31.644
36.1954
41.0109
46.0635
51.3258
56.7708
62.3721
68.1053
73.9479
79.8799
85.8835
91.944
98.0489
104.189
110.355
116.544
122.75
128.973
135.211
141.465
147.734
154.019
160.32
166.623
170.784
174.844
178.808
182.673
186.438
190.103
193.667
197.13
200.491
203.75
206.908
209.965
212.921
215.778
218.535
221.195
223.759
226.227
228.602
230.885
233.078
235.183
237.202
239.139
241.064
0.00181831
0.000297962
6.83783e-05
2.18862e-05
1.3909e-05
2.54746e-05
8.51891e-05
0.000300091
0.000973705
0.00287724
0.00780423
0.019605
0.0459985
0.101568
0.212289
0.421846
0.800313
1.45514
2.54189
4.26913
6.89185
10.6912
15.9437
22.8858
31.6833
42.4113
55.0485
69.4856
85.5434
102.995
121.59
141.071
161.191
181.721
202.454
223.211
243.835
264.198
284.191
303.727
322.739
341.176
359.001
376.191
392.736
408.634
423.891
438.522
452.546
465.987
478.873
491.234
503.105
514.517
525.506
536.106
546.35
556.272