/*--------------------------------*- C++ -*----------------------------------*\
| =========                 |                                                 |
| \\      /  F ield         | OpenFOAM: The Open Source CFD Toolbox           |
|  \\    /   O peration     | Version:  5.x                                   |
|   \\  /    A nd           | Web:      www.OpenFOAM.org                      |
|    \\/     M anipulation  |                                                 |
\*---------------------------------------------------------------------------*/
FoamFile
{
    version     2.0;
    format      ascii;
    class       volScalarField;
    location    "600";
    object      k;
}
// * * * * * * * * * * * * * * * * * * * * * * * * * * * * * * * * * * * * * //

dimensions      [0 2 -2 0 0 0 0];

internalField   nonuniform List<scalar> 
20540
(
2.45293e-05
7.72619e-06
2.45293e-05
1.40218e-05
2.45293e-05
2.49906e-05
2.45293e-05
3.98275e-05
2.45293e-05
5.74879e-05
2.45293e-05
7.6434e-05
2.45293e-05
9.4512e-05
2.45293e-05
0.000108992
2.45293e-05
0.000116847
2.45293e-05
0.000115342
2.45293e-05
0.000102963
2.45293e-05
8.05611e-05
2.45293e-05
5.23749e-05
2.45293e-05
2.60997e-05
2.45293e-05
9.75506e-06
2.45293e-05
4.05126e-06
2.45293e-05
2.89963e-06
2.45293e-05
2.72158e-06
2.45293e-05
2.69432e-06
2.45293e-05
2.68984e-06
2.45293e-05
2.68915e-06
2.45293e-05
2.68913e-06
2.45293e-05
2.68925e-06
2.45293e-05
2.68943e-06
2.45293e-05
2.68966e-06
2.45293e-05
2.68993e-06
2.45293e-05
2.69024e-06
2.45293e-05
2.69057e-06
2.45293e-05
2.69092e-06
2.45293e-05
2.69124e-06
2.45293e-05
2.69147e-06
2.45293e-05
2.69158e-06
2.45293e-05
2.69157e-06
2.45293e-05
2.69147e-06
2.45293e-05
2.69124e-06
2.45293e-05
2.69093e-06
2.45293e-05
2.69059e-06
2.45293e-05
2.69027e-06
2.45293e-05
2.68997e-06
2.45293e-05
2.6897e-06
2.45293e-05
2.68947e-06
2.45293e-05
2.68929e-06
2.45293e-05
2.68915e-06
2.45293e-05
2.68911e-06
2.45293e-05
2.68941e-06
2.45293e-05
2.69158e-06
2.45293e-05
2.70411e-06
2.45293e-05
2.77969e-06
2.45293e-05
3.26018e-06
2.45293e-05
5.94646e-06
2.45293e-05
1.59568e-05
2.45293e-05
3.69469e-05
2.45293e-05
6.43547e-05
2.45293e-05
9.0308e-05
2.45293e-05
0.000108919
2.45293e-05
0.000117509
2.45293e-05
0.000116116
2.45293e-05
0.000106541
2.45293e-05
9.14089e-05
2.45293e-05
7.34511e-05
2.45293e-05
5.50669e-05
2.45293e-05
3.81299e-05
2.45293e-05
2.39822e-05
2.45293e-05
1.35556e-05
2.45293e-05
7.6129e-06
3.68721
3.61484
3.36349
3.18001
3.04629
2.94564
2.86716
2.80409
2.75227
2.70897
2.67233
2.64096
2.61386
2.59025
2.56954
2.55126
2.53505
2.52059
2.50765
2.496
2.4855
2.476
2.46738
2.45954
2.45239
2.44585
2.43986
2.43436
2.4293
2.42463
2.42032
2.41634
2.41266
2.40926
2.40611
2.40319
2.40049
2.398
2.3957
2.39359
2.39166
2.3899
2.38832
2.38691
2.3857
2.38467
2.38386
2.38327
2.38292
2.38284
2.38307
2.38363
2.38455
2.38587
2.38763
2.38988
2.39267
2.39604
2.40007
2.40481
2.41035
2.41676
2.42451
2.43054
2.43671
2.44295
2.44955
2.45652
2.46385
2.47156
2.47963
2.48807
2.4969
2.50612
2.51574
2.52578
2.53626
2.54721
2.55866
2.57068
2.58334
2.59674
2.61105
2.62657
2.6436
2.66409
2.69201
2.80303
16.8722
15.7449
14.7445
14.0727
13.5921
13.2318
12.9509
12.7246
12.5382
12.3821
12.2496
12.136
12.0377
11.9518
11.8764
11.8097
11.7505
11.6976
11.6502
11.6076
11.569
11.5341
11.5024
11.4736
11.4473
11.4232
11.4011
11.3808
11.3621
11.3449
11.329
11.3142
11.3006
11.2881
11.2764
11.2656
11.2556
11.2464
11.2379
11.2301
11.223
11.2165
11.2107
11.2055
11.2011
11.1975
11.1946
11.1926
11.1915
11.1916
11.1928
11.1953
11.1992
11.2047
11.212
11.2212
11.2325
11.2462
11.2624
11.2815
11.3038
11.3294
11.3609
11.3859
11.4108
11.4355
11.4618
11.4898
11.5192
11.5502
11.5826
11.6166
11.6522
11.6893
11.7281
11.7687
11.811
11.8554
11.9018
11.9506
12.0021
12.0568
12.1153
12.1787
12.249
12.3304
12.4291
12.4357
18.5627
18.4966
17.5394
16.8384
16.3248
15.9357
15.6305
15.3839
15.1802
15.0094
14.8643
14.7396
14.6316
14.5373
14.4543
14.381
14.3158
14.2576
14.2053
14.1583
14.1158
14.0774
14.0424
14.0106
13.9816
13.955
13.9307
13.9083
13.8876
13.8686
13.8511
13.8348
13.8198
13.8059
13.793
13.7811
13.7701
13.7599
13.7505
13.7418
13.7339
13.7267
13.7202
13.7145
13.7095
13.7053
13.702
13.6995
13.6981
13.6978
13.6987
13.7009
13.7047
13.7101
13.7173
13.7264
13.7378
13.7515
13.7679
13.7872
13.8097
13.8357
13.8669
13.891
13.9163
13.9418
13.9683
13.9964
14.0258
14.0567
14.089
14.1228
14.1579
14.1946
14.2328
14.2725
14.3138
14.3568
14.4016
14.4484
14.4974
14.5489
14.6034
14.6618
14.7242
14.796
14.8555
14.7836
18.4198
19.567
18.7631
18.086
17.5731
17.1791
16.868
16.6157
16.4068
16.2313
16.0819
15.9536
15.8423
15.7449
15.6593
15.5836
15.5163
15.4561
15.4022
15.3536
15.3097
15.2699
15.2338
15.2009
15.1709
15.1434
15.1182
15.0951
15.0737
15.0541
15.0359
15.0191
15.0036
14.9892
14.9759
14.9635
14.9521
14.9416
14.9318
14.9229
14.9146
14.9071
14.9004
14.8943
14.889
14.8845
14.8809
14.8781
14.8763
14.8756
14.8761
14.8778
14.881
14.8858
14.8923
14.9007
14.9111
14.9239
14.9391
14.957
14.978
15.0024
15.0309
15.0522
15.0756
15.0998
15.1246
15.1506
15.1778
15.2062
15.2359
15.2667
15.2988
15.3321
15.3666
15.4024
15.4395
15.4779
15.5176
15.5588
15.6016
15.6462
15.6926
15.7417
15.792
15.8487
15.8767
15.7931
17.5093
19.9419
19.3766
18.7571
18.263
17.8757
17.567
17.3153
17.1063
16.9303
16.7802
16.6511
16.5389
16.4409
16.3545
16.2781
16.2102
16.1494
16.0949
16.0458
16.0015
15.9613
15.9248
15.8915
15.8612
15.8334
15.808
15.7846
15.763
15.7431
15.7248
15.7078
15.6921
15.6775
15.6641
15.6516
15.6401
15.6294
15.6195
15.6104
15.6021
15.5944
15.5875
15.5813
15.5758
15.5711
15.5672
15.5641
15.562
15.5608
15.5608
15.562
15.5645
15.5684
15.574
15.5812
15.5904
15.6017
15.6152
15.6312
15.6498
15.6718
15.6966
15.7146
15.7352
15.757
15.7793
15.8024
15.8264
15.8514
15.8774
15.9044
15.9323
15.9612
15.991
16.0217
16.0534
16.0859
16.1194
16.1539
16.1892
16.2256
16.2629
16.3015
16.3392
16.38
16.3864
16.3193
16.1549
19.8904
19.6495
19.1206
18.6609
18.2896
17.9894
17.7429
17.5371
17.3632
17.2147
17.0866
16.9752
16.8777
16.7918
16.7158
16.6481
16.5876
16.5332
16.4843
16.4401
16.4
16.3635
16.3304
16.3001
16.2724
16.247
16.2236
16.2021
16.1823
16.164
16.147
16.1314
16.1169
16.1034
16.091
16.0795
16.0688
16.0589
16.0498
16.0415
16.0338
16.0268
16.0205
16.0149
16.01
16.0059
16.0026
16.0001
15.9985
15.9979
15.9984
16.0001
16.0031
16.0076
16.0136
16.0212
16.0308
16.0423
16.056
16.0719
16.0909
16.1117
16.1262
16.1435
16.1623
16.1815
16.2012
16.2216
16.2428
16.2647
16.2873
16.3106
16.3346
16.3592
16.3844
16.4101
16.4364
16.4632
16.4905
16.5181
16.5461
16.5742
16.6024
16.6281
16.654
16.6464
16.6004
14.5028
19.5043
19.6801
19.2792
18.8714
18.5257
18.2401
18.0028
17.8034
17.6341
17.489
17.3635
17.2543
17.1585
17.0739
16.999
16.9323
16.8727
16.8191
16.7708
16.7271
16.6875
16.6516
16.6188
16.5889
16.5616
16.5365
16.5134
16.4921
16.4725
16.4544
16.4377
16.4222
16.4079
16.3947
16.3824
16.371
16.3604
16.3507
16.3417
16.3333
16.3257
16.3187
16.3124
16.3067
16.3017
16.2974
16.2938
16.291
16.289
16.2878
16.2877
16.2886
16.2906
16.2939
16.2985
16.3045
16.3122
16.3215
16.3327
16.3457
16.3614
16.378
16.3891
16.4027
16.4182
16.4339
16.4501
16.4667
16.4838
16.5013
16.5194
16.5378
16.5567
16.5759
16.5955
16.6153
16.6352
16.6553
16.6755
16.6956
16.7154
16.7346
16.7531
16.7679
16.7807
16.7638
16.7328
12.644
18.8112
19.5023
19.2751
18.9401
18.6314
18.3673
18.144
17.9544
17.7922
17.6525
17.5313
17.4255
17.3324
17.2503
17.1773
17.1123
17.0541
17.0018
16.9546
16.912
16.8733
16.8381
16.8061
16.7769
16.7501
16.7256
16.703
16.6822
16.6631
16.6454
16.629
16.6139
16.5999
16.5869
16.5749
16.5637
16.5534
16.5439
16.535
16.5268
16.5193
16.5124
16.5061
16.5004
16.4954
16.4909
16.4871
16.484
16.4816
16.4799
16.479
16.4791
16.4801
16.4822
16.4853
16.4897
16.4954
16.5025
16.511
16.521
16.5333
16.5457
16.5535
16.5634
16.5752
16.5874
16.5998
16.6125
16.6255
16.6387
16.6521
16.6658
16.6796
16.6935
16.7075
16.7214
16.7353
16.7489
16.7623
16.7752
16.7875
16.7986
16.8083
16.8135
16.8153
16.7915
16.7667
10.6544
17.8111
19.1185
19.1206
18.8851
18.6277
18.3939
18.1903
18.0144
17.8624
17.7304
17.6153
17.5144
17.4254
17.3467
17.2766
17.2141
17.158
17.1076
17.0621
17.0209
16.9835
16.9495
16.9186
16.8903
16.8645
16.8407
16.8189
16.7988
16.7803
16.7631
16.7473
16.7327
16.7192
16.7066
16.695
16.6842
16.6743
16.665
16.6564
16.6485
16.6412
16.6344
16.6282
16.6226
16.6175
16.613
16.6091
16.6057
16.6028
16.6007
16.5992
16.5984
16.5984
16.5993
16.601
16.6037
16.6074
16.6122
16.6182
16.6251
16.6339
16.6423
16.6469
16.6533
16.6614
16.6699
16.6786
16.6874
16.6962
16.7052
16.7142
16.7232
16.7321
16.741
16.7496
16.7581
16.7662
16.7739
16.7811
16.7875
16.7929
16.7968
16.7988
16.7959
16.7887
16.7594
16.7337
8.61113
16.4933
18.5109
18.8097
18.708
18.5205
18.328
18.1514
17.9945
17.8564
17.7351
17.6284
17.5342
17.4508
17.3767
17.3106
17.2515
17.1984
17.1505
17.1073
17.0681
17.0326
17.0002
16.9708
16.9438
16.9192
16.8966
16.8758
16.8566
16.8389
16.8226
16.8075
16.7936
16.7807
16.7687
16.7577
16.7474
16.7379
16.7291
16.7209
16.7133
16.7062
16.6997
16.6938
16.6883
16.6833
16.6788
16.6747
16.6711
16.668
16.6654
16.6633
16.6618
16.6608
16.6606
16.6609
16.662
16.6638
16.6664
16.6697
16.6737
16.6791
16.6836
16.6855
16.6885
16.6929
16.6978
16.7029
16.7079
16.7129
16.7178
16.7226
16.7272
16.7316
16.7358
16.7396
16.743
16.746
16.7483
16.7499
16.7506
16.7501
16.7478
16.7433
16.7336
16.7194
16.6854
16.6551
6.60007
14.8493
17.6479
18.3224
18.398
18.3047
18.1684
18.0284
17.897
17.7777
17.6708
17.5753
17.4903
17.4144
17.3465
17.2858
17.2312
17.1821
17.1377
17.0975
17.061
17.0279
16.9977
16.9702
16.9451
16.9221
16.9009
16.8815
16.8636
16.847
16.8318
16.8177
16.8046
16.7926
16.7814
16.7711
16.7615
16.7526
16.7444
16.7367
16.7296
16.723
16.7168
16.7112
16.7059
16.7011
16.6967
16.6927
16.689
16.6856
16.6827
16.6801
16.6779
16.6761
16.6748
16.6739
16.6734
16.6734
16.6739
16.6748
16.6761
16.6782
16.6791
16.6785
16.6786
16.6796
16.6811
16.6827
16.6842
16.6856
16.6868
16.6877
16.6884
16.6887
16.6887
16.6882
16.6872
16.6856
16.6832
16.6801
16.6759
16.6703
16.6629
16.653
16.638
16.6183
16.5805
16.5452
4.71675
12.8858
16.4881
17.6256
17.9335
17.9663
17.9055
17.8147
17.7178
17.6237
17.536
17.4556
17.3827
17.3168
17.2573
17.2035
17.155
17.1111
17.0713
17.0351
17.0023
16.9723
16.945
16.9201
16.8973
16.8764
16.8572
16.8395
16.8232
16.8082
16.7943
16.7815
16.7697
16.7587
16.7486
16.7392
16.7305
16.7225
16.715
16.708
16.7015
16.6955
16.6899
16.6846
16.6798
16.6753
16.6711
16.6672
16.6635
16.6601
16.6569
16.654
16.6512
16.6488
16.6465
16.6445
16.6427
16.6411
16.6397
16.6384
16.6371
16.6362
16.6341
16.6313
16.6288
16.6269
16.6253
16.6238
16.6221
16.6203
16.6181
16.6157
16.6129
16.6096
16.6059
16.6017
16.597
16.5915
16.5853
16.5782
16.5699
16.5603
16.5487
16.5346
16.5154
16.4916
16.4511
16.412
3.06207
10.6403
14.9869
16.6736
17.2807
17.4809
17.5215
17.4971
17.4463
17.386
17.3239
17.2636
17.2069
17.1542
17.1056
17.0612
17.0207
16.9837
16.9499
16.919
16.8908
16.865
16.8415
16.8199
16.8002
16.782
16.7654
16.75
16.7358
16.7228
16.7107
16.6995
16.6892
16.6797
16.6709
16.6628
16.6553
16.6483
16.6418
16.6357
16.6301
16.6249
16.6199
16.6154
16.611
16.607
16.6032
16.5996
16.5962
16.5928
16.5896
16.5864
16.5834
16.5804
16.5774
16.5745
16.5716
16.5686
16.5655
16.5624
16.5589
16.5554
16.5506
16.5461
16.5415
16.5372
16.533
16.5287
16.5243
16.5197
16.5147
16.5093
16.5036
16.4974
16.4907
16.4834
16.4756
16.467
16.4577
16.4474
16.4359
16.4231
16.4083
16.3908
16.3686
16.3417
16.2999
16.2588
1.73124
8.19987
13.1084
15.4101
16.3932
16.8134
16.9895
17.054
17.0652
17.0502
17.0223
16.9889
16.9536
16.9184
16.8844
16.8523
16.8223
16.7943
16.7684
16.7445
16.7224
16.7021
16.6834
16.6663
16.6505
16.636
16.6226
16.6103
16.5988
16.5883
16.5786
16.5696
16.5613
16.5536
16.5466
16.54
16.534
16.5284
16.5232
16.5184
16.5139
16.5097
16.5057
16.502
16.4984
16.4951
16.4919
16.4888
16.4858
16.4827
16.4796
16.4765
16.4733
16.47
16.4666
16.4631
16.4593
16.4553
16.451
16.4463
16.4411
16.4355
16.4285
16.4226
16.4164
16.4102
16.4039
16.3975
16.3908
16.3839
16.3766
16.369
16.3609
16.3523
16.3432
16.3335
16.3233
16.3123
16.3005
16.2878
16.2739
16.2586
16.2413
16.2214
16.197
16.168
16.1263
16.0847
0.796605
5.71939
10.8472
13.7743
15.2113
15.9152
16.2708
16.4546
16.549
16.5946
16.6128
16.6151
16.6084
16.5965
16.5819
16.5661
16.5499
16.5339
16.5184
16.5036
16.4895
16.4764
16.4641
16.4527
16.4422
16.4324
16.4233
16.4148
16.407
16.3997
16.393
16.3868
16.3811
16.3759
16.3711
16.3667
16.3626
16.3588
16.3553
16.352
16.349
16.3461
16.3434
16.3408
16.3383
16.336
16.3336
16.3313
16.329
16.3265
16.3239
16.321
16.318
16.3147
16.3112
16.3073
16.3031
16.2984
16.2932
16.2875
16.2809
16.2738
16.2652
16.2583
16.2509
16.2435
16.2357
16.2276
16.2193
16.2107
16.2017
16.1922
16.1824
16.172
16.1611
16.1497
16.1376
16.1248
16.1113
16.0967
16.0811
16.064
16.0449
16.0232
15.9974
15.9672
15.9265
15.8855
0.277772
3.43005
8.26292
11.7159
13.6647
14.723
15.3131
15.6555
15.8616
15.9888
16.0687
16.1191
16.1506
16.1699
16.181
16.1868
16.1891
16.1889
16.1871
16.1843
16.1809
16.1771
16.1733
16.1694
16.1657
16.162
16.1585
16.1552
16.152
16.1491
16.1463
16.1438
16.1415
16.1393
16.1374
16.1357
16.1342
16.1327
16.1314
16.1302
16.1291
16.128
16.1269
16.1259
16.1249
16.1238
16.1227
16.1215
16.1202
16.1186
16.1167
16.1145
16.112
16.1091
16.1058
16.102
16.0977
16.0928
16.0872
16.0808
16.0735
16.0654
16.0558
16.0483
16.0403
16.032
16.0233
16.0142
16.0048
15.995
15.9848
15.9741
15.963
15.9515
15.9393
15.9266
15.9133
15.8993
15.8845
15.8687
15.8518
15.8334
15.8131
15.7902
15.7637
15.7329
15.694
15.6544
0.0744746
1.61207
5.52857
9.22959
11.6843
13.1606
14.0481
14.5987
14.9535
15.1903
15.3531
15.4681
15.5511
15.6122
15.6578
15.6925
15.7193
15.7402
15.7567
15.7698
15.7804
15.789
15.7963
15.8024
15.8076
15.8121
15.8159
15.8193
15.8222
15.8249
15.8273
15.8295
15.8316
15.8336
15.8355
15.8373
15.8391
15.8407
15.8423
15.8438
15.8451
15.8464
15.8475
15.8485
15.8494
15.8501
15.8506
15.851
15.8511
15.8508
15.8501
15.849
15.8474
15.8453
15.8427
15.8394
15.8355
15.8308
15.8253
15.8189
15.8113
15.8028
15.7928
15.7851
15.7768
15.7682
15.759
15.7495
15.7395
15.729
15.7182
15.7068
15.695
15.6827
15.6698
15.6563
15.6422
15.6274
15.6118
15.5952
15.5774
15.5582
15.5371
15.5135
15.4867
15.4561
15.4195
15.3815
0.0166959
0.510453
2.97603
6.41604
9.234
11.1493
12.3933
13.2089
13.7588
14.1414
14.4156
14.6175
14.7698
14.8871
14.9791
15.0527
15.1124
15.1615
15.2023
15.2367
15.2659
15.2912
15.3132
15.3325
15.3495
15.3647
15.3782
15.3904
15.4015
15.4115
15.4208
15.4293
15.4372
15.4445
15.4514
15.4579
15.4639
15.4696
15.4749
15.4799
15.4846
15.4889
15.4929
15.4966
15.5
15.5031
15.5058
15.5082
15.5103
15.5119
15.5129
15.5134
15.5132
15.5124
15.5109
15.5087
15.5056
15.5017
15.4968
15.4909
15.4837
15.4755
15.4657
15.4581
15.45
15.4414
15.4322
15.4226
15.4125
15.4019
15.3907
15.3791
15.367
15.3543
15.3411
15.3272
15.3127
15.2974
15.2813
15.2642
15.2459
15.2261
15.2045
15.1806
15.154
15.1243
15.0901
15.0538
0.0032703
0.102651
1.08563
3.57643
6.37984
8.64169
10.2644
11.3969
12.1938
12.7665
13.1883
13.5066
13.752
13.945
14.0997
14.2256
14.3296
14.4166
14.4902
14.5531
14.6074
14.6548
14.6965
14.7334
14.7662
14.7957
14.8221
14.8461
14.8678
14.8877
14.9059
14.9228
14.9384
14.9528
14.9663
14.9789
14.9906
15.0016
15.0119
15.0215
15.0305
15.0389
15.0467
15.054
15.0607
15.0669
15.0726
15.0778
15.0825
15.0866
15.09
15.0927
15.0946
15.0957
15.0959
15.0953
15.0937
15.0911
15.0874
15.0826
15.0764
15.0689
15.06
15.0529
15.0452
15.037
15.0283
15.0189
15.009
14.9986
14.9876
14.976
14.9639
14.9512
14.9379
14.9239
14.9092
14.8937
14.8773
14.8599
14.8412
14.8212
14.7994
14.7757
14.7496
14.7211
14.6894
14.6547
0.000557906
0.015311
0.221554
1.30664
3.42206
5.70614
7.61854
9.07791
10.1631
10.9723
11.5842
12.0553
12.4245
12.719
12.9578
13.1543
13.3182
13.4563
13.5741
13.6755
13.7636
13.8408
13.9089
13.9695
14.0236
14.0721
14.1158
14.1555
14.1916
14.2246
14.2549
14.2828
14.3086
14.3326
14.3548
14.3755
14.3948
14.4128
14.4297
14.4454
14.4601
14.4739
14.4868
14.4988
14.51
14.5204
14.5301
14.539
14.5472
14.5546
14.5612
14.5669
14.5716
14.5753
14.5781
14.5797
14.5803
14.5797
14.5779
14.5747
14.5701
14.5641
14.5565
14.5503
14.5434
14.5359
14.5278
14.519
14.5097
14.4997
14.4891
14.4778
14.4659
14.4534
14.4402
14.4262
14.4115
14.396
14.3795
14.3619
14.3432
14.323
14.3014
14.2781
14.2529
14.2259
14.1965
14.1633
7.91398e-05
0.00191095
0.0276515
0.244067
1.09889
2.71146
4.5687
6.23484
7.59222
8.66311
9.50265
10.1652
10.6941
11.1217
11.4721
11.7629
12.0069
12.214
12.3914
12.5447
12.6784
12.7959
12.8998
12.9922
13.0749
13.1492
13.2162
13.2771
13.3324
13.3831
13.4296
13.4724
13.512
13.5486
13.5826
13.6142
13.6436
13.671
13.6966
13.7205
13.7429
13.7639
13.7835
13.8018
13.819
13.835
13.8499
13.8638
13.8767
13.8886
13.8995
13.9092
13.9178
13.9251
13.9312
13.9361
13.9396
13.9418
13.9425
13.9418
13.9394
13.9354
13.9298
13.9249
13.9191
13.9126
13.9054
13.8975
13.8889
13.8795
13.8695
13.8587
13.8473
13.835
13.8221
13.8083
13.7937
13.7782
13.7617
13.7441
13.7255
13.7055
13.6842
13.6616
13.6375
13.6122
13.585
13.5531
7.77958e-06
0.000200814
0.00268103
0.0251206
0.162164
0.660198
1.69601
3.0976
4.53202
5.80047
6.86166
7.73637
8.45541
9.04824
9.54069
9.95366
10.3032
10.6018
10.8587
11.0817
11.2767
11.4484
11.6005
11.7359
11.8572
11.9663
12.0649
12.1543
12.2358
12.3103
12.3787
12.4416
12.4997
12.5534
12.6032
12.6494
12.6924
12.7325
12.7699
12.8049
12.8376
12.8681
12.8968
12.9237
12.9488
12.9724
12.9944
13.015
13.0342
13.0521
13.0686
13.0838
13.0975
13.1097
13.1204
13.1295
13.137
13.143
13.1472
13.1497
13.1504
13.1492
13.1462
13.1429
13.1386
13.1335
13.1275
13.1207
13.113
13.1046
13.0953
13.0852
13.0743
13.0625
13.0499
13.0364
13.0221
13.0067
12.9904
12.9731
12.9547
12.9351
12.9145
12.8928
12.8701
12.8464
12.8212
12.7905
8.15758e-07
1.70362e-05
0.000216099
0.00193527
0.0130155
0.0677815
0.265576
0.747338
1.56403
2.61218
3.71608
4.74246
5.63815
6.40341
7.05656
7.6161
8.09704
8.51189
8.87147
9.18509
9.46046
9.70379
9.92001
10.1131
10.2863
10.4423
10.5833
10.7114
10.8281
10.9348
11.0326
11.1226
11.2057
11.2824
11.3536
11.4196
11.481
11.5382
11.5916
11.6415
11.6881
11.7318
11.7727
11.811
11.847
11.8807
11.9124
11.942
11.9697
11.9956
12.0198
12.0422
12.0629
12.0816
12.0984
12.1133
12.1262
12.1372
12.1462
12.1531
12.1578
12.1603
12.1607
12.1597
12.1573
12.1539
12.1496
12.1442
12.1378
12.1305
12.1223
12.113
12.1029
12.0918
12.0798
12.0668
12.0529
12.038
12.0221
12.0052
11.9873
11.9685
11.9488
11.9283
11.9071
11.8852
11.8619
11.8323
4.75378e-07
1.04389e-06
1.40648e-05
0.000122059
0.000793168
0.00414561
0.0181072
0.0664729
0.201034
0.48932
0.971457
1.63107
2.40338
3.20763
3.9784
4.67907
5.29862
5.84152
6.31814
6.73914
7.11323
7.4471
7.74597
8.01415
8.25541
8.47308
8.67013
8.84915
9.0124
9.16178
9.2989
9.42514
9.54165
9.64943
9.74934
9.84211
9.9284
10.0088
10.0838
10.1539
10.2194
10.2808
10.3383
10.3922
10.4428
10.4903
10.5349
10.5767
10.6159
10.6527
10.687
10.7191
10.7491
10.7767
10.8018
10.8244
10.8446
10.8624
10.8777
10.8905
10.9007
10.9083
10.9133
10.9151
10.9154
10.9145
10.9123
10.9089
10.9043
10.8986
10.8918
10.8839
10.8749
10.8649
10.8538
10.8417
10.8286
10.8145
10.7995
10.7835
10.7667
10.7491
10.7307
10.7117
10.6921
10.6721
10.6508
10.6226
4.64349e-07
1.43705e-07
6.94439e-07
6.16451e-06
3.91172e-05
0.000198572
0.000853871
0.00319307
0.0105538
0.0310569
0.0812093
0.186571
0.374456
0.662064
1.04924
1.51908
2.04372
2.59191
3.13578
3.65473
4.13644
4.57568
4.97231
5.32927
5.65085
5.94164
6.20586
6.44711
6.66833
6.8719
7.05972
7.23336
7.39414
7.54321
7.6816
7.8102
7.92986
8.04133
8.1453
8.24238
8.33315
8.41812
8.49773
8.5724
8.64247
8.70828
8.77011
8.82819
8.88274
8.93395
8.98197
9.02695
9.06904
9.10851
9.1448
9.17797
9.20806
9.23507
9.259
9.27982
9.29749
9.31198
9.32336
9.32923
9.33321
9.33563
9.33654
9.33599
9.33404
9.33074
9.32613
9.32026
9.31317
9.3049
9.29551
9.28502
9.27349
9.26096
9.24749
9.23315
9.21801
9.20215
9.18566
9.16865
9.15121
9.13334
9.11434
9.08819
4.64148e-07
1.15592e-07
5.61436e-08
2.39393e-07
1.51483e-06
7.56833e-06
3.18316e-05
0.000116977
0.000383277
0.00113546
0.00307741
0.00769471
0.01786
0.0385681
0.0773041
0.143347
0.245844
0.391478
0.582862
0.818202
1.09198
1.39613
1.72129
2.05793
2.39729
2.73193
3.05609
3.36565
3.65803
3.93192
4.18699
4.42363
4.64269
4.84532
5.03279
5.20642
5.36748
5.51716
5.65655
5.78664
5.9083
6.02227
6.12922
6.22973
6.32428
6.41331
6.49719
6.57623
6.65072
6.7209
6.78697
6.84911
6.90747
6.96227
7.01379
7.06134
7.105
7.1448
7.18076
7.21286
7.2411
7.26544
7.28596
7.29766
7.30706
7.3145
7.32008
7.32389
7.326
7.32649
7.32545
7.32295
7.31905
7.31384
7.30738
7.29975
7.29102
7.28128
7.2706
7.25906
7.24675
7.23376
7.22018
7.20611
7.19163
7.17674
7.16087
7.13831
4.64221e-07
1.14994e-07
3.86124e-08
2.10626e-08
4.84043e-08
2.21341e-07
9.19206e-07
3.33024e-06
1.07631e-05
3.15389e-05
8.48489e-05
0.000211632
0.000493576
0.00108403
0.00225402
0.00445708
0.00841615
0.0152216
0.0264039
0.0439281
0.0700751
0.107211
0.157492
0.222588
0.303482
0.400388
0.512785
0.639527
0.778997
0.929268
1.08825
1.2538
1.42386
1.59647
1.76986
1.94247
2.11295
2.28019
2.44326
2.60146
2.75426
2.90128
3.04226
3.17709
3.30569
3.42812
3.54443
3.65475
3.75923
3.85802
3.95131
4.03925
4.12203
4.19981
4.27298
4.34173
4.40536
4.46396
4.51756
4.5662
4.6099
4.64869
4.68259
4.70281
4.7202
4.73512
4.74772
4.75813
4.76647
4.77288
4.77746
4.78034
4.78163
4.78144
4.77988
4.77705
4.77306
4.768
4.76197
4.75507
4.7474
4.73902
4.73004
4.72053
4.71056
4.70017
4.68907
4.6732
4.64306e-07
1.15001e-07
3.82935e-08
1.61708e-08
8.77853e-09
8.75139e-09
2.16279e-08
7.16939e-08
2.27228e-07
6.58708e-07
1.75653e-06
4.34973e-06
1.00873e-05
2.2063e-05
4.57712e-05
9.05076e-05
0.000171367
0.000311957
0.000547817
0.000930461
0.00153207
0.00245096
0.00381775
0.00580134
0.00861326
0.0125086
0.0177817
0.0247568
0.0337738
0.0451701
0.0592622
0.0763277
0.0965898
0.120206
0.147263
0.177773
0.211678
0.248854
0.289121
0.332252
0.377985
0.426026
0.476068
0.527791
0.580872
0.634989
0.689827
0.74508
0.800452
0.855662
0.910439
0.964529
1.01769
1.06969
1.12032
1.1696
1.21771
1.26445
1.30961
1.35301
1.39446
1.43379
1.47084
1.49419
1.51584
1.5359
1.55441
1.57144
1.58703
1.60126
1.61417
1.62585
1.63634
1.64573
1.65407
1.66143
1.66788
1.67349
1.67831
1.68241
1.68585
1.68869
1.69098
1.69277
1.69412
1.69507
1.69565
1.69559
4.64394e-07
1.15018e-07
3.8295e-08
1.60993e-08
8.10165e-09
4.70996e-09
3.21586e-09
3.00663e-09
4.71987e-09
1.07164e-08
2.66205e-08
6.44032e-08
1.47809e-07
3.21247e-07
6.63478e-07
1.3077e-06
2.46996e-06
4.48789e-06
7.87054e-06
1.33595e-05
2.20015e-05
3.52342e-05
5.49857e-05
8.37873e-05
0.000124891
0.000182387
0.000261299
0.000367674
0.000508641
0.000692457
0.000928537
0.00122747
0.00160098
0.0020619
0.00262403
0.0033019
0.00411055
0.00506509
0.00618028
0.00746999
0.00894661
0.0106204
0.0124991
0.0145871
0.0168848
0.0193885
0.0220896
0.0249746
0.0280245
0.0312147
0.0345149
0.0378893
0.0412965
0.0446878
0.0480002
0.0513332
0.0548186
0.0584376
0.0621696
0.065992
0.0698811
0.0738116
0.0777576
0.0803472
0.0828598
0.0852902
0.0876338
0.0898871
0.0920475
0.0941135
0.0960841
0.0979595
0.0997402
0.101428
0.103024
0.10453
0.105951
0.107288
0.108545
0.109725
0.110832
0.111869
0.112841
0.113751
0.114603
0.115399
0.116145
0.116868
4.64477e-07
1.15035e-07
3.83003e-08
1.61007e-08
8.095e-09
4.66086e-09
2.97445e-09
2.05753e-09
1.52858e-09
1.23732e-09
1.15308e-09
1.34608e-09
2.01835e-09
3.57705e-09
6.75758e-09
1.28096e-08
2.3762e-08
4.27829e-08
7.46467e-08
1.26314e-07
2.07627e-07
3.32115e-07
5.17926e-07
7.88861e-07
1.17547e-06
1.71619e-06
2.45836e-06
3.45918e-06
4.78642e-06
6.51897e-06
8.74707e-06
1.15723e-05
1.51074e-05
1.9475e-05
2.48066e-05
3.12401e-05
3.89165e-05
4.79747e-05
5.85461e-05
7.07455e-05
8.46615e-05
0.000100344
0.000117789
0.00013692
0.000157574
0.000179471
0.0002022
0.000225189
0.000247686
0.000268739
0.000287173
0.00030156
0.00031024
0.000312744
0.000315982
0.000319932
0.000324607
0.00033001
0.000336142
0.000342992
0.000350546
0.000358776
0.00036765
0.00037376
0.000379947
0.00038618
0.00039243
0.000398667
0.000404868
0.000411007
0.000417066
0.000423024
0.000428866
0.000434578
0.000440147
0.000445566
0.000450826
0.000455922
0.00046085
0.000465608
0.000470194
0.00047461
0.000478856
0.000482935
0.000486849
0.000490602
0.000494198
0.000497823
4.64535e-07
1.15046e-07
3.83041e-08
1.61022e-08
8.09567e-09
4.66089e-09
2.97274e-09
2.04963e-09
1.50054e-09
1.15142e-09
9.17576e-10
7.54996e-10
6.40059e-10
5.60711e-10
5.12715e-10
4.98534e-10
5.27803e-10
6.18987e-10
8.02034e-10
1.12197e-09
1.64334e-09
2.45559e-09
3.6791e-09
5.47197e-09
8.03723e-09
1.16302e-08
1.65657e-08
2.32242e-08
3.20571e-08
4.35903e-08
5.84251e-08
7.72372e-08
1.00771e-07
1.2983e-07
1.6526e-07
2.07928e-07
2.58681e-07
3.18303e-07
3.87447e-07
4.66549e-07
5.55718e-07
6.54606e-07
7.62246e-07
8.7688e-07
9.95765e-07
1.11499e-06
1.22934e-06
1.33219e-06
1.4154e-06
1.46977e-06
1.48545e-06
1.48141e-06
1.47803e-06
1.47485e-06
1.47185e-06
1.46898e-06
1.46621e-06
1.46352e-06
1.46085e-06
1.45819e-06
1.45549e-06
1.45272e-06
1.44985e-06
1.44805e-06
1.44624e-06
1.44442e-06
1.4426e-06
1.44077e-06
1.43894e-06
1.43712e-06
1.43531e-06
1.43353e-06
1.43178e-06
1.43007e-06
1.4284e-06
1.42681e-06
1.42528e-06
1.42383e-06
1.42247e-06
1.42121e-06
1.42006e-06
1.41901e-06
1.41809e-06
1.41728e-06
1.4166e-06
1.41604e-06
1.41561e-06
1.41585e-06
4.64562e-07
1.15052e-07
3.83059e-08
1.6103e-08
8.09601e-09
4.66108e-09
2.97285e-09
2.04967e-09
1.50043e-09
1.15093e-09
9.16128e-10
7.51236e-10
6.31133e-10
5.40954e-10
4.71505e-10
4.16882e-10
3.73181e-10
3.37766e-10
3.08844e-10
2.85207e-10
2.66081e-10
2.51036e-10
2.39934e-10
2.32905e-10
2.30337e-10
2.32879e-10
2.41449e-10
2.57242e-10
2.81743e-10
3.16724e-10
3.64245e-10
4.26632e-10
5.06438e-10
6.06383e-10
7.29246e-10
8.77721e-10
1.05419e-09
1.26044e-09
1.49724e-09
1.76384e-09
2.05731e-09
2.3718e-09
2.69768e-09
3.02071e-09
3.32137e-09
3.57445e-09
3.74941e-09
3.81166e-09
3.85613e-09
3.90506e-09
3.95707e-09
4.01311e-09
4.07687e-09
4.15408e-09
4.25375e-09
4.39012e-09
4.58552e-09
4.87491e-09
5.31265e-09
5.98255e-09
7.01249e-09
8.59546e-09
1.10187e-08
1.30892e-08
1.56997e-08
1.89579e-08
2.29816e-08
2.78982e-08
3.38428e-08
4.09556e-08
4.93793e-08
5.92556e-08
7.07222e-08
8.39087e-08
9.89339e-08
1.15903e-07
1.34902e-07
1.56002e-07
1.7925e-07
2.04671e-07
2.32268e-07
2.62024e-07
2.93895e-07
3.27821e-07
3.63718e-07
4.01489e-07
4.41018e-07
4.82237e-07
4.64562e-07
1.15052e-07
3.83059e-08
1.6103e-08
8.09601e-09
4.66108e-09
2.97285e-09
2.04967e-09
1.50043e-09
1.15093e-09
9.16126e-10
7.5123e-10
6.31119e-10
5.40924e-10
4.71444e-10
4.16763e-10
3.7296e-10
3.3737e-10
3.08159e-10
2.84061e-10
2.64223e-10
2.48107e-10
2.35435e-10
2.26157e-10
2.20435e-10
2.18645e-10
2.21377e-10
2.29445e-10
2.43903e-10
2.66054e-10
2.97473e-10
3.40017e-10
3.95861e-10
4.67524e-10
5.57934e-10
6.7051e-10
8.09297e-10
9.79164e-10
1.18611e-09
1.43769e-09
1.74366e-09
2.11687e-09
2.57456e-09
3.14015e-09
3.84584e-09
4.73622e-09
5.87351e-09
7.34498e-09
9.2736e-09
1.18334e-08
1.52716e-08
1.994e-08
2.63405e-08
3.51891e-08
4.75059e-08
6.47416e-08
8.89495e-08
1.2302e-07
1.70993e-07
2.3846e-07
3.33089e-07
4.65271e-07
6.48901e-07
7.96892e-07
9.73107e-07
1.18116e-06
1.42463e-06
1.70707e-06
2.03186e-06
2.40221e-06
2.82098e-06
3.29069e-06
3.81339e-06
4.39063e-06
5.02342e-06
5.71219e-06
6.45681e-06
7.25657e-06
8.1102e-06
9.0159e-06
9.97139e-06
1.0974e-05
1.20205e-05
1.31076e-05
1.42315e-05
1.53884e-05
1.65741e-05
1.77859e-05
4.64535e-07
1.15046e-07
3.8304e-08
1.61022e-08
8.09566e-09
4.66088e-09
2.97273e-09
2.04961e-09
1.50046e-09
1.15116e-09
9.16892e-10
7.53289e-10
6.36115e-10
5.52177e-10
4.95291e-10
4.64709e-10
4.65e-10
5.06928e-10
6.09166e-10
8.00738e-10
1.12421e-09
1.6395e-09
2.42847e-09
3.59991e-09
5.29527e-09
7.69449e-09
1.10223e-08
1.55541e-08
2.16215e-08
2.96173e-08
4.0001e-08
5.33014e-08
7.01233e-08
9.11509e-08
1.17158e-07
1.49016e-07
1.87717e-07
2.34392e-07
2.90358e-07
3.57169e-07
4.36695e-07
5.31238e-07
6.43681e-07
7.777e-07
9.38039e-07
1.13089e-06
1.36437e-06
1.64921e-06
1.99955e-06
2.43411e-06
2.9776e-06
3.66259e-06
4.53188e-06
5.64149e-06
7.06436e-06
8.89492e-06
1.12545e-05
1.42976e-05
1.82193e-05
2.32631e-05
2.97292e-05
3.79838e-05
4.84671e-05
5.6464e-05
6.54927e-05
7.56174e-05
8.68893e-05
9.93489e-05
0.000113026
0.000127939
0.000144092
0.00016148
0.000180081
0.000199864
0.000220784
0.000242786
0.000265808
0.000289776
0.000314613
0.000340233
0.000366549
0.00039347
0.000420903
0.000448756
0.000476938
0.000505358
0.000533929
0.00056259
4.64477e-07
1.15035e-07
3.83003e-08
1.61007e-08
8.09497e-09
4.66066e-09
2.97344e-09
2.05352e-09
1.51494e-09
1.19673e-09
1.04462e-09
1.08007e-09
1.41159e-09
2.27757e-09
4.1239e-09
7.72466e-09
1.43589e-08
2.60547e-08
4.59165e-08
7.85394e-08
1.30518e-07
2.11041e-07
3.3259e-07
5.11712e-07
7.69905e-07
1.13452e-06
1.63971e-06
2.32729e-06
3.24756e-06
4.45991e-06
6.03352e-06
8.04765e-06
1.05924e-05
1.37689e-05
1.76904e-05
2.24826e-05
2.82854e-05
3.52544e-05
4.35634e-05
5.34083e-05
6.50121e-05
7.86319e-05
9.45688e-05
0.00011318
0.000134894
0.000160234
0.000189835
0.00022448
0.000265127
0.000312951
0.000369384
0.000436159
0.00051536
0.000609474
0.000721434
0.000854671
0.00101315
0.00120141
0.00142455
0.00168826
0.00199873
0.00236263
0.00278685
0.00309395
0.00342346
0.00377519
0.00414844
0.00454235
0.0049559
0.00538794
0.00583715
0.00630207
0.00678115
0.00727275
0.0077752
0.00828677
0.00880575
0.00933043
0.00985915
0.0103903
0.0109223
0.0114537
0.0119831
0.0125093
0.013031
0.013547
0.0140566
0.0145593
4.64397e-07
1.15019e-07
3.82951e-08
1.6099e-08
8.0974e-09
4.68322e-09
3.08968e-09
2.5258e-09
3.14413e-09
6.15338e-09
1.46532e-08
3.54285e-08
8.22243e-08
1.81244e-07
3.79877e-07
7.59699e-07
1.45522e-06
2.67988e-06
4.76083e-06
8.18268e-06
1.36405e-05
2.2102e-05
3.48801e-05
5.37175e-05
8.08808e-05
0.000119257
0.000172452
0.000244865
0.000341769
0.000469349
0.000634762
0.000846151
0.0011127
0.00144463
0.00185322
0.00235078
0.00295063
0.00366699
0.00451489
0.00551007
0.0066688
0.00800783
0.00954425
0.0112955
0.0132792
0.0155135
0.018017
0.0208086