/*--------------------------------*- C++ -*----------------------------------*\
| =========                 |                                                 |
| \\      /  F ield         | OpenFOAM: The Open Source CFD Toolbox           |
|  \\    /   O peration     | Version:  5.x                                   |
|   \\  /    A nd           | Web:      www.OpenFOAM.org                      |
|    \\/     M anipulation  |                                                 |
\*---------------------------------------------------------------------------*/
FoamFile
{
    version     2.0;
    format      ascii;
    class       volScalarField;
    location    "600";
    object      nut;
}
// * * * * * * * * * * * * * * * * * * * * * * * * * * * * * * * * * * * * * //

dimensions      [0 2 -1 0 0 0 0];

internalField   nonuniform List<scalar> 
20540
(
2.10937e-10
3.19305e-11
2.10937e-10
6.41894e-11
2.10937e-10
1.51953e-10
2.10937e-10
3.20505e-10
2.10937e-10
5.98098e-10
2.10937e-10
1.00807e-09
2.10937e-10
1.5575e-09
2.10937e-10
2.2204e-09
2.10937e-10
2.91643e-09
2.10937e-10
3.49078e-09
2.10937e-10
3.71132e-09
2.10937e-10
3.32429e-09
2.10937e-10
2.25746e-09
2.10937e-10
9.73915e-10
2.10937e-10
2.46149e-10
2.10937e-10
6.78768e-11
2.10937e-10
4.1472e-11
2.10937e-10
3.77891e-11
2.10937e-10
3.72332e-11
2.10937e-10
3.71414e-11
2.10937e-10
3.71269e-11
2.10937e-10
3.71259e-11
2.10937e-10
3.71274e-11
2.10937e-10
3.71298e-11
2.10937e-10
3.71328e-11
2.10937e-10
3.71364e-11
2.10937e-10
3.71404e-11
2.10937e-10
3.71448e-11
2.10937e-10
3.71494e-11
2.10937e-10
3.71536e-11
2.10937e-10
3.71566e-11
2.10937e-10
3.7158e-11
2.10937e-10
3.7158e-11
2.10937e-10
3.71566e-11
2.10937e-10
3.71536e-11
2.10937e-10
3.71495e-11
2.10937e-10
3.71451e-11
2.10937e-10
3.71408e-11
2.10937e-10
3.71368e-11
2.10937e-10
3.71333e-11
2.10937e-10
3.71303e-11
2.10937e-10
3.71279e-11
2.10937e-10
3.71261e-11
2.10937e-10
3.71259e-11
2.10937e-10
3.71326e-11
2.10937e-10
3.71771e-11
2.10937e-10
3.74328e-11
2.10937e-10
3.89796e-11
2.10937e-10
4.92775e-11
2.10937e-10
1.19486e-10
2.10937e-10
4.97766e-10
2.10937e-10
1.51853e-09
2.10937e-10
2.77992e-09
2.10937e-10
3.58122e-09
2.10937e-10
3.72363e-09
2.10937e-10
3.36831e-09
2.10937e-10
2.75294e-09
2.10937e-10
2.07071e-09
2.10937e-10
1.44399e-09
2.10937e-10
9.33114e-10
2.10937e-10
5.54552e-10
2.10937e-10
2.98544e-10
2.10937e-10
1.42715e-10
2.10937e-10
6.11691e-11
2.10937e-10
3.09352e-11
1.75437e-06
1.71994e-06
1.60035e-06
1.51305e-06
1.44943e-06
1.40153e-06
1.3642e-06
1.33419e-06
1.30953e-06
1.28893e-06
1.27149e-06
1.25657e-06
1.24368e-06
1.23244e-06
1.22259e-06
1.21389e-06
1.20618e-06
1.1993e-06
1.19314e-06
1.1876e-06
1.1826e-06
1.17808e-06
1.17398e-06
1.17025e-06
1.16685e-06
1.16374e-06
1.16089e-06
1.15827e-06
1.15586e-06
1.15364e-06
1.15159e-06
1.1497e-06
1.14794e-06
1.14633e-06
1.14483e-06
1.14344e-06
1.14216e-06
1.14097e-06
1.13988e-06
1.13887e-06
1.13795e-06
1.13711e-06
1.13636e-06
1.13569e-06
1.13512e-06
1.13463e-06
1.13424e-06
1.13396e-06
1.1338e-06
1.13376e-06
1.13387e-06
1.13413e-06
1.13457e-06
1.1352e-06
1.13604e-06
1.13711e-06
1.13844e-06
1.14005e-06
1.14196e-06
1.14422e-06
1.14686e-06
1.14991e-06
1.1536e-06
1.15647e-06
1.15941e-06
1.16238e-06
1.16552e-06
1.16884e-06
1.17233e-06
1.176e-06
1.17984e-06
1.18386e-06
1.18807e-06
1.19246e-06
1.19704e-06
1.20182e-06
1.20681e-06
1.21202e-06
1.21747e-06
1.2232e-06
1.22922e-06
1.23561e-06
1.24242e-06
1.24981e-06
1.25792e-06
1.26768e-06
1.28097e-06
1.33382e-06
3.45366e-05
3.84426e-05
3.80435e-05
3.73617e-05
3.67648e-05
3.62759e-05
3.58759e-05
3.55443e-05
3.52655e-05
3.50285e-05
3.4825e-05
3.46488e-05
3.4495e-05
3.436e-05
3.42407e-05
3.41348e-05
3.40404e-05
3.39559e-05
3.38799e-05
3.38113e-05
3.37492e-05
3.36929e-05
3.36417e-05
3.35951e-05
3.35524e-05
3.35134e-05
3.34776e-05
3.34446e-05
3.34143e-05
3.33863e-05
3.33604e-05
3.33365e-05
3.33143e-05
3.32938e-05
3.32748e-05
3.32572e-05
3.32409e-05
3.32258e-05
3.32118e-05
3.31989e-05
3.3187e-05
3.31761e-05
3.31661e-05
3.31572e-05
3.31492e-05
3.31422e-05
3.31362e-05
3.31313e-05
3.31276e-05
3.31251e-05
3.3124e-05
3.31244e-05
3.31264e-05
3.31302e-05
3.3136e-05
3.31438e-05
3.3154e-05
3.31666e-05
3.31819e-05
3.32002e-05
3.32215e-05
3.32473e-05
3.32746e-05
3.32927e-05
3.33159e-05
3.33419e-05
3.33679e-05
3.33945e-05
3.3422e-05
3.34504e-05
3.34799e-05
3.35104e-05
3.35418e-05
3.35741e-05
3.36074e-05
3.36415e-05
3.36764e-05
3.37121e-05
3.37486e-05
3.37858e-05
3.38237e-05
3.38624e-05
3.39016e-05
3.39423e-05
3.398e-05
3.40313e-05
3.40439e-05
3.41887e-05
6.18507e-05
7.57065e-05
7.71311e-05
7.67447e-05
7.6104e-05
7.54867e-05
7.49449e-05
7.44791e-05
7.40786e-05
7.37327e-05
7.34322e-05
7.31698e-05
7.29395e-05
7.27362e-05
7.25559e-05
7.23954e-05
7.2252e-05
7.21233e-05
7.20074e-05
7.19028e-05
7.1808e-05
7.17219e-05
7.16437e-05
7.15723e-05
7.15071e-05
7.14475e-05
7.13927e-05
7.13423e-05
7.12959e-05
7.1253e-05
7.12135e-05
7.11769e-05
7.11431e-05
7.11117e-05
7.10827e-05
7.10558e-05
7.10308e-05
7.10076e-05
7.0986e-05
7.0966e-05
7.09474e-05
7.09301e-05
7.0914e-05
7.08992e-05
7.08855e-05
7.08729e-05
7.08614e-05
7.08509e-05
7.08414e-05
7.08328e-05
7.08253e-05
7.08188e-05
7.08135e-05
7.08093e-05
7.08064e-05
7.08047e-05
7.08043e-05
7.08053e-05
7.08075e-05
7.08113e-05
7.08154e-05
7.08248e-05
7.08232e-05
7.08108e-05
7.08127e-05
7.08244e-05
7.08334e-05
7.084e-05
7.08454e-05
7.08498e-05
7.08535e-05
7.08562e-05
7.0858e-05
7.08586e-05
7.08579e-05
7.08556e-05
7.08514e-05
7.08451e-05
7.0836e-05
7.08238e-05
7.08076e-05
7.07865e-05
7.07585e-05
7.07241e-05
7.06677e-05
7.06259e-05
7.04688e-05
7.098e-05
8.79021e-05
0.000115109
0.00011998
0.000120504
0.00012009
0.000119479
0.00011887
0.000118315
0.000117821
0.000117385
0.000117
0.00011666
0.000116359
0.000116092
0.000115854
0.000115641
0.000115451
0.000115279
0.000115124
0.000114984
0.000114858
0.000114742
0.000114637
0.000114542
0.000114454
0.000114374
0.000114301
0.000114233
0.000114171
0.000114114
0.000114061
0.000114012
0.000113967
0.000113925
0.000113886
0.00011385
0.000113816
0.000113785
0.000113756
0.000113729
0.000113704
0.00011368
0.000113658
0.000113637
0.000113617
0.000113598
0.00011358
0.000113563
0.000113546
0.000113529
0.000113513
0.000113496
0.00011348
0.000113463
0.000113447
0.00011343
0.000113412
0.000113393
0.000113373
0.000113352
0.000113327
0.000113306
0.00011326
0.000113205
0.000113169
0.000113151
0.000113129
0.000113102
0.000113071
0.000113037
0.000112998
0.000112957
0.000112912
0.000112862
0.000112809
0.000112751
0.000112688
0.000112619
0.000112544
0.000112461
0.000112369
0.000112267
0.00011215
0.000112019
0.000111852
0.000111702
0.00011144
0.000112405
0.000112862
0.000157168
0.000167678
0.000170045
0.000170293
0.000169918
0.000169372
0.000168808
0.000168274
0.000167783
0.00016734
0.000166941
0.000166584
0.000166263
0.000165976
0.000165717
0.000165485
0.000165275
0.000165085
0.000164912
0.000164756
0.000164614
0.000164484
0.000164366
0.000164258
0.000164159
0.000164068
0.000163985
0.000163908
0.000163837
0.000163771
0.000163711
0.000163655
0.000163603
0.000163555
0.000163511
0.00016347
0.000163431
0.000163395
0.000163362
0.00016333
0.0001633
0.000163272
0.000163244
0.000163218
0.000163193
0.000163167
0.000163143
0.000163117
0.00016309
0.000163063
0.000163034
0.000163003
0.00016297
0.000162935
0.000162896
0.000162854
0.000162808
0.000162757
0.0001627
0.000162634
0.00016257
0.000162465
0.000162358
0.000162269
0.000162203
0.000162137
0.000162063
0.000161982
0.000161893
0.000161799
0.000161697
0.000161589
0.000161474
0.000161352
0.000161222
0.000161083
0.000160935
0.000160776
0.000160605
0.000160421
0.000160222
0.000160002
0.000159764
0.00015948
0.000159226
0.000158923
0.000160248
0.000136187
0.000201613
0.000220639
0.000226236
0.000227839
0.000228078
0.000227824
0.000227398
0.000226923
0.00022645
0.000226
0.000225583
0.0002252
0.00022485
0.000224533
0.000224245
0.000223984
0.000223747
0.000223531
0.000223335
0.000223157
0.000222994
0.000222846
0.00022271
0.000222587
0.000222473
0.000222369
0.000222273
0.000222185
0.000222103
0.000222028
0.000221959
0.000221895
0.000221836
0.000221781
0.000221731
0.000221684
0.00022164
0.000221599
0.00022156
0.000221524
0.000221489
0.000221455
0.000221423
0.000221391
0.000221359
0.000221327
0.000221294
0.000221259
0.000221221
0.000221181
0.000221137
0.000221088
0.000221035
0.000220976
0.000220911
0.000220838
0.000220756
0.000220664
0.000220561
0.000220442
0.000220321
0.000220143
0.000219977
0.00021982
0.00021969
0.000219563
0.000219428
0.000219283
0.000219127
0.000218961
0.000218786
0.000218601
0.000218405
0.000218199
0.000217981
0.000217752
0.00021751
0.000217255
0.000216984
0.000216697
0.000216391
0.000216062
0.000215714
0.000215321
0.000214981
0.00021468
0.000216195
0.000156937
0.000247622
0.000278803
0.000289611
0.000293627
0.00029509
0.000295504
0.000295465
0.000295224
0.000294895
0.000294534
0.000294171
0.000293821
0.000293491
0.000293182
0.000292897
0.000292636
0.000292396
0.000292175
0.000291973
0.000291789
0.00029162
0.000291465
0.000291324
0.000291195
0.000291077
0.000290968
0.000290867
0.000290775
0.00029069
0.000290612
0.000290539
0.000290473
0.000290412
0.000290355
0.000290303
0.000290254
0.000290209
0.000290166
0.000290126
0.000290088
0.000290051
0.000290015
0.000289979
0.000289944
0.000289907
0.000289869
0.000289829
0.000289785
0.000289736
0.000289682
0.000289621
0.000289553
0.000289476
0.00028939
0.000289292
0.000289182
0.000289057
0.000288916
0.000288758
0.000288574
0.000288383
0.00028812
0.000287889
0.000287652
0.000287441
0.000287239
0.000287029
0.000286806
0.000286571
0.000286322
0.00028606
0.000285785
0.000285497
0.000285195
0.00028488
0.00028455
0.000284206
0.000283845
0.000283469
0.000283074
0.00028266
0.000282226
0.000281776
0.000281291
0.000280898
0.000280625
0.000282178
0.000173834
0.000293786
0.000341555
0.000360302
0.000368292
0.000371915
0.000373594
0.000374347
0.000374628
0.000374656
0.000374547
0.000374367
0.000374152
0.000373924
0.000373694
0.000373471
0.000373259
0.000373059
0.000372872
0.000372697
0.000372535
0.000372386
0.000372249
0.000372124
0.000372009
0.000371903
0.000371805
0.000371715
0.000371633
0.000371556
0.000371486
0.000371422
0.000371363
0.000371309
0.000371259
0.000371214
0.000371171
0.000371132
0.000371095
0.00037106
0.000371026
0.000370992
0.000370959
0.000370925
0.00037089
0.000370853
0.000370812
0.000370768
0.000370717
0.000370659
0.000370592
0.000370515
0.000370426
0.000370325
0.000370208
0.000370075
0.000369923
0.00036975
0.000369553
0.000369331
0.000369074
0.000368801
0.000368445
0.000368146
0.000367824
0.000367519
0.000367228
0.000366931
0.000366621
0.000366295
0.000365954
0.000365598
0.000365226
0.000364838
0.000364435
0.000364017
0.000363583
0.000363134
0.000362669
0.000362188
0.000361692
0.00036118
0.000360654
0.000360123
0.000359577
0.000359173
0.000358948
0.000360469
0.000185307
0.000338012
0.000407555
0.000437861
0.000452055
0.000459233
0.000463095
0.000465272
0.000466532
0.00046726
0.000467668
0.00046788
0.000467971
0.000467984
0.000467951
0.000467889
0.000467811
0.000467725
0.000467635
0.000467544
0.000467456
0.000467372
0.000467293
0.00046722
0.000467152
0.000467089
0.000467031
0.000466977
0.000466927
0.000466881
0.00046684
0.000466802
0.000466768
0.000466738
0.00046671
0.000466685
0.000466663
0.000466642
0.000466622
0.000466603
0.000466584
0.000466564
0.000466542
0.000466519
0.000466492
0.000466461
0.000466425
0.000466383
0.000466331
0.000466268
0.000466193
0.000466102
0.000465996
0.000465871
0.000465725
0.000465556
0.000465361
0.000465138
0.000464883
0.000464592
0.000464257
0.000463897
0.000463444
0.000463079
0.000462674
0.00046227
0.000461882
0.00046149
0.000461086
0.000460666
0.00046023
0.000459777
0.000459307
0.000458821
0.000458319
0.000457802
0.00045727
0.000456724
0.000456165
0.000455594
0.000455013
0.000454425
0.000453834
0.000453257
0.000452694
0.00045233
0.00045218
0.000453705
0.000189558
0.000377418
0.000474514
0.000521003
0.000544482
0.000557235
0.000564646
0.000569212
0.000572156
0.00057412
0.000575462
0.0005764
0.000577067
0.000577547
0.000577898
0.000578158
0.000578353
0.000578501
0.000578614
0.0005787
0.000578768
0.000578823
0.000578869
0.000578909
0.000578943
0.000578973
0.000579
0.000579024
0.000579046
0.000579066
0.000579086
0.000579106
0.000579126
0.000579145
0.000579165
0.000579185
0.000579204
0.000579222
0.000579239
0.000579255
0.000579267
0.000579277
0.000579283
0.000579284
0.000579279
0.000579267
0.000579247
0.000579218
0.000579176
0.000579118
0.000579043
0.000578948
0.000578831
0.00057869
0.000578521
0.000578321
0.000578088
0.000577819
0.000577508
0.000577152
0.000576741
0.000576296
0.000575751
0.000575327
0.000574849
0.000574354
0.000573869
0.000573384
0.000572888
0.000572378
0.000571852
0.000571309
0.000570751
0.000570177
0.000569589
0.000568988
0.000568376
0.000567754
0.000567125
0.000566491
0.000565856
0.000565228
0.000564614
0.000564038
0.000563514
0.000563245
0.000563214
0.00056486
0.000184718
0.000408243
0.000538948
0.000607281
0.000644153
0.00066532
0.000678264
0.000686646
0.000692338
0.000696351
0.000699269
0.000701448
0.000703113
0.000704411
0.000705443
0.000706278
0.000706964
0.000707536
0.000708019
0.00070843
0.000708786
0.000709098
0.000709375
0.000709623
0.000709847
0.00071005
0.000710235
0.000710404
0.000710559
0.000710703
0.000710837
0.000710964
0.000711083
0.000711196
0.000711303
0.000711404
0.000711501
0.000711591
0.000711676
0.000711755
0.000711827
0.000711892
0.00071195
0.000711998
0.000712038
0.000712066
0.000712083
0.000712085
0.00071207
0.000712035
0.000711977
0.000711894
0.000711781
0.000711638
0.000711459
0.000711243
0.000710985
0.000710681
0.000710328
0.000709921
0.000709447
0.000708932
0.000708311
0.000707843
0.000707313
0.000706746
0.000706182
0.000705616
0.000705042
0.000704457
0.000703858
0.000703245
0.00070262
0.000701982
0.000701335
0.000700679
0.000700019
0.000699355
0.000698694
0.000698039
0.000697397
0.000696779
0.000696197
0.000695682
0.000695263
0.000695149
0.0006953
0.000697211
0.00016915
0.000425841
0.000595916
0.000692692
0.000748235
0.000781676
0.000802952
0.000817216
0.000827218
0.000834493
0.000839948
0.000844146
0.000847452
0.000850104
0.000852271
0.00085407
0.000855585
0.000856875
0.000857986
0.000858952
0.0008598
0.000860553
0.000861226
0.000861833
0.000862383
0.000862883
0.00086334
0.000863759
0.000864144
0.0008645
0.000864832
0.000865141
0.000865431
0.000865704
0.00086596
0.000866202
0.00086643
0.000866644
0.000866845
0.000867033
0.000867208
0.00086737
0.000867517
0.000867651
0.000867769
0.00086787
0.000867955
0.00086802
0.000868062
0.000868078
0.000868064
0.000868019
0.000867937
0.000867817
0.000867655
0.000867446
0.000867189
0.000866877
0.000866507
0.000866075
0.000865567
0.000865012
0.000864348
0.000863862
0.000863313
0.000862709
0.000862098
0.000861483
0.000860861
0.000860231
0.000859591
0.000858942
0.000858286
0.000857624
0.000856958
0.000856292
0.00085563
0.000854976
0.000854336
0.000853717
0.000853128
0.000852583
0.0008521
0.000851716
0.000851473
0.000851574
0.000851979
0.000854279
0.000142047
0.000424853
0.000638798
0.000771248
0.000851946
0.000902734
0.000936178
0.000959231
0.000975785
0.000988086
0.000997492
0.00100487
0.00101077
0.00101558
0.00101956
0.00102291
0.00102577
0.00102822
0.00103036
0.00103222
0.00103388
0.00103535
0.00103667
0.00103787
0.00103895
0.00103994
0.00104084
0.00104167
0.00104243
0.00104314
0.00104379
0.0010444
0.00104497
0.00104551
0.00104601
0.00104648
0.00104693
0.00104734
0.00104773
0.0010481
0.00104844
0.00104876
0.00104906
0.00104934
0.00104959
0.00104981
0.00105001
0.00105019
0.00105033
0.00105044
0.00105052
0.00105055
0.00105054
0.00105049
0.00105038
0.00105023
0.00105001
0.00104973
0.00104939
0.00104898
0.00104848
0.00104794
0.00104729
0.00104682
0.00104629
0.00104571
0.0010451
0.00104449
0.00104386
0.00104324
0.00104261
0.00104197
0.00104134
0.00104071
0.00104008
0.00103946
0.00103886
0.00103828
0.00103773
0.00103721
0.00103675
0.00103635
0.00103604
0.00103587
0.00103587
0.00103624
0.00103697
0.00103973
0.000104576
0.000399731
0.000659202
0.000834553
0.000947957
0.00102249
0.00107318
0.001109
0.00113525
0.00115508
0.00117048
0.0011827
0.00119259
0.00120074
0.00120756
0.00121333
0.00121828
0.00122257
0.00122631
0.00122961
0.00123253
0.00123514
0.0012375
0.00123962
0.00124156
0.00124332
0.00124493
0.00124641
0.00124778
0.00124904
0.00125021
0.00125129
0.00125231
0.00125326
0.00125415
0.00125499
0.00125577
0.00125651
0.00125721
0.00125786
0.00125847
0.00125904
0.00125958
0.00126008
0.00126054
0.00126097
0.00126136
0.00126171
0.00126203
0.0012623
0.00126253
0.00126271
0.00126284
0.00126291
0.00126293
0.00126288
0.00126277
0.00126259
0.00126234
0.00126202
0.00126161
0.00126115
0.00126059
0.00126019
0.00125975
0.00125924
0.00125871
0.00125817
0.00125761
0.00125706
0.0012565
0.00125595
0.00125541
0.00125488
0.00125436
0.00125387
0.0012534
0.00125297
0.00125258
0.00125225
0.00125199
0.00125181
0.00125175
0.00125186
0.00125217
0.00125287
0.00125397
0.00125722
6.21982e-05
0.000345971
0.000647187
0.000871473
0.00102576
0.0011317
0.00120611
0.00125998
0.00130019
0.00133103
0.00135527
0.00137472
0.00139062
0.00140381
0.00141492
0.00142438
0.00143254
0.00143963
0.00144585
0.00145135
0.00145623
0.00146061
0.00146455
0.00146812
0.00147137
0.00147433
0.00147705
0.00147954
0.00148184
0.00148396
0.00148593
0.00148776
0.00148947
0.00149106
0.00149256
0.00149396
0.00149528
0.00149651
0.00149768
0.00149877
0.0014998
0.00150077
0.00150167
0.00150252
0.00150332
0.00150406
0.00150476
0.0015054
0.00150599
0.00150652
0.001507
0.00150742
0.00150777
0.00150807
0.00150829
0.00150845
0.00150853
0.00150855
0.00150848
0.00150835
0.00150812
0.00150785
0.00150748
0.00150722
0.00150693
0.00150658
0.00150621
0.00150582
0.00150542
0.00150502
0.00150463
0.00150425
0.00150388
0.00150353
0.0015032
0.00150291
0.00150266
0.00150246
0.00150232
0.00150225
0.00150227
0.00150239
0.00150265
0.00150309
0.00150378
0.00150483
0.00150632
0.00151003
2.72653e-05
0.000262783
0.000592223
0.00086809
0.00107111
0.00121706
0.00132304
0.00140167
0.00146146
0.001508
0.00154501
0.001575
0.0015997
0.00162035
0.00163784
0.00165281
0.00166577
0.00167708
0.00168702
0.00169583
0.00170368
0.00171073
0.00171708
0.00172285
0.00172809
0.00173288
0.00173727
0.0017413
0.00174502
0.00174845
0.00175164
0.0017546
0.00175737
0.00175995
0.00176236
0.00176463
0.00176675
0.00176875
0.00177063
0.0017724
0.00177406
0.00177563
0.0017771
0.00177849
0.0017798
0.00178103
0.00178218
0.00178326
0.00178427
0.00178521
0.00178608
0.00178687
0.00178758
0.00178822
0.00178879
0.00178927
0.00178968
0.00179001
0.00179026
0.00179043
0.00179052
0.00179057
0.00179053
0.00179049
0.00179043
0.00179033
0.00179021
0.00179007
0.00178993
0.00178978
0.00178964
0.00178951
0.00178941
0.00178933
0.00178929
0.00178929
0.00178933
0.00178944
0.00178962
0.00178988
0.00179025
0.00179073
0.00179137
0.00179219
0.00179326
0.00179468
0.00179655
0.00180066
8.98975e-06
0.000158472
0.000485849
0.000808401
0.00106578
0.00126043
0.00140689
0.00151842
0.0016049
0.00167324
0.00172823
0.00177323
0.00181059
0.00184203
0.00186879
0.00189182
0.00191183
0.00192935
0.0019448
0.00195852
0.00197077
0.00198179
0.00199174
0.00200077
0.00200899
0.00201651
0.0020234
0.00202974
0.00203558
0.00204099
0.002046
0.00205066
0.00205501
0.00205907
0.00206287
0.00206643
0.00206977
0.00207291
0.00207586
0.00207864
0.00208125
0.00208372
0.00208605
0.00208824
0.00209031
0.00209227
0.00209412
0.00209587
0.00209751
0.00209906
0.0021005
0.00210186
0.00210312
0.00210429
0.00210536
0.00210635
0.00210725
0.00210806
0.00210878
0.00210943
0.00211
0.00211053
0.00211096
0.00211125
0.00211153
0.00211177
0.00211199
0.0021122
0.00211241
0.00211261
0.00211282
0.00211305
0.00211329
0.00211357
0.00211389
0.00211425
0.00211467
0.00211516
0.00211572
0.00211636
0.00211712
0.002118
0.00211903
0.00212025
0.0021217
0.00212346
0.00212566
0.00213006
2.44721e-06
6.29735e-05
0.000328811
0.000676975
0.00098818
0.00123845
0.00143449
0.00158813
0.00170983
0.00180758
0.00188724
0.00195309
0.00200823
0.00205494
0.00209493
0.00212951
0.00215967
0.00218616
0.0022096
0.00223047
0.00224915
0.00226597
0.00228118
0.002295
0.0023076
0.00231913
0.00232971
0.00233944
0.00234842
0.00235674
0.00236445
0.00237162
0.00237831
0.00238455
0.0023904
0.00239587
0.00240101
0.00240584
0.00241038
0.00241465
0.00241868
0.00242248
0.00242607
0.00242946
0.00243267
0.0024357
0.00243858
0.0024413
0.00244389
0.00244633
0.00244864
0.00245082
0.00245288
0.00245482
0.00245665
0.00245836
0.00245997
0.00246148
0.00246289
0.00246421
0.00246545
0.00246665
0.00246776
0.00246849
0.00246921
0.0024699
0.00247056
0.00247121
0.00247185
0.0024725
0.00247314
0.0024738
0.00247447
0.00247518
0.00247592
0.0024767
0.00247754
0.00247844
0.00247941
0.00248047
0.00248163
0.0024829
0.00248432
0.0024859
0.00248768
0.00248972
0.00249215
0.00249667
5.73211e-07
1.54882e-05
0.000150995
0.000467388
0.000816337
0.00112324
0.00137614
0.00158114
0.00174753
0.00188365
0.00199617
0.00209023
0.00216971
0.00223754
0.00229598
0.00234677
0.00239125
0.00243048
0.0024653
0.00249637
0.00252426
0.00254941
0.0025722
0.00259294
0.00261187
0.00262921
0.00264513
0.00265979
0.00267334
0.00268588
0.00269752
0.00270835
0.00271844
0.00272788
0.00273671
0.00274498
0.00275274
0.00276004
0.0027669
0.00277336
0.00277946
0.00278521
0.00279064
0.00279578
0.00280064
0.00280525
0.00280962
0.00281377
0.00281772
0.00282146
0.00282501
0.00282839
0.0028316
0.00283465
0.00283755
0.00284029
0.0028429
0.00284538
0.00284774
0.00284999
0.00285214
0.00285423
0.00285622
0.00285753
0.00285881
0.00286005
0.00286125
0.00286243
0.00286359
0.00286474
0.00286589
0.00286703
0.00286819
0.00286936
0.00287056
0.00287178
0.00287305
0.00287437
0.00287575
0.00287719
0.00287872
0.00288034
0.00288208
0.00288394
0.00288595
0.00288816
0.00289068
0.00289506
1.12819e-07
2.79194e-06
3.74573e-05
0.000213188
0.000539427
0.000886665
0.00119688
0.00146004
0.00168019
0.0018643
0.002019
0.00215003
0.0022619
0.00235819
0.00244171
0.00251472
0.00257899
0.00263591
0.0026866
0.00273198
0.00277281
0.00280973
0.00284325
0.0028738
0.00290172
0.00292733
0.00295088
0.00297259
0.00299266
0.00301126
0.00302853
0.00304461
0.00305962
0.00307363
0.00308676
0.00309906
0.00311061
0.00312146
0.00313167
0.00314129
0.00315036
0.00315892
0.00316701
0.00317467
0.00318192
0.00318879
0.00319532
0.00320152
0.00320742
0.00321304
0.00321837
0.00322345
0.00322829
0.0032329
0.00323729
0.00324148
0.00324547
0.00324928
0.00325292
0.00325641
0.00325976
0.00326301
0.00326612
0.00326816
0.00327012
0.00327202
0.00327386
0.00327565
0.0032774
0.00327911
0.0032808
0.00328246
0.00328411
0.00328575
0.00328739
0.00328904
0.00329071
0.0032924
0.00329412
0.00329588
0.00329768
0.00329955
0.00330148
0.00330348
0.00330558
0.00330779
0.00331022
0.00331412
1.52892e-08
4.13899e-07
5.61144e-06
4.78488e-05
0.000213216
0.000519445
0.000863904
0.00118224
0.00146133
0.0017017
0.00190793
0.00208546
0.00223897
0.00237237
0.00248903
0.00259172
0.00268266
0.00276358
0.00283594
0.00290094
0.0029596
0.00301279
0.0030612
0.00310541
0.00314591
0.0031831
0.00321734
0.00324895
0.00327821
0.00330534
0.00333057
0.00335408
0.00337602
0.00339654
0.00341575
0.00343377
0.00345069
0.0034666
0.00348158
0.00349569
0.003509
0.00352157
0.00353344
0.00354469
0.00355533
0.00356543
0.00357502
0.00358413
0.0035928
0.00360106
0.00360892
0.00361639
0.00362352
0.0036303
0.00363677
0.00364293
0.00364881
0.00365442
0.00365978
0.0036649
0.00366981
0.00367453
0.00367904
0.00368198
0.00368478
0.00368745
0.00369003
0.0036925
0.00369489
0.00369721
0.00369945
0.00370163
0.00370375
0.00370583
0.00370787
0.00370987
0.00371185
0.00371381
0.00371576
0.0037177
0.00371963
0.00372157
0.00372351
0.00372547
0.00372744
0.00372945
0.00373156
0.00373455
6.91982e-10
4.93358e-08
6.44191e-07
5.84633e-06
3.7272e-05
0.000151999
0.000393186
0.000715663
0.0010426
0.00133979
0.00160344
0.00183603
0.00204042
0.00222016
0.00237899
0.00252009
0.00264593
0.00275854
0.00285968
0.00295091
0.00303357
0.00310878
0.00317744
0.00324031
0.00329802
0.00335111
0.00340008
0.00344534
0.00348729
0.00352625
0.00356251
0.00359633
0.00362793
0.00365751
0.00368523
0.00371125
0.0037357
0.00375869
0.00378034
0.00380076
0.00382002
0.00383821
0.0038554
0.00387168
0.0038871
0.00390172
0.0039156
0.00392878
0.00394133
0.00395328
0.00396466
0.00397547
0.00398577
0.00399556
0.00400488
0.00401375
0.00402219
0.00403021
0.00403785
0.00404512
0.00405204
0.00405864
0.0040649
0.00406894
0.00407274
0.00407634
0.00407976
0.004083
0.00408609
0.00408903
0.00409183
0.0040945
0.00409705
0.0040995
0.00410184
0.00410409
0.00410625
0.00410833
0.00411033
0.00411225
0.00411411
0.0041159
0.00411763
0.0041193
0.00412091
0.00412248
0.00412399
0.00412558
2.32003e-11
4.01065e-09
6.01273e-08
5.28064e-07
3.50951e-06
1.82545e-05
7.20617e-05
0.000205467
0.000436164
0.000732857
0.00104262
0.00133191
0.00159186
0.00182482
0.00203448
0.00222329
0.00239314
0.002546
0.00268403
0.00280923
0.0029233
0.00302761
0.00312321
0.00321099
0.00329175
0.00336619
0.00343495
0.00349862
0.00355773
0.00361272
0.003664
0.0037119
0.00375673
0.00379874
0.00383815
0.00387518
0.00390999
0.00394276
0.00397362
0.00400273
0.00403021
0.00405616
0.00408071
0.00410394
0.00412594
0.00414681
0.00416662
0.00418543
0.00420332
0.00422035
0.00423656
0.004252
0.00426666
0.00428058
0.0042938
0.00430634
0.00431823
0.0043295
0.00434017
0.00435027
0.00435981
0.00436881
0.00437726
0.00438266
0.00438768
0.00439238
0.00439678
0.00440089
0.00440474
0.00440834
0.0044117
0.00441483
0.00441775
0.00442048
0.00442301
0.00442535
0.00442753
0.00442953
0.00443138
0.00443307
0.0044346
0.00443599
0.00443724
0.00443836
0.00443934
0.0044402
0.00444083
0.00444053
1.03641e-11
1.03921e-10
4.13217e-09
3.83224e-08
2.47852e-07
1.29406e-06
5.68304e-06
2.10718e-05
6.46131e-05
0.000159775
0.000322821
0.000550451
0.000818859
0.00109746
0.0013638
0.00160782
0.00182837
0.00202819
0.00221057
0.00237803
0.00253216
0.00267404
0.00280458
0.0029247
0.00303535
0.00313751
0.00323208
0.00331989
0.00340165
0.00347794
0.00354929
0.0036161
0.00367874
0.00373753
0.00379276
0.00384467
0.00389351
0.0039395
0.00398283
0.00402371
0.0040623
0.00409876
0.00413326
0.00416591
0.00419685
0.00422619
0.00425404
0.00428049
0.00430564
0.00432956
0.00435233
0.00437401
0.00439463
0.00441419
0.00443271
0.00445023
0.00446679
0.00448241
0.00449712
0.00451094
0.00452391
0.00453602
0.00454727
0.00455439
0.00456092
0.00456697
0.00457254
0.00457768
0.00458239
0.00458671
0.00459064
0.00459422
0.00459746
0.00460037
0.00460296
0.00460526
0.00460727
0.00460901
0.00461048
0.00461169
0.00461266
0.00461339
0.0046139
0.0046142
0.00461431
0.0046142
0.00461368
0.00461108
1.00202e-11
5.22598e-12
1.29129e-10
2.08074e-09
1.39146e-08
7.09917e-08
3.0688e-07
1.15751e-06
3.87073e-06
1.15434e-05
3.06439e-05
7.15415e-05
0.000145938
0.000262336
0.000422589
0.000620703
0.000844347
0.00107877
0.001311
0.00153218
0.00173781
0.00192668
0.00209961
0.00225834
0.00240479
0.00254069
0.00266742
0.00278601
0.00289721
0.0030016
0.0030996
0.00319162
0.00327802
0.00335914
0.00343532
0.00350691
0.00357423
0.00363759
0.0036973
0.00375363
0.00380683
0.00385713
0.00390474
0.00394985
0.00399264
0.00403325
0.00407183
0.0041085
0.00414337
0.00417654
0.00420812
0.00423818
0.00426679
0.00429402
0.00431975
0.00434402
0.00436688
0.00438836
0.0044085
0.00442731
0.00444483
0.00446105
0.00447593
0.00448527
0.00449375
0.0045015
0.00450855
0.00451494
0.0045207
0.00452586
0.00453045
0.00453451
0.00453804
0.00454109
0.00454366
0.00454579
0.0045475
0.00454879
0.0045497
0.00455024
0.00455043
0.00455029
0.00454985
0.00454912
0.00454812
0.00454686
0.004545
0.00453996
1.00134e-11
3.77814e-12
3.2312e-12
5.38438e-11
5.65338e-10
3.03422e-09
1.2945e-08
4.80061e-08
1.58954e-07
4.76551e-07
1.30893e-06
3.3196e-06
7.81668e-06
1.71284e-05
3.48482e-05
6.559e-05
0.000114133
0.000184319
0.000278223
0.000395802
0.00053494
0.000691776
0.000861283
0.001038
0.00121675
0.00139314
0.00156387
0.00172671
0.00188041
0.00202448
0.00215898
0.00228433
0.00240115
0.00251014
0.00261203
0.00270753
0.00279725
0.00288177
0.00296158
0.00303708
0.00310865
0.00317658
0.00324114
0.00330253
0.00336096
0.00341659
0.00346957
0.00352002
0.00356808
0.00361385
0.00365743
0.00369892
0.0037384
0.00377595
0.00381164
0.00384522
0.00387674
0.00390625
0.00393378
0.00395936
0.00398301
0.00400473
0.00402448
0.00403674
0.00404779
0.00405777
0.00406674
0.00407475
0.00408185
0.00408809
0.00409351
0.00409816
0.00410207
0.00410529
0.00410784
0.00410977
0.00411111
0.0041119
0.00411216
0.00411193
0.00411125
0.00411015
0.00410866
0.00410681
0.00410464
0.00410214
0.00409897
0.00409185
1.00149e-11
3.75006e-12
1.8372e-12
1.59595e-12
9.96615e-12
8.5156e-11
4.07386e-10
1.5242e-09
4.99649e-09
1.48142e-08
4.03425e-08
1.01919e-07
2.40821e-07
5.35953e-07
1.12946e-06
2.2636e-06
4.3309e-06
7.93375e-06
1.39351e-05
2.34707e-05
3.78967e-05
5.86677e-05
8.71691e-05
0.000124549
0.000171592
0.000228656
0.000295668
0.000372164
0.000457351
0.000550181
0.000649425
0.000753749
0.000861783
0.000972185
0.00108369
0.00119516
0.00130558
0.00141412
0.00152009
0.00162296
0.00172232
0.00181792
0.00190958
0.00199721
0.0020808
0.00216039
0.00223606
0.00230792
0.00237608
0.00244069
0.00250189
0.00255983
0.00261464
0.00266647
0.00271552
0.00276181
0.00280499
0.00284513
0.00288232
0.00291661
0.00294805
0.00297667
0.00300245
0.00301829
0.00303247
0.00304516
0.00305646
0.00306644
0.00307517
0.00308273
0.00308918
0.0030946
0.00309905
0.00310258
0.00310526
0.00310714
0.00310828
0.00310874
0.00310855
0.00310778
0.00310646
0.00310466
0.0031024
0.00309974
0.00309671
0.00309333
0.00308937
0.00308183
1.00166e-11
3.75014e-12
1.81524e-12
1.0708e-12
8.08136e-13
1.36551e-12
6.86974e-12
3.24042e-11
1.13785e-10
3.40871e-10
9.24369e-10
2.31943e-09
5.44571e-09
1.20567e-08
2.53198e-08
5.06823e-08
9.71237e-08
1.78893e-07
3.17766e-07
5.45813e-07
9.08672e-07
1.4694e-06
2.31283e-06
3.54999e-06
5.32174e-06
7.80034e-06
1.1188e-05
1.57116e-05
2.16143e-05
2.91435e-05
3.85381e-05
5.00155e-05
6.37595e-05
7.99114e-05
9.85637e-05
0.000119758
0.000143485
0.000169688
0.000198268
0.000229089
0.000261985
0.000296768
0.000333229