/*--------------------------------*- C++ -*----------------------------------*\
| =========                 |                                                 |
| \\      /  F ield         | OpenFOAM: The Open Source CFD Toolbox           |
|  \\    /   O peration     | Version:  5.x                                   |
|   \\  /    A nd           | Web:      www.OpenFOAM.org                      |
|    \\/     M anipulation  |                                                 |
\*---------------------------------------------------------------------------*/
FoamFile
{
    version     2.0;
    format      ascii;
    class       volScalarField;
    location    "600";
    object      p;
}
// * * * * * * * * * * * * * * * * * * * * * * * * * * * * * * * * * * * * * //

dimensions      [0 2 -2 0 0 0 0];

internalField   nonuniform List<scalar> 
20540
(
54.87
56.8977
54.87
56.898
54.87
56.8987
54.87
56.8995
54.87
56.9001
54.87
56.9
54.87
56.8991
54.87
56.8969
54.87
56.8927
54.87
56.8858
54.87
56.8754
54.87
56.8605
54.87
56.8401
54.87
56.8131
54.87
56.7787
54.87
56.7359
54.87
56.6839
54.8699
56.6216
54.8699
56.5474
54.8698
56.4594
54.8696
56.3554
54.8694
56.2335
54.8691
56.0914
54.8685
55.9276
54.8678
55.7409
54.8667
55.5315
54.8653
55.302
54.8635
55.0581
54.8613
54.8113
54.859
54.5811
54.8571
54.4207
54.8562
54.3431
54.8562
54.3438
54.8572
54.4229
54.859
54.5823
54.8613
54.8051
54.8634
55.0445
54.8652
55.282
54.8666
55.507
54.8677
55.7135
54.8684
55.899
54.869
56.063
54.8694
56.2062
54.8696
56.33
54.8698
56.4364
54.8699
56.5271
54.87
56.6041
54.87
56.6693
54.87
56.7241
54.87
56.7699
54.8701
56.8075
54.8701
56.8376
54.8701
56.861
54.8701
56.8787
54.8701
56.8915
54.8701
56.9004
54.8701
56.9063
54.8701
56.9099
54.87
56.9118
54.87
56.9125
54.87
56.9124
54.87
56.9118
54.87
56.911
54.87
56.9103
54.87
56.9101
50.6217
35.915
24.6177
15.779
8.14485
1.04801
-5.65759
-11.9642
-17.8894
-23.4761
-28.7623
-33.7763
-38.5398
-43.0716
-47.3882
-51.5042
-55.4322
-59.1838
-62.7692
-66.1978
-69.4785
-72.619
-75.627
-78.5091
-81.2718
-83.9209
-86.4619
-88.8999
-91.2397
-93.486
-95.643
-97.715
-99.7058
-101.619
-103.459
-105.228
-106.931
-108.57
-110.149
-111.672
-113.142
-114.563
-115.939
-117.273
-118.572
-119.838
-121.078
-122.296
-123.499
-124.692
-125.884
-127.08
-128.288
-129.516
-130.772
-132.065
-133.404
-134.8
-136.261
-137.803
-139.43
-141.183
-142.973
-144.828
-146.357
-147.765
-149.217
-150.711
-152.242
-153.811
-155.419
-157.067
-158.755
-160.485
-162.258
-164.077
-165.943
-167.861
-169.833
-171.867
-173.968
-176.149
-178.422
-180.817
-183.327
-186.183
-188.768
-194.289
50.6352
35.9169
24.6183
15.7793
8.1451
1.0482
-5.65744
-11.964
-17.8893
-23.476
-28.7622
-33.7762
-38.5397
-43.0715
-47.3881
-51.5041
-55.4322
-59.1837
-62.7691
-66.1978
-69.4784
-72.619
-75.627
-78.5091
-81.2718
-83.9209
-86.4619
-88.8999
-91.2397
-93.486
-95.643
-97.715
-99.7057
-101.619
-103.459
-105.228
-106.931
-108.57
-110.149
-111.672
-113.142
-114.563
-115.939
-117.273
-118.572
-119.838
-121.078
-122.296
-123.499
-124.692
-125.884
-127.08
-128.288
-129.516
-130.772
-132.065
-133.405
-134.8
-136.261
-137.803
-139.43
-141.184
-142.973
-144.828
-146.357
-147.765
-149.218
-150.711
-152.242
-153.812
-155.419
-157.067
-158.755
-160.486
-162.259
-164.078
-165.944
-167.862
-169.834
-171.868
-173.97
-176.151
-178.424
-180.82
-183.33
-186.188
-188.776
-194.136
50.6519
35.9207
24.6195
15.78
8.14556
1.04855
-5.65716
-11.9638
-17.8891
-23.4758
-28.7621
-33.7761
-38.5396
-43.0714
-47.388
-51.504
-55.4321
-59.1837
-62.7691
-66.1977
-69.4784
-72.6189
-75.6269
-78.5091
-81.2718
-83.9209
-86.4618
-88.8998
-91.2397
-93.4859
-95.643
-97.7149
-99.7057
-101.619
-103.459
-105.228
-106.931
-108.57
-110.149
-111.672
-113.142
-114.563
-115.939
-117.273
-118.572
-119.838
-121.078
-122.296
-123.499
-124.692
-125.884
-127.08
-128.288
-129.516
-130.772
-132.066
-133.405
-134.8
-136.262
-137.803
-139.431
-141.184
-142.974
-144.829
-146.358
-147.766
-149.218
-150.712
-152.243
-153.812
-155.42
-157.068
-158.757
-160.487
-162.26
-164.079
-165.946
-167.864
-169.837
-171.871
-173.973
-176.154
-178.428
-180.824
-183.336
-186.196
-188.787
-193.956
50.6641
35.9263
24.6212
15.781
8.14623
1.04905
-5.65677
-11.9635
-17.8889
-23.4756
-28.7619
-33.7759
-38.5394
-43.0713
-47.3879
-51.5039
-55.432
-59.1835
-62.769
-66.1976
-69.4783
-72.6189
-75.6268
-78.509
-81.2717
-83.9208
-86.4618
-88.8998
-91.2396
-93.4859
-95.6429
-97.7149
-99.7057
-101.619
-103.459
-105.228
-106.931
-108.57
-110.149
-111.672
-113.142
-114.563
-115.939
-117.273
-118.572
-119.838
-121.078
-122.296
-123.499
-124.693
-125.884
-127.08
-128.288
-129.516
-130.772
-132.066
-133.405
-134.8
-136.262
-137.803
-139.431
-141.185
-142.974
-144.829
-146.359
-147.767
-149.219
-150.713
-152.244
-153.814
-155.422
-157.07
-158.758
-160.489
-162.262
-164.082
-165.948
-167.867
-169.84
-171.874
-173.977
-176.159
-178.433
-180.83
-183.343
-186.206
-188.793
-193.793
50.6731
35.9335
24.6238
15.7823
8.14712
1.04971
-5.65624
-11.963
-17.8885
-23.4752
-28.7616
-33.7756
-38.5392
-43.0711
-47.3877
-51.5037
-55.4318
-59.1834
-62.7688
-66.1975
-69.4782
-72.6187
-75.6267
-78.5089
-81.2716
-83.9207
-86.4617
-88.8997
-91.2395
-93.4858
-95.6428
-97.7148
-99.7056
-101.619
-103.459
-105.228
-106.931
-108.57
-110.149
-111.672
-113.142
-114.563
-115.939
-117.273
-118.572
-119.838
-121.078
-122.296
-123.499
-124.693
-125.884
-127.08
-128.288
-129.516
-130.773
-132.066
-133.405
-134.8
-136.262
-137.804
-139.431
-141.185
-142.975
-144.83
-146.36
-147.768
-149.221
-150.714
-152.245
-153.815
-155.424
-157.072
-158.76
-160.491
-162.265
-164.085
-165.952
-167.87
-169.844
-171.879
-173.982
-176.164
-178.439
-180.837
-183.351
-186.215
-188.795
-193.684
50.6802
35.9428
24.6272
15.7842
8.14833
1.05059
-5.65555
-11.9625
-17.888
-23.4748
-28.7612
-33.7753
-38.5389
-43.0708
-47.3875
-51.5035
-55.4316
-59.1832
-62.7687
-66.1974
-69.478
-72.6186
-75.6266
-78.5088
-81.2715
-83.9206
-86.4616
-88.8996
-91.2394
-93.4857
-95.6427
-97.7147
-99.7055
-101.619
-103.459
-105.228
-106.931
-108.57
-110.149
-111.672
-113.142
-114.563
-115.939
-117.273
-118.572
-119.838
-121.078
-122.296
-123.499
-124.693
-125.884
-127.08
-128.288
-129.516
-130.773
-132.066
-133.405
-134.801
-136.263
-137.805
-139.432
-141.186
-142.976
-144.831
-146.361
-147.769
-149.222
-150.716
-152.247
-153.817
-155.426
-157.074
-158.763
-160.494
-162.268
-164.088
-165.956
-167.875
-169.849
-171.884
-173.988
-176.171
-178.446
-180.846
-183.36
-186.223
-188.793
-193.631
50.6853
35.9542
24.6319
15.7866
8.14995
1.05177
-5.65463
-11.9617
-17.8874
-23.4743
-28.7607
-33.7749
-38.5385
-43.0705
-47.3872
-51.5032
-55.4313
-59.183
-62.7684
-66.1971
-69.4778
-72.6184
-75.6264
-78.5086
-81.2713
-83.9204
-86.4614
-88.8994
-91.2393
-93.4856
-95.6426
-97.7146
-99.7054
-101.619
-103.458
-105.228
-106.93
-108.57
-110.149
-111.672
-113.142
-114.563
-115.939
-117.273
-118.572
-119.838
-121.078
-122.296
-123.499
-124.693
-125.884
-127.08
-128.288
-129.517
-130.773
-132.066
-133.406
-134.801
-136.263
-137.805
-139.433
-141.187
-142.977
-144.833
-146.363
-147.771
-149.224
-150.718
-152.25
-153.82
-155.429
-157.078
-158.767
-160.498
-162.273
-164.093
-165.961
-167.88
-169.854
-171.89
-173.995
-176.179
-178.455
-180.855
-183.37
-186.228
-188.788
-193.609
50.688
35.9679
24.6381
15.79
8.15212
1.05333
-5.65342
-11.9607
-17.8866
-23.4736
-28.7601
-33.7743
-38.538
-43.07
-47.3868
-51.5028
-55.431
-59.1827
-62.7681
-66.1969
-69.4775
-72.6182
-75.6262
-78.5084
-81.2711
-83.9202
-86.4613
-88.8993
-91.2391
-93.4854
-95.6425
-97.7144
-99.7052
-101.619
-103.458
-105.228
-106.93
-108.57
-110.149
-111.672
-113.142
-114.563
-115.938
-117.273
-118.571
-119.838
-121.077
-122.296
-123.499
-124.693
-125.884
-127.08
-128.288
-129.517
-130.773
-132.067
-133.406
-134.802
-136.264
-137.806
-139.434
-141.189
-142.979
-144.835
-146.365
-147.773
-149.226
-150.72
-152.252
-153.823
-155.432
-157.081
-158.771
-160.502
-162.277
-164.098
-165.966
-167.886
-169.861
-171.897
-174.002
-176.187
-178.463
-180.863
-183.379
-186.228
-188.779
-193.588
50.6877
35.9837
24.6462
15.7945
8.155
1.0554
-5.65183
-11.9594
-17.8855
-23.4726
-28.7593
-33.7736
-38.5374
-43.0695
-47.3862
-51.5024
-55.4306
-59.1822
-62.7678
-66.1965
-69.4772
-72.6179
-75.6259
-78.5081
-81.2708
-83.92
-86.461
-88.899
-91.2389
-93.4852
-95.6423
-97.7142
-99.7051
-101.618
-103.458
-105.228
-106.93
-108.569
-110.149
-111.672
-113.142
-114.563
-115.938
-117.273
-118.571
-119.838
-121.077
-122.296
-123.499
-124.693
-125.884
-127.08
-128.289
-129.517
-130.774
-132.067
-133.407
-134.803
-136.265
-137.807
-139.435
-141.19
-142.981
-144.837
-146.367
-147.775
-149.229
-150.723
-152.256
-153.827
-155.436
-157.085
-158.775
-160.507
-162.283
-164.104
-165.973
-167.893
-169.868
-171.905
-174.01
-176.195
-178.472
-180.871
-183.386
-186.22
-188.765
-193.536
50.6841
36.0016
24.6565
15.8004
8.15883
1.05814
-5.64972
-11.9577
-17.8841
-23.4714
-28.7583
-33.7727
-38.5366
-43.0687
-47.3856
-51.5017
-55.43
-59.1817
-62.7673
-66.196
-69.4768
-72.6174
-75.6255
-78.5077
-81.2705
-83.9197
-86.4607
-88.8987
-91.2386
-93.4849
-95.642
-97.714
-99.7048
-101.618
-103.458
-105.227
-106.93
-108.569
-110.148
-111.671
-113.141
-114.562
-115.938
-117.273
-118.571
-119.838
-121.077
-122.296
-123.499
-124.693
-125.884
-127.08
-128.289
-129.517
-130.774
-132.068
-133.408
-134.804
-136.266
-137.808
-139.437
-141.192
-142.983
-144.839
-146.37
-147.778
-149.232
-150.727
-152.259
-153.831
-155.44
-157.09
-158.78
-160.513
-162.289
-164.11
-165.979
-167.9
-169.876
-171.913
-174.018
-176.203
-178.479
-180.875
-183.387
-186.199
-188.74
-193.427
50.6769
36.021
24.6692
15.808
8.16388
1.06176
-5.64696
-11.9555
-17.8822
-23.4699
-28.7569
-33.7715
-38.5355
-43.0677
-47.3847
-51.5009
-55.4292
-59.181
-62.7666
-66.1954
-69.4762
-72.6169
-75.625
-78.5072
-81.27
-83.9192
-86.4603
-88.8983
-91.2382
-93.4846
-95.6417
-97.7137
-99.7045
-101.618
-103.458
-105.227
-106.93
-108.569
-110.148
-111.671
-113.141
-114.562
-115.938
-117.273
-118.571
-119.838
-121.077
-122.296
-123.499
-124.693
-125.884
-127.081
-128.289
-129.518
-130.775
-132.068
-133.408
-134.804
-136.267
-137.81
-139.438
-141.194
-142.985
-144.841
-146.373
-147.782
-149.235
-150.73
-152.263
-153.835
-155.445
-157.095
-158.786
-160.518
-162.294
-164.116
-165.986
-167.906
-169.882
-171.919
-174.024
-176.208
-178.482
-180.874
-183.379
-186.159
-188.698
-193.236
50.6657
36.0415
24.6845
15.8178
8.17049
1.06652
-5.64331
-11.9526
-17.8798
-23.4678
-28.7551
-33.7699
-38.5341
-43.0665
-47.3835
-51.4999
-55.4283
-59.1801
-62.7658
-66.1947
-69.4755
-72.6162
-75.6243
-78.5066
-81.2695
-83.9187
-86.4598
-88.8978
-91.2378
-93.4841
-95.6412
-97.7132
-99.7041
-101.618
-103.457
-105.227
-106.929
-108.569
-110.148
-111.671
-113.141
-114.562
-115.938
-117.273
-118.571
-119.837
-121.077
-122.296
-123.499
-124.693
-125.884
-127.081
-128.289
-129.518
-130.775
-132.069
-133.409
-134.805
-136.268
-137.811
-139.44
-141.195
-142.987
-144.844
-146.376
-147.785
-149.238
-150.734
-152.267
-153.839
-155.449
-157.1
-158.79
-160.524
-162.3
-164.122
-165.991
-167.911
-169.887
-171.923
-174.027
-176.208
-178.478
-180.862
-183.357
-186.093
-188.628
-192.945
50.6503
36.0624
24.7022
15.8301
8.17902
1.07274
-5.63854
-11.9488
-17.8766
-23.4651
-28.7528
-33.7679
-38.5323
-43.0648
-47.382
-51.4985
-55.427
-59.179
-62.7647
-66.1937
-69.4745
-72.6153
-75.6235
-78.5058
-81.2687
-83.918
-86.4591
-88.8972
-91.2371
-93.4835
-95.6406
-97.7127
-99.7035
-101.617
-103.457
-105.226
-106.929
-108.568
-110.147
-111.67
-113.14
-114.561
-115.937
-117.272
-118.571
-119.837
-121.077
-122.295
-123.499
-124.693
-125.884
-127.081
-128.29
-129.518
-130.775
-132.07
-133.41
-134.806
-136.269
-137.812
-139.442
-141.197
-142.989
-144.846
-146.379
-147.788
-149.241
-150.737
-152.27
-153.842
-155.453
-157.103
-158.794
-160.527
-162.303
-164.125
-165.993
-167.913
-169.887
-171.921
-174.022
-176.199
-178.462
-180.833
-183.31
-185.99
-188.512
-192.543
50.6301
36.0832
24.7218
15.845
8.18984
1.08079
-5.63231
-11.9438
-17.8725
-23.4616
-28.7497
-33.7652
-38.5299
-43.0627
-47.3801
-51.4967
-55.4254
-59.1775
-62.7633
-66.1923
-69.4733
-72.6142
-75.6224
-78.5048
-81.2677
-83.917
-86.4582
-88.8963
-91.2363
-93.4827
-95.6399
-97.7119
-99.7028
-101.616
-103.456
-105.226
-106.928
-108.568
-110.147
-111.67
-113.14
-114.561
-115.937
-117.272
-118.57
-119.837
-121.076
-122.295
-123.498
-124.692
-125.884
-127.081
-128.289
-129.518
-130.776
-132.07
-133.41
-134.807
-136.27
-137.813
-139.443
-141.198
-142.991
-144.847
-146.38
-147.791
-149.243
-150.739
-152.272
-153.844
-155.454
-157.105
-158.795
-160.528
-162.303
-164.123
-165.991
-167.909
-169.88
-171.911
-174.006
-176.175
-178.427
-180.778
-183.228
-185.837
-188.329
-192.026
50.6044
36.1038
24.7422
15.8624
8.20324
1.09104
-5.62428
-11.9373
-17.8671
-23.457
-28.7457
-33.7617
-38.5268
-43.0599
-47.3775
-51.4944
-55.4232
-59.1755
-62.7614
-66.1906
-69.4717
-72.6127
-75.621
-78.5034
-81.2664
-83.9158
-86.457
-88.8952
-91.2352
-93.4817
-95.6389
-97.711
-99.7019
-101.615
-103.455
-105.225
-106.927
-108.567
-110.146
-111.669
-113.139
-114.56
-115.936
-117.271
-118.569
-119.836
-121.076
-122.295
-123.498
-124.692
-125.884
-127.08
-128.289
-129.518
-130.776
-132.07
-133.41
-134.807
-136.27
-137.814
-139.444
-141.198
-142.992
-144.847
-146.381
-147.792
-149.242
-150.738
-152.271
-153.843
-155.453
-157.102
-158.791
-160.523
-162.296
-164.115
-165.979
-167.894
-169.861
-171.885
-173.972
-176.129
-178.363
-180.685
-183.093
-185.615
-188.053
-191.388
50.5719
36.1249
24.7623
15.8818
8.21931
1.10382
-5.61406
-11.9289
-17.8601
-23.451
-28.7405
-33.7571
-38.5227
-43.0562
-47.3742
-51.4914
-55.4204
-59.1729
-62.759
-66.1884
-69.4696
-72.6107
-75.6191
-78.5016
-81.2647
-83.9142
-86.4554
-88.8937
-91.2338
-93.4803
-95.6375
-97.7097
-99.7007
-101.614
-103.454
-105.224
-106.926
-108.566
-110.145
-111.668
-113.138
-114.559
-115.935
-117.27
-118.569
-119.835
-121.075
-122.294
-123.497
-124.691
-125.883
-127.08
-128.288
-129.517
-130.775
-132.069
-133.409
-134.806
-136.27
-137.813
-139.443
-141.195
-142.991
-144.844
-146.378
-147.79
-149.238
-150.733
-152.266
-153.836
-155.444
-157.092
-158.78
-160.508
-162.279
-164.093
-165.953
-167.862
-169.821
-171.835
-173.908
-176.046
-178.253
-180.535
-182.884
-185.303
-187.655
-190.627
50.5303
36.1479
24.781
15.9018
8.2377
1.11926
-5.60136
-11.9184
-17.8511
-23.4433
-28.7338
-33.7512
-38.5174
-43.0514
-47.3699
-51.4874
-55.4168
-59.1695
-62.7559
-66.1854
-69.4668
-72.608
-75.6166
-78.4993
-81.2625
-83.912
-86.4534
-88.8917
-91.2319
-93.4785
-95.6358
-97.708
-99.699
-101.613
-103.453
-105.222
-106.925
-108.564
-110.144
-111.667
-113.137
-114.558
-115.934
-117.269
-118.567
-119.834
-121.074
-122.292
-123.496
-124.69
-125.882
-127.078
-128.287
-129.516
-130.773
-132.067
-133.407
-134.804
-136.267
-137.81
-139.439
-141.19
-142.987
-144.836
-146.369
-147.783
-149.228
-150.721
-152.252
-153.82
-155.426
-157.071
-158.755
-160.479
-162.244
-164.052
-165.905
-167.803
-169.75
-171.748
-173.801
-175.91
-178.078
-180.304
-182.574
-184.872
-187.106
-189.736
50.4779
36.1737
24.7982
15.9207
8.25744
1.13712
-5.58605
-11.9053
-17.8399
-23.4336
-28.7252
-33.7435
-38.5106
-43.0452
-47.3642
-51.4822
-55.412
-59.165
-62.7517
-66.1815
-69.4631
-72.6046
-75.6133
-78.4962
-81.2595
-83.9092
-86.4507
-88.8892
-91.2294
-93.4761
-95.6335
-97.7058
-99.6969
-101.611
-103.45
-105.22
-106.923
-108.562
-110.142
-111.665
-113.135
-114.556
-115.932
-117.267
-118.566
-119.832
-121.072
-122.291
-123.494
-124.688
-125.879
-127.076
-128.284
-129.513
-130.77
-132.063
-133.403
-134.799
-136.261
-137.803
-139.432
-141.179
-142.978
-144.821
-146.353
-147.768
-149.208
-150.698
-152.226
-153.791
-155.392
-157.032
-158.709
-160.426
-162.183
-163.981
-165.821
-167.704
-169.632
-171.606
-173.628
-175.696
-177.81
-179.96
-182.13
-184.289
-186.377
-188.699
50.4141
36.2023
24.8151
15.9373
8.27688
1.15656
-5.56841
-11.8898
-17.8262
-23.4215
-28.7145
-33.7339
-38.5018
-43.0373
-47.357
-51.4755
-55.4058
-59.1593
-62.7463
-66.1765
-69.4584
-72.6001
-75.609
-78.4921
-81.2556
-83.9055
-86.4471
-88.8857
-91.2261
-93.4729
-95.6304
-97.7028
-99.694
-101.608
-103.448
-105.217
-106.92
-108.56
-110.139
-111.662
-113.133
-114.554
-115.93
-117.265
-118.563
-119.83
-121.069
-122.288
-123.491
-124.684
-125.876
-127.072
-128.28
-129.508
-130.764
-132.057
-133.396
-134.79
-136.251
-137.791
-139.418
-141.161
-142.96
-144.796
-146.324
-147.739
-149.174
-150.657
-152.18
-153.739
-155.333
-156.965
-158.633
-160.338
-162.082
-163.864
-165.685
-167.545
-169.444
-171.383
-173.36
-175.371
-177.41
-179.465
-181.512
-183.515
-185.44
-187.492
50.3381
36.234
24.8324
15.9512
8.29405
1.17602
-5.54921
-11.8721
-17.8102
-23.407
-28.7014
-33.722
-38.4909
-43.0273
-47.3477
-51.467
-55.3978
-59.1519
-62.7394
-66.1699
-69.4522
-72.5942
-75.6035
-78.4868
-81.2506
-83.9006
-86.4425
-88.8813
-91.2218
-93.4687
-95.6264
-97.6989
-99.6902
-101.604
-103.444
-105.214
-106.917
-108.556
-110.136
-111.659
-113.129
-114.551
-115.926
-117.261
-118.56
-119.826
-121.065
-122.284
-123.486
-124.679
-125.87
-127.065
-128.272
-129.499
-130.755
-132.046
-133.383
-134.775
-136.234
-137.77
-139.394
-141.131
-142.93
-144.754
-146.275
-147.69
-149.116
-150.591
-152.106
-153.655
-155.238
-156.856
-158.509
-160.197
-161.92
-163.678
-165.47
-167.296
-169.154
-171.042
-172.956
-174.891
-176.834
-178.769
-180.671
-182.507
-184.259
-186.077
50.2485
36.2702
24.8513
15.9631
8.30727
1.19296
-5.53015
-11.8529
-17.7921
-23.3902
-28.6859
-33.7077
-38.4778
-43.0151
-47.3364
-51.4563
-55.3879
-59.1425
-62.7305
-66.1615
-69.4442
-72.5866
-75.5963
-78.4799
-81.244
-83.8943
-86.4364
-88.8754
-91.2162
-93.4633
-95.6211
-97.6937
-99.6852
-101.599
-103.439
-105.209
-106.912
-108.552
-110.132
-111.655
-113.125
-114.546
-115.922
-117.257
-118.555
-119.821
-121.06
-122.277
-123.479
-124.672
-125.861
-127.055
-128.261
-129.487
-130.74
-132.029
-133.363
-134.752
-136.206
-137.738
-139.356
-141.083
-142.881
-144.688
-146.198
-147.608
-149.024
-150.486
-151.987
-153.521
-155.087
-156.685
-158.315
-159.977
-161.67
-163.392
-165.142
-166.918
-168.717
-170.535
-172.365
-174.198
-176.021
-177.815
-179.555
-181.214
-182.792
-184.403
50.1433
36.3119
24.8735
15.9755
8.31777
1.2044
-5.5153
-11.8348
-17.7728
-23.3714
-28.6681
-33.6911
-38.4623
-43.0007
-47.3228
-51.4435
-55.3757
-59.1309
-62.7196
-66.1511
-69.4343
-72.5771
-75.5871
-78.4711
-81.2355
-83.8862
-86.4286
-88.8678
-91.2088
-93.4562
-95.6142
-97.687
-99.6787
-101.593
-103.433
-105.203
-106.906
-108.546
-110.126
-111.649
-113.119
-114.54
-115.916
-117.25
-118.548
-119.813
-121.052
-122.269
-123.47
-124.661
-125.849
-127.04
-128.244
-129.467
-130.717
-132.002
-133.331
-134.715
-136.163
-137.686
-139.296
-141.009
-142.801
-144.585
-146.08
-147.48
-148.88
-150.323
-151.804
-153.315
-154.855
-156.423
-158.019
-159.642
-161.29
-162.96
-164.65
-166.357
-168.075
-169.798
-171.518
-173.224
-174.902
-176.534
-178.099
-179.577
-180.982
-182.403
50.0207
36.3596
24.8999
15.9899
8.3295
1.2139
-5.50681
-11.8244
-17.7583
-23.3531
-28.6483
-33.6717
-38.444
-42.9836
-47.3067
-51.4284
-55.3614
-59.1174
-62.7066
-66.1387
-69.4223
-72.5656
-75.5759
-78.4603
-81.225
-83.876
-86.4187
-88.8583
-91.1995
-93.4471
-95.6054
-97.6784
-99.6702
-101.585
-103.425
-105.195
-106.898
-108.538
-110.118
-111.641
-113.111
-114.532
-115.907
-117.241
-118.538
-119.803
-121.041
-122.256
-123.456
-124.645
-125.83
-127.019
-128.218
-129.437
-130.682
-131.961
-133.283
-134.658
-136.096
-137.607
-139.203
-140.897
-142.677
-144.43
-145.899
-147.283
-148.66
-150.075
-151.525
-153.002
-154.503
-156.028
-157.575
-159.141
-160.725
-162.322
-163.929
-165.54
-167.15
-168.751
-170.333
-171.885
-173.394
-174.846
-176.226
-177.521
-178.753
-179.994
49.8791
36.4131
24.9313
16.0064
8.34339
1.22576
-5.49765
-11.8176
-17.7521
-23.3452
-28.6368
-33.656
-38.4249
-42.9628
-47.2861
-51.4089
-55.3435
-59.1008
-62.6912
-66.124
-69.4082
-72.552
-75.5628
-78.4476
-81.2127
-83.864
-86.407
-88.8468
-91.1883
-93.4361
-95.5945
-97.6677
-99.6597
-101.574
-103.415
-105.185
-106.888
-108.528
-110.108
-111.631
-113.101
-114.521
-115.896
-117.229
-118.526
-119.789
-121.025
-122.239
-123.436
-124.622
-125.804
-126.987
-128.181
-129.393
-130.63
-131.9
-133.211
-134.573
-135.995
-137.488
-139.062
-140.73
-142.486
-144.197
-145.63
-146.985
-148.329
-149.703
-151.108
-152.535
-153.98
-155.442
-156.918
-158.404
-159.898
-161.395
-162.888
-164.373
-165.843
-167.288
-168.701
-170.072
-171.39
-172.646
-173.829
-174.934
-175.988
-177.05
49.7176
36.4721
24.9683
16.0251
8.3592
1.23956
-5.48624
-11.8081
-17.7443
-23.3393
-28.6323
-33.6516
-38.4191
-42.9541
-47.2737
-51.3926
-55.3238
-59.0791
-62.6686
-66.1019
-69.3873
-72.5326
-75.5451
-78.4314
-81.1978
-83.8501
-86.3938
-88.8341
-91.176
-93.424
-95.5825
-97.6558
-99.6477
-101.562
-103.403
-105.173
-106.876
-108.516
-110.095
-111.618
-113.087
-114.507
-115.881
-117.213
-118.508
-119.77
-121.003
-122.214
-123.407
-124.588
-125.764
-126.941
-128.126
-129.327
-130.552
-131.809
-133.104
-134.446
-135.844
-137.31
-138.851
-140.481
-142.198
-143.851
-145.231
-146.542
-147.838
-149.155
-150.495
-151.851
-153.217
-154.591
-155.969
-157.347
-158.72
-160.083
-161.43
-162.755
-164.051
-165.31
-166.525
-167.689
-168.797
-169.841
-170.817
-171.725
-172.591
-173.464
49.5363
36.5355
25.0114
16.0459
8.3769
1.25517
-5.47339
-11.7974
-17.7349
-23.3306
-28.6244
-33.6447
-38.4136
-42.9503
-47.271
-51.3903
-55.3209
-59.0744
-62.6614
-66.0915
-69.3735
-72.5155
-75.525
-78.4089
-81.1736
-83.825
-86.3686
-88.8094
-91.1522
-93.4015
-95.5615
-97.6363
-99.6298
-101.546
-103.388
-105.159
-106.863
-108.503
-110.083
-111.605
-113.075
-114.494
-115.867
-117.197
-118.49
-119.749
-120.979
-122.184
-123.372
-124.546
-125.713
-126.88
-128.052
-129.236
-130.442
-131.677
-132.947
-134.259
-135.623
-137.047
-138.54
-140.112
-141.768
-143.339
-144.644
-145.888
-147.111
-148.345
-149.593
-150.848
-152.103
-153.355
-154.598
-155.829
-157.042
-158.231
-159.39
-160.513
-161.594
-162.627
-163.608
-164.531
-165.394
-166.195
-166.933
-167.611
-168.255
-168.906
49.3372
36.6015
25.0606
16.0686
8.39627
1.27251
-5.45913
-11.7855
-17.7245
-23.3212
-28.6158
-33.6367
-38.4061
-42.943
-47.2639
-51.3836
-55.3149
-59.0697
-62.6582
-66.0897
-69.3729
-72.5156
-75.5252
-78.4086
-81.1723
-83.8221
-86.3636
-88.802
-91.1421
-93.3886
-95.5458
-97.6178
-99.6086
-101.522
-103.362
-105.131
-106.833
-108.472
-110.05
-111.571
-113.039
-114.457
-115.828
-117.156
-118.446
-119.701
-120.927
-122.127
-123.307
-124.472
-125.628
-126.78
-127.935
-129.098
-130.277
-131.48
-132.714
-133.985
-135.299
-136.664
-138.089
-139.581
-141.147
-142.615
-143.821
-144.971
-146.095
-147.218
-148.344
-149.466
-150.576
-151.67
-152.744
-153.792
-154.808
-155.788
-156.726
-157.617
-158.456
-159.239
-159.965
-160.63
-161.235
-161.779
-162.265
-162.697
-163.09
-163.477
49.1256
36.6676
25.1151
16.0927
8.41681
1.29118
-5.44377
-11.7727
-17.7133
-23.3111
-28.6065
-33.6283
-38.3983
-42.9356
-47.257
-51.3771
-55.3088
-59.0636
-62.652
-66.0832
-69.3661
-72.5087
-75.5184
-78.4022
-81.1666
-83.8174
-86.3601
-88.7999
-91.1414
-93.3892
-95.5475
-97.6205
-99.6121
-101.526
-103.366
-105.135
-106.836
-108.474
-110.05
-111.569
-113.034
-114.448
-115.815
-117.138
-118.421
-119.668
-120.883
-122.072
-123.238
-124.386
-125.521
-126.649
-127.776
-128.906
-130.044
-131.198
-132.374
-133.577
-134.814
-136.091
-137.411
-138.781
-140.205
-141.517
-142.592
-143.605
-144.583
-145.55
-146.507
-147.447
-148.364
-149.253
-150.108
-150.925
-151.7
-152.425
-153.097
-153.71
-154.259
-154.741
-155.151
-155.485
-155.74
-155.913
-156.002
-156.006
-155.923
-155.766
48.9112
36.7302
25.1725
16.1172
8.43755
1.31037
-5.42797
-11.7596
-17.7018
-23.3007
-28.5971
-33.6196
-38.3902
-42.9281
-47.2499
-51.3703
-55.3023
-59.0574
-62.646
-66.0776
-69.361
-72.504
-75.5141
-78.3983
-81.1627
-83.8134
-86.3558
-88.795
-91.1358
-93.3829
-95.5404
-97.6126
-99.6033
-101.516
-103.355
-105.124
-106.824
-108.461
-110.037
-111.554
-113.017
-114.429
-115.792
-117.11
-118.387
-119.627
-120.832
-122.008
-123.158
-124.286
-125.397
-126.496
-127.586
-128.673
-129.76
-130.852
-131.955
-133.074
-134.213
-135.373
-136.557
-137.767
-138.998
-140.137
-141.067
-141.91
-142.704
-143.478
-144.232
-144.96
-145.653
-146.309
-146.924
-147.494
-148.016
-148.486
-148.903
-149.264
-149.568
-149.812
-149.997
-150.122
-150.188
-150.196
-150.146
-150.041
-149.88
-149.668
48.7112
36.7846
25.228
16.1403
8.45686
1.32855
-5.41297
-11.7472
-17.691
-23.2909
-28.5881
-33.6113
-38.3825
-42.9208
-47.243
-51.3638
-55.2961
-59.0515
-62.6404
-66.0722
-69.3557
-72.4988
-75.509
-78.3931
-81.1576
-83.8083
-86.3508
-88.7902
-91.1313
-93.3787
-95.5367
-97.6093
-99.6005
-101.514
-103.353
-105.121
-106.821
-108.457
-110.031
-111.546
-113.006
-114.413
-115.77
-117.08
-118.348
-119.574
-120.764
-121.921
-123.047
-124.146
-125.222
-126.279
-127.319
-128.347
-129.365
-130.377
-131.386
-132.394
-133.404
-134.415
-135.426
-136.437
-137.439
-138.345
-139.073
-139.711
-140.295
-140.85
-141.377
-141.87
-142.323
-142.736
-143.106
-143.433
-143.716
-143.955
-144.15
-144.301
-144.41
-144.48
-144.512
-144.509
-144.474
-144.411
-144.323
-144.214
-144.088
-143.949
48.5718
36.8203
25.268
16.1567
8.47034
1.34142
-5.40235
-11.7384
-17.6833
-23.284
-28.5817
-33.6054
-38.3771
-42.9158
-47.2383
-51.3593
-55.2918
-59.0474
-62.6364
-66.0684
-69.352
-72.4953
-75.5057
-78.3899
-81.1545
-83.8054
-86.348
-88.7875
-91.1286
-93.3759
-95.5337
-97.6059
-99.5966
-101.509
-103.347
-105.114
-106.813
-108.447
-110.019
-111.531
-112.987
-114.388
-115.739
-117.041
-118.298
-119.512
-120.685
-121.821
-122.921
-123.989
-125.028
-126.039
-127.025
-127.989
-128.931
-129.854
-130.759
-131.647
-132.517
-133.367
-134.196
-134.999
-135.769
-136.439
-136.959
-137.4
-137.785
-138.136
-138.453
-138.732
-138.97
-139.168
-139.326
-139.444
-139.523
-139.564
-139.569
-139.539
-139.477
-139.385
-139.266
-139.123
-138.958
-138.775
-138.577
-138.366
-138.146
-137.92
48.5045
36.8372
25.2881
16.1651
8.47726
1.34807
-5.3968
-11.7338
-17.6792
-23.2803
-28.5783
-33.6023
-38.3742
-42.913
-47.2356
-51.3568
-55.2894
-59.0451
-62.6342
-66.0663
-69.35
-72.4933
-75.5037
-78.3881
-81.1527
-83.8035
-86.3461
-88.7855
-91.1266
-93.3739
-95.5316
-97.6037
-99.5942
-101.507
-103.344
-105.111
-106.809
-108.441
-110.011
-111.52
-112.972
-114.369
-115.713
-117.007
-118.253
-119.453
-120.609
-121.723
-122.797
-123.833
-124.833
-125.797
-126.728
-127.626
-128.491
-129.325
-130.127
-130.895
-131.629
-132.325
-132.979
-133.586
-134.14
-134.588
-134.918
-135.181
-135.393
-135.566
-135.703
-135.803
-135.863
-135.887
-135.874
-135.827
-135.747
-135.636
-135.497
-135.331
-135.143
-134.933
-134.704
-134.46
-134.201
-133.932
-133.653
-133.367
-133.076
-132.781
48.505
36.8369
25.2879
16.1651
8.47723
1.348
-5.39686
-11.7338
-17.6793
-23.2803
-28.5784
-33.6023
-38.3742
-42.913
-47.2357
-51.3568
-55.2895
-59.0451
-62.6342
-66.0663
-69.35
-72.4933
-75.5038
-78.3881
-81.1527
-83.8036
-86.3461
-88.7855
-91.1265
-93.3737
-95.5313
-97.6033
-99.5935
-101.505
-103.343
-105.108
-106.805
-108.436
-110.003
-111.51
-112.958
-114.35
-115.687
-116.973
-118.207
-119.393
-120.532
-121.624
-122.672
-123.676
-124.637
-125.555
-126.43
-127.263
-128.053
-128.8
-129.501
-130.154
-130.757
-131.306
-131.796
-132.222
-132.575
-132.822
-132.981
-133.085
-133.144
-133.165
-133.148
-133.095
-133.007
-132.884
-132.73
-132.546
-132.335
-132.099
-131.841
-131.563
-131.268
-130.958
-130.636
-130.304
-129.964
-129.618
-129.268
-128.917
-128.564
-128.213
48.5734
36.8192
25.2674
16.1567
8.47027
1.34124
-5.4025
-11.7385
-17.6834
-23.2841
-28.5818
-33.6055
-38.3772
-42.9158
-47.2383
-51.3594
-55.2919
-59.0475
-62.6365
-66.0684
-69.352
-72.4953
-75.5057
-78.39
-81.1546
-83.8054
-86.3479
-88.7873
-91.1282
-93.3753
-95.5327
-97.6045
-99.5944
-101.506
-103.342
-105.107
-106.802
-108.432
-109.997
-111.5
-112.944
-114.331
-115.662
-116.938
-118.162
-119.334
-120.456
-121.527
-122.549
-123.522
-124.444
-125.317
-126.14
-126.911
-127.628
-128.291
-128.896
-129.441
-129.922
-130.335
-130.674
-130.934
-131.108
-131.176
-131.183
-131.148
-131.076
-130.967
-130.822
-130.642
-130.43
-130.188
-129.918
-129.624
-129.307
-128.971
-128.618
-128.25
-127.87
-127.481
-127.084
-126.682
-126.277
-125.87
-125.464
-125.059
-124.659
-124.263
48.7117
36.7834
25.2277
16.1406
8.45695
1.32847
-5.41304
-11.7472
-17.691
-23.2909
-28.5881
-33.6113
-38.3825
-42.9208
-47.243
-51.3639
-55.2962
-59.0515
-62.6404
-66.0722
-69.3557
-72.4989
-75.5091
-78.3932
-81.1576
-83.8083
-86.3506
-88.7898
-91.1306
-93.3776
-95.5349
-97.6066
-99.5964
-101.508
-103.344
-105.108
-106.803
-108.431
-109.994
-111.495
-112.936
-114.318
-115.642
-116.911
-118.124
-119.283
-120.387
-121.438
-122.434
-123.376
-124.262
-125.091
-125.862
-126.572
-127.22
-127.803
-128.317
-128.76
-129.127
-129.415
-129.617
-129.727
-129.738
-129.637
-129.502
-129.344
-129.157
-128.936
-128.679
-128.391
-128.074
-127.73
-127.364
-126.977
-126.573
-126.153
-125.721
-125.28
-124.831
-124.378
-123.921
-123.464
-123.009
-122.556
-122.108
-121.666
-121.231
-120.805
48.9051
36.7304
25.174
16.1184
8.43831
1.31086
-5.42758
-11.7593
-17.7015
-23.3005
-28.5968
-33.6193
-38.39
-42.9278
-47.2496
-51.3701
-55.3022
-59.0572
-62.6458
-66.0774
-69.3607
-72.5038
-75.5139
-78.3981
-81.1625
-83.8131
-86.3554
-88.7945
-91.1351
-93.3817
-95.5385
-97.6096
-99.5986
-101.509
-103.344
-105.107
-106.8
-108.426
-109.988
-111.486
-112.923
-114.301
-115.62
-116.882
-118.087
-119.235
-120.326
-121.36
-122.336
-123.253
-124.109
-124.902
-125.63
-126.292
-126.883
-127.4
-127.841
-128.201
-128.477
-128.665
-128.759
-128.756
-128.649
-128.408
-128.15
-127.899
-127.633
-127.333
-126.997
-126.629
-126.236
-125.82
-125.385
-124.931
-124.463
-123.983
-123.493
-122.995
-122.492
-121.984
-121.474
-120.963
-120.452
-119.942
-119.434
-118.929
-118.428
-117.928
49.1129
36.6696
25.1183
16.0947
8.41825
1.29223
-5.44291
-11.772
-17.7126
-23.3105
-28.606
-33.6278
-38.3978
-42.9351
-47.2565
-51.3767
-55.3084
-59.0633
-62.6516
-66.083
-69.3659
-72.5086
-75.5183
-78.402
-81.1662
-83.8167
-86.3591