/*--------------------------------*- C++ -*----------------------------------*\
| =========                 |                                                 |
| \\      /  F ield         | OpenFOAM: The Open Source CFD Toolbox           |
|  \\    /   O peration     | Version:  5.x                                   |
|   \\  /    A nd           | Web:      www.OpenFOAM.org                      |
|    \\/     M anipulation  |                                                 |
\*---------------------------------------------------------------------------*/
FoamFile
{
    version     2.0;
    format      ascii;
    class       surfaceScalarField;
    location    "600";
    object      phi;
}
// * * * * * * * * * * * * * * * * * * * * * * * * * * * * * * * * * * * * * //

dimensions      [0 3 -1 0 0 0 0];

internalField   nonuniform List<scalar> 
40747
(
1.48845e-05
-4.0178e-09
6.49085e-06
8.39367e-06
1.80058e-05
-8.5137e-09
1.28336e-05
1.16631e-05
2.17818e-05
-1.36249e-08
1.94339e-05
1.51815e-05
2.63495e-05
-1.92585e-08
2.6393e-05
1.93904e-05
3.18749e-05
-2.51795e-08
3.37375e-05
2.45304e-05
3.85585e-05
-3.09299e-08
4.14457e-05
3.08503e-05
4.66431e-05
-3.57267e-08
4.94504e-05
3.86384e-05
5.64223e-05
-3.83472e-08
5.76349e-05
4.82377e-05
6.82511e-05
-3.70133e-08
6.58281e-05
6.00579e-05
8.25591e-05
-2.92878e-08
7.38006e-05
7.45866e-05
9.98661e-05
-1.19844e-08
8.12674e-05
9.23993e-05
0.000120801
1.89159e-08
8.79007e-05
0.000114168
0.000146124
6.83456e-08
9.33592e-05
0.000140665
0.000176756
1.4221e-07
9.73434e-05
0.000172772
0.000213811
2.47374e-07
9.9684e-05
0.00021147
0.000258636
3.91496e-07
0.00010047
0.000257851
0.000312863
5.82573e-07
0.000100069
0.000313263
0.000378464
8.28185e-07
9.88853e-05
0.000379648
0.000457829
1.13463e-06
9.71514e-05
0.000459563
0.000553848
1.50599e-06
9.49431e-05
0.000556056
0.000670017
1.94272e-06
9.22399e-05
0.000672721
0.00081057
2.43965e-06
8.89707e-05
0.00081384
0.000980627
2.98306e-06
8.5036e-05
0.000984562
0.00118638
3.54671e-06
8.03145e-05
0.00119111
0.00143534
4.08688e-06
7.46637e-05
0.001441
0.00173658
4.53653e-06
6.79165e-05
0.00174333
0.00210107
4.79961e-06
5.98772e-05
0.00210911
0.00254209
4.74783e-06
5.03137e-05
0.00255166
0.0030757
4.225e-06
3.89451e-05
0.00308707
0.00372128
3.06896e-06
2.54201e-05
0.00373481
0.00356597
1.6077e-06
1.26152e-05
0.00357878
0.00356614
-1.79946e-08
-1.18173e-07
0.00357887
0.00356613
-1.64217e-06
-1.28524e-05
0.00357887
0.00356597
-3.09878e-06
-2.56601e-05
0.00357878
0.00360839
-4.2183e-06
-3.87764e-05
0.00362151
0.00300139
-4.74133e-06
-4.98656e-05
0.00301248
0.00249648
-4.81461e-06
-5.92487e-05
0.00250587
0.00207652
-4.58127e-06
-6.71832e-05
0.00208445
0.00172722
-4.16074e-06
-7.38829e-05
0.00173392
0.0014367
-3.64413e-06
-7.95291e-05
0.00144235
0.00119506
-3.09638e-06
-8.42768e-05
0.00119981
0.000994089
-2.56098e-06
-8.82596e-05
0.000998073
0.000826927
-2.06498e-06
-9.15915e-05
0.00083026
0.000687888
-1.62341e-06
-9.43685e-05
0.000690666
0.000572238
-1.24289e-06
-9.66648e-05
0.000574534
0.00047604
-9.24359e-07
-9.85189e-05
0.000477894
0.000396021
-6.6504e-07
-9.99025e-05
0.000397405
0.000329458
-4.59768e-07
-0.000100668
0.000330224
0.000274088
-3.01927e-07
-0.000100506
0.000273926
0.000228026
-1.84203e-07
-9.90295e-05
0.000226549
0.000189707
-9.93067e-08
-9.6016e-05
0.000186693
0.000157828
-4.05104e-08
-9.15097e-05
0.000153322
0.000131307
-1.91093e-09
-8.57277e-05
0.000125525
0.000109242
2.15034e-08
-7.89643e-05
0.000102479
9.08851e-05
3.3881e-08
-7.15286e-05
8.34495e-05
7.56125e-05
3.85743e-08
-6.37071e-05
6.7791e-05
6.29059e-05
3.82159e-08
-5.57436e-05
5.49424e-05
5.23342e-05
3.47979e-08
-4.78319e-05
4.44225e-05
4.35389e-05
2.97567e-08
-4.01152e-05
3.58222e-05
3.62212e-05
2.407e-08
-3.26898e-05
2.87959e-05
3.01333e-05
1.83577e-08
-2.56095e-05
2.30529e-05
2.50683e-05
1.29788e-08
-1.88877e-05
1.83466e-05
2.08547e-05
8.11479e-09
-1.24946e-05
1.44615e-05
1.73491e-05
3.8329e-09
-6.32845e-06
1.1183e-05
1.44329e-05
8.10446e-06
2.16352e-06
6.23015e-06
1.8976e-06
2.65919e-07
1.80024e-06
9.73564e-08
1.73785e-06
6.23944e-08
1.6933e-06
4.4546e-08
1.65962e-06
3.36789e-08
1.63305e-06
2.65724e-08
1.61145e-06
2.1607e-08
1.59352e-06
1.79291e-08
1.57841e-06
1.51026e-08
1.56553e-06
1.28796e-08
1.55443e-06
1.10989e-08
1.54479e-06
9.64969e-09
1.53633e-06
8.45294e-09
1.52888e-06
7.45154e-09
1.52228e-06
6.60486e-09
1.51639e-06
5.88371e-09
1.51113e-06
5.26575e-09
1.50639e-06
4.73254e-09
1.50213e-06
4.26878e-09
1.49826e-06
3.86225e-09
1.49476e-06
3.50375e-09
1.49157e-06
3.18645e-09
1.48867e-06
2.90508e-09
1.48601e-06
2.65518e-09
1.48358e-06
2.43274e-09
1.48135e-06
2.23404e-09
1.47929e-06
2.05573e-09
1.47739e-06
1.89487e-09
1.47565e-06
1.74898e-09
1.47403e-06
1.61603e-09
1.47254e-06
1.49435e-09
1.47115e-06
1.38256e-09
1.46987e-06
1.27944e-09
1.46869e-06
1.18387e-09
1.4676e-06
1.09476e-09
1.46658e-06
1.01102e-09
1.46565e-06
9.31505e-10
1.4648e-06
8.55067e-10
1.46402e-06
7.80477e-10
1.46331e-06
7.06462e-10
1.46268e-06
6.31679e-10
1.46212e-06
5.54723e-10
1.46165e-06
4.74119e-10
1.46126e-06
3.88318e-10
1.46097e-06
2.9569e-10
1.46077e-06
1.94415e-10
1.46069e-06
8.14751e-11
1.46074e-06
-4.55701e-11
1.46092e-06
-1.86969e-10
1.46127e-06
-3.43815e-10
1.46179e-06
-5.18076e-10
1.4625e-06
-7.11194e-10
1.46342e-06
-9.24721e-10
1.46458e-06
-1.16081e-09
1.46601e-06
-1.42244e-09
1.46772e-06
-1.71309e-09
1.46976e-06
-2.03644e-09
1.47215e-06
-2.39381e-09
1.47495e-06
-2.80054e-09
1.47817e-06
-3.22174e-09
1.48205e-06
-3.87166e-09
1.48672e-06
-4.6735e-09
1.48987e-06
-3.15186e-09
1.4929e-06
-3.02478e-09
1.49627e-06
-3.36683e-09
1.49997e-06
-3.70036e-09
1.5039e-06
-3.93616e-09
1.50807e-06
-4.16019e-09
1.51245e-06
-4.38607e-09
1.51707e-06
-4.61864e-09
1.52193e-06
-4.85755e-09
1.52704e-06
-5.10757e-09
1.53241e-06
-5.36907e-09
1.53806e-06
-5.64838e-09
1.54401e-06
-5.94746e-09
1.55029e-06
-6.27555e-09
1.55693e-06
-6.63891e-09
1.56399e-06
-7.05199e-09
1.57152e-06
-7.53207e-09
1.57963e-06
-8.10803e-09
1.58847e-06
-8.83021e-09
1.59825e-06
-9.77667e-09
1.60943e-06
-1.11754e-08
1.6229e-06
-1.34575e-08
1.64336e-06
-2.04531e-08
1.71236e-06
-6.89942e-08
-8.11799e-07
2.52416e-06
5.26811e-06
1.26252e-05
4.63266e-06
9.01366e-07
4.41585e-06
3.14169e-07
4.2846e-06
1.93643e-07
4.19271e-06
1.36443e-07
4.12378e-06
1.02607e-07
4.06956e-06
8.07881e-08
4.02552e-06
6.56515e-08
3.98897e-06
5.44738e-08
3.95818e-06
4.58937e-08
3.93191e-06
3.91502e-08
3.90926e-06
3.37504e-08
3.88955e-06
2.93559e-08
3.87228e-06
2.57262e-08
3.85704e-06
2.26882e-08
3.84353e-06
2.01189e-08
3.83148e-06
1.79297e-08
3.8207e-06
1.60528e-08
3.811e-06
1.44326e-08
3.80224e-06
1.30229e-08
3.79432e-06
1.17868e-08
3.78713e-06
1.06964e-08
3.78058e-06
9.7309e-09
3.77461e-06
8.8744e-09
3.76915e-06
8.11337e-09
3.76415e-06
7.43566e-09
3.75955e-06
6.83004e-09
3.75532e-06
6.28636e-09
3.75142e-06
5.79573e-09
3.74782e-06
5.35061e-09
3.74449e-06
4.94485e-09
3.74141e-06
4.57334e-09
3.73856e-06
4.23185e-09
3.73593e-06
3.91664e-09
3.73349e-06
3.62426e-09
3.73123e-06
3.35133e-09
3.72915e-06
3.09446e-09
3.72723e-06
2.85014e-09
3.72547e-06
2.61472e-09
3.72387e-06
2.38438e-09
3.72242e-06
2.15512e-09
3.72113e-06
1.9227e-09
3.72e-06
1.68268e-09
3.71904e-06
1.43039e-09
3.71827e-06
1.1609e-09
3.7177e-06
8.69031e-10
3.71734e-06
5.48974e-10
3.71723e-06
1.90473e-10
3.7174e-06
-2.13669e-10
3.71788e-06
-6.63829e-10
3.7187e-06
-1.1639e-09
3.7199e-06
-1.71996e-09
3.72153e-06
-2.33662e-09
3.72362e-06
-3.01892e-09
3.72623e-06
-3.77361e-09
3.72942e-06
-4.6106e-09
3.73325e-06
-5.54042e-09
3.73779e-06
-6.57623e-09
3.74312e-06
-7.71872e-09
3.74935e-06
-9.02991e-09
3.75648e-06
-1.03478e-08
3.76515e-06
-1.25476e-08
3.77544e-06
-1.49606e-08
3.7825e-06
-1.02109e-08
3.78938e-06
-9.90356e-09
3.79677e-06
-1.07549e-08
3.80492e-06
-1.18516e-08
3.81362e-06
-1.26346e-08
3.82283e-06
-1.33614e-08
3.83254e-06
-1.40917e-08
3.84276e-06
-1.48381e-08
3.85351e-06
-1.56076e-08
3.86482e-06
-1.64081e-08
3.8767e-06
-1.72491e-08
3.8892e-06
-1.81423e-08
3.90235e-06
-1.91029e-08
3.91624e-06
-2.01513e-08
3.93092e-06
-2.13153e-08
3.9465e-06
-2.26338e-08
3.96315e-06
-2.41669e-08
3.98105e-06
-2.59992e-08
4.00053e-06
-2.83021e-08
4.02203e-06
-3.12676e-08
4.04668e-06
-3.58159e-08
4.07558e-06
-4.23374e-08
4.12011e-06
-6.49745e-08
4.21583e-06
-1.64706e-07
-1.01578e-06
4.41982e-06
8.24102e-06
1.95657e-05
7.22627e-06
1.91612e-06
6.8845e-06
6.5594e-07
6.68517e-06
3.92967e-07
6.54791e-06
2.73708e-07
6.44581e-06
2.04706e-07
6.36587e-06
1.6073e-07
6.30109e-06
1.30428e-07
6.24743e-06
1.08134e-07
6.20227e-06
9.10561e-08
6.16377e-06
7.76529e-08
6.13059e-06
6.69318e-08
6.10173e-06
5.82124e-08
6.07644e-06
5.10139e-08
6.05414e-06
4.4991e-08
6.03436e-06
3.98985e-08
6.01673e-06
3.55599e-08
6.00094e-06
3.18404e-08
5.98674e-06
2.86296e-08
5.97393e-06
2.58359e-08
5.96233e-06
2.33863e-08
5.9518e-06
2.12254e-08
5.94222e-06
1.93121e-08
5.93348e-06
1.76146e-08
5.92549e-06
1.6106e-08
5.91816e-06
1.47623e-08
5.91143e-06
1.35614e-08
5.90523e-06
1.24832e-08
5.89952e-06
1.15101e-08
5.89424e-06
1.06271e-08
5.88937e-06
9.82214e-09
5.88485e-06
9.08497e-09
5.88068e-06
8.40719e-09
5.87681e-06
7.78133e-09
5.87324e-06
7.20051e-09
5.86993e-06
6.65795e-09
5.86688e-06
6.14685e-09
5.86407e-06
5.66016e-09
5.86149e-06
5.19054e-09
5.85915e-06
4.73028e-09
5.85703e-06
4.27129e-09
5.85515e-06
3.805e-09
5.85351e-06
3.32241e-09
5.85213e-06
2.814e-09
5.85102e-06
2.26977e-09
5.85021e-06
1.67915e-09
5.84973e-06
1.0303e-09
5.84962e-06
3.01569e-10
5.84992e-06
-5.21231e-10
5.8507e-06
-1.43833e-09
5.85199e-06
-2.45794e-09
5.85386e-06
-3.59225e-09
5.85638e-06
-4.8507e-09
5.8596e-06
-6.24367e-09
5.86362e-06
-7.78486e-09
5.8685e-06
-9.49462e-09
5.87436e-06
-1.13942e-08
5.88129e-06
-1.35116e-08
5.88942e-06
-1.58453e-08
5.89893e-06
-1.85331e-08
5.90978e-06
-2.12002e-08
5.92303e-06
-2.57963e-08
5.93859e-06
-3.05164e-08
5.9494e-06
-2.10213e-08
5.96006e-06
-2.05631e-08
5.9713e-06
-2.1994e-08
5.98367e-06
-2.422e-08
5.99689e-06
-2.5849e-08
6.01087e-06
-2.73477e-08
6.02563e-06
-2.88465e-08
6.04117e-06
-3.03735e-08
6.05751e-06
-3.19471e-08
6.07469e-06
-3.35809e-08
6.09274e-06
-3.52973e-08
6.11172e-06
-3.7117e-08
6.13169e-06
-3.90734e-08
6.15275e-06
-4.12047e-08
6.17501e-06
-4.35694e-08
6.19863e-06
-4.6243e-08
6.22381e-06
-4.93471e-08
6.25087e-06
-5.30471e-08
6.28027e-06
-5.76906e-08
6.31264e-06
-6.36209e-08
6.34963e-06
-7.27922e-08
6.39254e-06
-8.52379e-08
6.45651e-06
-1.28927e-07
6.56033e-06
-2.68521e-07
-9.8876e-07
6.53332e-06
1.17451e-05
2.7211e-05
1.02611e-05
3.40007e-06
9.75571e-06
1.16135e-06
9.46954e-06
6.79139e-07
9.27552e-06
4.6773e-07
9.13242e-06
3.47803e-07
9.02093e-06
2.72218e-07
8.93087e-06
2.20494e-07
8.85641e-06
1.82595e-07
8.79383e-06
1.53637e-07
8.74053e-06
1.30951e-07
8.69463e-06
1.12829e-07
8.65474e-06
9.81054e-08
8.6198e-06
8.59582e-08
8.58899e-06
7.58008e-08
8.56167e-06
6.72163e-08
8.53732e-06
5.99051e-08
8.51553e-06
5.36384e-08
8.49593e-06
4.82294e-08
8.47824e-06
4.35239e-08
8.46223e-06
3.93987e-08
8.44769e-06
3.57603e-08
8.43446e-06
3.25389e-08
8.4224e-06
2.96807e-08
8.41136e-06
2.71405e-08
8.40125e-06
2.48779e-08
8.39195e-06
2.28555e-08
8.3834e-06
2.10396e-08
8.37551e-06
1.94006e-08
8.36822e-06
1.79136e-08
8.36148e-06
1.65577e-08
8.35525e-06
1.5316e-08
8.34949e-06
1.41742e-08
8.34415e-06
1.31195e-08
8.33921e-06
1.21404e-08
8.33464e-06
1.12253e-08
8.33043e-06
1.03627e-08
8.32655e-06
9.54065e-09
8.32299e-06
8.74658e-09
8.31975e-06
7.96739e-09
8.31683e-06
7.18926e-09
8.31424e-06
6.39757e-09
8.31199e-06
5.5769e-09
8.31009e-06
4.71099e-09
8.30858e-06
3.78266e-09
8.30748e-06
2.77377e-09
8.30685e-06
1.66401e-09
8.30674e-06
4.15391e-10
8.30721e-06
-9.9613e-10
8.30834e-06
-2.57039e-09
8.31021e-06
-4.32158e-09
8.31289e-06
-6.27032e-09
8.31647e-06
-8.43293e-09
8.32105e-06
-1.08273e-08
8.32675e-06
-1.34768e-08
8.33367e-06
-1.64165e-08
8.34196e-06
-1.96828e-08
8.35177e-06
-2.33243e-08
8.36327e-06
-2.73371e-08
8.3767e-06
-3.19641e-08
8.39204e-06
-3.65359e-08
8.41073e-06
-4.44866e-08
8.43252e-06
-5.2303e-08
8.44782e-06
-3.63264e-08
8.46309e-06
-3.58267e-08
8.479e-06
-3.79076e-08
8.49642e-06
-4.1634e-08
8.51503e-06
-4.44552e-08
8.53473e-06
-4.70446e-08
8.55551e-06
-4.96242e-08
8.57739e-06
-5.22458e-08
8.60039e-06
-5.49441e-08
8.62455e-06
-5.77415e-08
8.64993e-06
-6.06774e-08
8.67661e-06
-6.37851e-08
8.70466e-06
-6.71226e-08
8.73422e-06
-7.0752e-08
8.76542e-06
-7.47728e-08
8.7985e-06
-7.93096e-08
8.83373e-06
-8.45653e-08
8.8715e-06
-9.08131e-08
8.91246e-06
-9.86293e-08
8.95742e-06
-1.08565e-07
9.0085e-06
-1.23862e-07
9.06743e-06
-1.44152e-07
9.15094e-06
-2.12417e-07
9.26156e-06
-3.79129e-07
-9.0713e-07
9.17994e-06
1.60742e-05
3.56672e-05
1.40049e-05
5.46931e-06
1.32809e-05
1.88535e-06
1.28804e-05
1.07965e-06
1.26129e-05
7.35253e-07
1.24173e-05
5.43407e-07
1.22657e-05
4.23801e-07
1.21437e-05
3.42531e-07
1.2043e-05
2.83257e-07
1.19586e-05
2.38101e-07
1.18867e-05
2.02799e-07
1.18249e-05
1.74645e-07
1.17712e-05
1.51797e-07
1.17242e-05
1.32964e-07
1.16828e-05
1.17228e-07
1.16461e-05
1.03937e-07
1.16133e-05
9.26216e-08
1.1584e-05
8.29259e-08
1.15577e-05
7.45595e-08
1.1534e-05
6.7283e-08
1.15125e-05
6.09054e-08
1.14929e-05
5.52816e-08
1.14752e-05
5.03032e-08
1.1459e-05
4.58863e-08
1.14441e-05
4.19608e-08
1.14306e-05
3.84639e-08
1.14181e-05
3.53384e-08
1.14066e-05
3.25319e-08
1.1396e-05
2.9999e-08
1.13862e-05
2.7701e-08
1.13771e-05
2.56058e-08
1.13688e-05
2.36869e-08
1.1361e-05
2.19221e-08
1.13539e-05
2.02919e-08
1.13472e-05
1.87781e-08
1.13411e-05
1.73627e-08
1.13354e-05
1.60279e-08
1.13302e-05
1.47549e-08
1.13254e-05
1.35244e-08
1.13211e-05
1.23158e-08
1.13172e-05
1.11077e-08
1.13137e-05
9.87718e-09
1.13107e-05
8.60022e-09
1.13081e-05
7.25136e-09
1.13061e-05
5.80376e-09
1.13046e-05
4.229e-09
1.13038e-05
2.49529e-09
1.13037e-05
5.42432e-10
1.13043e-05
-1.66736e-09
1.13059e-05
-4.13346e-09
1.13085e-05
-6.87767e-09
1.13121e-05
-9.93191e-09
1.1317e-05
-1.33219e-08
1.13233e-05
-1.70756e-08
1.1331e-05
-2.12296e-08
1.13404e-05
-2.58385e-08
1.13517e-05
-3.09592e-08
1.13651e-05
-3.6668e-08
1.13807e-05
-4.29588e-08
1.13989e-05
-5.02118e-08
1.14198e-05
-5.73807e-08
1.14451e-05
-6.9806e-08
1.14744e-05
-8.16086e-08
1.14952e-05
-5.71125e-08
1.15162e-05
-5.68039e-08
1.15379e-05
-5.9616e-08
1.15615e-05
-6.52294e-08
1.15867e-05
-6.96436e-08
1.16134e-05
-7.37044e-08
1.16415e-05
-7.77393e-08
1.16711e-05
-8.1831e-08
1.17022e-05
-8.60361e-08
1.17348e-05
-9.03886e-08
1.17691e-05
-9.49504e-08
1.18051e-05
-9.97709e-08
1.18429e-05
-1.0494e-07
1.18827e-05
-1.10549e-07
1.19247e-05
-1.16752e-07
1.19691e-05
-1.23734e-07
1.20164e-05
-1.31801e-07
1.20669e-05
-1.41363e-07
1.21216e-05
-1.53276e-07
1.21814e-05
-1.68371e-07
1.2249e-05
-1.91365e-07
1.23264e-05
-2.21582e-07
1.24307e-05
-3.16697e-07
1.25507e-05
-4.99147e-07
-8.76103e-07
1.25197e-05
2.15074e-05
4.50101e-05
1.87101e-05
8.26666e-06
1.76924e-05
2.90307e-06
1.71391e-05
1.63291e-06
1.67748e-05
1.09959e-06
1.65107e-05
8.07426e-07
1.63073e-05
6.27216e-07
1.61442e-05
5.05668e-07
1.601e-05
4.17467e-07
1.58976e-05
3.50503e-07
1.58021e-05
2.98279e-07
1.572e-05
2.56705e-07
1.56488e-05
2.23013e-07
1.55865e-05
1.95272e-07
1.55316e-05
1.72113e-07
1.5483e-05
1.52566e-07
1.54397e-05
1.35935e-07
1.54009e-05
1.2169e-07
1.53661e-05
1.09402e-07
1.53346e-05
9.87177e-08
1.53062e-05
8.93569e-08
1.52804e-05
8.11049e-08
1.52569e-05
7.38013e-08
1.52354e-05
6.7322e-08
1.52158e-05
6.15637e-08
1.51979e-05
5.64343e-08
1.51814e-05
5.18494e-08
1.51662e-05
4.77329e-08
1.51521e-05
4.40178e-08
1.51392e-05
4.06475e-08
1.51272e-05
3.75749e-08
1.51161e-05
3.4761e-08
1.51059e-05
3.21732e-08
1.50964e-05
2.97824e-08
1.50876e-05
2.75618e-08
1.50795e-05
2.54852e-08
1.5072e-05
2.3526e-08
1.50651e-05
2.16568e-08
1.50588e-05
1.98489e-08
1.5053e-05
1.80722e-08
1.50478e-05
1.6295e-08
1.50432e-05
1.44835e-08
1.50392e-05
1.26023e-08
1.50359e-05
1.06137e-08
1.50332e-05
8.47815e-09
1.50313e-05
6.15359e-09
1.50302e-05
3.59301e-09
1.503e-05
7.07153e-10
1.50309e-05
-2.56093e-09
1.5033e-05
-6.21044e-09
1.50364e-05
-1.02723e-08
1.50412e-05
-1.47932e-08
1.50477e-05
-1.98112e-08
1.5056e-05
-2.53679e-08
1.50663e-05
-3.15169e-08
1.50788e-05
-3.83383e-08
1.50938e-05
-4.59161e-08
1.51115e-05
-5.43629e-08
1.51322e-05
-6.36714e-08
1.51564e-05
-7.43931e-08
1.5184e-05
-8.5024e-08
1.52174e-05
-1.03243e-07
1.52559e-05
-1.20033e-07
1.52834e-05
-8.45945e-08
1.53114e-05
-8.48742e-08
1.53404e-05
-8.85331e-08
1.53716e-05
-9.64427e-08
1.54048e-05
-1.0291e-07
1.544e-05
-1.08894e-07
1.54771e-05
-1.14831e-07
1.55161e-05
-1.20842e-07
1.55571e-05
-1.27009e-07
1.56001e-05
-1.33381e-07
1.56452e-05
-1.40049e-07
1.56926e-05
-1.47081e-07
1.57422e-05
-1.54607e-07
1.57944e-05
-1.62756e-07
1.58494e-05
-1.71746e-07
1.59076e-05
-1.81839e-07
1.59692e-05
-1.93467e-07
1.60351e-05
-2.07205e-07
1.61061e-05
-2.24243e-07
1.61835e-05
-2.45769e-07
1.62703e-05
-2.78107e-07
1.63692e-05
-3.20453e-07
1.64963e-05
-4.43779e-07
1.6631e-05
-6.33867e-07
-9.47607e-07
1.67026e-05
2.83646e-05
5.52839e-05
2.467e-05
1.19613e-05
2.32578e-05
4.31518e-06
2.24988e-05
2.39197e-06
2.20055e-05
1.59285e-06
2.16514e-05
1.1616e-06
2.13802e-05
8.98378e-07
2.11637e-05
7.22199e-07
2.09861e-05
5.95071e-07
2.08376e-05
4.98925e-07
2.07118e-05
4.24151e-07
2.06037e-05
3.6475e-07
2.051e-05
3.16688e-07
2.04281e-05
2.77166e-07
2.03561e-05
2.44206e-07
2.02922e-05
2.16412e-07
2.02354e-05
1.92779e-07
2.01845e-05
1.72547e-07
2.01388e-05
1.55101e-07
2.00976e-05
1.3994e-07
2.00603e-05
1.26661e-07
2.00264e-05
1.14959e-07
1.99956e-05
1.04605e-07
1.99675e-05
9.54213e-08
1.99418e-05
8.72596e-08
1.99183e-05
7.99894e-08
1.98966e-05
7.34912e-08
1.98767e-05
6.76572e-08
1.98583e-05
6.23928e-08
1.98414e-05
5.76176e-08
1.98257e-05
5.32647e-08
1.98112e-05
4.92787e-08
1.97977e-05
4.56131e-08
1.97853e-05
4.22265e-08
1.97737e-05
3.90809e-08
1.97631e-05
3.61386e-08
1.97533e-05
3.33622e-08
1.97442e-05
3.07125e-08
1.97359e-05
2.81489e-08
1.97283e-05
2.56288e-08
1.97215e-05
2.31068e-08
1.97155e-05
2.05353e-08
1.97102e-05
1.78638e-08
1.97058e-05
1.50389e-08
1.97023e-05
1.20043e-08
1.96997e-05
8.70013e-09
1.96983e-05
5.05972e-09
1.9698e-05
9.56779e-10
1.96991e-05
-3.69237e-09
1.97018e-05
-8.88775e-09
1.97062e-05
-1.46704e-08
1.97125e-05
-2.1106e-08
1.9721e-05
-2.82489e-08
1.97318e-05
-3.61581e-08
1.97452e-05
-4.49092e-08
1.97614e-05
-5.4615e-08
1.97809e-05
-6.53942e-08
1.9804e-05
-7.74056e-08
1.98309e-05
-9.06439e-08
1.98624e-05
-1.05868e-07
1.98984e-05
-1.21036e-07
1.99418e-05
-1.46603e-07
1.99913e-05
-1.69508e-07
2.00269e-05
-1.20223e-07
2.00637e-05
-1.21693e-07
2.01016e-05
-1.26385e-07
2.01422e-05
-1.37033e-07
2.01854e-05
-1.46078e-07
2.0231e-05
-1.54513e-07
2.0279e-05
-1.62883e-07
2.03296e-05
-1.71344e-07
2.03826e-05
-1.80012e-07
2.04381e-05
-1.88952e-07
2.04964e-05
-1.98288e-07
2.05574e-05
-2.08115e-07
2.06215e-05
-2.18608e-07
2.06887e-05
-2.29944e-07
2.07593e-05
-2.42415e-07
2.08339e-05
-2.56376e-07
2.09129e-05
-2.72408e-07
2.0997e-05
-2.91286e-07
2.10873e-05
-3.14581e-07
2.11855e-05
-3.4393e-07
2.12948e-05
-3.87326e-07
2.14184e-05
-4.44088e-07
2.1571e-05
-5.96293e-07
2.17274e-05
-7.90276e-07
-1.13015e-06
2.191e-05
3.70304e-05
6.64913e-05
3.22463e-05
1.67453e-05
3.03072e-05
6.25436e-06
2.92695e-05
3.4296e-06
2.86032e-05
2.25916e-06
2.81292e-05
1.63562e-06
2.77687e-05
1.25887e-06
2.74822e-05
1.00868e-06
2.7248e-05
8.29253e-07
2.70528e-05
6.94146e-07
2.68876e-05
5.89401e-07
2.67459e-05
5.06388e-07
2.66233e-05
4.39347e-07
2.65161e-05
3.843e-07
2.64219e-05
3.38451e-07
2.63385e-05
2.99826e-07
2.62642e-05
2.67011e-07
2.61979e-05
2.38934e-07
2.61382e-05
2.14737e-07
2.60844e-05
1.93718e-07
2.60358e-05
1.75318e-07
2.59916e-05
1.5911e-07
2.59515e-05
1.44774e-07
2.59148e-05
1.3206e-07
2.58813e-05
1.20763e-07
2.58506e-05
1.107e-07
2.58224e-05
1.01706e-07
2.57964e-05
9.36326e-08
2.57725e-05
8.63482e-08
2.57503e-05
7.97417e-08
2.57299e-05
7.37207e-08
2.5711e-05
6.82081e-08
2.56934e-05
6.31392e-08
2.56772e-05
5.84564e-08
2.56622e-05
5.41067e-08
2.56483e-05
5.00382e-08
2.56354e-05
4.61986e-08
2.56236e-05
4.2534e-08
2.56128e-05
3.89881e-08
2.56029e-05
3.55019e-08
2.5594e-05
3.2013e-08
2.55861e-05
2.84555e-08
2.55792e-05
2.47595e-08
2.55734e-05
2.08514e-08
2.55687e-05
1.66533e-08
2.55653e-05
1.20827e-08
2.55634e-05
7.04732e-09
2.55629e-05
1.37532e-09
2.55643e-05
-5.05453e-09
2.55677e-05
-1.22452e-08
2.55732e-05
-2.02481e-08
2.55813e-05
-2.91526e-08
2.55921e-05
-3.90344e-08
2.56059e-05
-4.99744e-08
2.56231e-05
-6.20764e-08
2.5644e-05
-7.54941e-08
2.5669e-05
-9.03903e-08
2.56985e-05
-1.06982e-07
2.57332e-05
-1.25269e-07
2.57736e-05
-1.46256e-07
2.58198e-05
-1.67293e-07
2.58752e-05
-2.02027e-07
2.59381e-05
-2.32321e-07
2.59835e-05
-1.65697e-07
2.60311e-05
-1.69196e-07
2.60799e-05
-1.75226e-07
2.6132e-05
-1.89108e-07
2.61872e-05
-2.01326e-07
2.62456e-05
-2.12823e-07
2.63069e-05
-2.24246e-07
2.63714e-05
-2.35781e-07
2.6439e-05
-2.47582e-07
2.65098e-05
-2.59729e-07
2.65839e-05
-2.72391e-07
2.66615e-05
-2.85686e-07
2.67427e-05
-2.9985e-07
2.68279e-05
-3.15109e-07
2.69173e-05
-3.3185e-07
2.70115e-05
-3.50532e-07
2.71111e-05
-3.71911e-07
2.72168e-05
-3.96998e-07
2.73301e-05
-4.27787e-07
2.74526e-05
-4.66465e-07
2.7588e-05
-5.22671e-07
2.77402e-05
-5.96206e-07
2.79213e-05
-7.77368e-07
2.81071e-05
-9.76035e-07
-1.40487e-06
2.83818e-05
4.79732e-05
7.85759e-05
4.18933e-05
2.28252e-05
3.92557e-05
8.89199e-06
3.78402e-05
4.84508e-06
3.69401e-05
3.15931e-06
3.63054e-05
2.27024e-06
3.58262e-05
1.73809e-06
3.54474e-05
1.38752e-06
3.51389e-05
1.13775e-06
3.48824e-05
9.50596e-07
3.46658e-05
8.06012e-07
3.44805e-05
6.91736e-07
3.43202e-05
5.99644e-07
3.41803e-05
5.24158e-07
3.40574e-05
4.61375e-07
3.39487e-05
4.08549e-07
3.3852e-05
3.6371e-07
3.37655e-05
3.25374e-07
3.36879e-05
2.92355e-07
3.36179e-05
2.63689e-07
3.35547e-05
2.3861e-07
3.34972e-05
2.16531e-07
3.3445e-05
1.97008e-07
3.33974e-05
1.797e-07
3.33538e-05
1.64322e-07
3.33139e-05
1.50626e-07
3.32772e-05
1.38386e-07
3.32434e-05
1.27399e-07
3.32123e-05
1.17488e-07
3.31835e-05
1.08501e-07
3.31569e-05
1.00313e-07
3.31323e-05
9.2818e-08
3.31095e-05
8.59274e-08
3.30884e-05
7.95627e-08
3.30689e-05
7.36513e-08
3.30508e-05
6.81225e-08
3.30341e-05
6.29051e-08
3.30187e-05
5.79259e-08
3.30046e-05
5.31087e-08
3.29917e-05
4.83735e-08
3.29801e-05
4.36358e-08
3.29697e-05
3.88063e-08
3.29607e-05
3.37908e-08
3.29531e-05
2.84896e-08
3.29469e-05
2.27973e-08
3.29424e-05
1.66025e-08
3.29397e-05
9.78058e-09
3.29389e-05
2.1049e-09
3.29405e-05
-6.59842e-09
3.29446e-05
-1.63396e-08
3.29515e-05
-2.71783e-08
3.29616e-05
-3.92345e-08
3.29752e-05
-5.26102e-08
3.29926e-05
-6.74145e-08
3.30143e-05
-8.37861e-08
3.30408e-05
-1.01929e-07
3.30725e-05
-1.22063e-07
3.311e-05
-1.44473e-07
3.31539e-05
-1.69176e-07
3.32051e-05
-1.97457e-07
3.32638e-05
-2.25995e-07
3.33338e-05
-2.72016e-07
3.34126e-05
-3.11155e-07
3.34699e-05
-2.22981e-07
3.35303e-05
-2.29608e-07
3.35926e-05
-2.37453e-07
3.36586e-05
-2.55142e-07
3.37285e-05
-2.71211e-07
3.38022e-05
-2.86474e-07
3.38796e-05
-3.01667e-07
3.39608e-05
-3.17001e-07
3.40459e-05
-3.32667e-07
3.4135e-05
-3.48763e-07
3.42281e-05
-3.65505e-07
3.43255e-05
-3.83042e-07
3.44274e-05
-4.01677e-07
3.4534e-05
-4.21696e-07
3.46457e-05
-4.43593e-07
3.47632e-05
-4.67951e-07
3.4887e-05
-4.95721e-07
3.50183e-05
-5.28188e-07
3.51583e-05
-5.67812e-07
3.53094e-05
-6.17429e-07
3.5475e-05
-6.8821e-07
3.56597e-05
-7.80904e-07
3.58729e-05
-9.90506e-07
3.60954e-05
-1.19853e-06
-1.74324e-06
3.64339e-05
6.17616e-05
9.1401e-05
5.41827e-05
3.04041e-05
5.06311e-05
1.24436e-05
4.87034e-05
6.77272e-06
4.74858e-05
4.37697e-06
4.66345e-05
3.12156e-06
4.59962e-05
2.37633e-06
4.54945e-05
1.88923e-06
4.50877e-05
1.54459e-06
4.47505e-05
1.28773e-06
4.44665e-05
1.09007e-06
4.42239e-05
9.34331e-07
4.40144e-05
8.09125e-07
4.38319e-05
7.06701e-07
4.36716e-05
6.21655e-07
4.35299e-05
5.50195e-07
4.3404e-05
4.89607e-07
4.32916e-05
4.3785e-07
4.31906e-05
3.93304e-07
4.30997e-05
3.54659e-07
4.30174e-05
3.2087e-07
4.29428e-05
2.91142e-07
4.28749e-05
2.64868e-07
4.2813e-05
2.41583e-07
4.27565e-05
2.20898e-07
4.27046e-05
2.02478e-07
4.2657e-05
1.86018e-07
4.26131e-05
1.71246e-07
4.25727e-05
1.57923e-07
4.25353e-05
1.45846e-07
4.25008e-05
1.34845e-07
4.24689e-05
1.24778e-07
4.24393e-05
1.15526e-07
4.24118e-05
1.06982e-07
4.23864e-05
9.90478e-08
4.23629e-05
9.16288e-08
4.23412e-05
8.46294e-08
4.23212e-05
7.79514e-08
4.23028e-05
7.14932e-08
4.2286e-05
6.51479e-08
4.22709e-05
5.88031e-08
4.22573e-05
5.23399e-08
4.22455e-05
4.56329e-08
4.22354e-05
3.85494e-08
4.22273e-05
3.09495e-08
4.22212e-05
2.26852e-08
4.22174e-05
1.35913e-08
4.22161e-05
3.37746e-09
4.22177e-05
-8.20412e-09
4.22226e-05
-2.11781e-08
4.2231e-05
-3.56083e-08
4.22434e-05
-5.16524e-08
4.22603e-05
-6.94456e-08
4.2282e-05
-8.9132e-08
4.23091e-05
-1.10894e-07
4.23422e-05
-1.34997e-07
4.23818e-05
-1.61728e-07
4.24288e-05
-1.91462e-07
4.24839e-05
-2.24235e-07
4.25481e-05
-2.61656e-07
4.26218e-05
-2.9968e-07
4.27092e-05
-3.59443e-07
4.28072e-05
-4.09114e-07
4.28786e-05
-2.94314e-07
4.29544e-05
-3.05432e-07
4.30328e-05
-3.15797e-07
4.31156e-05
-3.37981e-07
4.32031e-05
-3.58691e-07
4.32952e-05
-3.78525e-07
4.33918e-05
-3.98312e-07
4.34931e-05
-4.18276e-07
4.35991e-05
-4.38649e-07
4.37099e-05
-4.59542e-07
4.38257e-05
-4.81227e-07
4.39466e-05
-5.03884e-07
4.40728e-05
-5.27896e-07
4.42048e-05
-5.53615e-07
4.43429e-05
-5.81658e-07
4.44877e-05
-6.12747e-07
4.46401e-05
-6.48057e-07
4.48011e-05
-6.89179e-07
4.49725e-05
-7.39075e-07
4.51564e-05
-8.01326e-07
4.53567e-05
-8.88415e-07
4.55785e-05
-1.00262e-06
4.58275e-05
-1.23946e-06
4.60932e-05
-1.46412e-06
-2.11908e-06
4.6469e-05
7.90786e-05
0.000104722
6.98324e-05
3.96502e-05
6.51059e-05
1.71702e-05
6.24869e-05
9.39168e-06
6.08368e-05
6.02706e-06
5.96913e-05
4.26709e-06
5.88385e-05
3.22912e-06
5.8172e-05
2.55567e-06
5.76341e-05
2.08255e-06
5.71899e-05
1.73196e-06
5.68166e-05
1.46336e-06
5.64985e-05
1.25243e-06
5.62243e-05
1.08332e-06
5.59857e-05
9.45288e-07
5.57765e-05
8.30899e-07
5.55917e-05
7.34937e-07
5.54276e-05
6.53678e-07
5.52812e-05
5.84334e-07
5.51498e-05
5.24703e-07
5.50314e-05
4.73012e-07
5.49244e-05
4.27853e-07
5.48274e-05
3.88147e-07
5.47392e-05
3.53078e-07
5.46588e-05
3.22008e-07
5.45853e-05
2.94418e-07
5.45179e-05
2.69851e-07
5.4456e-05
2.47902e-07
5.4399e-05
2.28208e-07
5.43465e-05
2.1045e-07
5.4298e-05
1.94358e-07
5.42531e-05
1.79705e-07
5.42116e-05
1.66301e-07
5.41732e-05
1.53986e-07
5.41375e-05
1.42617e-07
5.41045e-05
1.32063e-07
5.40739e-05
1.22198e-07
5.40457e-05
1.12895e-07
5.40196e-05
1.04024e-07
5.39957e-05
9.54499e-08
5.39738e-05
8.70326e-08
5.3954e-05
7.8624e-08
5.39362e-05
7.0068e-08
5.39207e-05
6.11998e-08
5.39074e-05
5.18455e-08
5.38965e-05
4.18218e-08
5.38883e-05
3.09346e-08
5.38829e-05
1.89684e-08
5.38807e-05
5.56134e-09
5.38821e-05
-9.63722e-09
5.38876e-05
-2.66786e-08
5.38976e-05
-4.56224e-08
5.39127e-05
-6.66732e-08
5.39332e-05
-9.00071e-08
5.39599e-05
-1.15811e-07
5.39934e-05
-1.4432e-07
5.40343e-05
-1.75877e-07
5.40834e-05
-2.1085e-07
5.41417e-05
-2.49718e-07
5.421e-05
-2.92553e-07
5.42897e-05
-3.4132e-07
5.43812e-05
-3.91226e-07
5.44893e-05
-4.6755e-07
5.461e-05
-5.29756e-07
5.46979e-05
-3.82233e-07
5.4792e-05
-3.99453e-07
5.48895e-05
-4.13324e-07
5.49924e-05
-4.40838e-07
5.51008e-05
-4.67118e-07
5.52148e-05
-4.92454e-07
5.53343e-05
-5.17777e-07
5.54594e-05
-5.43323e-07
5.55901e-05
-5.69361e-07
5.57266e-05
-5.96016e-07
5.5869e-05
-6.2362e-07
5.60176e-05
-6.52388e-07
5.61725e-05
-6.82794e-07
5.63342e-05
-7.15261e-07
5.65031e-05
-7.50548e-07
5.668e-05
-7.89531e-07
5.68656e-05
-8.33632e-07
5.70613e-05
-8.84786e-07
5.72688e-05
-9.46474e-07
5.74907e-05
-1.02311e-06
5.77305e-05
-1.12816e-06
5.7994e-05
-1.26602e-06
5.82827e-05
-1.52814e-06
5.85962e-05
-1.77749e-06
-2.51345e-06
5.89906e-05
0.000100733
0.000118157
8.97358e-05
5.06469e-05
8.35368e-05
2.33692e-05
7.99928e-05
1.29357e-05
7.77535e-05
8.2664e-06
7.62066e-05
5.81402e-06
7.50623e-05
4.37338e-06
7.41733e-05
3.44463e-06
7.34592e-05
2.7967e-06
7.28717e-05
2.31947e-06
7.23795e-05
1.95556e-06
7.19611e-05
1.67084e-06
7.16011e-05
1.44326e-06
7.12884e-05
1.25799e-06
7.10146e-05
1.10477e-06
7.0773e-05
9.76472e-07
7.05587e-05
8.67992e-07
7.03675e-05
7.75529e-07
7.01961e-05
6.96097e-07
7.00418e-05
6.27305e-07
6.99024e-05
5.67259e-07
6.97761e-05
5.14509e-07
6.96612e-05
4.67949e-07
6.95565e-05
4.26722e-07
6.94608e-05
3.90123e-07
6.93731e-05
3.57543e-07
6.92925e-05
3.28441e-07
6.92184e-05
3.02333e-07
6.91501e-05
2.788e-07
6.90869e-05
2.57482e-07
6.90286e-05
2.38078e-07
6.89745e-05
2.20337e-07
6.89245e-05
2.04043e-07
6.88781e-05
1.89008e-07
6.88351e-05
1.75058e-07
6.87953e-05
1.62024e-07
6.87584e-05
1.4974e-07
6.87244e-05
1.38035e-07
6.86931e-05
1.26733e-07
6.86645e-05
1.1565e-07
6.86385e-05
1.04594e-07
6.86153e-05
9.33614e-08
6.85947e-05
8.17382e-08
6.85771e-05
6.94989e-08
6.85625e-05
5.64062e-08
6.85512e-05
4.22089e-08
6.85435e-05
2.66292e-08
6.85399e-05
9.22865e-09
6.85407e-05
-1.04851e-08
6.85467e-05
-3.26091e-08
6.85582e-05
-5.71867e-08
6.8576e-05
-8.44785e-08
6.86008e-05
-1.14711e-07
6.86331e-05
-1.48123e-07
6.86738e-05
-1.85014e-07
6.87238e-05
-2.25818e-07
6.87839e-05
-2.71003e-07
6.88554e-05
-3.21172e-07
6.89393e-05
-3.76447e-07
6.90372e-05
-4.39183e-07
6.91498e-05
-5.03837e-07
6.92822e-05
-5.99935e-07
6.94296e-05
-6.77109e-07
6.9537e-05
-4.89579e-07
6.96523e-05
-5.14729e-07
6.97724e-05
-5.33415e-07
6.98988e-05
-5.67275e-07
7.0032e-05
-6.00232e-07
7.01717e-05
-6.32154e-07
7.03181e-05
-6.64095e-07
7.04711e-05
-6.96306e-07
7.06309e-05
-7.29098e-07
7.07975e-05
-7.62607e-07
7.09711e-05
-7.9723e-07
7.1152e-05
-8.33223e-07
7.13404e-05
-8.71155e-07
7.15368e-05
-9.11537e-07
7.17416e-05
-9.55276e-07
7.19555e-05
-1.00343e-06
7.21797e-05
-1.05767e-06
7.24153e-05
-1.12033e-06
7.26643e-05
-1.19539e-06
7.29295e-05
-1.28815e-06
7.32141e-05
-1.41265e-06
7.35241e-05
-1.57587e-06
7.38565e-05
-1.86051e-06
7.42203e-05
-2.14122e-06
-2.91552e-06
7.46224e-05
0.000127659
0.000131164
0.000114988
6.33179e-05
0.000107011
3.13463e-05
0.000102247
1.76988e-05
9.92079e-05
1.13059e-05
9.7112e-05
7.90998e-06
9.55695e-05
5.9158e-06
9.43779e-05
4.63631e-06
9.34251e-05
3.74945e-06
9.26444e-05
3.10018e-06
9.19925e-05
2.60752e-06
9.14397e-05
2.22359e-06
9.09652e-05
1.91774e-06
9.05538e-05
1.66943e-06
9.0194e-05
1.46459e-06
8.9877e-05
1.29341e-06
8.95961e-05
1.14892e-06
8.93457e-05
1.02593e-06