/*--------------------------------*- C++ -*----------------------------------*\
| =========                 |                                                 |
| \\      /  F ield         | OpenFOAM: The Open Source CFD Toolbox           |
|  \\    /   O peration     | Version:  5.x                                   |
|   \\  /    A nd           | Web:      www.OpenFOAM.org                      |
|    \\/     M anipulation  |                                                 |
\*---------------------------------------------------------------------------*/
FoamFile
{
    version     2.0;
    format      ascii;
    class       volVectorField;
    location    "600";
    object      U;
}
// * * * * * * * * * * * * * * * * * * * * * * * * * * * * * * * * * * * * * //

dimensions      [0 1 -1 0 0 0 0];

internalField   nonuniform List<vector> 
20540
(
(44.1648 -8.1488e-07 0)
(44.2268 0.00467567 0)
(44.1648 -2.55772e-06 0)
(44.2268 0.0134778 0)
(44.1648 -4.50845e-06 0)
(44.2268 0.022079 0)
(44.1648 -6.69325e-06 0)
(44.2267 0.0311543 0)
(44.1648 -9.05861e-06 0)
(44.2266 0.040787 0)
(44.1648 -1.1466e-05 0)
(44.2265 0.0509483 0)
(44.1648 -1.36655e-05 0)
(44.2265 0.0615566 0)
(44.1648 -1.52516e-05 0)
(44.2264 0.0724785 0)
(44.1649 -1.5612e-05 0)
(44.2265 0.0835109 0)
(44.165 -1.38802e-05 0)
(44.2266 0.0943746 0)
(44.1652 -8.89569e-06 0)
(44.2269 0.104717 0)
(44.1654 8.27603e-07 0)
(44.2272 0.114126 0)
(44.1658 1.71246e-05 0)
(44.2277 0.122157 0)
(44.1662 4.21919e-05 0)
(44.2283 0.128395 0)
(44.1668 7.85863e-05 0)
(44.229 0.132551 0)
(44.1675 0.000129187 0)
(44.2299 0.134613 0)
(44.1684 0.000197089 0)
(44.2309 0.134843 0)
(44.1695 0.000285377 0)
(44.2322 0.133709 0)
(44.1708 0.000396824 0)
(44.2338 0.131687 0)
(44.1723 0.000533528 0)
(44.2356 0.129011 0)
(44.1741 0.000696435 0)
(44.2378 0.125704 0)
(44.1763 0.000884644 0)
(44.2404 0.12169 0)
(44.1787 0.00109439 0)
(44.2434 0.116853 0)
(44.1816 0.00131768 0)
(44.2468 0.111041 0)
(44.1848 0.00154044 0)
(44.2508 0.104078 0)
(44.1884 0.00174037 0)
(44.2552 0.0957551 0)
(44.1924 0.00188461 0)
(44.26 0.0858295 0)
(44.1966 0.00192789 0)
(44.2651 0.0740131 0)
(44.2009 0.00181272 0)
(44.2703 0.0599602 0)
(44.2048 0.00147415 0)
(44.2751 0.0432424 0)
(44.2076 0.00094512 0)
(44.2785 0.0255574 0)
(44.2089 0.000321251 0)
(44.2801 0.00840668 0)
(44.2089 -0.000335462 0)
(44.2801 -0.00872521 0)
(44.2076 -0.000958017 0)
(44.2785 -0.0258761 0)
(44.2048 -0.00147858 0)
(44.2751 -0.0432889 0)
(44.201 -0.00180979 0)
(44.2705 -0.0595447 0)
(44.1968 -0.00192941 0)
(44.2654 -0.0732894 0)
(44.1927 -0.00189652 0)
(44.2604 -0.0849148 0)
(44.1888 -0.00176419 0)
(44.2557 -0.0947385 0)
(44.1853 -0.0015749 0)
(44.2514 -0.103026 0)
(44.1821 -0.00136011 0)
(44.2475 -0.110004 0)
(44.1792 -0.00114165 0)
(44.244 -0.115866 0)
(44.1767 -0.000933698 0)
(44.241 -0.120778 0)
(44.1746 -0.000744701 0)
(44.2384 -0.124882 0)
(44.1727 -0.000578979 0)
(44.2361 -0.128294 0)
(44.1712 -0.000438015 0)
(44.2342 -0.131099 0)
(44.1698 -0.000321403 0)
(44.2326 -0.133317 0)
(44.1687 -0.000227531 0)
(44.2312 -0.134829 0)
(44.1677 -0.000154039 0)
(44.2301 -0.135283 0)
(44.1669 -9.81614e-05 0)
(44.2292 -0.134206 0)
(44.1663 -5.70103e-05 0)
(44.2284 -0.131256 0)
(44.1658 -2.78086e-05 0)
(44.2278 -0.1263 0)
(44.1654 -8.03627e-06 0)
(44.2272 -0.11948 0)
(44.1651 4.50856e-06 0)
(44.2268 -0.111124 0)
(44.1649 1.16932e-05 0)
(44.2265 -0.101629 0)
(44.1648 1.50594e-05 0)
(44.2263 -0.0913933 0)
(44.1647 1.58406e-05 0)
(44.2262 -0.080775 0)
(44.1646 1.49884e-05 0)
(44.2262 -0.0700764 0)
(44.1646 1.32048e-05 0)
(44.2262 -0.0595327 0)
(44.1646 1.09805e-05 0)
(44.2263 -0.0493127 0)
(44.1645 8.63724e-06 0)
(44.2264 -0.0395256 0)
(44.1645 6.37158e-06 0)
(44.2265 -0.0302372 0)
(44.1645 4.29154e-06 0)
(44.2265 -0.0214647 0)
(44.1645 2.43616e-06 0)
(44.2266 -0.0131081 0)
(44.1645 7.77028e-07 0)
(44.2266 -0.00454748 0)
(7.05385 0.00661016 0)
(5.82065 0.000181727 0)
(5.45913 7.112e-05 0)
(5.23969 4.9061e-05 0)
(5.08718 3.67028e-05 0)
(4.97427 2.88601e-05 0)
(4.88662 2.3615e-05 0)
(4.8161 1.98917e-05 0)
(4.75803 1.70935e-05 0)
(4.70942 1.49117e-05 0)
(4.66817 1.31711e-05 0)
(4.63279 1.1757e-05 0)
(4.60215 1.05904e-05 0)
(4.5754 9.61364e-06 0)
(4.55187 8.78431e-06 0)
(4.53108 8.07207e-06 0)
(4.51259 7.4556e-06 0)
(4.49609 6.91858e-06 0)
(4.48128 6.44724e-06 0)
(4.46795 6.02974e-06 0)
(4.4559 5.65669e-06 0)
(4.44498 5.32125e-06 0)
(4.43506 5.01865e-06 0)
(4.42603 4.74528e-06 0)
(4.41779 4.49793e-06 0)
(4.41025 4.27345e-06 0)
(4.40333 4.06871e-06 0)
(4.39697 3.88078e-06 0)
(4.39111 3.70715e-06 0)
(4.3857 3.54577e-06 0)
(4.38071 3.39504e-06 0)
(4.37609 3.25371e-06 0)
(4.37182 3.12066e-06 0)
(4.36787 2.99473e-06 0)
(4.36422 2.87463e-06 0)
(4.36084 2.75874e-06 0)
(4.35771 2.64511e-06 0)
(4.35483 2.53133e-06 0)
(4.35217 2.41447e-06 0)
(4.34974 2.29103e-06 0)
(4.34753 2.1568e-06 0)
(4.34554 2.0069e-06 0)
(4.34378 1.83561e-06 0)
(4.34224 1.63634e-06 0)
(4.34096 1.40149e-06 0)
(4.33993 1.12231e-06 0)
(4.33919 7.88272e-07 0)
(4.33877 3.83609e-07 0)
(4.3387 -1.07539e-07 0)
(4.33904 -6.95244e-07 0)
(4.33981 -1.39338e-06 0)
(4.34107 -2.22009e-06 0)
(4.34288 -3.19322e-06 0)
(4.34529 -4.33268e-06 0)
(4.34836 -5.66422e-06 0)
(4.35217 -7.22005e-06 0)
(4.3568 -9.03797e-06 0)
(4.36234 -1.11621e-05 0)
(4.36889 -1.36331e-05 0)
(4.37653 -1.65538e-05 0)
(4.38553 -1.98553e-05 0)
(4.39554 -2.45445e-05 0)
(4.40895 -3.1227e-05 0)
(4.42046 -3.23658e-05 0)
(4.42987 -3.2173e-05 0)
(4.43896 -3.88541e-05 0)
(4.44958 -4.48726e-05 0)
(4.46093 -5.00903e-05 0)
(4.47295 -5.56526e-05 0)
(4.48564 -6.17178e-05 0)
(4.499 -6.83825e-05 0)
(4.51306 -7.56775e-05 0)
(4.52785 -8.37443e-05 0)
(4.54339 -9.26483e-05 0)
(4.55974 -0.000102594 0)
(4.57694 -0.000113704 0)
(4.59506 -0.000126294 0)
(4.61421 -0.000140641 0)
(4.63449 -0.000157282 0)
(4.65609 -0.0001769 0)
(4.67923 -0.000200656 0)
(4.70424 -0.000230373 0)
(4.73174 -0.000269659 0)
(4.76213 -0.000324765 0)
(4.79903 -0.000422521 0)
(4.83836 -0.000669644 0)
(4.93684 -0.00277015 0)
(5.19307 -0.0256176 0)
(14.1915 0.0148494 0)
(11.7236 0.000886764 0)
(11.039 0.000318794 0)
(10.6534 0.000207582 0)
(10.3921 0.000152784 0)
(10.2007 0.000119557 0)
(10.0528 9.77978e-05 0)
(9.93397 8.25052e-05 0)
(9.83613 7.10453e-05 0)
(9.75422 6.21082e-05 0)
(9.6847 5.49725e-05 0)
(9.62503 4.91691e-05 0)
(9.57331 4.43723e-05 0)
(9.52813 4.0347e-05 0)
(9.48839 3.69212e-05 0)
(9.45322 3.39731e-05 0)
(9.42195 3.14174e-05 0)
(9.39401 2.91887e-05 0)
(9.36893 2.72311e-05 0)
(9.34633 2.54961e-05 0)
(9.3259 2.39442e-05 0)
(9.30738 2.25468e-05 0)
(9.29054 2.12842e-05 0)
(9.27521 2.01422e-05 0)
(9.2612 1.91087e-05 0)
(9.24838 1.81716e-05 0)
(9.23662 1.73185e-05 0)
(9.22579 1.65372e-05 0)
(9.21582 1.58166e-05 0)
(9.20662 1.51469e-05 0)
(9.19812 1.45205e-05 0)
(9.19026 1.3931e-05 0)
(9.18299 1.3373e-05 0)
(9.17626 1.28411e-05 0)
(9.17003 1.23297e-05 0)
(9.16427 1.18317e-05 0)
(9.15894 1.13389e-05 0)
(9.15403 1.08408e-05 0)
(9.14952 1.03249e-05 0)
(9.14539 9.7758e-06 0)
(9.14164 9.17512e-06 0)
(9.13827 8.501e-06 0)
(9.13529 7.72767e-06 0)
(9.13272 6.82501e-06 0)
(9.13059 5.75796e-06 0)
(9.12892 4.48582e-06 0)
(9.12776 2.95974e-06 0)
(9.12717 1.10061e-06 0)
(9.12721 -1.16275e-06 0)
(9.12798 -3.87014e-06 0)
(9.12954 -7.08694e-06 0)
(9.13199 -1.0898e-05 0)
(9.13542 -1.53869e-05 0)
(9.13995 -2.06481e-05 0)
(9.14569 -2.67993e-05 0)
(9.15276 -3.39927e-05 0)
(9.16132 -4.2401e-05 0)
(9.17152 -5.22375e-05 0)
(9.18358 -6.36402e-05 0)
(9.19763 -7.72673e-05 0)
(9.21415 -9.1963e-05 0)
(9.23248 -0.000115586 0)
(9.25708 -0.000144108 0)
(9.27825 -0.000152208 0)
(9.29586 -0.00015374 0)
(9.31256 -0.000177728 0)
(9.33183 -0.000206384 0)
(9.35255 -0.00023118 0)
(9.37452 -0.000257012 0)
(9.39771 -0.000285022 0)
(9.42214 -0.000315623 0)
(9.44786 -0.000349146 0)
(9.4749 -0.000386053 0)
(9.50332 -0.000426847 0)
(9.5332 -0.00047223 0)
(9.56464 -0.000523012 0)
(9.59776 -0.000580366 0)
(9.63273 -0.000645781 0)
(9.66978 -0.00072143 0)
(9.70919 -0.000810501 0)
(9.75141 -0.000917714 0)
(9.79698 -0.0010518 0)
(9.84699 -0.00122437 0)
(9.90225 -0.00147861 0)
(9.96861 -0.00185141 0)
(10.0406 -0.00304342 0)
(10.2 -0.00920557 0)
(10.4552 -0.073324 0)
(18.3839 0.0233551 0)
(15.129 0.00207049 0)
(14.2221 0.000737032 0)
(13.7339 0.000465194 0)
(13.4099 0.000338555 0)
(13.175 0.000263682 0)
(12.9944 0.000215272 0)
(12.8498 0.000181493 0)
(12.731 0.000156267 0)
(12.6316 0.000136626 0)
(12.5473 0.000120959 0)
(12.4751 0.000108225 0)
(12.4125 9.77012e-05 0)
(12.3578 8.88697e-05 0)
(12.3097 8.13521e-05 0)
(12.2672 7.48816e-05 0)
(12.2293 6.9271e-05 0)
(12.1955 6.4377e-05 0)
(12.1652 6.00778e-05 0)
(12.1378 5.62669e-05 0)
(12.1131 5.28582e-05 0)
(12.0907 4.97883e-05 0)
(12.0703 4.70138e-05 0)
(12.0518 4.45034e-05 0)
(12.0348 4.2231e-05 0)
(12.0193 4.01706e-05 0)
(12.005 3.82952e-05 0)
(11.9919 3.65782e-05 0)
(11.9799 3.49948e-05 0)
(11.9687 3.35236e-05 0)
(11.9584 3.2147e-05 0)
(11.9489 3.08506e-05 0)
(11.9401 2.96219e-05 0)
(11.932 2.84489e-05 0)
(11.9244 2.73185e-05 0)
(11.9174 2.62153e-05 0)
(11.911 2.51204e-05 0)
(11.905 2.40106e-05 0)
(11.8996 2.28574e-05 0)
(11.8946 2.16265e-05 0)
(11.89 2.02761e-05 0)
(11.886 1.87569e-05 0)
(11.8824 1.70105e-05 0)
(11.8793 1.49681e-05 0)
(11.8768 1.255e-05 0)
(11.8748 9.66314e-06 0)
(11.8735 6.19608e-06 0)
(11.8728 1.96381e-06 0)
(11.873 -3.19287e-06 0)
(11.8741 -9.36226e-06 0)
(11.8761 -1.66958e-05 0)
(11.8793 -2.53849e-05 0)
(11.8837 -3.56209e-05 0)
(11.8895 -4.76203e-05 0)
(11.8968 -6.16497e-05 0)
(11.9057 -7.80574e-05 0)
(11.9166 -9.72343e-05 0)
(11.9294 -0.000119676 0)
(11.9447 -0.000145664 0)
(11.9624 -0.000176816 0)
(11.9832 -0.000209992 0)
(12.0063 -0.000265023 0)
(12.0372 -0.000326685 0)
(12.0638 -0.00034955 0)
(12.0863 -0.000357544 0)
(12.1075 -0.000404841 0)
(12.1316 -0.000469468 0)
(12.1576 -0.000526647 0)
(12.1852 -0.00058574 0)
(12.2144 -0.000649606 0)
(12.2451 -0.000719201 0)
(12.2774 -0.000795426 0)
(12.3114 -0.000879189 0)
(12.3471 -0.000971775 0)
(12.3846 -0.00107458 0)
(12.424 -0.00118959 0)
(12.4656 -0.00131924 0)
(12.5095 -0.001467 0)
(12.5559 -0.0016375 0)
(12.6052 -0.00183789 0)
(12.658 -0.00207828 0)
(12.7149 -0.00237809 0)
(12.7772 -0.00276055 0)
(12.846 -0.00332617 0)
(12.9278 -0.00411338 0)
(13.0172 -0.00662358 0)
(13.1967 -0.0157922 0)
(13.3943 -0.0768024 0)
(21.6958 0.0339582 0)
(17.7876 0.00392044 0)
(16.6656 0.00138499 0)
(16.0817 0.000851367 0)
(15.7015 0.000612483 0)
(15.4286 0.0004743 0)
(15.2201 0.00038603 0)
(15.0537 0.000324895 0)
(14.9173 0.000279442 0)
(14.8035 0.000244147 0)
(14.707 0.000216048 0)
(14.6244 0.000193243 0)
(14.5528 0.000174416 0)
(14.4903 0.000158627 0)
(14.4354 0.000145194 0)
(14.3868 0.000133638 0)
(14.3436 0.00012362 0)
(14.3051 0.000114885 0)
(14.2704 0.000107214 0)
(14.2392 0.000100416 0)
(14.211 9.43377e-05 0)
(14.1854 8.88648e-05 0)
(14.1622 8.39188e-05 0)
(14.141 7.94439e-05 0)
(14.1217 7.53932e-05 0)
(14.104 7.17209e-05 0)
(14.0877 6.83797e-05 0)
(14.0727 6.53219e-05 0)
(14.059 6.25035e-05 0)
(14.0462 5.98856e-05 0)
(14.0345 5.74362e-05 0)
(14.0236 5.51286e-05 0)
(14.0136 5.29401e-05 0)
(14.0043 5.08485e-05 0)
(13.9956 4.88301e-05 0)
(13.9877 4.68568e-05 0)
(13.9803 4.48947e-05 0)
(13.9735 4.29016e-05 0)
(13.9673 4.08263e-05 0)
(13.9616 3.86063e-05 0)
(13.9564 3.61664e-05 0)
(13.9518 3.34168e-05 0)
(13.9477 3.02513e-05 0)
(13.9442 2.6545e-05 0)
(13.9413 2.21523e-05 0)
(13.9391 1.69035e-05 0)
(13.9376 1.05951e-05 0)
(13.937 2.88427e-06 0)
(13.9372 -6.51859e-06 0)
(13.9385 -1.7771e-05 0)
(13.941 -3.11492e-05 0)
(13.9448 -4.70014e-05 0)
(13.95 -6.56779e-05 0)
(13.9568 -8.75757e-05 0)
(13.9653 -0.00011318 0)
(13.9758 -0.000143126 0)
(13.9885 -0.000178129 0)
(14.0036 -0.000219099 0)
(14.0214 -0.00026653 0)
(14.0421 -0.00032346 0)
(14.0664 -0.000383768 0)
(14.0934 -0.000485052 0)
(14.1293 -0.00059379 0)
(14.16 -0.000641196 0)
(14.1867 -0.000661665 0)
(14.2117 -0.00073978 0)
(14.2398 -0.000855966 0)
(14.2701 -0.000960963 0)
(14.3022 -0.00106918 0)
(14.3361 -0.00118589 0)
(14.3719 -0.00131288 0)
(14.4095 -0.00145191 0)
(14.449 -0.00160455 0)
(14.4905 -0.00177322 0)
(14.5341 -0.00196032 0)
(14.5799 -0.00216955 0)
(14.6282 -0.00240513 0)
(14.679 -0.00267341 0)
(14.7328 -0.00298255 0)
(14.7899 -0.00334529 0)
(14.8509 -0.0037794 0)
(14.9165 -0.00431931 0)
(14.9882 -0.00500448 0)
(15.0671 -0.0060148 0)
(15.1599 -0.00738419 0)
(15.2618 -0.0116129 0)
(15.4487 -0.0233768 0)
(15.5924 -0.07194 0)
(24.5626 0.0457889 0)
(20.1065 0.00658452 0)
(18.7662 0.00233516 0)
(18.086 0.00140289 0)
(17.6507 0.000997816 0)
(17.3415 0.000768077 0)
(17.1067 0.000623005 0)
(16.9201 0.000523278 0)
(16.7676 0.000449487 0)
(16.6405 0.000392363 0)
(16.5329 0.000346984 0)
(16.4409 0.000310217 0)
(16.3612 0.000279901 0)
(16.2917 0.0002545 0)
(16.2307 0.000232907 0)
(16.1767 0.000214341 0)
(16.1287 0.000198256 0)
(16.0859 0.000184234 0)
(16.0474 0.000171924 0)
(16.0127 0.000161021 0)
(15.9814 0.000151275 0)
(15.953 0.000142503 0)
(15.9272 0.000134576 0)
(15.9037 0.000127405 0)
(15.8822 0.000120915 0)
(15.8626 0.000115031 0)
(15.8445 0.000109679 0)
(15.8279 0.000104782 0)
(15.8126 0.00010027 0)
(15.7985 9.60808e-05 0)
(15.7855 9.21612e-05 0)
(15.7734 8.84681e-05 0)
(15.7622 8.49641e-05 0)
(15.7519 8.16132e-05 0)
(15.7423 7.83765e-05 0)
(15.7335 7.52086e-05 0)
(15.7253 7.20541e-05 0)
(15.7177 6.88449e-05 0)
(15.7108 6.54977e-05 0)
(15.7045 6.19111e-05 0)
(15.6987 5.79633e-05 0)
(15.6936 5.35081e-05 0)
(15.6891 4.83729e-05 0)
(15.6852 4.23542e-05 0)
(15.682 3.52147e-05 0)
(15.6796 2.66778e-05 0)
(15.678 1.64112e-05 0)
(15.6772 3.85081e-06 0)
(15.6776 -1.14771e-05 0)
(15.6791 -2.98262e-05 0)
(15.6819 -5.16445e-05 0)
(15.6861 -7.74976e-05 0)
(15.692 -0.000107958 0)
(15.6997 -0.000143675 0)
(15.7093 -0.000185438 0)
(15.7211 -0.000234282 0)
(15.7354 -0.00029137 0)
(15.7524 -0.000358191 0)
(15.7724 -0.000435544 0)
(15.7956 -0.000528405 0)
(15.8229 -0.000626662 0)
(15.8533 -0.000791833 0)
(15.8934 -0.000963631 0)
(15.9274 -0.001049 0)
(15.9576 -0.00109175 0)
(15.9861 -0.00120918 0)
(16.0176 -0.00139431 0)
(16.0515 -0.00156563 0)
(16.0874 -0.00174224 0)
(16.1254 -0.00193236 0)
(16.1653 -0.002139 0)
(16.2074 -0.00236505 0)
(16.2515 -0.00261302 0)
(16.2979 -0.00288681 0)
(16.3465 -0.00319023 0)
(16.3976 -0.00352922 0)
(16.4514 -0.00391046 0)
(16.508 -0.00434403 0)
(16.5677 -0.00484282 0)
(16.6311 -0.00542692 0)
(16.6987 -0.00612417 0)
(16.7712 -0.00698828 0)
(16.8502 -0.00808054 0)
(16.9368 -0.00967783 0)
(17.0378 -0.0118142 0)
(17.1485 -0.0180452 0)
(17.3359 -0.0316528 0)
(17.4403 -0.0670206 0)
(27.157 0.0587746 0)
(22.2485 0.0102411 0)
(20.6822 0.00368346 0)
(19.9003 0.00216938 0)
(19.4082 0.00152552 0)
(19.0622 0.00116686 0)
(18.8012 0.000942901 0)
(18.5947 0.000790114 0)
(18.4264 0.000677654 0)
(18.2865 0.000590895 0)
(18.1683 0.000522147 0)
(18.0672 0.00046655 0)
(17.9799 0.000420775 0)
(17.9037 0.000382464 0)
(17.8368 0.000349925 0)
(17.7777 0.000321971 0)
(17.7252 0.000297766 0)
(17.6783 0.000276676 0)
(17.6362 0.000258169 0)
(17.5983 0.000241783 0)
(17.5641 0.000227143 0)
(17.533 0.00021397 0)
(17.5048 0.00020207 0)
(17.4791 0.000191306 0)
(17.4556 0.000181564 0)
(17.4341 0.000172735 0)
(17.4144 0.000164704 0)
(17.3962 0.000157358 0)
(17.3795 0.000150592 0)
(17.3641 0.000144311 0)
(17.3498 0.000138435 0)
(17.3366 0.0001329 0)
(17.3244 0.000127646 0)
(17.3131 0.000122621 0)
(17.3026 0.000117764 0)
(17.2929 0.000113006 0)
(17.284 0.000108263 0)
(17.2757 0.000103433 0)
(17.2681 9.83892e-05 0)
(17.2612 9.29778e-05 0)
(17.2549 8.70143e-05 0)
(17.2493 8.02775e-05 0)
(17.2444 7.25052e-05 0)
(17.2401 6.33892e-05 0)
(17.2366 5.25689e-05 0)
(17.234 3.9624e-05 0)
(17.2322 2.40501e-05 0)
(17.2314 4.98648e-06 0)
(17.2318 -1.82926e-05 0)
(17.2335 -4.61723e-05 0)
(17.2365 -7.93252e-05 0)
(17.2412 -0.000118607 0)
(17.2476 -0.00016489 0)
(17.2561 -0.00021916 0)
(17.2666 -0.000282613 0)
(17.2796 -0.000356816 0)
(17.2952 -0.000443534 0)
(17.3138 -0.000545024 0)
(17.3358 -0.000662509 0)
(17.3613 -0.000803464 0)
(17.3911 -0.000952844 0)
(17.4245 -0.00120223 0)
(17.468 -0.00145483 0)
(17.5048 -0.00159553 0)
(17.5382 -0.00167514 0)
(17.5697 -0.00184208 0)
(17.6042 -0.0021151 0)
(17.6412 -0.00237416 0)
(17.6804 -0.00264185 0)
(17.7218 -0.00292971 0)
(17.7654 -0.00324224 0)
(17.8112 -0.00358381 0)
(17.8593 -0.00395816 0)
(17.9098 -0.00437107 0)
(17.9627 -0.00482816 0)
(18.0182 -0.00533821 0)
(18.0765 -0.00591099 0)
(18.1378 -0.00656138 0)
(18.2025 -0.00730812 0)
(18.271 -0.00818053 0)
(18.3438 -0.00921903 0)
(18.4218 -0.0105008 0)
(18.5064 -0.0121152 0)
(18.599 -0.0144488 0)
(18.7058 -0.0175488 0)
(18.8224 -0.0259685 0)
(19.007 -0.0407537 0)
(19.0868 -0.0682036 0)
(29.5615 0.073049 0)
(24.2977 0.0151232 0)
(22.4962 0.0055655 0)
(21.6043 0.00322355 0)
(21.0511 0.0022412 0)
(20.6662 0.00170278 0)
(20.378 0.0013702 0)
(20.1511 0.00114509 0)
(19.9667 0.00098034 0)
(19.8138 0.00085374 0)
(19.685 0.000753704 0)
(19.5749 0.000672978 0)
(19.4799 0.000606623 0)
(19.3971 0.00055116 0)
(19.3245 0.000504106 0)
(19.2603 0.00046372 0)
(19.2033 0.000428776 0)
(19.1525 0.000398346 0)
(19.1068 0.000371654 0)
(19.0658 0.000348034 0)
(19.0286 0.000326942 0)
(18.995 0.000307972 0)
(18.9644 0.000290841 0)
(18.9366 0.000275348 0)
(18.9111 0.000261328 0)
(18.8878 0.000248622 0)
(18.8664 0.000237067 0)
(18.8468 0.000226501 0)
(18.8286 0.000216771 0)
(18.8119 0.000207742 0)
(18.7964 0.000199298 0)
(18.7821 0.000191343 0)
(18.7689 0.000183795 0)
(18.7566 0.000176572 0)
(18.7453 0.00016959 0)
(18.7348 0.000162746 0)
(18.7251 0.000155921 0)
(18.7161 0.000148963 0)
(18.7079 0.000141692 0)
(18.7004 0.000133884 0)
(18.6936 0.000125274 0)
(18.6875 0.00011554 0)
(18.6821 0.000104303 0)
(18.6775 9.11182e-05 0)
(18.6737 7.54623e-05 0)
(18.6708 5.67269e-05 0)
(18.6688 3.41812e-05 0)
(18.668 6.5808e-06 0)
(18.6684 -2.71425e-05 0)
(18.6701 -6.75532e-05 0)
(18.6734 -0.000115608 0)
(18.6784 -0.000172542 0)
(18.6853 -0.000239619 0)
(18.6944 -0.000318269 0)
(18.7057 -0.000410218 0)
(18.7197 -0.000517725 0)
(18.7365 -0.00064334 0)
(18.7566 -0.000790317 0)
(18.7802 -0.000960467 0)
(18.8076 -0.00116437 0)
(18.8398 -0.00138118 0)
(18.8757 -0.00173873 0)
(18.9222 -0.00209234 0)
(18.9612 -0.0023103 0)
(18.9973 -0.00244738 0)
(19.0315 -0.00267713 0)
(19.0687 -0.00305954 0)
(19.1084 -0.0034315 0)
(19.1505 -0.00381737 0)
(19.1948 -0.00423217 0)
(19.2415 -0.00468209 0)
(19.2905 -0.00517336 0)
(19.3419 -0.00571118 0)
(19.3958 -0.00630375 0)
(19.4522 -0.00695886 0)
(19.5114 -0.00768886 0)
(19.5735 -0.00850728 0)
(19.6387 -0.00943488 0)
(19.7073 -0.0104976 0)
(19.7799 -0.0117358 0)
(19.8569 -0.0132054 0)
(19.9391 -0.0150109 0)
(20.028 -0.017277 0)
(20.1249 -0.0205083 0)
(20.2355 -0.0247839 0)
(20.3556 -0.0355295 0)
(20.5357 -0.0511359 0)
(20.6023 -0.0778309 0)
(31.8166 0.0886886 0)
(26.3037 0.0215067 0)
(24.2589 0.00816357 0)
(23.2462 0.00466665 0)
(22.6258 0.00320842 0)
(22.1985 0.00242035 0)
(21.881 0.0019386 0)
(21.6324 0.00161513 0)
(21.4313 0.00137986 0)
(21.2649 0.00119987 0)
(21.1249 0.0010581 0)
(21.0056 0.000943978 0)
(20.9027 0.000850347 0)
(20.8131 0.000772205 0)
(20.7346 0.000705997 0)
(20.6653 0.000649234 0)
(20.6038 0.000600161 0)
(20.5489 0.000557456 0)
(20.4996 0.000520019 0)
(20.4553 0.00048691 0)
(20.4153 0.00045736 0)
(20.379 0.000430799 0)
(20.3461 0.000406822 0)
(20.316 0.000385144 0)
(20.2886 0.000365529 0)
(20.2635 0.000347753 0)
(20.2404 0.000331592 0)
(20.2193 0.000316818 0)
(20.1997 0.000303217 0)
(20.1817 0.0002906 0)
(20.165 0.000278805 0)
(20.1496 0.000267698 0)
(20.1353 0.000257159 0)
(20.1221 0.000247075 0)
(20.1099 0.000237326 0)
(20.0986 0.000227769 0)
(20.0881 0.000218233 0)
(20.0785 0.00020851 0)
(20.0696 0.000198343 0)
(20.0615 0.000187422 0)
(20.0541 0.000175372 0)
(20.0475 0.000161747 0)
(20.0417 0.000146015 0)
(20.0367 0.000127552 0)
(20.0325 0.000105627 0)
(20.0294 7.93861e-05 0)
(20.0272 4.7808e-05 0)
(20.0262 9.1623e-06 0)
(20.0265 -3.80813e-05 0)
(20.0283 -9.47335e-05 0)
(20.0318 -0.000162099 0)
(20.037 -0.000241901 0)
(20.0443 -0.000335913 0)
(20.0539 -0.000446135 0)
(20.066 -0.000574975 0)
(20.0808 -0.000725579 0)
(20.0986 -0.000901504 0)
(20.1199 -0.00110728 0)
(20.1449 -0.00134551 0)
(20.174 -0.00163055 0)
(20.2081 -0.00193498 0)
(20.2463 -0.00242904 0)
(20.2953 -0.00290685 0)
(20.336 -0.00322912 0)
(20.3744 -0.00345147 0)
(20.4111 -0.00376192 0)
(20.4506 -0.00427879 0)
(20.4926 -0.00479327 0)
(20.5371 -0.00532961 0)
(20.5839 -0.00590631 0)
(20.6332 -0.00653138 0)
(20.6848 -0.00721328 0)
(20.739 -0.00795892 0)
(20.7957 -0.00877946 0)
(20.855 -0.00968528 0)
(20.9171 -0.0106931 0)
(20.9822 -0.0118209 0)
(21.0505 -0.0130966 0)
(21.1223 -0.0145545 0)
(21.1979 -0.0162484 0)
(21.2781 -0.0182523 0)
(21.3635 -0.0207025 0)
(21.4554 -0.0237661 0)
(21.5551 -0.0280701 0)
(21.668 -0.033749 0)
(21.7896 -0.0469288 0)
(21.9643 -0.0633595 0)
(22.0244 -0.0953737 0)
(33.9392 0.105664 0)
(28.297 0.0296978 0)
(26.0056 0.011716 0)
(24.8595 0.0066373 0)
(24.1639 0.00451459 0)
(23.6894 0.00338042 0)
(23.3396 0.00269383 0)
(23.0673 0.00223653 0)
(22.8479 0.00190613 0)
(22.667 0.00165462 0)
(22.5152 0.00145722 0)
(22.3861 0.00129875 0)
(22.2748 0.00116901 0)
(22.1782 0.00106093 0)
(22.0935 0.000969497 0)
(22.0188 0.000891205 0)
(21.9525 0.00082359 0)
(21.8934 0.000764793 0)
(21.8404 0.000713285 0)
(21.7928 0.000667762 0)
(21.7497 0.000627162 0)
(21.7107 0.00059069 0)
(21.6753 0.000557784 0)
(21.643 0.000528041 0)
(21.6135 0.000501134 0)
(21.5865 0.000476753 0)
(21.5618 0.00045459 0)
(21.539 0.000434334 0)
(21.518 0.000415695 0)
(21.4986 0.000398412 0)
(21.4807 0.000382263 0)
(21.4642 0.000367061 0)
(21.4488 0.000352643 0)
(21.4346 0.00033885 0)
(21.4215 0.000325517 0)
(21.4093 0.000312447 0)
(21.398 0.000299406 0)
(21.3877 0.000286108 0)
(21.3781 0.000272203 0)
(21.3694 0.000257267 0)
(21.3614 0.000240787 0)
(21.3543 0.000222155 0)
(21.348 0.000200643 0)
(21.3426 0.000175401 0)
(21.3381 0.000145429 0)
(21.3346 0.000109565 0)
(21.3322 6.64123e-05 0)
(21.331 1.36418e-05 0)
(21.3312 -5.08988e-05 0)
(21.333 -0.00012836 0)
(21.3365 -0.000220461 0)
(21.3419 -0.000329545 0)
(21.3495 -0.000458036 0)
(21.3595 -0.000608662 0)
(21.3721 -0.000784699 0)
(21.3876 -0.000990411 0)
(21.4063 -0.00123063 0)
(21.4285 -0.00151148 0)
(21.4547 -0.00183665 0)
(21.4853 -0.00222498 0)
(21.521 -0.00264186 0)
(21.5611 -0.00330581 0)
(21.612 -0.00393461 0)
(21.6541 -0.00439368 0)
(21.6944 -0.00473725 0)
(21.7331 -0.00515257 0)
(21.7746 -0.00583352 0)
(21.8186 -0.0065254 0)
(21.865 -0.0072504 0)
(21.9139 -0.00803056 0)
(21.9652 -0.00887568 0)
(22.019 -0.00979682 0)
(22.0754 -0.0108029 0)
(22.1343 -0.0119085 0)
(22.1959 -0.0131272 0)
(22.2603 -0.0144808 0)
(22.3277 -0.0159926 0)
(22.3983 -0.0176988 0)
(22.4724 -0.0196438 0)
(22.5503 -0.0218968 0)
(22.6326 -0.0245529 0)
(22.7201 -0.0277843 0)
(22.8139 -0.0318085 0)
(22.9153 -0.0373734 0)
(23.029 -0.0446991 0)
(23.1505 -0.0603956 0)
(23.319 -0.0779813 0)
(23.3756 -0.118845 0)
(35.9299 0.123835 0)
(30.2953 0.0400128 0)
(27.7626 0.0165271 0)
(26.4697 0.00932399 0)
(25.6891 0.00628007 0)
(25.1612 0.00466663 0)
(24.775 0.00369833 0)
(24.4763 0.0030585 0)
(24.2368 0.00259948 0)
(24.0399 0.00225194 0)
(23.8752 0.00198027 0)
(23.7353 0.00176284 0)
(23.6151 0.00158529 0)
(23.5108 0.00143766 0)
(23.4194 0.00131299 0)
(23.339 0.0012064 0)
(23.2676 0.00111445 0)
(23.204 0.00103456 0)
(23.1471 0.00096464 0)
(23.0958 0.00090289 0)
(23.0496 0.000847862 0)
(23.0077 0.000798467 0)
(22.9696 0.000753928 0)
(22.935 0.000713684 0)
(22.9033 0.000677285 0)
(22.8743 0.000644309 0)
(22.8478 0.000614337 0)
(22.8233 0.000586954 0)
(22.8008 0.000561766 0)
(22.78 0.000538423 0)
(22.7608 0.000516625 0)
(22.743 0.000496117 0)
(22.7265 0.000476676 0)
(22.7113 0.000458088 0)
(22.6971 0.000440124 0)
(22.6841 0.000422521 0)
(22.672 0.000404964 0)
(22.6608 0.000387067 0)
(22.6505 0.00036836 0)
(22.6411 0.000348274 0)
(22.6325 0.000326125 0)
(22.6248 0.000301094 0)
(22.618 0.00027221 0)
(22.6121 0.000238332 0)
(22.6072 0.000198124 0)
(22.6034 0.00015003 0)
(22.6007 9.21833e-05 0)
(22.5993 2.15328e-05 0)
(22.5993 -6.49104e-05 0)
(22.601 -0.000168766 0)
(22.6045 -0.000292232 0)
(22.61 -0.000438432 0)
(22.6177 -0.000610611 0)
(22.6279 -0.000812417 0)
(22.6409 -0.00104821 0)
(22.6569 -0.00132366 0)
(22.6763 -0.00164518 0)
(22.6993 -0.00202089 0)
(22.7265 -0.00245589 0)
(22.7582 -0.0029743 0)
(22.7952 -0.00353388 0)
(22.8368 -0.00440676 0)
(22.8893 -0.00521773 0)
(22.9323 -0.00585174 0)
(22.9739 -0.00636126 0)
(23.0143 -0.00691361 0)
(23.0574 -0.00779412 0)
(23.1029 -0.00870456 0)
(23.151 -0.00966315 0)
(23.2014 -0.0106957 0)
(23.2544 -0.0118137 0)
(23.3098 -0.0130314 0)
(23.3678 -0.0143597 0)
(23.4284 -0.0158175 0)
(23.4916 -0.0174216 0)
(23.5577 -0.0192002 0)
(23.6267 -0.0211825 0)
(23.6988 -0.0234146 0)
(23.7744 -0.0259522 0)
(23.8538 -0.0288825 0)
(23.9374 -0.0323246 0)
(24.026 -0.0364903 0)
(24.1207 -0.0416557 0)
(24.2226 -0.0486819 0)
(24.3358 -0.0579113 0)
(24.4558 -0.0761784 0)
(24.6174 -0.0954994 0)
(24.671 -0.146035 0)
(37.7771 0.142927 0)
(32.3055 0.0527424 0)
(29.55 0.0229741 0)
(28.0981 0.0129806 0)
(27.2213 0.00867061 0)
(26.6322 0.00639437 0)
(26.2044 0.00503792 0)
(25.8757 0.00414831 0)
(25.6134 0.0035147 0)
(25.3987 0.00303778 0)
(25.2195 0.00266662 0)
(25.0678 0.00237058 0)
(24.9376 0.0021295 0)
(24.8248 0.00192953 0)
(24.7262 0.00176097 0)
(24.6394 0.00161711 0)
(24.5625 0.00149317 0)
(24.494 0.00138562 0)
(24.4327 0.00129156 0)
(24.3776 0.00120858 0)
(24.3279 0.0011347 0)
(24.2828 0.00106844 0)
(24.242 0.00100873 0)
(24.2047 0.000954814 0)
(24.1707 0.000906057 0)
(24.1396 0.000861894 0)
(24.111 0.000821762 0)
(24.0848 0.000785106 0)
(24.0606 0.000751406 0)
(24.0382 0.000720193 0)
(24.0176 0.000691067 0)
(23.9985 0.000663684 0)
(23.9808 0.000637745 0)
(23.9645 0.000612959 0)
(23.9493 0.000589021 0)
(23.9352 0.000565579 0)
(23.9222 0.000542215 0)
(23.9102 0.000518416 0)
(23.8991 0.000493562 0)
(23.889 0.000466902 0)
(23.8797 0.000437531 0)
(23.8714 0.000404371 0)
(23.864 0.000366143 0)
(23.8576 0.000321342 0)
(23.8522 0.00026821 0)
(23.848 0.000204698 0)
(23.8449 0.000128352 0)
(23.8432 3.52746e-05 0)
(23.843 -7.86469e-05 0)
(23.8444 -0.000215682 0)
(23.8478 -0.000378555 0)
(23.8533 -0.00057137 0)
(23.861 -0.000798396 0)
(23.8714 -0.00106443 0)
(23.8846 -0.00137518 0)
(23.9009 -0.00173803 0)
(23.9207 -0.0021614 0)
(23.9443 -0.00265583 0)
(23.9722 -0.00322825 0)
(24.0047 -0.00390886 0)
(24.0427 -0.00464771 0)
(24.0854 -0.00577481 0)
(24.139 -0.00680468 0)
(24.1826 -0.0076575 0)
(24.2251 -0.00838663 0)
(24.2667 -0.00911794 0)
(24.311 -0.0102407 0)
(24.3577 -0.0114184 0)
(24.4069 -0.0126633 0)
(24.4585 -0.0140054 0)
(24.5125 -0.0154583 0)
(24.5691 -0.0170393 0)
(24.6282 -0.0187618 0)
(24.6898 -0.0206497 0)
(24.7541 -0.0227236 0)
(24.8212 -0.0250189 0)
(24.8911 -0.0275714 0)
(24.9642 -0.0304388 0)
(25.0405 -0.0336897 0)
(25.1205 -0.0374311 0)
(25.2047 -0.04181 0)
(25.2936 -0.0470807 0)
(25.3882 -0.0535853 0)
(25.4895 -0.0622839 0)
(25.601 -0.0736817 0)
(25.7185 -0.0945396 0)
(25.872 -0.116309 0)
(25.9221 -0.175191 0)
(39.4592 0.16249 0)
(34.3228 0.06809 0)
(31.3827 0.0315032 0)
(29.7631 0.0179431 0)
(28.7779 0.0119136 0)
(28.1186 0.00872334 0)
(27.6427 0.00683123 0)
(27.2793 0.00559854 0)
(26.991 0.00472686 0)
(26.7559 0.0040748 0)
(26.5604 0.00356973 0)
(26.3952 0.00316842 0)
(26.2538 0.0028426 0)
(26.1315 0.00257305 0)
(26.0248 0.00234636 0)
(25.9309 0.00215324 0)
(25.8479 0.00198713 0)
(25.774 0.00184316 0)
(25.7079 0.0017174 0)
(25.6485 0.00160655 0)
(25.5949 0.00150798 0)
(25.5464 0.00141966 0)
(25.5023 0.00134015 0)
(25.4623 0.00126838 0)
(25.4257 0.00120351 0)
(25.3922 0.00114477 0)
(25.3615 0.00109139 0)
(25.3332 0.00104266 0)
(25.3072 0.000997876 0)
(25.2832 0.000956427 0)
(25.261 0.00091778 0)
(25.2404 0.00088148 0)
(25.2214 0.000847123 0)
(25.2038 0.000814323 0)
(25.1875 0.000782674 0)
(25.1723 0.000751712 0)
(25.1583 0.000720886 0)
(25.1453 0.000689525 0)
(25.1334 0.000656821 0)
(25.1224 0.000621791 0)
(25.1124 0.00058326 0)
(25.1034 0.000539822 0)
(25.0954 0.000489815 0)
(25.0884 0.000431283 0)
(25.0825 0.000361942 0)
(25.0777 0.000279131 0)
(25.0742 0.000179669 0)
(25.0721 5.87019e-05 0)
(25.0715 -8.93981e-05 0)
(25.0726 -0.000267791 0)
(25.0758 -0.000479754 0)
(25.0811 -0.000730615 0)
(25.0888 -0.00102591 0)
(25.0991 -0.00137183 0)
(25.1123 -0.00177578 0)
(25.1288 -0.00224725 0)
(25.1488 -0.00279705 0)
(25.1728 -0.00343872 0)
(25.201 -0.00418153 0)
(25.234 -0.0050626 0)
(25.2726 -0.0060245 0)
(25.3161 -0.00745797 0)
(25.3702 -0.00875069 0)
(25.414 -0.00987196 0)
(25.4571 -0.010883 0)
(25.4994 -0.0118465 0)
(25.5444 -0.0132627 0)
(25.5919 -0.0147655 0)
(25.6418 -0.0163584 0)
(25.694 -0.0180769 0)
(25.7487 -0.0199364 0)
(25.8059 -0.0219583 0)
(25.8655 -0.0241585 0)
(25.9277 -0.0265665 0)
(25.9925 -0.0292073 0)
(26.06 -0.0321244 0)
(26.1302 -0.0353615 0)
(26.2035 -0.0389889 0)
(26.2799 -0.04309 0)
(26.3599 -0.0477939 0)
(26.4438 -0.0532785 0)
(26.5321 -0.0598426 0)
(26.6258 -0.0679007 0)
(26.7257 -0.0784912 0)
(26.8345 -0.0923171 0)
(26.9486 -0.11575 0)
(27.0928 -0.140665 0)
(27.1386 -0.20521 0)
(40.9465 0.181862 0)
(36.3287 0.0860764 0)
(33.2689 0.0426039 0)
(31.4806 0.0246446 0)
(30.3754 0.016318 0)
(29.6355 0.0118744 0)
(29.1039 0.00924291 0)
(28.7003 0.00753745 0)
(28.3817 0.00633959 0)
(28.123 0.00544914 0)
(27.9087 0.00476287 0)
(27.7281 0.00421976 0)
(27.5739 0.00378033 0)
(27.4408 0.00341782 0)
(27.3248 0.00311372 0)
(27.2229 0.00285522 0)
(27.1329 0.00263327 0)
(27.0528 0.00244117 0)
(26.9813 0.00227357 0)
(26.9171 0.00212603 0)
(26.8591 0.00199499 0)
(26.8068 0.00187772 0)
(26.7592 0.00177225 0)
(26.7159 0.00167713 0)
(26.6764 0.00159118 0)
(26.6403 0.00151338 0)
(26.6072 0.0014427 0)
(26.5767 0.00137819 0)
(26.5486 0.00131894 0)
(26.5227 0.00126414 0)
(26.4988 0.00121309 0)
(26.4766 0.00116519 0)
(26.4561 0.00111991 0)
(26.4371 0.00107673 0)
(26.4194 0.00103511 0)
(26.4031 0.000994452 0)
(26.3879 0.000954032 0)
(26.3739 0.000912985 0)
(26.361 0.000870262 0)
(26.3491 0.000824599 0)
(26.3383 0.000774479 0)
(26.3285 0.000718094 0)
(26.3197 0.000653308 0)
(26.312 0.000577606 0)
(26.3054 0.000488058 0)
(26.3001 0.000381246 0)
(26.296 0.0002531 0)
(26.2934 9.77162e-05 0)
(26.2923 -9.2546e-05 0)
(26.2931 -0.00032207 0)