/*--------------------------------*- C++ -*----------------------------------*\
  =========                 |
  \\      /  F ield         | OpenFOAM: The Open Source CFD Toolbox
   \\    /   O peration     | Website:  https://openfoam.org
    \\  /    A nd           | Version:  8
     \\/     M anipulation  |
\*---------------------------------------------------------------------------*/
FoamFile
{
    version     2.0;
    format      ascii;
    class       volScalarField;
    location    "160";
    object      epsilon;
}
// * * * * * * * * * * * * * * * * * * * * * * * * * * * * * * * * * * * * * //

dimensions      [0 2 -3 0 0 0 0];

internalField   nonuniform List<scalar> 
12225
(
285.53
270.702
257.915
243.813
232.451
223.099
216.787
212.703
212.742
213.969
217.236
220.927
228.106
232.803
241.506
246.208
256.171
258.02
52.4858
91.9046
106.955
114.779
124.817
136.827
152.666
169.954
191.13
210.995
235.323
255.573
281.286
299.492
325.206
339.878
364.503
380.38
20.5252
34.885
44.662
50.4865
55.3783
59.6303
64.6447
69.6694
76.3064
83.2189
91.4472
99.3757
108.217
117.051
125.647
135.561
142.756
154.628
16.0035
19.4902
24.0735
27.5722
30.4878
32.8799
35.1465
37.3049
39.4957
41.9314
44.3354
47.2228
49.6907
53.0753
55.4442
59.3166
61.4728
65.8602
15.0388
15.7138
17.3955
19.0828
20.6351
22.0305
23.2425
24.4357
25.4416
26.5997
27.5233
28.7649
29.6365
30.997
31.8254
33.2953
34.0761
35.7212
14.7898
14.8259
15.2492
15.8689
16.5655
17.2888
17.9222
18.586
19.1184
19.7359
20.1937
20.8015
21.2108
21.8272
22.2033
22.8384
23.1742
23.8884
14.7657
14.6147
14.6409
14.7261
14.9343
15.2206
15.491
15.8095
16.0708
16.3833
16.6185
16.9213
17.1321
17.4292
17.6182
17.9184
18.0769
18.4202
14.7686
14.5867
14.4659
14.3803
14.3676
14.3895
14.4394
14.5335
14.6184
14.7369
14.831
14.9569
15.0482
15.1772
15.2619
15.3951
15.4652
15.6273
14.768
14.5911
14.4348
14.2963
14.185
14.1044
14.0398
14.0067
13.9814
13.9786
13.9809
13.9918
14.0038
14.0302
14.0466
14.0819
14.0979
14.1534
14.7665
14.594
14.432
14.2821
14.143
14.0219
13.9115
13.8193
13.737
13.6698
13.6102
13.5633
13.5181
13.4873
13.4516
13.4346
13.4021
13.4017
14.7659
14.5945
14.4322
14.2803
14.1362
14.0032
13.8782
13.7644
13.6581
13.5628
13.4735
13.3951
13.3197
13.256
13.1915
13.1408
13.0838
13.0453
14.7657
14.5943
14.4321
14.2798
14.1353
13.9999
13.8715
13.7518
13.6385
13.5336
13.434
13.3429
13.2556
13.177
13.1002
13.0327
12.9646
12.9074
14.7657
14.5941
14.432
14.2794
14.135
13.9989
13.8699
13.7485
13.6331
13.5249
13.4219
13.3256
13.2337
13.1483
13.0662
12.9905
12.9171
12.8502
14.7657
14.5939
14.4318
14.279
14.1346
13.9983
13.8692
13.7472
13.6315
13.5222
13.4184
13.3203
13.227
13.1389
13.0549
12.9758
12.9002
12.8291
14.7657
14.5938
14.4317
14.2787
14.1342
13.9977
13.8686
13.7464
13.6307
13.5211
13.417
13.3185
13.2248
13.136
13.0516
12.9715
12.8952
12.8228
14.7657
14.5938
14.4316
14.2785
14.1339
13.9973
13.8681
13.7458
13.63
13.5202
13.4161
13.3174
13.2237
13.1347
13.0501
12.9697
12.8932
12.8205
14.7657
14.5937
14.4315
14.2783
14.1337
13.997
13.8677
13.7453
13.6294
13.5196
13.4154
13.3166
13.2227
13.1337
13.049
12.9685
12.8919
12.8191
14.7657
14.5937
14.4314
14.2782
14.1335
13.9968
13.8674
13.745
13.629
13.5191
13.4149
13.316
13.2221
13.1329
13.0482
12.9676
12.891
12.8181
14.7657
14.5937
14.4314
14.2782
14.1335
13.9967
13.8673
13.7448
13.6288
13.5189
13.4146
13.3157
13.2218
13.1326
13.0478
12.9672
12.8905
12.8176
14.7657
14.5937
14.4314
14.2783
14.1336
13.9968
13.8675
13.745
13.629
13.5191
13.4148
13.3159
13.222
13.1328
13.048
12.9674
12.8908
12.8178
14.7657
14.5937
14.4315
14.2784
14.1338
13.997
13.8678
13.7453
13.6295
13.5196
13.4155
13.3167
13.223
13.1339
13.0494
12.969
12.8928
12.8201
14.7657
14.5937
14.4316
14.2785
14.1341
13.9975
13.8685
13.7464
13.6312
13.5221
13.4191
13.3214
13.2294
13.1419
13.0596
12.9811
12.9075
12.8369
14.7659
14.5937
14.4318
14.2788
14.1353
14.0002
13.8742
13.756
13.6464
13.5435
13.4485
13.3592
13.2771
13.1993
13.1283
13.0602
12.9989
12.9387
14.7661
14.5928
14.4329
14.2844
14.1515
14.0321
13.929
13.8376
13.7593
13.6894
13.6307
13.5769
13.5328
13.4905
13.4574
13.423
13.3988
13.3693
14.7641
14.5936
14.461
14.3604
14.3029
14.2767
14.2796
14.294
14.3202
14.3529
14.3958
14.4345
14.4823
14.5216
14.5718
14.6087
14.6614
14.6936
14.757
14.6921
14.7579
14.9172
15.1828
15.4611
15.7475
16.012
16.2722
16.5036
16.7359
16.9383
17.1504
17.3305
17.5305
17.6931
17.8882
18.0353
14.9575
15.4344
16.5693
17.6884
18.7052
19.5676
20.3371
20.9966
21.6191
22.1656
22.7183
23.2101
23.7391
24.2033
24.7315
25.1813
25.7234
26.1642
16.2579
20.9389
25.015
27.7587
29.7843
31.3583
32.7763
34.0577
35.3584
36.615
37.9738
39.2952
40.759
42.1427
43.7141
45.1693
46.8784
48.3524
29.9427
47.2249
54.8703
58.673
61.6132
64.4309
67.5778
70.9764
74.7345
78.7092
82.9791
87.3364
91.8955
96.4384
101.086
105.607
110.157
114.556
165.79
160.073
154.899
149.564
144.479
139.678
135.613
132.11
129.269
126.973
125.319
124.043
123.338
122.827
122.823
122.978
123.264
123.821
1.19082
1.0131
1.68293
2.31441
2.95012
3.58775
4.22221
4.84249
5.43344
5.97904
6.46503
6.88208
7.22583
7.46807
7.70582
7.92204
8.12599
8.43654
8.66965
8.75391
8.68255
8.35618
8.09327
8.28118
8.50613
8.77625
9.02312
39.6983
8.98775
39.8845
44.8473
47.6182
51.4468
55.1609
59.153
63.2886
67.6089
72.1043
76.7748
81.6191
86.6369
91.8367
97.2178
102.79
108.552
114.515
120.677
127.051
133.633
140.435
147.454
154.702
162.174
169.883
177.82
186.001
194.415
203.077
211.974
221.121
230.504
240.138
250.005
260.124
270.47
281.065
291.88
302.939
314.209
325.717
337.426
349.364
361.491
373.838
386.358
399.086
411.972
425.053
438.278
451.687
465.222
478.929
492.746
506.724
520.791
535.005
549.293
563.714
578.209
592.819
607.509
622.25
637.028
651.815
666.596
681.336
696.019
710.622
725.171
739.735
754.385
768.951
783.477
797.933
812.295
826.562
840.693
854.696
868.516
882.158
895.554
908.703
921.525
934.011
946.068
957.681
968.746
979.239
989.059
998.18
1006.51
1014.03
1020.64
1026.12
1030.01
1031.99
1034.43
1033.25
1031.15
1027.49
1022.02
1014.7
1005.43
994.267
981.263
966.511
950.126
932.181
912.85
892.246
870.532
847.941
824.996
801.359
783.112
768.751
754.409
739.598
724.352
708.911
693.303
677.637
662.006
646.497
631.18
616.111
601.354
586.785
572.554
558.735
545.361
532.474
519.937
507.841
496.251
485.162
474.562
464.432
454.738
445.459
436.592
428.122
420.027
412.259
404.771
397.366
390.061
381.599
373.82
343.982
3.84542
2.24361
2.19721
2.43862
2.8101
3.25991
3.76267
4.29754
4.84623
5.39338
5.92823
6.44519
6.94459
7.43247
7.92717
8.44631
9.00327
9.61442
10.2584
10.9544
11.7671
12.8006
14.0656
15.2605
16.8859
18.0957
20.8257
23.0913
23.4255
27.9026
29.7266
31.5216
33.4579
35.4347
37.4861
39.6013
41.7861
44.0408
46.3662
48.7628
51.2326
53.7779
56.4003
59.1022
61.8849
64.7507
67.7006
70.7369
73.8603
77.0728
80.3747
83.7681
87.2527
90.8305
94.501
98.2656
102.124
106.077
110.123
114.264
118.497
122.825
127.244
131.756
136.357
141.048
145.826
150.691
155.64
160.672
165.784
170.976
176.242
181.583
186.993
192.473
198.016
203.623
209.287
215.009
220.781
226.605
232.472
238.385
244.332
250.318
256.331
262.373
268.437
274.523
280.619
286.714
292.801
298.873
304.923
310.946
316.941
322.914
328.888
334.904
341.046
347.152
353.234
359.278
365.284
371.243
377.151
383.001
388.784
394.492
400.112
405.633
411.04
416.317
421.447
426.41
431.186
435.752
440.087
444.167
447.966
451.458
454.606
457.35
459.606
461.314
462.561
463.051
462.912
462.187
460.72
458.503
455.506
451.732
447.19
441.9
435.893
429.204
421.878
413.966
405.52
396.611
387.371
377.829
368.945
360.754
352.667
344.502
336.251
327.974
319.708
311.497
303.377
295.382
287.539
279.872
272.405
265.039
257.831
250.848
244.113
237.641
231.413
225.427
219.69
214.208
208.979
203.997
199.25
194.725
190.42
186.325
182.436
178.742
175.239
171.901
168.763
165.823
164.579
161.899
7.13402
3.63155
3.18361
3.23262
3.47725
3.84009
4.28609
4.79294
5.34346
5.92417
6.52629
7.14631
7.78674
8.45545
9.16372
9.91596
10.7123
11.5468
12.4292
13.3722
14.3865
15.4702
16.6161
17.7801
19.0107
20.2954
21.7799
23.2488
24.7367
26.5479
28.1074
29.6622
31.269
32.9276
34.6411
36.4092
38.2334
40.1174
42.0597
44.061
46.1224
48.2453
50.4309
52.6805
54.9953
57.3766
59.8254
62.3428
64.9298
67.5874
70.3164
73.1175
75.9913
78.9385
81.9594
85.0545
88.224
91.4682
94.7868
98.18
101.647
105.189
108.803
112.491
116.25
120.08
123.979
127.947
131.983
136.083
140.248
144.474
148.759
153.102
157.499
161.949
166.448
170.994
175.583
180.213
184.879
189.58
194.311
199.069
203.849
208.649
213.465
218.291
223.126
227.966
232.805
237.638
242.461
247.27
252.063
256.841
261.606
266.363
271.12
275.89
280.663
285.406
290.117
294.79
299.423
304.012
308.554
313.043
317.477
321.847
326.149
330.373
334.513
338.555
342.49
346.302
349.979
353.501
356.853
360.012
362.955
365.654
368.078
370.188
371.945
373.332
374.089
374.5
374.388
373.777
372.599
370.836
368.468
365.495
361.917
357.748
353.008
347.725
341.932
335.666
328.969
321.897
314.537
306.991
299.573
292.353
285.187
278.003
270.802
263.615
256.476
249.418
242.47
235.657
229.001
222.518
216.221
210.086
204.127
198.366
192.815
187.482
182.362
177.439
172.708
168.185
163.871
159.762
155.848
152.123
148.582
145.214
142.019
138.991
136.132
133.437
130.933
128.611
127.102
125.649
10.5283
5.11981
4.28179
4.18197
4.3484
4.66446
5.08341
5.58076
6.14018
6.74945
7.39983
8.08586
8.80529
9.55814
10.3454
11.1676
12.0243
12.9146
13.84
14.8022
15.8
16.8259
17.9219
19.0407
20.192
21.4093
22.7151
24.0798
25.4827
26.9625
28.4455
29.9569
31.5119
33.1149
34.7676
36.4702
38.222
40.0259
41.8843
43.7989
45.7707
47.8009
49.8907
52.0412
54.2536
56.5291
58.8686
61.2734
63.7445
66.2829
68.8894
71.5649
74.3099
77.1253
80.0116
82.9693
85.9988
89.1006
92.2747
95.5212
98.8402
102.231
105.694
109.229
112.834
116.509
120.252
124.064
127.941
131.883
135.888
139.954
144.079
148.259
152.493
156.778
161.111
165.487
169.905
174.36
178.849
183.367
187.911
192.477
197.061
201.658
206.263
210.873
215.483
220.091
224.692
229.282
233.857
238.414
242.952
247.47
251.969
256.45
260.915
265.359
269.774
274.148
278.476
282.757
286.985
291.159
295.276
299.333
303.325
307.249
311.101
314.874
318.562
322.157
325.65
329.03
332.284
335.398
338.356
341.137
343.719
346.076
348.177
349.992
351.486
352.629
353.227
353.491
353.29
352.61
351.412
349.674
347.379
344.522
341.102
337.13
332.623
327.605
322.104
316.158
309.815
303.137
296.202
289.1
281.973
274.88
267.797
260.709
253.628
246.585
239.611
232.736
225.986
219.386
212.954
206.703
200.646
194.777
189.102
183.629
178.365
173.312
168.468
163.824
159.376
155.123
151.065
147.196
143.51
140.001
136.662
133.481
130.461
127.601
124.9
122.363
120.008
117.851
116.199
114.772
13.8124
6.6087
5.38919
5.15081
5.24321
5.51652
5.90908
6.39117
6.94486
7.55739
8.21915
8.92285
9.66334
10.4373
11.2426
12.0786
12.9448
13.8418
14.7708
15.7329
16.7288
17.7579
18.8225
19.9376
21.1067
22.3271
23.5977
24.9189
26.2881
27.705
29.1603
30.6567
32.1988
33.7894
35.4303
37.1231
38.8699
40.6724
42.5309
44.446
46.419
48.4511
50.5434
52.6974
54.9141
57.1949
59.541
61.9538
64.4345
66.9844
69.605
72.2967
75.0605
77.8973
80.8078
83.793
86.8535
89.9899
93.2026
96.4919
99.8581
103.301
106.821
110.417
114.089
117.837
121.658
125.553
129.519
133.556
137.66
141.831
146.065
150.36
154.713
159.121
163.58
168.086
172.636
177.225
181.85
186.504
191.184
195.884
200.601
205.327
210.059
214.792
219.52
224.24
228.947
233.637
238.305
242.947
247.561
252.144
256.693
261.205
265.676
270.103
274.478
278.795
283.05
287.239
291.359
295.407
299.381
303.279
307.096
310.832
314.48
318.039
321.503
324.866
328.12
331.258
334.269
337.14
339.857
342.402
344.754
346.888
348.776
350.392
351.705
352.659
353.157
353.299
353.002
352.236
350.967
349.171
346.832
343.938
340.489
336.492
331.961
326.918
321.396
315.435
309.089
302.419
295.495
288.394
281.205
273.979
266.733
259.48
252.245
245.057
237.95
230.953
224.094
217.396
210.877
204.551
198.429
192.512
186.805
181.311
176.032
170.97
166.122
161.481
157.041
152.799
148.751
144.891
141.213
137.71
134.376
131.203
128.19
125.334
122.636
120.102
117.748
115.598
113.816
112.217
16.8822
8.0315
6.44593
6.07281
6.09139
6.31959
6.68053
7.13835
7.6726
8.26962
8.91929
9.61384
10.3474
11.1159
11.9168
12.7488
13.612
14.5072
15.4359
16.3999
17.4009
18.4406
19.5214
20.6472
21.8203
23.0416
24.3114
25.6299
26.9968
28.4114
29.8729
31.3819
32.9403
34.5497
36.2117
37.9279
39.6998
41.5287
43.4157
45.362
47.3688
49.4376
51.5697
53.7667
56.0298
58.3607
60.7609
63.2317
65.7747
68.3912
71.0824
73.85
76.6955
79.6201
82.6251
85.7116
88.8806
92.1331
95.4697
98.8912
102.398
105.99
109.668
113.431
117.28
121.213
125.229
129.328
133.508
137.768
142.104
146.515
150.998
155.551
160.169
164.849
169.586
174.378
179.218
184.101
189.023
193.979
198.961
203.965
208.985
214.013
219.045
224.074
229.094
234.1
239.087
244.048
248.978
253.873
258.726
263.533
268.29
272.99
277.629
282.2
286.699
291.12
295.458
299.709
303.871
307.939
311.911
315.786
319.56
323.231
326.798
330.257
333.606
336.839
339.953
342.941
345.794
348.502
351.053
353.432
355.618
357.591
359.324
360.792
361.969
362.778
363.183
363.22
362.831
361.976
360.622
358.742
356.315
353.329
349.778
345.667
341.008
335.828
330.16
324.05
317.549
310.716
303.618
296.322
288.896
281.392
273.844
266.282
258.738
251.247
243.844
236.562
229.427
222.464
215.693
209.127
202.778
196.651
190.748
185.073
179.626
174.405
169.407
164.627
160.057
155.693
151.527
147.555
143.769
140.162
136.728
133.461
130.357
127.413
124.631
122.017
119.585
117.361
115.43
113.605
19.6474
9.33689
7.40968
6.90166
6.85061
7.0308
7.3562
7.78432
8.29205
8.8648
9.49235
10.1671
10.8836
11.6378
12.4272
13.2508
14.1085
15.0009
15.9294
16.8957
17.9014
18.9483
20.0383
21.1733
22.3548
23.584
24.8618
26.1887
27.5652
28.9917
30.4689
31.9976
33.5792
35.215
36.9066
38.6555
40.4631
42.3308
44.2602
46.2527
48.3099
50.4333
52.6246
54.8856
57.2179
59.6234
62.1039
64.6612
67.2971
70.0134
72.812
75.6946
78.663
81.7191
84.8644
88.1003
91.4284
94.8499
98.3659
101.977
105.685
109.49
113.391
117.39
121.485
125.677
129.965
134.347
138.822
143.388
148.042
152.783
157.607
162.511
167.49
172.541
177.658
182.837
188.072
193.358
198.687
204.054
209.451
214.872
220.309
225.755
231.202
236.644
242.071
247.479
252.86
258.206
263.51
268.766
273.966
279.104
284.173
289.166
294.077
298.898
303.624
308.247
312.765
317.17
321.461
325.632
329.682
333.607
337.407
341.079
344.622
348.034
351.314
354.46
357.468
360.335
363.055
365.621
368.023
370.247
372.278
374.095
375.677
376.999
378.036
378.707
379.008
378.933
378.438
377.479
376.021
374.033
371.491
368.378
364.685
360.417
355.589
350.225
344.36
338.039
331.312
324.237
316.876
309.293
301.548
293.694
285.775
277.831
269.902
262.026
254.242
246.584
239.083
231.763
224.645
217.746
211.076
204.643
198.45
192.499
186.789
181.318
176.083
171.076
166.291
161.722
157.36
153.199
149.232
145.451
141.849
138.421
135.162
132.07
129.145
126.394
123.828
121.47
119.364
117.302
22.0468
10.4869
8.24979
7.61211
7.49452
7.62749
7.91661
8.31368
8.79312
9.33945
9.94244
10.5948
11.2915
12.0288
12.8046
13.6176
14.4679
15.3556
16.282
17.2483
18.2559
19.3064
20.4014
21.5423
22.7305
23.9672
25.2536
26.5906
27.9793
29.4207
30.9158
32.466
34.0727
35.7374
37.4616
39.247
41.0953
43.008
44.987
47.0341
49.151
51.3398
53.6023
55.9407
58.357
60.8534
63.4322
66.0955
68.8456
71.6849
74.6155
77.6397
80.7598
83.9779
87.2961
90.7163
94.2404
97.8701
101.607
105.452
109.407
113.472
117.647
121.934
126.332
130.841
135.459
140.186
145.021
149.96
155.002
160.143
165.381
170.711
176.129
181.629
187.207
192.856
198.57
204.343
210.166
216.032
221.933
227.86
233.805
239.759
245.712
251.656
257.582
263.481
269.344
275.163
280.928
286.629
292.26
297.81
303.272
308.637
313.897
319.043
324.069
328.966
333.729
338.352
342.83
347.158
351.334
355.354
359.217
362.922
366.467
369.853
373.078
376.144
379.048
381.79
384.367
386.775
389.006
391.052
392.899
394.53
395.928
397.068
397.923
398.424
398.578
398.359
397.721
396.623
395.027
392.899
390.21
386.942
383.086
378.642
373.626
368.059
361.975
355.417
348.434
341.082
333.419
325.508
317.406
309.169
300.847
292.485
284.131
275.827
267.615
259.532
251.61
243.878
236.358
229.067
222.018
215.219
208.675
202.387
196.355
190.575
185.043
179.752
174.696
169.865
165.253
160.85
156.65
152.644
148.826
145.19
141.73
138.444
135.333
132.401
129.659
127.124
124.815
122.505
24.045
11.4596
8.95139
8.195
8.01457
8.10253
8.35663
8.72367
9.1758
9.69666
10.2759
10.9064
11.5833
12.3034
13.0645
13.8657
14.7064
15.5871
16.5086
17.4717
18.4779
19.5285
20.6249
21.7686
22.9609
24.2032
25.4969
26.8433
28.2438
29.6997
31.2128
32.7846
34.4169
36.1114
37.8699
39.6943
41.5866
43.5488
45.5829
47.691
49.8754
52.1384
54.4823
56.9096
59.423
62.0248
64.718
67.5051
70.3888
73.3721
76.4577
79.6483
82.9466
86.3554
89.8772
93.5143
97.2692
101.144
105.14
109.26
113.505
117.875
122.373
126.997
131.749
136.628
141.633
146.763
152.016
157.389
162.881
168.488
174.205
180.028
185.953
191.973
198.082
204.274
210.54
216.873
223.264
229.704
236.183
242.692
249.22
255.757
262.291
268.812
275.309
281.772
288.189
294.55
300.843
307.058
313.185
319.212
325.129
330.927
336.595
342.123
347.502
352.723
357.779
362.662
367.366
371.885
376.216
380.354
384.298
388.047
391.6
394.958
398.121
401.091
403.869
406.457
408.855
411.062
413.075
414.888
416.493
417.877
419.024
419.915
420.518
420.793
420.727
420.292
419.448
418.153
416.366
414.053
411.181
407.73
403.687
399.052
393.835
388.056
381.745
374.943
367.696
360.058
352.085
343.836
335.37
326.743
318.01
309.222
300.43
291.682
283.021
274.49
266.122
257.949
249.995
242.28
234.817
227.617
220.684
214.021
207.628
201.5
195.632
190.019
184.651
179.521
174.619
169.937
165.466
161.199
157.128
153.247
149.551
146.036
142.704
139.557
136.604
133.857
131.317
128.75
25.6302
12.2466
9.51142
8.65054
8.41252
8.45893
8.68039
9.01946
9.44629
9.94367
10.5009
11.1111
11.7694
12.4728
13.2191
14.0073
14.8371
15.7088
16.6228
17.5803
18.5824
19.6304
20.7258
21.8699
23.0645
24.311
25.6109
26.9659
28.3776
29.8478
31.3788
32.9727
34.6316
36.3578
38.1532
40.0203
41.9612
43.9785
46.0745
48.2518
50.5131
52.8611
55.2987
57.8289
60.4546
63.1791
66.0055
68.9371
71.9771
75.1289
78.3959
81.7813
85.2884
88.9205
92.6804
96.5713
100.596
104.756
109.056
113.495
118.077
122.803
127.673
132.688
137.848
143.153
148.602
154.194
159.926
165.796
171.801
177.936
184.198
190.58
197.078
203.684
210.391
217.191
224.076
231.036
238.061
245.14
252.263
259.418
266.593
273.775
280.951
288.109
295.235
302.318
309.345
316.301
323.175
329.953
336.624
343.174
349.591
355.864
361.979
367.926
373.694
379.271
384.647
389.814
394.764
399.49
403.985
408.247
412.272
416.058
419.605
422.914
425.988
428.828
431.438
433.822
435.983
437.924
439.647
441.15
442.428
443.475
444.28
444.824
445.086
445.034
444.651
443.907
442.769
441.196
439.15
436.592
433.489
429.816
425.558
420.71
415.279
409.281
402.743
395.7
388.197
380.282
372.01
363.438
354.622
345.621
336.492
327.29
318.07
308.883
299.777
290.796
281.979
273.357
264.959
256.807
248.915
241.296
233.955
226.897
220.119
213.62
207.393
201.431
195.727
190.27
185.053
180.065
175.297
170.742
166.391
162.238
158.278
154.507
150.925
147.535
144.342
141.354
138.561
135.724
26.8101
12.8502
9.93479
8.98591
8.69687
8.70611
8.89785
9.21136
9.61515
10.0912
10.6286
11.2202
11.8615
12.5498
13.2819
14.057
14.8751
15.7365
16.642
17.5925
18.5892
19.6336
20.7271
21.8714
23.0683
24.3194
25.6266
26.9915
28.4159
29.9009
31.4512
33.0698
34.7591
36.5216
38.3599
40.2767
42.2748
44.3569
46.5261
48.7855
51.1382
53.5876
56.1371
58.7901
61.5504
64.4216
67.4075
70.512
73.739
77.0924
80.5761
84.1939
87.9498
91.8474
95.8902
100.082
104.425
108.923
113.578
118.393
123.369
128.509
133.812
139.28
144.912
150.708
156.667
162.787
169.066
175.499
182.084
188.816
195.689
202.697
209.834
217.091
224.46
231.932
239.496
247.143
254.86
262.636
270.457
278.31
286.182
294.057
301.921
309.759
317.556
325.298
332.969
340.555
348.041
355.411
362.651
369.748
376.687
383.453
390.034
396.414
402.58
408.52
414.222
419.675
424.868
429.792
434.441
438.809
442.893
446.688
450.196
453.417
456.354
459.009
461.389
463.499
465.347
466.936
468.276
469.367
470.214
470.811
471.158
471.238
471.039
470.533
469.708
468.544
467.006
465.058
462.664
459.785
456.386
452.438
447.924
442.834
437.171
430.947
424.184
416.913
409.172
401.005
392.463
383.598
374.468
365.128
355.638
346.056
336.438
326.84
317.312
307.901
298.649
289.592
280.759
272.174
263.856
255.817
248.066
240.606
233.437
226.556
219.959
213.637
207.582
201.785
196.236
190.925
185.843
180.98
176.33
171.886
167.641
163.592
159.739
156.083
152.626
149.375
146.309
143.193
27.6002
13.2778
10.2312
9.21286
8.87953
8.85775
9.02252
9.31298
9.69614
10.1534
10.6727
11.2472
11.873
12.5478
13.2678
14.0324
14.8413
15.6948
16.5936
17.5388
18.5316
19.5736
20.6666
21.8126
23.0136
24.2715
25.5884
26.9666
28.4087
29.9139
31.4903
33.141
34.8695
36.6787
38.5718
40.5521
42.6228
44.7874
47.0495
49.4127
51.8809
54.4581
57.1482
59.9556
62.8845
65.9392
69.1242
72.444
75.9031
79.5061
83.2573
87.1613
91.2223
95.4445
99.8318
104.388
109.117
114.021
119.103
124.366
129.811
135.44
141.253
147.251
153.434
159.8
166.347
173.073
179.975
187.048
194.288
201.69
209.246
216.949
224.791
232.763
240.856
249.057
257.357
265.741
274.199
282.714
291.274
299.861
308.462
317.059
325.636
334.175
342.66
351.074
359.4
367.621
375.72
383.682
391.489
399.125
406.576
413.824
420.854
427.649
434.195
440.475
446.475
452.183
457.585
462.672
467.433
471.863
475.955
479.707
483.116
486.185
488.914
491.309
493.375
495.121
496.555
497.688
498.531
499.091
499.378
499.391
499.147
498.619
497.808
496.715
495.32
493.604
491.543
489.105
486.256
482.963
479.187
474.898
470.075
464.706
458.789
452.331
445.349
437.867
429.917
421.536
412.769
403.662
394.269
384.646
374.851
364.942
354.978
345.015
335.109
325.308
315.658
306.195
296.954
287.96
279.234
270.791
262.641
254.789
247.235
239.977
233.01
226.327
219.919
213.776
207.889
202.248
196.841
191.662
186.701
181.952
177.408
173.067
168.926
164.986
161.248
157.715
154.361
150.958
28.0538
13.5499
10.4149
9.34421
8.97439
8.92682
9.06917
9.33953
9.7047
10.1467
10.6521
11.2138
11.827
12.4881
13.1948
13.9476
14.7464
15.5919
16.4849
17.4267
18.4191
19.4638
20.5628
21.7184
22.9337
24.2097
25.5487
26.9536
28.4271
29.969
31.5881
33.2889
35.0755
36.9516
38.9217
40.9905
43.162
45.44
47.8288
50.3328
52.9566
55.7051
58.583
61.5953
64.747
68.0432
71.4889
75.0893
78.8495
82.7746
86.8695
91.1391
95.588
100.221
105.041
110.054
115.261
120.667
126.273
132.083
138.096
144.314
150.738
157.366
164.197
171.23
178.461
185.886
193.502
201.303
209.282
217.432
225.746
234.214
242.827
251.574
260.443
269.422
278.499
287.657
296.884
306.163
315.478
324.812
334.147
343.466
352.749
361.977
371.132
380.195
389.147
397.971
406.647
415.158
423.486
431.614
439.524
447.199
454.62
461.77
468.631
475.186
481.416
487.308
492.846
498.018
502.812
507.221
511.237
514.856
518.076
520.896
523.318
525.348
526.992
528.258
529.158
529.707
529.919
529.808
529.394
528.661
527.656
526.376
524.819
522.986
520.872
518.463
515.741
512.684
509.263
505.446
501.201
496.495
491.303
485.613
479.419
472.721
465.53
457.864
449.746
441.203
432.271
422.991
413.409
403.577
393.551
383.39
373.152
362.895
352.675
342.544
332.549
322.732
313.128
303.765
294.668
285.852
277.33
269.109
261.189
253.571
246.248
239.215
232.461
225.979
219.757
213.786
208.056
202.556
197.28
192.221
187.371
182.728
178.289
174.053
170.021
166.193
162.54
158.845
28.0996
13.6531
10.4909
9.39117
8.99607
8.92943
9.05654
9.31255
9.66368
10.0898
10.5799
11.1277
11.729
12.3813
13.083
13.8331
14.6316
15.4794
16.3777
17.3287
18.3336
19.3939
20.5124
21.692
22.9356
24.2413
25.6153
27.0621
28.5862
30.1922
31.8854
33.6708
35.5531
37.5373
39.6285
41.8323
44.1545
46.5998
49.1736
51.8813
54.7284
57.7208
60.8642
64.1643
67.6268
71.2575
75.062
79.0461
83.2152
87.5747
92.1298
96.8854
101.846
107.017
112.4
118.001
123.821
129.864
136.13
142.621
149.336
156.277
163.441
170.826
178.43
186.249
194.278
202.512
210.944
219.567
228.372
237.352
246.496
255.792
265.23
274.797
284.478
294.261
304.131
314.071
324.064
334.095
344.145
354.195
364.227
374.22
384.155
394.01
403.766
413.403
422.9
432.238
441.397
450.36
459.106
467.619
475.879
483.868
491.567
498.954
506.011
512.718
519.056
525.006
530.553
535.682
540.38
544.637
548.445
551.798
554.693
557.129
559.108
560.634
561.713
562.355
562.574
562.387
561.81
560.847
559.555
557.941
556.028
553.833
551.366
548.637
545.649
542.398
538.875
535.067
530.951
526.501
521.69
516.487
510.868
504.818
498.327
491.391
484.012
476.201
467.969
459.333
450.316
440.949
431.271
421.327
411.169
400.852
390.433
379.971
369.524
359.144
348.88
338.778
328.875
319.202
309.785
300.644
291.793
283.24
274.989
267.039
259.386
252.024
244.944
238.138
231.594
225.304
219.256
213.443
207.855
202.486
197.329
192.382
187.64
183.102
178.768
174.637
170.679
166.69
27.9932
13.6504
10.4879
9.37715
8.96875
8.88894
8.99929
9.24021
9.57873
9.99652
10.4818
11.0275
11.6295
12.2853
12.9943
13.7551
14.5677
15.4332
16.3534
17.3302
18.3618
19.4532
20.6083
21.831
23.1252
24.495
25.945
27.4801
29.1056
30.8272
32.6506
34.5816
36.6261
38.7903
41.0803
43.5029
46.0649
48.7727
51.633
54.6529
57.8394
61.1995
64.7398
68.4665
72.386
76.5045
80.8276
85.3613
90.1109
95.0815
100.278
105.705
111.366
117.264
123.402
129.782
136.406
143.274
150.386
157.741
165.336
173.17
181.239
189.538
198.062
206.804
215.758
224.915
234.267
243.803
253.514
263.387
273.41
283.571
293.856
304.25
314.738
325.304
335.932
346.605
357.306
368.015
378.714
389.383
400.004
410.554
421.013
431.36
441.573
451.631
461.514
471.201
480.673
489.91
498.896
507.611
516.036
524.151
531.937
539.371
546.433
553.099
559.35
565.166
570.528
575.42
579.828
583.741
587.151
590.049
592.434
594.302
595.656
596.494
596.831
596.669
596.027
594.896
593.344
591.384
589.052
586.375
583.382
580.104
576.562
572.777
568.764
564.527
560.069
555.386
550.463
545.283
539.821
534.054
527.961
521.525
514.735
507.578
500.051
492.153
483.883
475.244
466.243
456.9
447.241
437.304
427.133
416.78
406.297
395.743
385.175
374.648
364.212
353.914
343.794
333.887
324.221
314.819
305.697
296.865
288.328
280.088
272.143
264.486
257.109
250.005
243.162
236.572
230.224
224.109
218.22
212.55
207.092
201.843
196.8
191.961
187.323
182.887
178.621
174.339
27.6804
13.5702
10.4288
9.31184
8.892
8.80321
8.90986
9.15039
9.49187
9.91649
10.4123
10.9723
11.5925
12.2707
13.0054
13.794
14.6393
15.5436
16.5096
17.5402
18.6393
19.8103
21.0576
22.3861
23.8012
25.3088
26.9148
28.6255
30.4476
32.388
34.4539
36.6525
38.9913
41.478
44.12
46.9249
49.9002
53.0548
56.3976
59.9375
63.6847
67.6474
71.8319
76.2442
80.8902
85.7751
90.9041
96.2817
101.912
107.798
113.944
120.351
127.02
133.953
141.148
148.605
156.322
164.297
172.524
181
189.719
198.674
207.859
217.266
226.884
236.705
246.718
256.912
267.275
277.794
288.456
299.247
310.154
321.16
332.252
343.412
354.624
365.872
377.139
388.407
399.658
410.873
422.035
433.122
444.116
454.997
465.744
476.335
486.748
496.964
506.961
516.72
526.222
535.449
544.385
553.01
561.307
569.256
576.835
584.021
590.792
597.124
602.995
608.382
613.269
617.636
621.468
624.755
627.486
629.657
631.262
632.296
632.768
632.662
632.013
630.769
629.008
626.736
623.991
620.806
617.219
613.267
608.992
604.437
599.636
594.621
589.418
584.047
578.518
572.842
567.011
561.016
554.839
548.463
541.872
535.051
527.983
520.65
513.039
505.134
496.93
488.403
479.545
470.358
460.857
451.068
441.027
430.777
420.367
409.852
399.289
388.734
378.237
367.847
357.608
347.557
337.724
328.135
318.809
309.759
300.993
292.514
284.32
276.407
268.769
261.397
254.282
247.415
240.786
234.387
228.211
222.25
216.5
210.956
205.615
200.476
195.535
190.793
186.218
181.648
27.0556
13.3677
10.2922
9.19892
8.79529
8.72239
8.84831
9.11122
9.47814
9.93049
10.4561
11.0514
11.7142
12.4435
13.2401
14.1051
15.0406
16.0497
17.1363
18.3052
19.5619
20.9121
22.3621
23.9189
25.5899
27.383
29.3064
31.3689
33.5794
35.947
38.4812
41.1914
44.0874
47.1789
50.4752
53.9859
57.72
61.6868
65.8958
70.356
75.0767
80.0685
85.3368
90.8851
96.7156
102.83
109.229
115.914
122.884
130.137
137.673
145.487
153.576
161.935
170.558
179.438
188.568
197.94
207.543
217.369
227.408
237.647
248.076
258.682
269.453
280.376
291.437
302.623
313.919
325.311
336.784
348.324
359.915
371.542
383.189
394.841
406.482
418.095
429.665
441.176
452.609
463.95
475.18
486.282
497.238
508.03
518.638
529.044
539.227
549.167
558.845
568.243
577.342
586.129
594.588
602.703
610.455
617.825
624.79
631.328
637.413
643.021
648.127
652.709
656.75
660.232
663.134
665.454
667.173
668.295
668.812
668.708
668.017
666.662
664.725
662.191
659.087
655.441
651.292
646.679
641.646
636.242
630.517
624.538
618.343
611.979
605.489
598.904
592.24
585.463
578.631
571.769
564.864
557.9
550.869
543.752
536.526
529.167
521.653
513.945
505.969
497.718
489.171
480.313
471.143
461.678
451.944
441.971
431.804
421.493
411.096
400.664
390.252
379.908
369.679
359.604
349.717
340.046
330.613
321.434
312.52
303.875
295.501
287.396
279.553
271.965
264.625
257.523
250.651
244.002
237.568
231.344
225.324
219.505
213.884
208.459
203.227
198.191
193.317
188.47
26.36
13.0938
10.1266
9.09022
8.73137
8.70125
8.86846
9.17274
9.58821
10.1004
10.701
11.386
12.1542
13.0068
13.9462
14.9764
16.102
17.3285
18.6627
20.1122
21.6853
23.3912
25.2399
27.2417
29.4077
31.7491
34.2777
37.0057
39.9453
43.1086
46.5075
50.1538
54.0589
58.2332
62.6865
67.4279
72.4659
77.8078
83.4599
89.4279
95.7158
102.33
109.279
116.554
124.146
132.047
140.25
148.746
157.528
166.585
175.907
185.482
195.3
205.347
215.612
226.079
236.737
247.572
258.569
269.715
280.995
292.396
303.904
315.505
327.183
338.927
350.721
362.552
374.405
386.269
398.128
409.97
421.78
433.547
445.255
456.893
468.447
479.904
491.249
502.47
513.553
524.485
535.251
545.837
556.229
566.41
576.366
586.08
595.532
604.707
613.584
622.148
630.385
638.282
645.826
653.004
659.797
666.184
672.142
677.647
682.674
687.196
691.185
694.618
697.489
699.773
701.436
702.506
702.93
702.745