/*--------------------------------*- C++ -*----------------------------------*\
  =========                 |
  \\      /  F ield         | OpenFOAM: The Open Source CFD Toolbox
   \\    /   O peration     | Website:  https://openfoam.org
    \\  /    A nd           | Version:  8
     \\/     M anipulation  |
\*---------------------------------------------------------------------------*/
FoamFile
{
    version     2.0;
    format      ascii;
    class       volScalarField;
    location    "160";
    object      k;
}
// * * * * * * * * * * * * * * * * * * * * * * * * * * * * * * * * * * * * * //

dimensions      [0 2 -2 0 0 0 0];

internalField   nonuniform List<scalar> 
12225
(
0.362822
0.343988
0.327742
0.309823
0.295386
0.2835
0.275482
0.270291
0.270341
0.271884
0.276072
0.28069
0.289906
0.295806
0.306739
0.313689
0.323077
0.33625
0.440195
0.468691
0.461605
0.448365
0.450351
0.458313
0.474477
0.49868
0.524338
0.552302
0.580764
0.606403
0.634005
0.654205
0.680162
0.694007
0.718461
0.730409
0.390548
0.417865
0.420231
0.416822
0.411632
0.407801
0.408013
0.410038
0.414529
0.421452
0.430738
0.439777
0.451261
0.461262
0.47304
0.483834
0.493932
0.506924
0.377546
0.38698
0.391408
0.391342
0.390221
0.387894
0.385662
0.384081
0.382879
0.382896
0.383392
0.384333
0.386325
0.388497
0.390974
0.394347
0.396665
0.4013
0.374562
0.376088
0.378413
0.378665
0.378263
0.377204
0.375489
0.373737
0.372009
0.370453
0.369258
0.368106
0.367384
0.366815
0.366454
0.366375
0.3664
0.366799
0.373815
0.372708
0.372645
0.372384
0.371761
0.370816
0.369553
0.368082
0.366571
0.364975
0.363526
0.362062
0.360752
0.35953
0.358396
0.357435
0.356451
0.355811
0.373783
0.371742
0.370386
0.369286
0.368234
0.367113
0.365915
0.364586
0.363237
0.361807
0.36042
0.359022
0.357674
0.35638
0.355117
0.353964
0.352792
0.351807
0.37382
0.37156
0.369635
0.367976
0.366501
0.365107
0.363775
0.362429
0.361106
0.359765
0.358448
0.357141
0.35586
0.354618
0.353396
0.352244
0.351093
0.350048
0.373832
0.371553
0.369449
0.367525
0.365776
0.364153
0.362644
0.361198
0.359816
0.358472
0.357168
0.3559
0.354664
0.353471
0.352303
0.35119
0.350091
0.349067
0.373831
0.37156
0.369418
0.367405
0.365529
0.363772
0.362132
0.360585
0.359121
0.357727
0.356393
0.355116
0.353885
0.352706
0.351565
0.350477
0.349415
0.348415
0.373829
0.371561
0.369413
0.367378
0.365458
0.363645
0.361937
0.360323
0.358798
0.357352
0.355978
0.35467
0.353422
0.352232
0.351091
0.350005
0.348955
0.347965
0.373828
0.371559
0.369409
0.367371
0.365439
0.363609
0.361875
0.360233
0.358677
0.357201
0.355799
0.354467
0.353198
0.351992
0.35084
0.349745
0.348692
0.347698
0.373827
0.371557
0.369405
0.367365
0.36543
0.363594
0.361851
0.360197
0.358625
0.357133
0.355715
0.354367
0.353083
0.351863
0.350699
0.349592
0.348533
0.34753
0.373826
0.371555
0.369402
0.36736
0.365422
0.363583
0.361837
0.360178
0.3586
0.3571
0.355674
0.354316
0.353024
0.351794
0.350621
0.349505
0.348439
0.347426
0.373826
0.371553
0.369398
0.367355
0.365416
0.363575
0.361826
0.360164
0.358584
0.357081
0.355651
0.354289
0.352992
0.351757
0.35058
0.349459
0.348388
0.347369
0.373826
0.371552
0.369396
0.367351
0.36541
0.363568
0.361817
0.360154
0.358572
0.357067
0.355634
0.354271
0.352972
0.351734
0.350555
0.34943
0.348357
0.347335
0.373825
0.371551
0.369394
0.367348
0.365406
0.363562
0.36181
0.360145
0.358562
0.357055
0.355622
0.354256
0.352956
0.351717
0.350536
0.349409
0.348335
0.34731
0.373825
0.371551
0.369393
0.367346
0.365403
0.363558
0.361806
0.36014
0.358555
0.357048
0.355613
0.354246
0.352945
0.351704
0.350522
0.349394
0.348319
0.347293
0.373825
0.37155
0.369393
0.367346
0.365403
0.363557
0.361804
0.360137
0.358552
0.357044
0.355609
0.354242
0.352939
0.351698
0.350515
0.349386
0.34831
0.347283
0.373825
0.371551
0.369393
0.367347
0.365404
0.363559
0.361806
0.36014
0.358555
0.357047
0.355612
0.354245
0.352943
0.351702
0.350519
0.34939
0.348314
0.347287
0.373825
0.371551
0.369395
0.367349
0.365407
0.363563
0.361811
0.360146
0.358563
0.357056
0.355622
0.354257
0.352956
0.351717
0.350536
0.349409
0.348335
0.34731
0.373826
0.371553
0.369397
0.367352
0.365412
0.363571
0.361823
0.360162
0.358584
0.357084
0.355657
0.3543
0.353008
0.351776
0.350604
0.349485
0.348419
0.3474
0.373826
0.371554
0.369399
0.36736
0.365429
0.363603
0.361876
0.360241
0.358691
0.357221
0.355824
0.354495
0.353228
0.35202
0.350867
0.349765
0.348713
0.347703
0.373828
0.371551
0.369412
0.367417
0.365556
0.36382
0.36219
0.360652
0.35919
0.357794
0.356457
0.355173
0.353937
0.352747
0.351602
0.350497
0.349438
0.348412
0.373823
0.371554
0.369605
0.367893
0.366339
0.364893
0.363495
0.362123
0.360762
0.359414
0.358082
0.356771
0.35549
0.354239
0.35303
0.351857
0.350736
0.349647
0.373788
0.371991
0.371113
0.370266
0.36936
0.368312
0.367049
0.36563
0.364121
0.362576
0.361031
0.359523
0.358074
0.356683
0.355382
0.354142
0.35301
0.351925
0.374355
0.375572
0.377775
0.377858
0.377288
0.375886
0.373836
0.371641
0.369505
0.367482
0.365664
0.364084
0.36271
0.361534
0.360609
0.359817
0.359287
0.358799
0.379125
0.394296
0.398249
0.396573
0.392539
0.387604
0.383646
0.380448
0.378267
0.376851
0.376494
0.376737
0.377411
0.378685
0.380434
0.382413
0.384816
0.387125
0.408394
0.42754
0.422415
0.411055
0.402226
0.397921
0.398623
0.400958
0.406061
0.413044
0.420984
0.42981
0.438813
0.448163
0.457275
0.466515
0.47528
0.484136
0.36605
0.353416
0.341988
0.33021
0.318982
0.308381
0.299411
0.29167
0.285404
0.280332
0.27668
0.273864
0.272308
0.271169
0.271203
0.271463
0.272178
0.273377
0.00403706
0.0157956
0.0262801
0.0361267
0.0460132
0.0559073
0.0657554
0.0754167
0.0847221
0.0934994
0.101638
0.109084
0.115861
0.122044
0.127811
0.133059
0.137609
0.141241
0.143347
0.144013
0.143326
0.141001
0.13793
0.137986
0.143071
0.146476
0.148281
0.147599
0.152093
0.142538
0.155406
0.161392
0.17006
0.178067
0.186553
0.195101
0.203849
0.212741
0.221785
0.230963
0.24028
0.249738
0.259338
0.269086
0.278979
0.289027
0.299225
0.309582
0.320092
0.330767
0.341596
0.352591
0.36374
0.375055
0.386521
0.398151
0.409927
0.421863
0.433938
0.446167
0.458526
0.47103
0.483653
0.496412
0.509276
0.522265
0.535343
0.548534
0.561798
0.575161
0.58858
0.602084
0.615627
0.629239
0.642871
0.656557
0.670242
0.683967
0.697675
0.71141
0.725111
0.738824
0.752488
0.766155
0.779752
0.79334
0.806846
0.820331
0.833738
0.84711
0.860416
0.873633
0.886749
0.899743
0.912608
0.925313
0.93785
0.950194
0.962359
0.974384
0.98641
0.998244
1.00995
1.02149
1.03287
1.04408
1.05509
1.06593
1.07655
1.08696
1.09711
1.10702
1.11663
1.12594
1.13488
1.14345
1.15158
1.15927
1.16643
1.17306
1.17909
1.1845
1.18925
1.19328
1.19642
1.1983
1.19862
1.1993
1.19722
1.19446
1.19049
1.18513
1.17833
1.17001
1.16021
1.14894
1.13631
1.1223
1.10702
1.09055
1.07296
1.05435
1.03507
1.01515
0.99539
0.981164
0.968409
0.955358
0.941814
0.927827
0.913591
0.899146
0.884569
0.869941
0.855334
0.840808
0.826444
0.812122
0.797966
0.784071
0.770486
0.757258
0.744287
0.731639
0.719399
0.707571
0.696156
0.685134
0.674473
0.664173
0.65424
0.644665
0.635432
0.626495
0.617814
0.609176
0.600641
0.590792
0.581664
0.549309
0.0131709
0.0367452
0.0518379
0.0636981
0.0744522
0.0848962
0.0952532
0.105507
0.115546
0.125236
0.134484
0.143259
0.151604
0.15962
0.167416
0.175017
0.182286
0.188999
0.19505
0.200718
0.206726
0.214222
0.224678
0.234784
0.24406
0.253376
0.262418
0.27073
0.286127
0.298458
0.311859
0.325093
0.339041
0.353287
0.367876
0.382779
0.398004
0.413551
0.429427
0.445569
0.461983
0.478672
0.49564
0.512894
0.530438
0.548279
0.566422
0.584873
0.603637
0.622719
0.642121
0.661848
0.681901
0.702282
0.722991
0.744028
0.765391
0.787079
0.809087
0.831413
0.854048
0.87699
0.900228
0.923758
0.947566
0.971647
0.995985
1.02057
1.04539
1.07044
1.09568
1.12113
1.14675
1.17253
1.19846
1.22452
1.25069
1.27696
1.30331
1.32973
1.3562
1.38271
1.40925
1.43579
1.46233
1.48886
1.51536
1.54184
1.56827
1.59468
1.62106
1.64737
1.6736
1.69975
1.72578
1.7517
1.77747
1.80306
1.82843
1.85354
1.87831
1.90298
1.92754
1.95198
1.97631
2.00051
2.02461
2.04857
2.07241
2.09611
2.11964
2.14299
2.16611
2.18898
2.21153
2.23371
2.25546
2.27669
2.29732
2.31724
2.33636
2.35456
2.37175
2.38789
2.40274
2.41597
2.42713
2.43605
2.44236
2.44556
2.44702
2.44557
2.44118
2.43376
2.42327
2.40969
2.39304
2.37343
2.35098
2.32581
2.29808
2.26796
2.23572
2.20181
2.16631
2.12989
2.09241
2.05394
2.01472
1.97502
1.93506
1.8951
1.85535
1.81598
1.77715
1.73897
1.70155
1.66456
1.62835
1.59312
1.55896
1.52591
1.49397
1.46316
1.4335
1.40498
1.37759
1.35123
1.32588
1.30153
1.27818
1.2558
1.23436
1.21378
1.19399
1.17486
1.15627
1.13691
1.11788
1.06992
0.0244942
0.057124
0.0757007
0.089877
0.102428
0.114314
0.125929
0.137402
0.148741
0.159905
0.170865
0.18163
0.192263
0.202864
0.213525
0.224277
0.235081
0.245899
0.25681
0.268078
0.280017
0.292792
0.306476
0.320459
0.334527
0.348876
0.363602
0.379017
0.396127
0.413219
0.430663
0.448386
0.466507
0.485006
0.503876
0.523107
0.542694
0.562633
0.58292
0.603549
0.624524
0.645848
0.667527
0.689568
0.711976
0.73476
0.757924
0.781475
0.805419
0.82976
0.854502
0.879649
0.905203
0.931166
0.957537
0.984316
1.0115
1.03909
1.06707
1.09545
1.12422
1.15336
1.18288
1.21275
1.24297
1.27352
1.3044
1.33558
1.36705
1.3988
1.4308
1.46303
1.49548
1.52812
1.56094
1.59391
1.627
1.6602
1.69348
1.72682
1.7602
1.79359
1.82697
1.86033
1.89363
1.92687
1.96001
1.99305
2.02598
2.05878
2.09144
2.12394
2.15626
2.18838
2.22029
2.25198
2.28345
2.31469
2.34569
2.37647
2.40702
2.43737
2.46751
2.49743
2.52715
2.55665
2.58594
2.61502
2.64388
2.67252
2.70092
2.72905
2.7569
2.78441
2.81154
2.83822
2.86438
2.88992
2.91474
2.93871
2.96169
2.98351
3.004
3.02296
3.04017
3.0554
3.06828
3.07855
3.08547
3.08902
3.08996
3.08746
3.08135
3.07154
3.05796
3.0406
3.01949
2.99472
2.96643
2.93476
2.89989
2.86205
2.82158
2.77898
2.73469
2.68898
2.64194
2.59372
2.54463
2.49498
2.44505
2.39513
2.34547
2.29627
2.24773
2.2
2.1532
2.10732
2.06249
2.01884
1.97646
1.93538
1.89563
1.85723
1.82018
1.78448
1.75011
1.71695
1.685
1.65429
1.62481
1.59653
1.56941
1.54339
1.51841
1.49436
1.47114
1.44826
1.42682
1.3848
0.0361884
0.0760593
0.0981023
0.114546
0.12879
0.142053
0.154882
0.167531
0.180108
0.192648
0.205175
0.217718
0.230333
0.243083
0.256026
0.269191
0.282588
0.296227
0.31017
0.324547
0.339501
0.355118
0.371393
0.388195
0.405443
0.423167
0.441425
0.460307
0.479904
0.499939
0.520364
0.541152
0.562324
0.583884
0.605834
0.628173
0.650901
0.674016
0.697522
0.72142
0.745715
0.770414
0.795522
0.821048
0.846999
0.873383
0.900207
0.927477
0.955202
0.983386
1.01203
1.04115
1.07074
1.10081
1.13135
1.16237
1.19386
1.22582
1.25825
1.29114
1.32448
1.35827
1.3925
1.42716
1.46222
1.49769
1.53354
1.56975
1.60631
1.6432
1.68039
1.71786
1.75559
1.79355
1.83172
1.87006
1.90855
1.94716
1.98586
2.02462
2.06341
2.1022
2.14095
2.17965
2.21826
2.25675
2.29509
2.33326
2.37124
2.40902
2.44657
2.48386
2.52088
2.55761
2.59404
2.63014
2.66593
2.70138
2.7365
2.77129
2.80573
2.83984
2.87359
2.907
2.94005
2.97275
3.00511
3.03712
3.06878
3.10009
3.13105
3.16162
3.1918
3.22154
3.25081
3.27953
3.30765
3.33506
3.36166
3.38732
3.41188
3.43517
3.45697
3.47708
3.49524
3.51121
3.5247
3.53542
3.54247
3.54605
3.54647
3.54314
3.53584
3.52442
3.50882
3.489
3.46499
3.43688
3.40477
3.36884
3.32932
3.28654
3.24087
3.19278
3.14268
3.09085
3.0375
2.98286
2.92726
2.87103
2.81448
2.75794
2.70166
2.6459
2.59085
2.5367
2.48359
2.43158
2.3808
2.33134
2.28327
2.23665
2.1915
2.14783
2.10566
2.06497
2.02575
1.98794
1.95153
1.91649
1.88281
1.85046
1.81939
1.78957
1.76095
1.73347
1.70709
1.68162
1.65741
1.61991
0.0475046
0.0936483
0.118967
0.137633
0.153554
0.168163
0.182151
0.195873
0.20952
0.223196
0.236964
0.250872
0.264972
0.279314
0.293946
0.308901
0.324203
0.339877
0.355966
0.372538
0.389668
0.407407
0.425768
0.44472
0.464235
0.484307
0.504939
0.526137
0.547887
0.570126
0.592813
0.615924
0.639455
0.663405
0.687775
0.712568
0.737784
0.763429
0.789507
0.816024
0.842986
0.870401
0.898277
0.926622
0.955447
0.984758
1.01457
1.04488
1.07571
1.10705
1.13893
1.17133
1.20428
1.23776
1.27179
1.30636
1.34148
1.37713
1.41333
1.45006
1.48732
1.5251
1.56339
1.60217
1.64144
1.68118
1.72136
1.76198
1.80301
1.84442
1.8862
1.92831
1.97072
2.01342
2.05636
2.09951
2.14283
2.18629
2.22986
2.27349
2.31715
2.3608
2.4044
2.44791
2.49129
2.53451
2.57752
2.6203
2.66282
2.70504
2.74695
2.78851
2.82969
2.87047
2.91083
2.95075
2.99022
3.02922
3.06773
3.10576
3.14329
3.1803
3.2168
3.25279
3.28824
3.32318
3.3576
3.39152
3.42492
3.45782
3.49021
3.5221
3.55345
3.58426
3.61449
3.64409
3.673
3.70114
3.72842
3.7547
3.77984
3.80366
3.82596
3.8465
3.86505
3.88134
3.89509
3.90601
3.91327
3.91696
3.91718
3.91346
3.90554
3.89324
3.87648
3.8552
3.82939
3.79914
3.76456
3.72586
3.6833
3.63724
3.58803
3.53612
3.48189
3.42566
3.36771
3.30833
3.24787
3.18668
3.12511
3.06348
3.00209
2.94121
2.88107
2.82186
2.76374
2.70684
2.65125
2.59708
2.54441
2.49327
2.44371
2.39574
2.34936
2.30456
2.26134
2.21966
2.17948
2.1408
2.10357
2.06778
2.03338
2.00036
1.96867
1.93832
1.90928
1.88152
1.85489
1.81948
0.0580811
0.109536
0.137826
0.158572
0.176085
0.191975
0.207044
0.221729
0.236288
0.25088
0.265607
0.280542
0.295747
0.311273
0.327168
0.343468
0.360207
0.37741
0.39511
0.413343
0.432146
0.451549
0.471565
0.492188
0.513407
0.535211
0.557586
0.580519
0.603991
0.627974
0.652447
0.677391
0.7028
0.728671
0.755004
0.7818
0.809065
0.836802
0.865019
0.893722
0.922919
0.952619
0.982832
1.01357
1.04484
1.07665
1.10901
1.14194
1.17545
1.20954
1.24422
1.2795
1.31538
1.35188
1.38899
1.42672
1.46507
1.50404
1.54362
1.58382
1.62462
1.66602
1.70801
1.75058
1.79371
1.83738
1.88158
1.92628
1.97147
2.01711
2.06318
2.10964
2.15647
2.20363
2.25107
2.29877
2.34668
2.39476
2.44296
2.49123
2.53954
2.58782
2.63605
2.68415
2.7321
2.77983
2.82731
2.87448
2.92132
2.96777
3.01381
3.05939
3.10448
3.14904
3.19305
3.23647
3.27928
3.32146
3.36298
3.40383
3.44399
3.48344
3.52218
3.56021
3.59751
3.63409
3.66996
3.70512
3.73959
3.77337
3.80647
3.8389
3.87065
3.90173
3.93212
3.96178
3.99068
4.01875
4.04593
4.07209
4.09711
4.12082
4.14303
4.16353
4.18208
4.1984
4.21221
4.22322
4.23074
4.23468
4.23501
4.23131
4.22327
4.21072
4.19352
4.17158
4.1449
4.11354
4.07762
4.03737
3.99304
3.94495
3.89349
3.83903
3.78195
3.7226
3.66131
3.5984
3.53425
3.46923
3.4037
3.33803
3.27252
3.20746
3.14312
3.0797
3.01739
2.95632
2.89663
2.83841
2.78174
2.72668
2.67326
2.62149
2.5714
2.52296
2.47617
2.43101
2.38744
2.34544
2.30499
2.26606
2.22861
2.19265
2.15815
2.12513
2.09362
2.06362
2.03474
1.99969
0.0676072
0.123432
0.154309
0.176909
0.195869
0.212941
0.229004
0.244558
0.259914
0.275273
0.290774
0.306516
0.322573
0.339009
0.355871
0.373203
0.391035
0.409396
0.428307
0.447792
0.46787
0.488555
0.509856
0.531772
0.554296
0.577418
0.601127
0.625407
0.650244
0.675621
0.701525
0.727945
0.754874
0.78231
0.810253
0.838707
0.867675
0.897163
0.927179
0.957732
0.988829
1.02048
1.0527
1.0855
1.11889
1.15289
1.18749
1.22273
1.25861
1.29513
1.33232
1.37018
1.40871
1.44794
1.48786
1.52847
1.56979
1.61181
1.65452
1.69794
1.74205
1.78684
1.83231
1.87844
1.92522
1.97263
2.02065
2.06926
2.11842
2.16812
2.21832
2.26899
2.32008
2.37156
2.42338
2.47551
2.52788
2.58046
2.63318
2.686
2.73885
2.79168
2.84444
2.89706
2.94948
3.00165
3.0535
3.10499
3.15604
3.20663
3.2567
3.30619
3.35506
3.40327
3.45077
3.49752
3.54348
3.58863
3.63293
3.67635
3.71887
3.76047
3.80113
3.84085
3.87962
3.91744
3.95431
3.99026
4.02529
4.05942
4.09267
4.12506
4.1566
4.18731
4.2172
4.24626
4.27448
4.30181
4.32822
4.35362
4.37791
4.40094
4.42255
4.44255
4.4607
4.47675
4.49042
4.5014
4.50916
4.51344
4.51411
4.51074
4.50302
4.49072
4.47369
4.45184
4.42513
4.39361
4.35739
4.31665
4.27164
4.22266
4.17003
4.11413
4.05532
3.99395
3.93038
3.86497
3.7981
3.73018
3.66159
3.5927
3.52386
3.45537
3.38752
3.32054
3.25463
3.18996
3.12667
3.06487
3.00465
2.94606
2.88915
2.83395
2.78046
2.72867
2.67859
2.63018
2.58343
2.53831
2.49481
2.45288
2.41253
2.37374
2.33653
2.30093
2.26697
2.23469
2.20355
2.1681
0.0758725
0.135173
0.168212
0.192398
0.212624
0.230752
0.247714
0.264056
0.280125
0.296154
0.31231
0.328713
0.345454
0.362604
0.380217
0.398337
0.416997
0.436223
0.456035
0.476448
0.497474
0.51912
0.541391
0.564285
0.587799
0.611925
0.636655
0.661977
0.687882
0.714359
0.7414
0.768998
0.79715
0.825855
0.855114
0.884932
0.915314
0.946267
0.977799
1.00992
1.04264
1.07598
1.10994
1.14454
1.17979
1.21571
1.25231
1.2896
1.32761
1.36634
1.4058
1.44601
1.48699
1.52873
1.57125
1.61455
1.65864
1.70352
1.7492
1.79566
1.84291
1.89094
1.93973
1.98928
2.03958
2.09059
2.14231
2.1947
2.24773
2.30138
2.35562
2.41039
2.46566
2.52138
2.57751
2.63399
2.69077
2.74778
2.80498
2.86229
2.91964
2.97698
3.03424
3.09133
3.1482
3.20476
3.26096
3.31671
3.37195
3.42663
3.48068
3.53403
3.58661
3.63839
3.68929
3.73927
3.78828
3.83627
3.8832
3.92903
3.97374
4.01728
4.05964
4.1008
4.14076
4.17952
4.21707
4.25343
4.28862
4.32267
4.3556
4.38745
4.41826
4.44805
4.47686
4.50471
4.53161
4.55757
4.58257
4.60658
4.62951
4.65127
4.67172
4.69071
4.70801
4.72341
4.73663
4.74736
4.75519
4.7598
4.7609
4.75809
4.75096
4.73933
4.72304
4.70194
4.67599
4.64518
4.60959
4.56936
4.5247
4.47585
4.42311
4.36682
4.30733
4.24497
4.18013
4.11318
4.04452
3.97457
3.90374
3.83241
3.76096
3.68971
3.61897
3.549
3.48003
3.41225
3.34581
3.28084
3.21742
3.15565
3.09556
3.03719
2.98054
2.92563
2.87245
2.82097
2.77119
2.72308
2.67663
2.63181
2.58862
2.54706
2.50716
2.46897
2.43253
2.39786
2.3644
2.32775
0.0827577
0.144716
0.179491
0.204982
0.226277
0.245318
0.263076
0.280123
0.29683
0.313452
0.330174
0.347132
0.364429
0.382143
0.400335
0.41905
0.438324
0.458182
0.478643
0.499722
0.521426
0.543763
0.566735
0.590341
0.614579
0.639446
0.664935
0.691041
0.717758
0.745079
0.773002
0.801523
0.830641
0.860359
0.890681
0.92161
0.953156
0.985327
1.01813
1.05159
1.0857
1.12049
1.15596
1.19214
1.22904
1.26667
1.30506
1.34422
1.38417
1.42491
1.46648
1.50887
1.55211
1.59621
1.64118
1.68702
1.73375
1.78136
1.82986
1.87925
1.92952
1.98067
2.03269
2.08557
2.13928
2.19381
2.24914
2.30523
2.36206
2.41959
2.47779
2.5366
2.59599
2.6559
2.71628
2.77707
2.8382
2.89962
2.96124
3.02301
3.08483
3.14665
3.20836
3.2699
3.33118
3.39212
3.45262
3.51261
3.57201
3.63074
3.68873
3.74589
3.80214
3.85742
3.91167
3.9648
4.01677
4.06751
4.11697
4.16509
4.21184
4.25717
4.30106
4.34348
4.3844
4.42384
4.46179
4.49826
4.53328
4.56687
4.59908
4.62995
4.65953
4.68788
4.71506
4.74111
4.76609
4.79004
4.81298
4.83492
4.85583
4.87566
4.89432
4.91168
4.92759
4.94183
4.95416
4.96429
4.97189
4.97664
4.97816
4.97598
4.96963
4.959
4.94389
4.92413
4.89962
4.87031
4.8362
4.7974
4.75405
4.70634
4.65452
4.59888
4.53973
4.47742
4.4123
4.34478
4.27526
4.20416
4.13191
4.05892
3.98558
3.91224
3.83924
3.76687
3.69536
3.62494
3.55579
3.48803
3.42179
3.35716
3.29418
3.23289
3.17333
3.1155
3.0594
3.00501
2.95232
2.90133
2.85201
2.80436
2.75838
2.71408
2.6715
2.63068
2.5917
2.55454
2.51862
2.48027
0.088223
0.152118
0.188229
0.21475
0.236913
0.256716
0.275152
0.292811
0.310075
0.327212
0.344417
0.361836
0.37958
0.397733
0.41636
0.435509
0.455218
0.475515
0.49642
0.517947
0.540106
0.562905
0.586347
0.610435
0.635169
0.660548
0.686572
0.713237
0.740542
0.768486
0.797067
0.826288
0.856151
0.88666
0.917823
0.949648
0.982143
1.01532
1.04919
1.08378
1.11909
1.15513
1.19194
1.22952
1.26789
1.30708
1.3471
1.38797
1.42971
1.47234
1.51587
1.56033
1.60572
1.65207
1.69938
1.74766
1.79693
1.84718
1.89843
1.95066
2.00389
2.05809
2.11327
2.1694
2.22647
2.28445
2.34333
2.40308
2.46365
2.52501
2.58712
2.64992
2.71338
2.77742
2.842
2.90704
2.97248
3.03823
3.10424
3.1704
3.23664
3.30287
3.36899
3.43492
3.50055
3.5658
3.63055
3.69472
3.75821
3.82093
3.88278
3.94367
4.00352
4.06223
4.11973
4.17593
4.23076
4.28414
4.33602
4.38631
4.43498
4.48195
4.5272
4.57069
4.61238
4.65228
4.69037
4.72667
4.7612
4.794
4.8251
4.85457
4.88248
4.9089
4.9339
4.95759
4.98004
5.00132
5.02153
5.04069
5.05886
5.07603
5.09217
5.10721
5.12103
5.13348
5.14434
5.15338
5.16031
5.16484
5.16661
5.16509
5.1596
5.15015
5.13654
5.11857
5.09607
5.06893
5.03709
5.00058
4.95947
4.91388
4.86399
4.81004
4.7523
4.69108
4.62673
4.55963
4.4902
4.41887
4.34607
4.27224
4.19777
4.12306
4.04845
3.97427
3.90079
3.82824
3.75683
3.68672
3.61803
3.55087
3.48531
3.4214
3.35917
3.29863
3.23979
3.18265
3.12721
3.07344
3.02136
2.97094
2.92222
2.87519
2.82992
2.78646
2.74486
2.7051
2.66662
2.62624
0.0922951
0.157506
0.194589
0.221885
0.244719
0.265126
0.284112
0.302275
0.320002
0.337566
0.355165
0.372951
0.391038
0.409514
0.428448
0.447892
0.467884
0.488456
0.50963
0.531423
0.553849
0.576917
0.600635
0.625008
0.650042
0.675738
0.702101
0.729132
0.756834
0.785209
0.814259
0.84399
0.874409
0.905523
0.937344
0.969882
1.00315
1.03716
1.07194
1.10749
1.14384
1.181
1.219
1.25785
1.29757
1.3382
1.37974
1.42222
1.46567
1.51009
1.55552
1.60196
1.64945
1.69798
1.74758
1.79826
1.85003
1.90289
1.95684
2.01189
2.06803
2.12526
2.18356
2.24292
2.30331
2.36473
2.42712
2.49047
2.55474
2.61988
2.68585
2.75259
2.82005
2.88816
2.95686
3.02608
3.09573
3.16574
3.23602
3.30648
3.37703
3.44756
3.51798
3.58818
3.65805
3.72748
3.79636
3.86457
3.93202
3.99859
4.06418
4.12867
4.19197
4.25397
4.31457
4.37369
4.43124
4.48712
4.54125
4.59355
4.64396
4.6924
4.73882
4.78317
4.82542
4.86553
4.90351
4.93936
4.97309
5.00474
5.03437
5.06204
5.08783
5.11183
5.13414
5.15489
5.17419
5.19215
5.20892
5.22458
5.23924
5.25298
5.26581
5.27773
5.2887
5.29861
5.30732
5.31463
5.32034
5.3242
5.32592
5.32486
5.32022
5.31197
5.30005
5.28418
5.26414
5.23974
5.21087
5.17745
5.13947
5.09696
5.05004
4.99884
4.94358
4.88453
4.82202
4.7564
4.68808
4.61749
4.54507
4.47126
4.39649
4.32117
4.24568
4.17035
4.0955
4.02139
3.94824
3.87623
3.80552
3.73622
3.66843
3.6022
3.53757
3.47457
3.41322
3.35352
3.29548
3.23908
3.18434
3.13126
3.07985
3.03014
2.98219
2.93606
2.8918
2.84938
2.80824
2.76562
0.0950274
0.161041
0.198777
0.226615
0.249933
0.270786
0.290188
0.308735
0.326817
0.344707
0.362602
0.380655
0.398981
0.41767
0.436794
0.456406
0.476548
0.497253
0.518549
0.540455
0.562991
0.586168
0.609999
0.634495
0.659664
0.685516
0.712057
0.739295
0.767237
0.795888
0.825255
0.855347
0.886175
0.917751
0.950089
0.983203
1.01711
1.05184
1.0874
1.12381
1.1611
1.19928
1.23839
1.27844
1.31945
1.36146
1.40448
1.44854
1.49366
1.53987
1.58718
1.63561
1.68519
1.73592
1.78783
1.84092
1.8952
1.95068
2.00737
2.06525
2.12432
2.18459
2.24602
2.3086
2.37232
2.43714
2.50304
2.56996
2.63788
2.70675
2.77651
2.84711
2.91848
2.99055
3.06326
3.13652
3.21025
3.28436
3.35876
3.43334
3.50801
3.58265
3.65716
3.73141
3.8053
3.87869
3.95146
4.0235
4.09466
4.16485
4.23392
4.30177
4.36828
4.43332
4.49679
4.55859
4.6186
4.67673
4.73288
4.78695
4.83885
4.88851
4.93584
4.98079
5.02331
5.06336
5.10092
5.13599
5.16859
5.19874
5.22651
5.25196
5.27518
5.29628
5.31539
5.33263
5.34817
5.36216
5.37478
5.38619
5.39657
5.40605
5.41474
5.42272
5.43001
5.43658
5.44237
5.44726
5.4511
5.45371
5.45491
5.45402
5.45005
5.44288
5.4327
5.41912
5.40186
5.38068
5.35538
5.3258
5.2918
5.25333
5.21037
5.163
5.11134
5.0556
4.99604
4.93301
4.86689
4.79809
4.72705
4.65422
4.58004
4.50495
4.42935
4.35361
4.27806
4.203
4.12868
4.05531
3.98305
3.91205
3.84242
3.77423
3.70753
3.64237
3.57877
3.51674
3.45629
3.39744
3.34019
3.28455
3.23056
3.17824
3.12766
3.07887
3.03192
2.9868
2.94295
2.89795
0.0966023
0.162948
0.201028
0.229191
0.252814
0.273959
0.293638
0.312445
0.330766
0.34887
0.366956
0.385172
0.403635
0.422433
0.441638
0.461305
0.48148
0.502199
0.523493
0.545387
0.567903
0.59106
0.614877
0.639367
0.664547
0.690431
0.717031
0.74436
0.772429
0.80125
0.830833
0.861191
0.892339
0.924291
0.957064
0.990677
1.02516
1.06053
1.09683
1.13406
1.17227
1.21146
1.25167
1.29293
1.33526
1.37868
1.42322
1.46892
1.51578
1.56383
1.6131
1.66361
1.71537
1.76839
1.8227
1.87829
1.93519
1.99338
2.05288
2.11367
2.17575
2.2391
2.30371
2.36955
2.43661
2.50484
2.57421
2.64467
2.71619
2.7887
2.86216
2.93649
3.01162
3.08749
3.16402
3.24111
3.31868
3.39664
3.47488
3.55329
3.63177
3.7102
3.78846
3.86642
3.94396
4.02094
4.09723
4.1727
4.2472
4.3206
4.39278
4.46359
4.53291
4.6006
4.66655
4.73064
4.79274
4.85275
4.91054
4.96601
5.01904
5.06955
5.11743
5.16262
5.20504
5.24465
5.28141
5.31533
5.3464
5.37465
5.40014
5.42293
5.44312
5.46083
5.47619
5.48938
5.50055
5.50993
5.51772
5.52414
5.52944
5.53387
5.5376
5.5408
5.54357
5.54598
5.54808
5.54978
5.55103
5.55174
5.55184
5.55065
5.54702
5.5408
5.53229
5.52106
5.50679
5.4892
5.468
5.44293
5.41374
5.38022
5.34226
5.29982
5.2529
5.20162
5.14621
5.08695
5.02417
4.95828
4.88969
4.81887
4.74626
4.67232
4.59748
4.52213
4.44663
4.37132
4.29646
4.22231
4.14905
4.07685
4.00584
3.9361
3.86771
3.80073
3.73518
3.6711
3.60851
3.54741
3.48784
3.42982
3.37337
3.31855
3.26541
3.21401
3.1644
3.11657
3.07
3.02256
0.0967794
0.163162
0.201444
0.229797
0.253594
0.274898
0.294728
0.313675
0.33212
0.35033
0.368497
0.38677
0.405262
0.424064
0.443246
0.462868
0.482977
0.503612
0.524809
0.546596
0.569004
0.592055
0.615774
0.640182
0.665301
0.691151
0.71775
0.745115
0.773265
0.802217
0.831989
0.862597
0.89406
0.926392
0.959608
0.993713
1.02878
1.06484
1.10192
1.14005
1.17925
1.21955
1.26098
1.30357
1.34734
1.39234
1.43857
1.48607
1.53487
1.58497
1.6364
1.68918
1.74332
1.79884
1.85574
1.91404
1.97372
2.0348
2.09726
2.1611
2.2263
2.29284
2.36071
2.42986
2.50027
2.5719
2.6447
2.71863
2.79363
2.86965
2.94662
3.02447
3.10313
3.18251
3.26254
3.34312
3.42416
3.50555
3.58719
3.66897
3.75078
3.83248
3.91396
3.99509
4.07573
4.15573
4.23496
4.31327
4.39052
4.46655
4.54123
4.61441
4.68595
4.75572
4.82357
4.88938
4.95302
5.01435
5.07324
5.12958
5.18322
5.23407
5.282
5.32692
5.36875
5.40743
5.44292
5.47519
5.50424
5.53011
5.55282
5.57246
5.58911
5.60291
5.614
5.62258
5.6288
5.63294
5.63526
5.63597
5.63547
5.63408
5.63207
5.6297
5.62717
5.62462
5.622
5.61945
5.61717
5.61514
5.61332
5.61115
5.6074
5.60218
5.59539
5.58674
5.57592
5.56249
5.54587
5.52595
5.50236
5.47467
5.44271
5.40632
5.36531
5.31972
5.26969
5.21543
5.15722
5.09542
5.03044
4.96274
4.89275
4.82096
4.74781
4.67373
4.59911
4.52431
4.44964
4.37537
4.30172
4.22888
4.157
4.08619
4.01655
3.94815
3.88102
3.81522
3.75077
3.68771
3.62605
3.56585
3.50713
3.44995
3.39436
3.34045
3.28825
3.23776
3.1885
3.13863
0.0964213
0.162558
0.200739
0.229048
0.252823
0.274118
0.293941
0.312877
0.331307
0.349491
0.367624
0.385849
0.40428
0.423003
0.442093
0.461608
0.481597
0.502103
0.523165
0.544817
0.567093
0.590021
0.613629
0.637946
0.663
0.688816
0.715418
0.742833
0.771087
0.800205
0.830213
0.86113
0.892979
0.925784
0.959573
0.99432
1.03015
1.06709
1.10517
1.14442
1.18487
1.22654
1.26947
1.3137
1.35924
1.40614
1.45442
1.50409
1.55517
1.60769
1.66165
1.71706
1.77394
1.8323
1.89212
1.95341
2.01617
2.08038
2.14604
2.21311
2.28158
2.35143
2.42261
2.49509
2.56883
2.64378
2.7199
2.79711
2.87538
2.95463
3.03478
3.11578
3.19753
3.27995
3.36296
3.44647
3.53036
3.61455
3.69892
3.78336
3.86774
3.95196
4.03588
4.11936
4.20226
4.28446
4.36578
4.44609
4.52523
4.60304
4.67938
4.75409
4.82702
4.89803
4.96697
5.03371
5.0981
5.15999
5.21925
5.27572
5.32926
5.37974
5.42704
5.47102
5.51161
5.54871
5.58228
5.61229
5.63874
5.66162
5.681
5.69691
5.70947
5.71881
5.72506
5.72851
5.72918
5.72753
5.72379
5.7181
5.71081
5.70248
5.69355
5.68438
5.67532
5.66667
5.65869
5.65168
5.64565
5.64061
5.63649
5.6327
5.62864
5.6241
5.61872
5.61221
5.60447
5.59529
5.58401
5.57034
5.55362
5.53314
5.50869
5.47952
5.4456
5.40694
5.36354
5.31558
5.26322
5.20678
5.14663
5.08322
5.01699
4.94842
4.87799
4.80614
4.7333
4.65985
4.58615
4.51249
4.43912
4.36627
4.29411
4.22277
4.15237
4.083
4.01472
3.94758
3.88163
3.81691
3.75347
3.69134
3.63057
3.57123
3.51338
3.45709
3.40241
3.34936
3.29749
3.24524
0.0953419
0.160895
0.198704
0.226804
0.250415
0.271564
0.29125
0.310056
0.328354
0.346406
0.364399
0.382478
0.400752
0.419311
0.438229
0.457566
0.477375
0.497701
0.518591
0.540084
0.56222
0.585039
0.608576
0.632868
0.657955
0.683873
0.710655
0.738334
0.766944
0.796524
0.82712
0.85873
0.89138
0.925103
0.959925
0.995814
1.0329
1.07123
1.11084
1.15177
1.19404
1.23768
1.28274
1.32924
1.37722
1.42671
1.47772
1.53026
1.58433
1.63994
1.6971
1.75579
1.81602
1.87778
1.94106
2.00584
2.07211
2.13984
2.209
2.27956
2.35149
2.42475
2.49929
2.57507
2.65203
2.73012
2.80928
2.88945
2.97056
3.05254
3.13533
3.21884
3.30299
3.38771
3.47289
3.55844
3.64428
3.73029
3.81638
3.90242
3.98831
4.07393
4.15915
4.24383
4.32784
4.41104
4.49328
4.5744
4.65425
4.73266
4.80949
4.88457
4.95774
5.02887
5.0978
5.16439
5.22846
5.28988
5.34847
5.40407
5.45654
5.50569
5.5514
5.59352
5.63195
5.66657
5.69736
5.72427
5.74728
5.76639
5.78164
5.79308
5.80082
5.80489
5.80527
5.80261
5.79666
5.78793
5.77683
5.76373
5.7495
5.73431
5.71859
5.7028
5.6874
5.67277
5.65918
5.64696
5.63641
5.62769
5.62079
5.61519
5.61038
5.60618
5.60228
5.59786
5.59335
5.589
5.58279
5.57536
5.56558
5.55234
5.53587
5.51552
5.49045
5.46056
5.42563
5.38539
5.34024
5.29049
5.2365
5.17865
5.11738
5.05318
4.98655
4.91796
4.84786
4.77666
4.70476
4.63247
4.56011
4.4879
4.41606
4.34476
4.27412
4.20426
4.13525
4.06717
4.00008
3.93404
3.8691
3.8053
3.74272
3.68142
3.62148
3.56296
3.50593
3.45041
3.39601
3.34147
0.0932238
0.157923
0.195248
0.222996
0.246308
0.267188
0.286629
0.305208
0.323298
0.341155
0.358966
0.376872
0.394986
0.4134
0.432189
0.451421
0.471154
0.491442
0.512337
0.533888
0.556146
0.579154
0.602958
0.627608
0.653159
0.679674
0.707161
0.735658
0.765212
0.795863
0.827633
0.860483
0.894514
0.929789
0.966366
1.0043
1.04364
1.0844
1.12663
1.17036
1.2156
1.26239
1.31075
1.36071
1.41226
1.46544
1.52022
1.57662
1.6346
1.69417
1.7553
1.81798
1.88217
1.94786
2.01502
2.0836
2.15358
2.22492
2.29757
2.37148
2.44661
2.52291
2.60033
2.6788
2.75828
2.8387
2.92
3.00212
3.08499
3.16854
3.25271
3.33741
3.42257
3.50811
3.59396
3.68002
3.7662
3.85241
3.93855
4.02452
4.11021
4.19552
4.28031
4.36447
4.44787
4.53037
4.61182
4.69209
4.771
4.8484
4.92412
4.998
5.0699
5.13967
5.20715
5.27218
5.3346
5.39422
5.45087
5.50439
5.55458
5.60126
5.64427
5.68345
5.71868
5.74982
5.77674
5.79944
5.81793
5.83221
5.84229
5.84823
5.85022
5.84854
5.84325
5.8343
5.82199
5.80669
5.78883
5.76897