/*--------------------------------*- C++ -*----------------------------------*\
  =========                 |
  \\      /  F ield         | OpenFOAM: The Open Source CFD Toolbox
   \\    /   O peration     | Website:  https://openfoam.org
    \\  /    A nd           | Version:  8
     \\/     M anipulation  |
\*---------------------------------------------------------------------------*/
FoamFile
{
    version     2.0;
    format      ascii;
    class       volScalarField;
    location    "160";
    object      nut;
}
// * * * * * * * * * * * * * * * * * * * * * * * * * * * * * * * * * * * * * //

dimensions      [0 2 -1 0 0 0 0];

internalField   nonuniform List<scalar> 
12225
(
4.14933e-05
3.93403e-05
3.74827e-05
3.54333e-05
3.37824e-05
3.24228e-05
3.15062e-05
3.09122e-05
3.09182e-05
3.10927e-05
3.15759e-05
3.20958e-05
3.31605e-05
3.38273e-05
3.50633e-05
3.59699e-05
3.66711e-05
3.94379e-05
0.00033227
0.000215119
0.000179302
0.000157632
0.000146242
0.000138165
0.000132718
0.000131691
0.000129461
0.000130114
0.000128997
0.000129494
0.000128612
0.000128613
0.000128029
0.00012754
0.000127452
0.000126229
0.000668811
0.000450482
0.000355861
0.000309719
0.000275373
0.000250999
0.00023177
0.000217194
0.000202671
0.000192095
0.000182599
0.000175157
0.000169357
0.000163593
0.000160283
0.000155417
0.000153809
0.000149568
0.000801617
0.000691516
0.000572746
0.000499901
0.00044951
0.00041185
0.000380868
0.000355895
0.000334053
0.000314676
0.000298386
0.000281518
0.000270317
0.000255932
0.000248131
0.000235952
0.00023036
0.000220068
0.000839609
0.000810101
0.000740865
0.000676258
0.000624055
0.00058126
0.000545953
0.000514456
0.000489559
0.000464335
0.000445865
0.000423961
0.00040988
0.000390677
0.000379759
0.000362836
0.000354571
0.000338979
0.000850344
0.000843256
0.000819568
0.00078646
0.000750871
0.000715804
0.000685812
0.000656064
0.000632566
0.000607453
0.000588976
0.00056717
0.000552211
0.000532985
0.000520656
0.000503466
0.000493445
0.000476974
0.000851582
0.000851011
0.0008433
0.000833454
0.000817159
0.000796914
0.000777895
0.000756701
0.000738901
0.000719109
0.000703507
0.000685567
0.00067206
0.00065583
0.000644206
0.000629305
0.000619666
0.000604723
0.000851585
0.00085181
0.000850044
0.000847451
0.000841411
0.000833753
0.000824818
0.000813422
0.000802808
0.000790452
0.000779695
0.000767505
0.000757382
0.000745716
0.000736473
0.00072535
0.000717352
0.00070569
0.000851676
0.000851527
0.000851019
0.000850339
0.000848877
0.00084617
0.000843028
0.0008383
0.000833399
0.000827352
0.000821204
0.00081475
0.000808405
0.000801465
0.000795246
0.000788253
0.000782441
0.000774818
0.000851756
0.000851385
0.000851045
0.000850632
0.000850248
0.000849367
0.000848405
0.000846779
0.000844954
0.000842526
0.000839917
0.000836789
0.000833782
0.00083013
0.000826949
0.000822879
0.000819881
0.000815224
0.000851785
0.000851358
0.000851012
0.000850613
0.000850329
0.000849905
0.000849525
0.000848928
0.000848302
0.000847391
0.000846463
0.000845172
0.000843983
0.000842341
0.000840984
0.000839013
0.00083762
0.000835333
0.000851788
0.000851359
0.000850996
0.000850605
0.000850292
0.000849938
0.000849646
0.00084928
0.000848954
0.000848503
0.000848097
0.000847505
0.000846994
0.000846239
0.000845635
0.000844712
0.000844048
0.000842963
0.000851786
0.000851363
0.000850986
0.000850604
0.000850269
0.000849926
0.00084963
0.000849313
0.000849042
0.000848728
0.000848461
0.000848124
0.000847842
0.000847463
0.000847153
0.000846722
0.000846382
0.000845897
0.000851783
0.000851364
0.000850978
0.000850602
0.000850256
0.000849916
0.000849607
0.0008493
0.000849022
0.00084874
0.000848487
0.000848223
0.000847987
0.000847733
0.000847507
0.000847256
0.000847032
0.000846782
0.000851781
0.000851364
0.000850973
0.000850598
0.000850246
0.000849909
0.000849592
0.000849286
0.000849
0.000848723
0.000848463
0.000848211
0.000847975
0.000847744
0.000847527
0.000847316
0.000847115
0.000846919
0.00085178
0.000851363
0.000850969
0.000850594
0.000850239
0.000849901
0.00084958
0.000849275
0.000848984
0.000848707
0.000848443
0.000848191
0.000847951
0.000847722
0.000847503
0.000847293
0.000847094
0.000846903
0.000851779
0.000851362
0.000850967
0.000850591
0.000850234
0.000849895
0.000849572
0.000849265
0.000848973
0.000848694
0.000848429
0.000848175
0.000847933
0.000847702
0.000847481
0.00084727
0.000847069
0.000846876
0.000851779
0.000851362
0.000850965
0.000850589
0.000850231
0.000849891
0.000849567
0.000849259
0.000848966
0.000848686
0.000848419
0.000848164
0.000847921
0.000847688
0.000847466
0.000847254
0.000847051
0.000846856
0.000851779
0.000851362
0.000850965
0.000850588
0.00085023
0.000849889
0.000849565
0.000849257
0.000848963
0.000848682
0.000848414
0.000848159
0.000847915
0.000847681
0.000847458
0.000847245
0.000847041
0.000846846
0.000851779
0.000851362
0.000850966
0.000850589
0.000850232
0.000849892
0.000849568
0.00084926
0.000848966
0.000848686
0.000848418
0.000848163
0.000847918
0.000847685
0.000847461
0.000847248
0.000847043
0.000846847
0.000851779
0.000851363
0.000850967
0.000850593
0.000850235
0.000849897
0.000849573
0.000849267
0.000848973
0.000848694
0.000848425
0.00084817
0.000847921
0.000847685
0.000847453
0.000847233
0.000847014
0.000846808
0.000851778
0.000851366
0.000850968
0.000850599
0.00085024
0.000849908
0.00084958
0.000849275
0.000848965
0.000848672
0.000848366
0.000848073
0.000847758
0.000847457
0.000847125
0.000846813
0.000846459
0.000846138
0.000851773
0.000851376
0.000850971
0.000850615
0.000850241
0.00084989
0.000849479
0.000849054
0.00084853
0.000847979
0.000847302
0.000846606
0.000845769
0.000844942
0.000843957
0.000843033
0.000841921
0.000840944
0.000851767
0.000851415
0.000850964
0.000850548
0.000849861
0.000848967
0.000847611
0.000845977
0.000843906
0.000841638
0.000838957
0.000836218
0.000833121
0.000830118
0.000826769
0.000823687
0.000820192
0.000817187
0.000851859
0.00085138
0.000850195
0.000848243
0.00084447
0.000839355
0.000832767
0.000825661
0.000817965
0.000810016
0.000801624
0.000793635
0.00078534
0.000777717
0.000769755
0.000762714
0.000755138
0.000748811
0.000852108
0.000847667
0.000839902
0.000827147
0.000808709
0.000789648
0.000769979
0.000751418
0.000733311
0.000716903
0.000700944
0.000686792
0.000672844
0.000660686
0.000648396
0.000637961
0.000626975
0.000618044
0.000843241
0.000822507
0.000775185
0.00072646
0.000684898
0.000649855
0.000618466
0.000592026
0.00056839
0.000548322
0.000529701
0.000514005
0.000498768
0.000486034
0.000473222
0.00046273
0.000451646
0.00044283
0.000795686
0.000668242
0.000570627
0.000509907
0.000465608
0.000431188
0.000404151
0.000382488
0.000364207
0.000349079
0.000335951
0.000325073
0.00031452
0.000306249
0.000297975
0.000291384
0.000284299
0.000278951
0.000501314
0.000348357
0.000292674
0.000259182
0.000236324
0.000221179
0.000211623
0.000203857
0.000198566
0.000195078
0.000192223
0.00019037
0.000188585
0.000187441
0.000186168
0.000185474
0.000184556
0.000184144
7.27385e-05
7.02256e-05
6.79542e-05
6.56137e-05
6.33828e-05
6.12762e-05
5.94944e-05
5.79551e-05
5.67108e-05
5.5703e-05
5.49772e-05
5.44175e-05
5.41088e-05
5.38803e-05
5.38955e-05
5.3931e-05
5.40895e-05
5.43215e-05
1.23177e-06
2.21648e-05
3.69344e-05
5.07528e-05
6.45904e-05
7.84075e-05
9.2165e-05
0.000105708
0.000118894
0.000131592
0.000143809
0.000155612
0.000167198
0.000179502
0.000190792
0.000201137
0.000209731
0.000212814
0.000213314
0.000213227
0.000212935
0.00021413
0.000211562
0.000206928
0.000216577
0.000220022
0.00021931
4.939e-05
0.000231639
4.58457e-05
4.84665e-05
4.92307e-05
5.05928e-05
5.17342e-05
5.29505e-05
5.41299e-05
5.53168e-05
5.64915e-05
5.76618e-05
5.88213e-05
5.99756e-05
6.11219e-05
6.2263e-05
6.33978e-05
6.45281e-05
6.56533e-05
6.67745e-05
6.78915e-05
6.9005e-05
7.0115e-05
7.12216e-05
7.2325e-05
7.3425e-05
7.45218e-05
7.56149e-05
7.67048e-05
7.77904e-05
7.88724e-05
7.99496e-05
8.10228e-05
8.20903e-05
8.31531e-05
8.42094e-05
8.52603e-05
8.63038e-05
8.7341e-05
8.83697e-05
8.93913e-05
9.04033e-05
9.14074e-05
9.24008e-05
9.33854e-05
9.43582e-05
9.53215e-05
9.6272e-05
9.72121e-05
9.81383e-05
9.90534e-05
9.9954e-05
0.000100843
0.000101716
0.000102578
0.000103423
0.000104257
0.000105073
0.000105877
0.000106664
0.000107439
0.000108197
0.000108943
0.000109675
0.000110391
0.000111093
0.000111778
0.000112447
0.000113099
0.000113733
0.000114348
0.000114941
0.000115512
0.000116082
0.000116632
0.00011717
0.000117692
0.0001182
0.000118695
0.000119175
0.000119643
0.000120097
0.000120537
0.000120963
0.000121377
0.000121774
0.000122157
0.000122523
0.000122873
0.000123204
0.000123515
0.000123805
0.000124072
0.000124313
0.000124527
0.000124715
0.000124891
0.000125073
0.000125227
0.000124998
0.000125284
0.000125104
0.000124972
0.000124806
0.000124577
0.000124286
0.000123915
0.000123462
0.000122922
0.000122307
0.000121607
0.000120825
0.000119963
0.00011902
0.000117991
0.000116878
0.000115737
0.000113869
0.000112704
0.00011188
0.000111065
0.00011021
0.000109291
0.000108349
0.000107376
0.000106376
0.000105355
0.000104318
0.000103271
0.000102221
0.000101159
0.000100091
9.90257e-05
9.79688e-05
9.69242e-05
9.58899e-05
9.48655e-05
9.386e-05
9.28743e-05
9.19101e-05
9.09644e-05
9.00348e-05
8.91245e-05
8.8235e-05
8.73662e-05
8.65175e-05
8.56857e-05
8.48689e-05
8.405e-05
8.32414e-05
8.23197e-05
8.14562e-05
7.89477e-05
4.06002e-06
5.41624e-05
0.000110069
0.000149745
0.000177531
0.000198982
0.000217023
0.000233125
0.000247941
0.000261722
0.000274575
0.000286584
0.000297864
0.000308522
0.000318212
0.000326389
0.000332163
0.000334377
0.000333774
0.000330997
0.000326862
0.000322655
0.000323003
0.000325095
0.000317477
0.000319299
0.000297598
0.000285672
0.000314536
0.000287319
0.000294452
0.000301751
0.000309207
0.000317008
0.00032492
0.000332989
0.000341182
0.000349499
0.000357948
0.000366425
0.000374929
0.000383455
0.000392007
0.000400584
0.000409192
0.000417832
0.000426511
0.000435231
0.000444
0.00045282
0.000461697
0.000470631
0.000479629
0.000488691
0.000497819
0.000507014
0.000516277
0.000525606
0.000535002
0.000544461
0.000553984
0.000563565
0.000573203
0.000582892
0.00059263
0.00060241
0.000612227
0.000622074
0.000631946
0.000641834
0.000651734
0.000661635
0.000671536
0.000681423
0.000691296
0.000701141
0.000710957
0.000720731
0.000730463
0.000740144
0.000749773
0.000759343
0.000768854
0.000778302
0.000787688
0.000797006
0.000806261
0.000815454
0.000824599
0.000833704
0.000842795
0.000851873
0.000860944
0.00087001
0.000879072
0.000888127
0.000897152
0.000906096
0.000914855
0.000923262
0.000931035
0.00093884
0.000946643
0.000954467
0.000962321
0.000970213
0.000978155
0.000986157
0.00099423
0.00100238
0.00101062
0.00101894
0.00102736
0.00103586
0.00104444
0.0010531
0.00106181
0.00107056
0.00107931
0.00108803
0.00109668
0.00110521
0.00111364
0.00112208
0.0011305
0.00113875
0.0011462
0.00115341
0.00115975
0.00116461
0.00116971
0.00117398
0.00117747
0.0011801
0.00118183
0.00118261
0.00118239
0.00118122
0.0011791
0.00117605
0.00117209
0.00116721
0.00116131
0.00115481
0.00114478
0.00113174
0.00111731
0.00110212
0.00108645
0.0010704
0.00105408
0.00103765
0.0010212
0.00100481
0.000988534
0.000972444
0.000956564
0.000940881
0.000925558
0.000910605
0.000896027
0.000881814
0.000868036
0.000854709
0.000841839
0.000829374
0.000817292
0.000805526
0.000794063
0.000782943
0.000772172
0.000761749
0.000751644
0.000741818
0.000732177
0.000722663
0.000712985
0.00070154
0.000683379
0.000636356
7.56894e-06
8.08699e-05
0.000162003
0.000224898
0.000271544
0.000306269
0.000332991
0.00035451
0.000372634
0.000388455
0.000402607
0.000415466
0.000427248
0.000438042
0.000447785
0.00045654
0.000464299
0.000471295
0.000477555
0.000483684
0.00049052
0.000498729
0.000508751
0.000519822
0.000529795
0.000539745
0.000546309
0.000556108
0.000570913
0.00057886
0.000593878
0.000610019
0.000626389
0.000642949
0.000659627
0.000676412
0.000693281
0.000710166
0.0007271
0.00074407
0.000761077
0.000778123
0.000795213
0.000812356
0.00082956
0.000846834
0.000864188
0.00088163
0.00089917
0.000916814
0.000934571
0.000952446
0.000970445
0.000988572
0.00100683
0.00102521
0.00104373
0.00106237
0.00108115
0.00110004
0.00111905
0.00113817
0.00115739
0.00117671
0.00119611
0.00121559
0.00123514
0.00125473
0.00127437
0.00129404
0.00131372
0.0013334
0.00135307
0.00137271
0.00139231
0.00141185
0.00143133
0.00145072
0.00147001
0.00148919
0.00150826
0.0015272
0.001546
0.00156465
0.00158316
0.00160151
0.0016197
0.00163774
0.00165562
0.00167337
0.00169099
0.00170848
0.00172585
0.00174308
0.00176016
0.00177709
0.00179382
0.00181031
0.00182652
0.00184235
0.00185788
0.00187337
0.0018888
0.00190422
0.00191963
0.00193505
0.00195051
0.00196602
0.00198159
0.00199726
0.00201303
0.00202891
0.0020449
0.00206101
0.00207723
0.00209354
0.0021099
0.00212629
0.00214266
0.00215893
0.00217505
0.00219092
0.00220649
0.0022217
0.00223645
0.00225053
0.00226495
0.00227762
0.00228857
0.00229758
0.00230625
0.00231347
0.00231913
0.00232313
0.0023254
0.00232586
0.00232447
0.00232124
0.00231617
0.0023093
0.00230065
0.00229024
0.00227801
0.00226405
0.00224676
0.00222593
0.00220271
0.0021779
0.002152
0.00212523
0.00209784
0.00207001
0.00204194
0.00201376
0.00198561
0.00195759
0.0019298
0.00190241
0.00187554
0.00184919
0.00182338
0.00179811
0.00177344
0.00174954
0.00172647
0.00170403
0.00168216
0.00166068
0.00163961
0.00161909
0.00159913
0.00157975
0.00156088
0.00154244
0.00152426
0.00150618
0.00148767
0.00146778
0.00144155
0.00137359
1.1195e-05
0.000101693
0.000202291
0.00028237
0.000343306
0.000389351
0.000424708
0.000452628
0.000475472
0.000494885
0.000511999
0.000527601
0.000542263
0.00055639
0.000570247
0.000583991
0.000597711
0.00061152
0.000625616
0.000640431
0.000656549
0.000674542
0.000692669
0.000712297
0.000732695
0.000752773
0.000772042
0.000791926
0.000813402
0.000834289
0.000856727
0.000879803
0.00090311
0.000926556
0.000950112
0.000973786
0.000997605
0.00102151
0.00104546
0.00106944
0.00109346
0.00111752
0.00114164
0.00116582
0.00119009
0.00121445
0.00123892
0.00126351
0.00128822
0.00131307
0.00133808
0.00136324
0.00138857
0.00141407
0.00143974
0.00146558
0.0014916
0.0015178
0.00154415
0.00157068
0.00159735
0.00162418
0.00165114
0.00167822
0.00170542
0.00173272
0.0017601
0.00178755
0.00181506
0.0018426
0.00187016
0.00189772
0.00192526
0.00195275
0.00198019
0.00200756
0.00203482
0.00206197
0.00208898
0.00211584
0.00214253
0.00216904
0.00219535
0.00222145
0.00224732
0.00227297
0.00229837
0.00232353
0.00234845
0.00237312
0.00239755
0.00242174
0.00244567
0.00246933
0.00249272
0.00251581
0.00253859
0.00256101
0.00258306
0.00260478
0.00262625
0.00264756
0.00266873
0.0026898
0.00271077
0.00273168
0.00275255
0.0027734
0.00279426
0.00281515
0.00283609
0.0028571
0.00287819
0.00289936
0.00292061
0.00294192
0.00296327
0.00298461
0.00300591
0.00302709
0.00304808
0.00306879
0.00308911
0.00310895
0.00312815
0.00314658
0.00316543
0.00318233
0.00319686
0.00320951
0.00322121
0.00323115
0.00323909
0.0032449
0.00324847
0.00324972
0.00324859
0.00324504
0.00323908
0.00323072
0.00321997
0.00320687
0.00319138
0.00317345
0.00315236
0.00312792
0.00310076
0.00307151
0.00304065
0.0030085
0.00297532
0.00294136
0.00290685
0.00287197
0.00283689
0.00280178
0.00276675
0.00273201
0.00269769
0.00266385
0.00263055
0.00259782
0.00256571
0.00253434
0.00250378
0.00247395
0.00244483
0.00241632
0.00238841
0.00236116
0.00233458
0.00230877
0.00228356
0.00225885
0.00223446
0.00221018
0.00218546
0.00215956
0.00212765
0.00205773
1.47042e-05
0.000119433
0.00023636
0.00033099
0.000404732
0.00046136
0.000505342
0.000540271
0.000568895
0.00059326
0.000614866
0.000634811
0.000653906
0.000672733
0.000691686
0.000710994
0.00073077
0.00075109
0.00077207
0.000793916
0.000816897
0.00084122
0.000866787
0.000892778
0.000918962
0.000945477
0.000972412
0.000999796
0.0010277
0.00105591
0.00108464
0.00111371
0.00114294
0.00117225
0.0012016
0.00123098
0.00126034
0.00128967
0.00131902
0.00134839
0.0013778
0.00140727
0.0014368
0.00146642
0.00149614
0.00152597
0.00155592
0.00158601
0.00161626
0.00164666
0.00167723
0.00170798
0.00173893
0.00177008
0.00180143
0.00183299
0.00186475
0.00189671
0.00192887
0.00196122
0.00199374
0.00202644
0.0020593
0.0020923
0.00212543
0.00215868
0.00219202
0.00222545
0.00225893
0.00229245
0.00232599
0.00235952
0.00239303
0.00242649
0.00245987
0.00249315
0.00252632
0.00255934
0.00259219
0.00262485
0.0026573
0.00268951
0.00272148
0.00275317
0.00278457
0.00281568
0.00284646
0.00287692
0.00290704
0.00293682
0.00296626
0.00299533
0.00302404
0.00305237
0.00308031
0.00310785
0.00313498
0.00316171
0.00318805
0.00321403
0.00323969
0.00326509
0.00329025
0.0033152
0.00333997
0.00336457
0.00338904
0.00341341
0.00343771
0.00346196
0.00348621
0.00351047
0.00353475
0.00355909
0.00358347
0.0036079
0.00363236
0.00365682
0.00368125
0.00370559
0.00372976
0.00375368
0.00377725
0.00380032
0.00382274
0.0038446
0.00386643
0.00388658
0.00390431
0.00392019
0.00393481
0.00394753
0.00395808
0.0039663
0.00397204
0.00397521
0.00397572
0.00397351
0.00396854
0.00396082
0.00395034
0.0039371
0.00392108
0.00390221
0.00388017
0.00385491
0.00382679
0.00379626
0.00376372
0.00372951
0.00369392
0.0036572
0.00361959
0.00358133
0.00354259
0.00350358
0.00346444
0.00342538
0.00338655
0.00334805
0.00330996
0.00327236
0.00323531
0.0031989
0.0031632
0.00312822
0.00309395
0.00306036
0.00302745
0.00299523
0.00296372
0.00293295
0.00290286
0.00287334
0.00284427
0.00281541
0.0027863
0.00275618
0.00272069
0.0026551
1.79839e-05
0.000134449
0.000265226
0.000372653
0.000458108
0.00052486
0.000577506
0.000619854
0.000654914
0.000684998
0.000711854
0.000736789
0.000760765
0.000784477
0.000808395
0.00083281
0.000857875
0.000883663
0.000910221
0.000937612
0.000965903
0.000995128
0.00102521
0.00105595
0.00108719
0.00111887
0.00115095
0.00118339
0.00121616
0.0012492
0.0012825
0.00131596
0.00134952
0.00138313
0.00141674
0.00145036
0.00148395
0.00151754
0.00155113
0.00158473
0.00161837
0.00165205
0.0016858
0.00171963
0.00175355
0.0017876
0.00182177
0.00185608
0.00189056
0.00192522
0.00196008
0.00199513
0.00203038
0.00206584
0.0021015
0.00213738
0.00217347
0.00220976
0.00224626
0.00228295
0.00231983
0.00235689
0.00239411
0.00243149
0.00246901
0.00250664
0.00254438
0.0025822
0.00262008
0.002658
0.00269594
0.00273387
0.00277177
0.00280961
0.00284737
0.00288502
0.00292254
0.00295989
0.00299705
0.00303399
0.00307069
0.00310712
0.00314326
0.00317907
0.00321455
0.00324967
0.0032844
0.00331873
0.00335264
0.00338612
0.00341915
0.00345173
0.00348384
0.00351547
0.00354661
0.00357725
0.00360741
0.00363708
0.00366629
0.00369505
0.00372339
0.00375135
0.00377895
0.00380621
0.00383317
0.00385985
0.00388628
0.00391251
0.00393857
0.00396449
0.00399032
0.00401609
0.00404183
0.00406757
0.00409333
0.00411912
0.00414495
0.00417081
0.00419668
0.00422252
0.00424828
0.0042739
0.00429926
0.00432424
0.00434866
0.00437289
0.00439681
0.00441937
0.00443988
0.00445866
0.0044761
0.00449169
0.00450512
0.00451623
0.00452488
0.00453092
0.00453425
0.00453478
0.00453243
0.00452717
0.00451896
0.00450778
0.00449358
0.00447632
0.00445587
0.00443225
0.00440566
0.00437643
0.00434487
0.00431128
0.00427595
0.00423914
0.00420109
0.00416203
0.00412219
0.00408177
0.00404094
0.00399991
0.00395884
0.00391786
0.0038771
0.00383664
0.00379658
0.00375699
0.00371797
0.00367956
0.00364178
0.00360464
0.00356815
0.00353234
0.00349722
0.00346281
0.00342908
0.00339598
0.00336339
0.00333114
0.00329884
0.00326573
0.00322808
0.00316789
2.09374e-05
0.000146858
0.000289217
0.000408123
0.000504019
0.00058044
0.000641615
0.000691492
0.00073323
0.000769311
0.000801642
0.000831666
0.000860454
0.00088878
0.000917179
0.000945994
0.000975424
0.00100557
0.00103646
0.00106812
0.00110054
0.0011337
0.00116755
0.001202
0.00123696
0.00127235
0.0013081
0.00134417
0.00138049
0.00141702
0.00145369
0.00149047
0.00152729
0.00156413
0.00160096
0.00163777
0.00167455
0.00171131
0.00174806
0.00178481
0.00182158
0.00185839
0.00189525
0.00193218
0.00196919
0.00200631
0.00204356
0.00208094
0.00211849
0.0021562
0.0021941
0.00223219
0.00227048
0.00230898
0.00234768
0.0023866
0.00242574
0.00246508
0.00250463
0.00254439
0.00258434
0.00262447
0.00266478
0.00270525
0.00274587
0.00278662
0.00282748
0.00286843
0.00290945
0.00295052
0.00299161
0.00303271
0.00307377
0.00311478
0.00315571
0.00319653
0.00323721
0.00327772
0.00331802
0.00335809
0.00339789
0.00343741
0.00347659
0.00351542
0.00355387
0.0035919
0.0036295
0.00366663
0.00370327
0.0037394
0.003775
0.00381006
0.00384456
0.00387847
0.0039118
0.00394453
0.00397668
0.00400823
0.0040392
0.00406961
0.00409948
0.00412883
0.00415767
0.00418605
0.00421398
0.0042415
0.00426865
0.00429546
0.00432198
0.00434826
0.00437434
0.00440028
0.00442612
0.00445191
0.00447769
0.00450349
0.00452935
0.00455527
0.00458128
0.00460736
0.00463349
0.00465962
0.00468569
0.00471158
0.00473714
0.00476284
0.00478817
0.00481255
0.00483547
0.00485696
0.00487724
0.00489585
0.00491248
0.00492698
0.00493919
0.00494897
0.00495616
0.00496064
0.00496228
0.00496101
0.00495673
0.00494938
0.00493891
0.00492526
0.00490837
0.00488825
0.00486505
0.00483897
0.00481028
0.00477923
0.00474608
0.00471107
0.00467446
0.00463648
0.00459736
0.00455732
0.00451655
0.00447525
0.00443361
0.00439178
0.0043499
0.00430809
0.00426646
0.00422511
0.00418412
0.00414358
0.00410354
0.00406403
0.00402508
0.00398674
0.00394903
0.00391197
0.00387556
0.00383979
0.00380459
0.00376983
0.00373522
0.00370004
0.00366113
0.00360658
2.34999e-05
0.000156811
0.000308683
0.000437663
0.000542906
0.000628276
0.000697597
0.000754818
0.000803161
0.000845194
0.000882919
0.000917872
0.000951202
0.00098375
0.00101611
0.00104867
0.00108169
0.0011153
0.00114956
0.00118448
0.00122006
0.00125625
0.00129302
0.0013303
0.00136802
0.00140612
0.00144453
0.0014832
0.00152207
0.00156107
0.00160017
0.00163932
0.00167848
0.00171762
0.00175673
0.00179579
0.00183481
0.00187379
0.00191273
0.00195166
0.00199059
0.00202953
0.00206851
0.00210754
0.00214664
0.00218583
0.00222513
0.00226456
0.00230413
0.00234385
0.00238376
0.00242384
0.00246412
0.0025046
0.00254529
0.00258619
0.0026273
0.00266863
0.00271017
0.00275192
0.00279387
0.00283602
0.00287835
0.00292086
0.00296353
0.00300634
0.00304928
0.00309233
0.00313547
0.00317867
0.00322191
0.00326518
0.00330843
0.00335164
0.00339479
0.00343783
0.00348075
0.00352349
0.00356604
0.00360836
0.0036504
0.00369214
0.00373353
0.00377455
0.00381516
0.00385531
0.00389498
0.00393414
0.00397274
0.00401077
0.0040482
0.004085
0.00412114
0.00415662
0.0041914
0.00422549
0.00425886
0.00429153
0.00432349
0.00435476
0.00438534
0.00441525
0.0044445
0.00447313
0.00450116
0.00452863
0.00455558
0.00458204
0.00460809
0.00463376
0.00465912
0.00468424
0.00470917
0.00473399
0.00475876
0.00478355
0.0048084
0.00483338
0.00485853
0.00488388
0.00490943
0.0049352
0.00496113
0.00498717
0.00501325
0.00503974
0.00506603
0.00509181
0.00511682
0.00514093
0.0051641
0.00518593
0.00520603
0.00522434
0.0052407
0.00525494
0.00526687
0.00527632
0.0052831
0.00528708
0.00528812
0.00528609
0.0052809
0.00527245
0.00526069
0.00524561
0.00522729
0.00520586
0.00518153
0.0051545
0.005125
0.00509326
0.00505953
0.00502404
0.00498703
0.00494872
0.00490932
0.00486905
0.00482809
0.00478662
0.0047448
0.00470278
0.00466067
0.0046186
0.00457668
0.004535
0.00449364
0.00445265
0.0044121
0.00437204
0.0043325
0.00429354
0.00425518
0.00421743
0.00418028
0.00414364
0.00410731
0.00407065
0.00403105
0.00398071
2.56351e-05
0.000164478
0.00032392
0.00046145
0.000574968
0.00066847
0.000745372
0.000809544
0.000864199
0.000911931
0.000954793
0.000994378
0.00103189
0.00106824
0.00110407
0.00113981
0.00117578
0.00121214
0.00124899
0.00128636
0.00132427
0.00136267
0.00140155
0.00144085
0.0014805
0.00152046
0.00156068
0.00160108
0.00164163
0.00168227
0.00172294
0.00176362
0.00180426
0.00184484
0.00188535
0.00192579
0.00196615
0.00200645
0.00204668
0.00208688
0.00212704
0.0021672
0.00220736
0.00224756
0.00228781
0.00232813
0.00236854
0.00240906
0.00244971
0.00249051
0.00253146
0.00257259
0.00261391
0.00265543
0.00269715
0.00273909
0.00278125
0.00282362
0.00286622
0.00290904
0.00295208
0.00299533
0.00303879
0.00308245
0.00312629
0.0031703
0.00321447
0.00325878
0.00330321
0.00334774
0.00339235
0.003437
0.00348168
0.00352636
0.00357099
0.00361556
0.00366002
0.00370435
0.00374849
0.00379241
0.00383608
0.00387945
0.00392248
0.00396512
0.00400734
0.00404908
0.00409031
0.00413099
0.00417108
0.00421053
0.00424931
0.00428739
0.00432473
0.00436131
0.00439709
0.00443207
0.00446622
0.00449953
0.004532
0.00456362
0.0045944
0.00462436
0.00465349
0.00468183
0.0047094
0.00473623
0.00476238
0.00478789
0.00481281
0.00483722
0.00486118
0.00488477
0.00490809
0.00493121
0.00495423
0.00497723
0.00500033
0.00502359
0.00504711
0.00507096
0.00509521
0.0051199
0.00514504
0.00517061
0.00519669
0.00522335
0.00525026
0.00527721
0.00530404
0.00533066
0.00535678
0.00538201
0.00540578
0.00542824
0.00544923
0.00546855
0.00548597
0.00550124
0.00551414
0.00552445
0.00553197
0.0055365
0.00553789
0.00553598
0.00553068
0.00552193
0.00550975
0.00549423
0.00547549
0.0054537
0.00542906
0.00540178
0.00537209
0.00534023
0.00530642
0.00527091
0.00523391
0.00519566
0.00515635
0.00511619
0.00507534
0.00503397
0.00499224
0.00495027
0.0049082
0.00486613
0.00482417
0.0047824
0.0047409
0.00469974
0.00465898
0.00461869
0.00457891
0.0045397
0.00450107
0.004463
0.00442535
0.00438758
0.00434756
0.00430026
2.73309e-05
0.000170055
0.00033525
0.000479806
0.000600476
0.000701187
0.000784962
0.000855531
0.00091604
0.000969068
0.00101668
0.0010605
0.00110178
0.00114147
0.00118026
0.00121866
0.00125699
0.00129548
0.00133424
0.00137336
0.00141286
0.00145272
0.00149294
0.00153346
0.00157426
0.00161529
0.00165649
0.00169783
0.00173927
0.00178075
0.0018222
0.00186359
0.00190489
0.00194608
0.00198714
0.00202809
0.00206892
0.00210964
0.00215028
0.00219083
0.00223134
0.0022718
0.00231225
0.00235271
0.0023932
0.00243374
0.00247436
0.00251507
0.0025559
0.00259687
0.00263799
0.00267929
0.00272077
0.00276246
0.00280436
0.00284649
0.00288885
0.00293144
0.00297429
0.00301738
0.00306072
0.0031043
0.00314813
0.0031922
0.00323649
0.003281
0.00332572
0.00337063
0.00341571
0.00346094
0.0035063
0.00355177
0.00359732
0.00364291
0.00368853
0.00373412
0.00377966
0.0038251
0.00387041
0.00391553
0.00396044
0.00400506
0.00404937
0.00409331
0.00413682
0.00417986
0.00422238
0.00426432
0.00430563
0.00434626
0.00438617
0.00442531
0.00446364
0.00450111
0.00453769
0.00457335
0.00460806
0.00464181
0.00467456
0.00470631
0.00473707
0.00476681
0.00479557
0.00482334
0.00485016
0.00487606
0.00490108
0.00492528
0.00494872
0.00497146
0.00499361
0.00501524
0.00503647
0.0050574
0.00507815
0.00509885
0.00511962
0.0051406
0.0051619
0.00518367
0.00520601
0.00522904
0.00525282
0.00527742
0.00530291
0.00532932
0.00535652
0.00538437
0.00541274
0.00544158
0.00547067
0.00549948
0.0055271
0.00555391
0.00557989
0.00560476
0.00562826
0.00565006
0.00566989
0.00568744
0.00570243
0.00571459
0.00572365
0.00572942
0.00573172
0.00573044
0.00572553
0.00571701
0.00570495
0.00568946
0.00567072
0.0056489
0.00562424
0.00559694
0.00556726
0.00553543
0.00550169
0.00546628
0.00542942
0.00539132
0.00535217
0.00531217
0.00527148
0.00523027
0.00518866
0.00514681
0.00510482
0.00506282
0.00502088
0.00497912
0.0049376
0.00489642
0.00485565
0.00481536
0.00477562
0.00473644
0.00469775
0.0046591
0.00461874
0.00457356
2.85958e-05
0.000173751
0.00034302
0.000493099
0.000619748
0.000726646
0.000816465
0.000892736
0.0009585
0.00101628
0.00106814
0.0011157
0.00116021
0.00120266
0.00124388
0.00128439
0.00132453
0.00136454
0.00140458
0.00144476
0.00148513
0.0015257
0.00156648
0.00160745
0.00164858
0.00168984
0.00173122
0.00177267
0.00181419
0.00185579
0.00189728
0.00193859
0.00197971
0.00202065
0.0020614
0.00210197
0.00214236
0.00218261
0.00222272
0.00226272
0.00230264
0.00234249
0.00238231
0.00242211
0.00246193
0.0025018
0.00254173
0.00258175
0.00262189
0.00266218
0.00270263
0.00274326
0.00278409
0.00282515
0.00286645
0.002908
0.00294982
0.00299192
0.00303431
0.00307699
0.00311997
0.00316326
0.00320684
0.00325073
0.00329491
0.00333938
0.00338413
0.00342915
0.00347441
0.0035199
0.00356561
0.0036115
0.00365754
0.00370372
0.00374998
0.0037963
0.00384264
0.00388896
0.0039352
0.00398131
0.00402726
0.00407298
0.00411842
0.00416352
0.00420822
0.00425247
0.00429619
0.00433932
0.00438181
0.00442359
0.00446461
0.0045048
0.00454411
0.00458248
0.00461986
0.00465622
0.00469151
0.00472569
0.00475873
0.00479062
0.00482133
0.00485086
0.00487921
0.00490639
0.00493241
0.0049573
0.00498111
0.00500389
0.0050257
0.00504663
0.00506677
0.00508623
0.00510512
0.00512358
0.00514175
0.00515979
0.00517786
0.00519613
0.00521478
0.00523399
0.00525393
0.00527481
0.00529671
0.00531982
0.0053442
0.00537001
0.00539715
0.00542549
0.00545506
0.00548586
0.0055178
0.00555015
0.00558175
0.00561298
0.00564414
0.00567488
0.00570487
0.00573375
0.00576114
0.00578668
0.00580997
0.00583063
0.00584834
0.00586278
0.0058737
0.00588089
0.00588425
0.00588373
0.00587932
0.0058711
0.00585919
0.00584375
0.00582498
0.0058031
0.00577835
0.00575098
0.00572124
0.00568939
0.00565565
0.00562026
0.00558344
0.00554539
0.00550632
0.00546639
0.00542578
0.00538464
0.0053431
0.00530131
0.00525937
0.00521741
0.00517552
0.00513381
0.00509239
0.00505134
0.00501076
0.00497071
0.00493116
0.00489177
0.0048511
0.00480733
2.94461e-05
0.000175788
0.000347573
0.00050168
0.000633139
0.000745026
0.000839988
0.000921141
0.000991411
0.00105324
0.00110874
0.00115947
0.00120666
0.00125125
0.00129418
0.00133602
0.00137715
0.00141789
0.00145841
0.00149887
0.00153933
0.00157985
0.00162044
0.00166108
0.00170178
0.00174253
0.00178332
0.00182411
0.00186488
0.00190578
0.00194644
0.00198683
0.00202692
0.0020667
0.0021062
0.00214544
0.00218443
0.00222323
0.00226184
0.00230032
0.00233868
0.00237697
0.0024152
0.00245342
0.00249165
0.00252994
0.0025683
0.00260677
0.00264539
0.00268417
0.00272315
0.00276235
0.0028018
0.00284153
0.00288154
0.00292187
0.00296253
0.00300353
0.0030449
0.00308665
0.00312877
0.00317128
0.00321419
0.00325748
0.00330117
0.00334525
0.00338971
0.00343453
0.0034797
0.00352521
0.00357104
0.00361715
0.00366352
0.00371013