/*--------------------------------*- C++ -*----------------------------------*\
  =========                 |
  \\      /  F ield         | OpenFOAM: The Open Source CFD Toolbox
   \\    /   O peration     | Website:  https://openfoam.org
    \\  /    A nd           | Version:  8
     \\/     M anipulation  |
\*---------------------------------------------------------------------------*/
FoamFile
{
    version     2.0;
    format      ascii;
    class       volScalarField;
    location    "160";
    object      p;
}
// * * * * * * * * * * * * * * * * * * * * * * * * * * * * * * * * * * * * * //

dimensions      [0 2 -2 0 0 0 0];

internalField   nonuniform List<scalar> 
12225
(
-0.175193
-2.36381
-3.46351
-3.78387
-3.96471
-4.13326
-4.26427
-4.3587
-4.43444
-4.50075
-4.55939
-4.6125
-4.65997
-4.70309
-4.7417
-4.76962
-4.8031
-4.74744
-3.3387
-4.10699
-4.26732
-4.17471
-4.16179
-4.22917
-4.30615
-4.37118
-4.42994
-4.48631
-4.53959
-4.58878
-4.63442
-4.67639
-4.71544
-4.74653
-4.78298
-4.79555
-3.73986
-3.7247
-3.85188
-3.92992
-4.02441
-4.14412
-4.25074
-4.33491
-4.40588
-4.4702
-4.52901
-4.58229
-4.63133
-4.6762
-4.71831
-4.75458
-4.79702
-4.83175
-3.6179
-3.56091
-3.80228
-3.96029
-4.06162
-4.16735
-4.26447
-4.34384
-4.41176
-4.47385
-4.53118
-4.58367
-4.63238
-4.67749
-4.72043
-4.76021
-4.80478
-4.85088
-3.60756
-3.63194
-3.85977
-4.00101
-4.08423
-4.17582
-4.26648
-4.34353
-4.41029
-4.47156
-4.52853
-4.58111
-4.63022
-4.67627
-4.72065
-4.76354
-4.81012
-4.86121
-3.66554
-3.71443
-3.88848
-4.01207
-4.0932
-4.18057
-4.26807
-4.34394
-4.41015
-4.47096
-4.52769
-4.58039
-4.62985
-4.67669
-4.72218
-4.76709
-4.81484
-4.86711
-3.7259
-3.77008
-3.90505
-4.02107
-4.10444
-4.18814
-4.27153
-4.34556
-4.41094
-4.47112
-4.52745
-4.58012
-4.6298
-4.67723
-4.72351
-4.76962
-4.81778
-4.86938
-3.77947
-3.81705
-3.9268
-4.0348
-4.11744
-4.19662
-4.27554
-4.34745
-4.41184
-4.47132
-4.52718
-4.57974
-4.62956
-4.67738
-4.72415
-4.7708
-4.81874
-4.86881
-3.82924
-3.86231
-3.95303
-4.0507
-4.13044
-4.20541
-4.28011
-4.34971
-4.41293
-4.47159
-4.52687
-4.57918
-4.62899
-4.67696
-4.72389
-4.77053
-4.81777
-4.86594
-3.87633
-3.90552
-3.98085
-4.0678
-4.14368
-4.21485
-4.28555
-4.35257
-4.41437
-4.47204
-4.52661
-4.5785
-4.62809
-4.67595
-4.7227
-4.7689
-4.81509
-4.86128
-3.9207
-3.94612
-4.00915
-4.08607
-4.15746
-4.22494
-4.29179
-4.35607
-4.41621
-4.47274
-4.52644
-4.57772
-4.62689
-4.67437
-4.72065
-4.7661
-4.81103
-4.85526
-3.95877
-3.98105
-4.03509
-4.10369
-4.17054
-4.23462
-4.29812
-4.35981
-4.41827
-4.4736
-4.52638
-4.57693
-4.62552
-4.67246
-4.71808
-4.76264
-4.80631
-4.84883
-3.99394
-4.0136
-4.06028
-4.12146
-4.18371
-4.24445
-4.30477
-4.3639
-4.42058
-4.47463
-4.52638
-4.57609
-4.62396
-4.67019
-4.71501
-4.75857
-4.80096
-4.8419
-4.03082
-4.04796
-4.08785
-4.14168
-4.19881
-4.25575
-4.31265
-4.36892
-4.42349
-4.47596
-4.52642
-4.57503
-4.62192
-4.66718
-4.71094
-4.75327
-4.79419
-4.83347
-4.06814
-4.08288
-4.11678
-4.16373
-4.21546
-4.26829
-4.32159
-4.37477
-4.42692
-4.4775
-4.52639
-4.57363
-4.61924
-4.66325
-4.70569
-4.74658
-4.7859
-4.82347
-4.10397
-4.11657
-4.14543
-4.18629
-4.23276
-4.28137
-4.33104
-4.38105
-4.43058
-4.47902
-4.52608
-4.57168
-4.61575
-4.65825
-4.69917
-4.73845
-4.7761
-4.81195
-4.1354
-4.14625
-4.17118
-4.20708
-4.24892
-4.29362
-4.33988
-4.38686
-4.43376
-4.47994
-4.52503
-4.56881
-4.61116
-4.652
-4.69125
-4.72886
-4.76481
-4.79902
-4.15808
-4.16773
-4.18999
-4.22246
-4.26093
-4.30261
-4.34614
-4.39061
-4.43524
-4.47937
-4.52257
-4.56458
-4.60522
-4.64438
-4.68198
-4.71796
-4.7523
-4.78497
-4.16511
-4.17427
-4.19552
-4.22672
-4.26388
-4.30426
-4.34644
-4.38955
-4.43282
-4.4756
-4.51743
-4.55806
-4.5973
-4.63506
-4.67125
-4.70584
-4.73882
-4.77021
-4.1492
-4.15899
-4.18163
-4.21478
-4.25388
-4.29569
-4.3388
-4.38251
-4.42609
-4.46891
-4.51053
-4.55077
-4.58947
-4.62659
-4.66204
-4.69586
-4.72802
-4.75861
-4.1225
-4.13331
-4.15864
-4.19574
-4.23862
-4.28326
-4.32851
-4.37392
-4.41878
-4.46237
-4.50441
-4.54479
-4.58349
-4.62042
-4.65562
-4.68908
-4.72087
-4.75103
-4.08739
-4.09924
-4.12865
-4.17232
-4.22071
-4.26883
-4.3168
-4.36471
-4.41148
-4.4563
-4.49908
-4.53991
-4.57882
-4.61579
-4.65088
-4.68417
-4.71572
-4.74563
-4.04693
-4.05886
-4.09337
-4.14673
-4.20239
-4.25449
-4.30554
-4.35617
-4.40489
-4.451
-4.49467
-4.53611
-4.57537
-4.61251
-4.64762
-4.68086
-4.71228
-4.74207
-4.00329
-4.0143
-4.05613
-4.12064
-4.18294
-4.23976
-4.29554
-4.34959
-4.40006
-4.4471
-4.49146
-4.53339
-4.57291
-4.61012
-4.64522
-4.67837
-4.7097
-4.73932
-3.95641
-3.96194
-4.02466
-4.10296
-4.16502
-4.22342
-4.28472
-4.34327
-4.39599
-4.44427
-4.48952
-4.53202
-4.5718
-4.60908
-4.64414
-4.6772
-4.70842
-4.73798
-3.91313
-3.87683
-3.98643
-4.0975
-4.15986
-4.21529
-4.27767
-4.33759
-4.39101
-4.43995
-4.4859
-4.52893
-4.56904
-4.6065
-4.64166
-4.67476
-4.706
-4.73554
-3.92738
-3.76845
-3.89744
-4.05161
-4.14183
-4.21334
-4.28243
-4.34353
-4.39652
-4.44502
-4.49053
-4.53301
-4.57254
-4.60944
-4.64403
-4.67663
-4.70744
-4.73671
-4.05058
-3.87023
-3.88446
-3.95669
-4.04517
-4.14453
-4.23539
-4.30935
-4.37125
-4.4266
-4.47713
-4.52313
-4.56517
-4.60389
-4.6398
-4.67334
-4.70499
-4.73531
-3.75796
-4.34908
-4.43797
-4.31382
-4.25959
-4.2869
-4.33404
-4.37746
-4.41922
-4.46162
-4.50333
-4.54288
-4.58008
-4.61504
-4.64782
-4.67858
-4.70753
-4.73643
-0.768639
-2.53197
-3.53673
-3.83596
-3.98525
-4.12902
-4.24322
-4.32436
-4.38878
-4.44586
-4.49733
-4.5436
-4.58551
-4.62396
-4.65947
-4.69182
-4.72086
-4.74484
-5.70636
-5.70621
-5.70679
-5.70856
-5.71119
-5.71451
-5.71842
-5.72285
-5.72777
-5.73319
-5.7392
-5.7459
-5.75334
-5.76156
-5.77021
-5.77859
-5.78714
-5.79736
-5.80942
-5.82225
-5.83485
-5.84743
-5.86174
-5.87889
-5.89835
-5.91872
-5.93935
-5.95996
-5.97882
-5.99696
-6.01753
-6.04015
-6.06367
-6.08808
-6.11315
-6.13881
-6.1649
-6.19138
-6.21813
-6.24511
-6.27219
-6.29937
-6.32652
-6.35363
-6.38058
-6.40736
-6.43385
-6.46002
-6.48576
-6.51104
-6.53573
-6.55981
-6.58312
-6.60563
-6.62718
-6.64773
-6.66711
-6.68527
-6.702
-6.71729
-6.73091
-6.74281
-6.75276
-6.76073
-6.76647
-6.76995
-6.77091
-6.76932
-6.76491
-6.75763
-6.74721
-6.73361
-6.71657
-6.69606
-6.67181
-6.6438
-6.61173
-6.5756
-6.53511
-6.49027
-6.44078
-6.38662
-6.3275
-6.2634
-6.19401
-6.11925
-6.03875
-5.95234
-5.8597
-5.76074
-5.65543
-5.54362
-5.42513
-5.29974
-5.16726
-5.02739
-4.8798
-4.72405
-4.55964
-4.38607
-4.20298
-4.01011
-3.80715
-3.59368
-3.36922
-3.13332
-2.88549
-2.6253
-2.35227
-2.06601
-1.76607
-1.45207
-1.12365
-0.780526
-0.42244
-0.0492617
0.339068
0.742389
1.16044
1.59279
2.0389
2.49801
2.96912
3.45101
3.94212
4.4407
4.94475
5.45213
5.96055
6.46765
6.97097
7.46806
7.95646
8.43388
8.89812
9.34722
9.7793
10.1929
10.5866
10.9597
11.3114
11.6414
11.9499
12.2371
12.504
12.7508
12.9776
13.185
13.3734
13.5439
13.6975
13.8351
13.9578
14.0668
14.1631
14.2477
14.3215
14.3857
14.4409
14.4881
14.5281
14.5615
14.5891
14.6115
14.6292
14.6427
14.6526
14.6593
14.6632
14.6648
14.6644
14.6625
14.6597
14.6565
14.6541
14.654
14.6599
14.6765
14.7224
14.795
-5.70312
-5.70375
-5.70474
-5.70609
-5.70752
-5.70913
-5.71116
-5.71378
-5.71701
-5.72089
-5.72541
-5.73051
-5.73614
-5.74223
-5.74853
-5.75533
-5.76383
-5.77382
-5.78378
-5.79325
-5.80296
-5.81441
-5.82805
-5.84268
-5.85847
-5.87537
-5.8938
-5.9136
-5.93637
-5.9624
-5.98814
-6.01267
-6.03722
-6.06213
-6.08744
-6.11314
-6.13918
-6.16552
-6.19208
-6.21883
-6.24567
-6.27258
-6.29946
-6.32629
-6.35297
-6.37948
-6.40573
-6.43166
-6.4572
-6.48228
-6.50681
-6.53074
-6.55394
-6.57635
-6.59785
-6.61836
-6.63774
-6.65592
-6.67273
-6.6881
-6.70186
-6.71391
-6.72407
-6.73225
-6.73827
-6.74202
-6.74332
-6.74207
-6.73806
-6.73118
-6.72124
-6.70812
-6.69162
-6.67164
-6.64798
-6.62055
-6.58914
-6.55363
-6.51384
-6.46969
-6.42096
-6.36757
-6.30932
-6.24611
-6.17772
-6.10404
-6.02477
-5.93972
-5.84858
-5.75128
-5.64769
-5.53766
-5.42092
-5.29723
-5.16634
-5.02795
-4.88173
-4.72731
-4.56438
-4.39264
-4.21182
-4.02154
-3.8214
-3.61093
-3.38969
-3.1572
-2.91302
-2.65669
-2.3878
-2.10589
-1.81056
-1.50142
-1.17811
-0.840315
-0.487789
-0.120359
0.262046
0.659325
1.07126
1.49748
1.9375
2.39062
2.85595
3.33231
3.81829
4.31219
4.81213
5.31602
5.82165
6.32668
6.82873
7.32532
7.81405
8.29256
8.75864
9.21028
9.64565
10.063
10.461
10.8386
11.195
11.5299
11.8431
12.1345
12.4049
12.655
12.8854
13.0965
13.289
13.4637
13.6215
13.7633
13.8903
14.0035
14.1038
14.1923
14.27
14.3377
14.3964
14.4469
14.49
14.5263
14.5566
14.5815
14.6015
14.6172
14.629
14.6375
14.6431
14.6462
14.6472
14.6466
14.6449
14.6429
14.6416
14.6426
14.6492
14.665
14.7074
14.7666
-5.6948
-5.69717
-5.70044
-5.7031
-5.70494
-5.70647
-5.70812
-5.71016
-5.71271
-5.71585
-5.7196
-5.72394
-5.7288
-5.73411
-5.7398
-5.74611
-5.75355
-5.76228
-5.77187
-5.78223
-5.79366
-5.8066
-5.82101
-5.83627
-5.85211
-5.86846
-5.88546
-5.90353
-5.92353
-5.94571
-5.96894
-5.9925
-6.01646
-6.04086
-6.06566
-6.09082
-6.1163
-6.14204
-6.168
-6.19412
-6.22035
-6.24664
-6.27293
-6.29918
-6.32531
-6.35129
-6.37703
-6.40248
-6.42757
-6.45223
-6.47638
-6.49994
-6.52282
-6.54494
-6.56619
-6.58648
-6.60569
-6.62371
-6.64043
-6.65573
-6.66946
-6.68152
-6.69174
-6.70002
-6.70618
-6.71011
-6.71164
-6.71064
-6.70695
-6.70042
-6.69089
-6.67822
-6.66224
-6.64281
-6.61977
-6.59298
-6.56226
-6.52749
-6.48849
-6.44515
-6.39729
-6.3448
-6.2875
-6.22528
-6.15797
-6.08542
-6.00743
-5.92377
-5.83422
-5.73865
-5.63697
-5.52897
-5.41438
-5.29297
-5.16441
-5.02845
-4.88472
-4.73292
-4.57275
-4.40396
-4.22629
-4.03937
-3.84281
-3.63613
-3.41893
-3.19071
-2.95108
-2.69956
-2.43576
-2.15922
-1.86956
-1.56637
-1.24931
-0.91804
-0.572323
-0.21195
0.163148
0.552933
0.957216
1.37569
1.80791
2.25323
2.71086
3.17969
3.65844
4.14551
4.63915
5.13731
5.63792
6.13866
6.63724
7.13119
7.61814
8.09571
8.56168
9.01394
9.45067
9.87026
10.2714
10.6531
11.0145
11.3552
11.6748
11.9736
12.2517
12.5098
12.748
12.967
13.1672
13.3494
13.5146
13.6636
13.7974
13.9171
14.0236
14.118
14.2013
14.2742
14.3378
14.3929
14.4401
14.4804
14.5143
14.5425
14.5656
14.5841
14.5985
14.6092
14.6169
14.6218
14.6244
14.6253
14.625
14.6242
14.624
14.6259
14.633
14.6471
14.684
14.7205
-5.68186
-5.6862
-5.69259
-5.69749
-5.70069
-5.70302
-5.70506
-5.70711
-5.7094
-5.71209
-5.71526
-5.71897
-5.72322
-5.72801
-5.73334
-5.73934
-5.74622
-5.75418
-5.7632
-5.77336
-5.78481
-5.79776
-5.8122
-5.82789
-5.84453
-5.86186
-5.87978
-5.89843
-5.91806
-5.93889
-5.96068
-5.98319
-6.00631
-6.02996
-6.05407
-6.07858
-6.10342
-6.12854
-6.15388
-6.17941
-6.20506
-6.2308
-6.25655
-6.28229
-6.30793
-6.33345
-6.35876
-6.38381
-6.40853
-6.43286
-6.4567
-6.47999
-6.50263
-6.52454
-6.54561
-6.56576
-6.58486
-6.60281
-6.61948
-6.63476
-6.64852
-6.66064
-6.67096
-6.67936
-6.68569
-6.68982
-6.69158
-6.69084
-6.68744
-6.68124
-6.67208
-6.65981
-6.64428
-6.62534
-6.60283
-6.57661
-6.54652
-6.5124
-6.47412
-6.43152
-6.38445
-6.33278
-6.27635
-6.21502
-6.14864
-6.07707
-6.00012
-5.91759
-5.82926
-5.73505
-5.63481
-5.52834
-5.4154
-5.29572
-5.16903
-5.03503
-4.89341
-4.74387
-4.58612
-4.41992
-4.24496
-4.0609
-3.86733
-3.66383
-3.44995
-3.22526
-2.98934
-2.74174
-2.48206
-2.20985
-1.92473
-1.62628
-1.31416
-0.988044
-0.647661
-0.29281
0.0765979
0.460548
0.858888
1.27135
1.69751
2.1368
2.58844
3.0514
3.52448
4.00617
4.49477
4.98835
5.48489
5.98213
6.47778
6.96941
7.45468
7.93119
8.39677
8.84933
9.28707
9.70844
10.1122
10.4972
10.8628
11.2083
11.5334
11.8381
12.1225
12.3868
12.6314
12.8567
13.0632
13.2517
13.4229
13.5778
13.7174
13.8426
13.9544
14.0538
14.1418
14.2193
14.2871
14.3461
14.3971
14.4407
14.4778
14.5089
14.5346
14.5555
14.5721
14.5848
14.5942
14.6007
14.6047
14.6068
14.6075
14.6075
14.6079
14.6098
14.6161
14.6265
14.6545
14.6684
-5.66762
-5.674
-5.68375
-5.69123
-5.69618
-5.69977
-5.70269
-5.70532
-5.70794
-5.71077
-5.71397
-5.71764
-5.72187
-5.72671
-5.73224
-5.73856
-5.74578
-5.754
-5.76327
-5.77365
-5.78524
-5.79812
-5.81232
-5.82775
-5.84426
-5.86169
-5.8799
-5.89886
-5.91859
-5.93911
-5.96038
-5.9823
-6.00481
-6.02784
-6.05133
-6.07523
-6.09948
-6.12403
-6.14881
-6.17381
-6.19894
-6.22418
-6.24947
-6.27476
-6.29999
-6.32511
-6.35006
-6.37479
-6.3992
-6.42325
-6.44685
-6.46992
-6.49237
-6.51412
-6.53506
-6.55509
-6.57411
-6.592
-6.60864
-6.62392
-6.63769
-6.64985
-6.66024
-6.66873
-6.67517
-6.67944
-6.68136
-6.6808
-6.67761
-6.67164
-6.66273
-6.65073
-6.63551
-6.6169
-6.59476
-6.56894
-6.53929
-6.50566
-6.4679
-6.42587
-6.37942
-6.32841
-6.27269
-6.21213
-6.14656
-6.07585
-5.99982
-5.91828
-5.83106
-5.73798
-5.63902
-5.53388
-5.42237
-5.3042
-5.17916
-5.04693
-4.90724
-4.75978
-4.60426
-4.44042
-4.26793
-4.08646
-3.89556
-3.69487
-3.48391
-3.2623
-3.02956
-2.78533
-2.52911
-2.26053
-1.97911
-1.68451
-1.3763
-1.0542
-0.717878
-0.367161
-0.00190856
0.377866
0.772061
1.18044
1.60261
2.03805
2.48597
2.94545
3.41524
3.89396
4.37988
4.87122
5.36586
5.8617
6.35633
6.84745
7.33258
7.80947
8.27585
8.72973
9.16926
9.5929
9.99932
10.3874
10.7564
11.1056
11.4346
11.7434
12.0319
12.3005
12.5493
12.7788
12.9895
13.1821
13.3574
13.5164
13.6598
13.7888
13.9043
14.0072
14.0985
14.1791
14.2499
14.3116
14.3652
14.4113
14.4506
14.4837
14.5113
14.5339
14.552
14.566
14.5766
14.5841
14.5889
14.5917
14.5929
14.5932
14.5934
14.5946
14.5988
14.6046
14.6235
14.6179
-5.65497
-5.66323
-5.67588
-5.68574
-5.69248
-5.69751
-5.70158
-5.70512
-5.70844
-5.71185
-5.71553
-5.71964
-5.72429
-5.7296
-5.73564
-5.74251
-5.7503
-5.75907
-5.76887
-5.77974
-5.7917
-5.80478
-5.81898
-5.83426
-5.85053
-5.86772
-5.88573
-5.90451
-5.92402
-5.94424
-5.96511
-5.98659
-6.00861
-6.03115
-6.05412
-6.07751
-6.10125
-6.12531
-6.14962
-6.17415
-6.19885
-6.22367
-6.24857
-6.27349
-6.29838
-6.3232
-6.34786
-6.37232
-6.39651
-6.42035
-6.44376
-6.46668
-6.489
-6.51063
-6.53148
-6.55145
-6.57042
-6.58828
-6.60492
-6.6202
-6.634
-6.6462
-6.65665
-6.66521
-6.67174
-6.67611
-6.67815
-6.67772
-6.67468
-6.66886
-6.66012
-6.64832
-6.6333
-6.61492
-6.59302
-6.56747
-6.53811
-6.5048
-6.46741
-6.42579
-6.37979
-6.32928
-6.27412
-6.21416
-6.14927
-6.07929
-6.00407
-5.92343
-5.83714
-5.74519
-5.64734
-5.54346
-5.43326
-5.31654
-5.19303
-5.06249
-4.92461
-4.77911
-4.62572
-4.46412
-4.29399
-4.11496
-3.92664
-3.7286
-3.52043
-3.30171
-3.07202
-2.83091
-2.57795
-2.31268
-2.03467
-1.74351
-1.4388
-1.1202
-0.787373
-0.440113
-0.0782669
0.298198
0.689217
1.09459
1.51398
1.94686
2.39251
2.84999
3.31812
3.79548
4.28044
4.77118
5.26567
5.76173
6.257
6.7491
7.2356
7.71418
8.18261
8.63886
9.08105
9.50759
9.91709
10.3084
10.6807
11.0332
11.3655
11.6775
11.9693
12.2409
12.4928
12.7252
12.9388
13.1343
13.3124
13.4741
13.6202
13.7517
13.8696
13.9749
14.0684
14.1511
14.2238
14.2874
14.3427
14.3904
14.4311
14.4656
14.4944
14.518
14.537
14.5519
14.5631
14.5711
14.5764
14.5794
14.5806
14.5806
14.5802
14.5799
14.5815
14.5823
14.5932
14.5712
-5.64605
-5.65583
-5.67062
-5.68237
-5.6907
-5.69711
-5.70237
-5.70692
-5.71113
-5.71531
-5.71969
-5.72446
-5.72974
-5.73567
-5.74233
-5.74981
-5.75817
-5.76747
-5.77774
-5.78901
-5.80129
-5.81459
-5.82887
-5.84413
-5.86029
-5.87731
-5.89512
-5.91368
-5.93294
-5.95286
-5.9734
-5.99451
-6.01615
-6.03828
-6.06085
-6.08383
-6.10716
-6.13081
-6.15474
-6.1789
-6.20325
-6.22775
-6.25234
-6.27699
-6.30163
-6.32621
-6.35067
-6.37495
-6.39898
-6.42269
-6.44599
-6.46881
-6.49106
-6.51264
-6.53345
-6.5534
-6.57236
-6.59022
-6.60687
-6.62218
-6.63602
-6.64826
-6.65875
-6.66737
-6.67396
-6.67839
-6.68051
-6.68016
-6.67719
-6.67147
-6.66283
-6.65114
-6.63623
-6.61797
-6.59622
-6.57082
-6.54164
-6.50854
-6.47137
-6.43001
-6.38432
-6.33416
-6.27941
-6.21991
-6.15554
-6.08616
-6.01162
-5.93171
-5.84632
-5.75527
-5.65849
-5.55575
-5.44679
-5.33141
-5.20936
-5.08039
-4.94422
-4.80058
-4.64918
-4.48969
-4.32179
-4.14508
-3.95919
-3.76367
-3.55817
-3.3422
-3.11539
-2.87723
-2.62733
-2.36516
-2.09033
-1.80234
-1.50084
-1.18539
-0.855694
-0.511465
-0.152554
0.221139
0.609584
1.01262
1.42997
1.86109
2.30535
2.76176
3.22923
3.70628
4.19138
4.68262
5.17808
5.67544
6.17246
6.66659
7.15551
7.63675
8.10811
8.56744
9.01288
9.44274
9.85561
10.2503
10.6258
10.9815
11.3168
11.6317
11.9262
12.2003
12.4546
12.6893
12.905
13.1026
13.2827
13.4462
13.5941
13.7273
13.8468
13.9536
14.0486
14.1326
14.2066
14.2714
14.3277
14.3763
14.418
14.4532
14.4827
14.5069
14.5264
14.5416
14.5531
14.5613
14.5665
14.5693
14.5702
14.5695
14.568
14.5659
14.5645
14.5604
14.5643
14.5282
-5.64209
-5.65284
-5.66892
-5.68197
-5.69154
-5.6991
-5.70542
-5.71094
-5.71603
-5.72102
-5.72616
-5.73163
-5.7376
-5.74417
-5.75144
-5.75949
-5.76837
-5.77814
-5.7888
-5.80039
-5.81291
-5.82637
-5.84072
-5.85597
-5.87206
-5.88895
-5.9066
-5.92497
-5.94401
-5.96368
-5.98394
-6.00477
-6.0261
-6.04792
-6.07017
-6.09283
-6.11586
-6.13922
-6.16286
-6.18676
-6.21087
-6.23514
-6.25953
-6.284
-6.30848
-6.33292
-6.35727
-6.38146
-6.40541
-6.42906
-6.45232
-6.47512
-6.49735
-6.51894
-6.53976
-6.55973
-6.57871
-6.59661
-6.61329
-6.62864
-6.64251
-6.65479
-6.66531
-6.67397
-6.68059
-6.68504
-6.68718
-6.68685
-6.6839
-6.67819
-6.66957
-6.6579
-6.64302
-6.62479
-6.60307
-6.57773
-6.54861
-6.5156
-6.47855
-6.43734
-6.39183
-6.3419
-6.28742
-6.22826
-6.16429
-6.09539
-6.02139
-5.94214
-5.85747
-5.7673
-5.67148
-5.56977
-5.46198
-5.34786
-5.22719
-5.09972
-4.96519
-4.82331
-4.67379
-4.51632
-4.35052
-4.17602
-3.99242
-3.79933
-3.59632
-3.38299
-3.15888
-2.92353
-2.67646
-2.41721
-2.14529
-1.86025
-1.56164
-1.24904
-0.922106
-0.580535
-0.224125
0.147259
0.533638
0.93491
1.35079
1.78083
2.22435
2.68045
3.14799
3.62557
4.11158
4.60418
5.10139
5.60093
6.10048
6.59752
7.0896
7.57422
8.04907
8.51197
8.96099
9.3944
9.81073
10.2087
10.5874
10.946
11.2842
11.6016
11.8983
12.1746
12.4306
12.667
12.8844
13.0833
13.2647
13.4295
13.5786
13.7128
13.8333
13.941
14.0368
14.1216
14.1963
14.2617
14.3186
14.3678
14.4098
14.4454
14.4752
14.4996
14.5192
14.5345
14.546
14.554
14.5589
14.5613
14.5615
14.5599
14.5569
14.5527
14.5481
14.5392
14.5371
14.4889
-5.64339
-5.65456
-5.67111
-5.68484
-5.69521
-5.70361
-5.71076
-5.71708
-5.72294
-5.72865
-5.73447
-5.74059
-5.74716
-5.75429
-5.76209
-5.77062
-5.77993
-5.79007
-5.80104
-5.81288
-5.82558
-5.83915
-5.85355
-5.86879
-5.88481
-5.9016
-5.91912
-5.93732
-5.95618
-5.97566
-5.99571
-6.01632
-6.03743
-6.05902
-6.08105
-6.1035
-6.12632
-6.14949
-6.17296
-6.1967
-6.22066
-6.24482
-6.26911
-6.29349
-6.31791
-6.34231
-6.36663
-6.39081
-6.41476
-6.43843
-6.46172
-6.48456
-6.50683
-6.52847
-6.54934
-6.56936
-6.58839
-6.60634
-6.62306
-6.63845
-6.65235
-6.66464
-6.67518
-6.68383
-6.69044
-6.69487
-6.69696
-6.69659
-6.69358
-6.68781
-6.67912
-6.66737
-6.65241
-6.63411
-6.61233
-6.58692
-6.55777
-6.52473
-6.48768
-6.4465
-6.40106
-6.35125
-6.29693
-6.238
-6.17433
-6.1058
-6.03226
-5.95356
-5.86958
-5.78015
-5.68521
-5.58449
-5.47779
-5.36488
-5.24555
-5.11953
-4.98658
-4.84641
-4.69872
-4.54318
-4.3794
-4.20704
-4.02565
-3.8349
-3.63431
-3.42352
-3.20198
-2.9693
-2.72491
-2.4684
-2.19918
-1.91685
-1.62086
-1.31083
-0.986325
-0.64706
-0.292752
0.0767638
0.461562
0.861581
1.27655
1.70606
2.14943
2.60583
3.07407
3.55283
4.04041
4.53508
5.0347
5.53715
6.03991
6.54056
7.0364
7.52494
8.0037
8.47052
8.92336
9.36045
9.78026
10.1815
10.5632
10.9245
11.2651
11.5847
11.8833
12.1612
12.4186
12.6562
12.8746
13.0744
13.2566
13.422
13.5716
13.7064
13.8273
13.9354
14.0315
14.1166
14.1915
14.2571
14.3142
14.3635
14.4056
14.4412
14.4709
14.4953
14.5147
14.5298
14.5409
14.5485
14.553
14.5547
14.554
14.5512
14.5466
14.5401
14.5323
14.5187
14.5114
14.4527
-5.64964
-5.66075
-5.67705
-5.69085
-5.70157
-5.71045
-5.71814
-5.72503
-5.73145
-5.73773
-5.74408
-5.7507
-5.75774
-5.76532
-5.77352
-5.78241
-5.79203
-5.80243
-5.81362
-5.82563
-5.83845
-5.85208
-5.86651
-5.88172
-5.89769
-5.9144
-5.93181
-5.9499
-5.96863
-5.98797
-6.00788
-6.02834
-6.04931
-6.07076
-6.09267
-6.115
-6.13771
-6.16079
-6.18419
-6.20787
-6.2318
-6.25593
-6.28021
-6.30461
-6.32906
-6.3535
-6.37788
-6.40212
-6.42615
-6.4499
-6.47328
-6.4962
-6.51856
-6.54028
-6.56123
-6.58131
-6.60041
-6.6184
-6.63516
-6.65056
-6.66447
-6.67674
-6.68725
-6.69584
-6.70238
-6.70671
-6.7087
-6.7082
-6.70505
-6.69912
-6.69026
-6.67833
-6.66319
-6.6447
-6.62273
-6.59715
-6.56783
-6.53465
-6.49749
-6.45622
-6.41074
-6.36093
-6.30668
-6.24788
-6.18441
-6.11616
-6.043
-5.96479
-5.88136
-5.79267
-5.69853
-5.59875
-5.4931
-5.38137
-5.26333
-5.13875
-5.00735
-4.86885
-4.72295
-4.56928
-4.4075
-4.2372
-4.05801
-3.86952
-3.67132
-3.46294
-3.24393
-3.01378
-2.77198
-2.51801
-2.25136
-1.9715
-1.67793
-1.37018
-1.04784
-0.710547
-0.357998
0.0100243
0.39364
0.792801
1.20729
1.63669
2.08038
2.53752
3.00697
3.48741
3.97718
4.47448
4.9772
5.48312
5.98975
6.49451
6.99465
7.48751
7.97058
8.44155
8.89837
9.33919
9.76243
10.1668
10.5512
10.915
11.2577
11.5791
11.8792
12.1583
12.4167
12.655
12.8739
13.0742
13.2566
13.4222
13.5719
13.7067
13.8276
13.9356
14.0316
14.1165
14.1913
14.2568
14.3136
14.3627
14.4045
14.4399
14.4693
14.4933
14.5124
14.527
14.5377
14.5447
14.5484
14.5493
14.5475
14.5433
14.5369
14.5281
14.5171
14.4992
14.4872
14.4195
-5.66013
-5.67075
-5.6862
-5.69955
-5.7102
-5.71919
-5.72711
-5.7343
-5.74107
-5.74769
-5.7544
-5.76136
-5.76872
-5.77658
-5.78504
-5.79416
-5.80398
-5.81454
-5.82586
-5.83796
-5.85083
-5.86449
-5.87891
-5.8941
-5.91002
-5.92667
-5.94401
-5.96202
-5.98067
-5.99993
-6.01976
-6.04015
-6.06105
-6.08246
-6.10432
-6.12662
-6.14933
-6.17242
-6.19583
-6.21956
-6.24354
-6.26774
-6.29211
-6.31661
-6.34116
-6.36572
-6.39022
-6.41459
-6.43875
-6.46262
-6.48612
-6.50916
-6.53163
-6.55344
-6.57447
-6.59462
-6.61376
-6.63177
-6.64853
-6.66391
-6.67777
-6.68997
-6.70037
-6.70884
-6.71522
-6.71937
-6.72116
-6.72042
-6.71702
-6.71082
-6.70168
-6.68945
-6.67401
-6.65521
-6.63294
-6.60706
-6.57746
-6.54401
-6.50661
-6.46515
-6.41952
-6.36961
-6.31532
-6.25655
-6.19319
-6.12515
-6.05229
-5.97448
-5.89161
-5.80355
-5.71019
-5.61131
-5.50669
-5.39611
-5.27935
-5.15616
-5.0263
-4.88944
-4.7453
-4.59347
-4.43365
-4.26537
-4.08834
-3.90206
-3.70618
-3.50016
-3.28358
-3.05585
-2.81652
-2.56498
-2.30073
-2.02318
-1.73185
-1.42619
-1.10581
-0.770269
-0.419248
-0.0524742
0.330199
0.728751
1.14303
1.57262
2.01699
2.47525
2.9464
3.42898
3.92149
4.42193
4.92833
5.43824
5.94925
6.45855
6.9634
7.46091
7.94854
8.42385
8.88474
9.32928
9.75587
10.1632
10.5502
10.9162
11.2607
11.5835
11.8847
12.1646
12.4235
12.6621
12.8811
13.0813
13.2635
13.4288
13.5782
13.7126
13.833
13.9405
14.036
14.1205
14.1948
14.2597
14.3161
14.3647
14.406
14.4409
14.4698
14.4932
14.5117
14.5257
14.5357
14.5419
14.5449
14.5447
14.5417
14.5361
14.5278
14.5165
14.5024
14.4806
14.4643
14.3889
-5.67388
-5.68368
-5.69784
-5.71031
-5.7205
-5.72927
-5.73712
-5.74434
-5.7512
-5.75797
-5.76483
-5.77195
-5.77946
-5.78747
-5.79605
-5.80526
-5.81516
-5.82578
-5.83714
-5.84926
-5.86214
-5.87578
-5.89018
-5.90534
-5.92122
-5.93782
-5.95512
-5.97309
-5.9917
-6.01094
-6.03077
-6.05116
-6.07208
-6.09351
-6.11541
-6.13778
-6.16056
-6.18374
-6.20727
-6.23111
-6.25523
-6.27958
-6.3041
-6.32876
-6.35347
-6.3782
-6.40287
-6.4274
-6.45171
-6.47573
-6.49936
-6.52251
-6.54508
-6.56696
-6.58804
-6.60821
-6.62734
-6.64533
-6.66202
-6.6773
-6.69102
-6.70305
-6.71326
-6.72149
-6.72761
-6.73147
-6.73292
-6.73184
-6.72806
-6.72147
-6.71191
-6.69925
-6.68337
-6.66414
-6.64143
-6.61513
-6.58512
-6.55129
-6.51354
-6.47177
-6.42588
-6.37577
-6.32136
-6.26254
-6.19922
-6.13131
-6.0587
-5.98126
-5.89885
-5.81143
-5.71881
-5.62081
-5.51718
-5.40774
-5.29224
-5.17044
-5.04208
-4.90686
-4.76442
-4.61442
-4.45649
-4.29025
-4.1153
-3.93123
-3.73759
-3.53391
-3.31966
-3.09434
-2.85739
-2.60824
-2.34632
-2.07105
-1.78187
-1.47825
-1.15973
-0.825848
-0.476227
-0.11055
0.27136
0.669546
1.08387
1.51399
1.95937
2.41921
2.89244
3.37766
3.87331
4.37744
4.88793
5.40232
5.91806
6.43228
6.94208
7.44451
7.93684
8.41658
8.88154
9.32973
9.75951
10.1696
10.5589
10.9267
11.2727
11.5966
11.8985
12.1788
12.4378
12.6763
12.895
13.0946
13.2763
13.4409
13.5895
13.7231
13.8427
13.9494
14.0441
14.1278
14.2013
14.2655
14.3212
14.369
14.4097
14.4438
14.472
14.4947
14.5125
14.5257
14.5349
14.5403
14.5422
14.5409
14.5367
14.5295
14.5193
14.5056
14.4885
14.4629
14.4428
14.3609
-5.68985
-5.69861
-5.71115
-5.72242
-5.73184
-5.7401
-5.74759
-5.75459
-5.76131
-5.76799
-5.7748
-5.7819
-5.78939
-5.79738
-5.80594
-5.81514
-5.82501
-5.8356
-5.84693
-5.85901
-5.87185
-5.88546
-5.89983
-5.91495
-5.93081
-5.94739
-5.96468
-5.98264
-6.00126
-6.02052
-6.04039
-6.06084
-6.08184
-6.10338
-6.1254
-6.1479
-6.17083
-6.19417
-6.21787
-6.2419
-6.2662
-6.29074
-6.31546
-6.3403
-6.36521
-6.39012
-6.41495
-6.43964
-6.46409
-6.48823
-6.51195
-6.53517
-6.55777
-6.57966
-6.60071
-6.62082
-6.63985
-6.6577
-6.67421
-6.68927
-6.70274
-6.71448
-6.72435
-6.73222
-6.73793
-6.74135
-6.74234
-6.74076
-6.73646
-6.72933
-6.71921
-6.70599
-6.68953
-6.66973
-6.64646
-6.61961
-6.58908
-6.55476
-6.51655
-6.47438
-6.42814
-6.37776
-6.32314
-6.26421
-6.20087
-6.13305
-6.06064
-5.98352
-5.9016
-5.81475
-5.72287
-5.62573
-5.5231
-5.41479
-5.30055
-5.18016
-5.0533
-4.91971
-4.77898
-4.63083
-4.47481
-4.31062
-4.13778
-3.95595
-3.76459
-3.56327
-3.3514
-3.12852
-2.89396
-2.64723
-2.38762
-2.1146
-1.82753
-1.5259
-1.20915
-0.876816
-0.52843
-0.163652
0.217736
0.615827
1.03049
1.46149
1.90824
2.37004
2.84569
3.33395
3.8331
4.34132
4.85625
5.37552
5.89628
6.41567
6.93057
7.43802
7.93509
8.41923
8.88815
9.33982
9.77257
10.1851
10.5764
10.9458
11.2929
11.6174
11.9196
12.1998
12.4586
12.6965
12.9144
13.1132
13.2939
13.4574
13.6049
13.7374
13.8559
13.9615
14.0551
14.1377
14.2102
14.2734
14.3281
14.3751
14.4148
14.4481
14.4755
14.4974
14.5143
14.5267
14.5349
14.5393
14.5402
14.5378
14.5322
14.5233
14.5112
14.4952
14.4752
14.4462
14.4225
14.3352
-5.70706
-5.71463
-5.72536
-5.7352
-5.7436
-5.75109
-5.75798
-5.7645
-5.77085
-5.77722
-5.78378
-5.79066
-5.79797
-5.80579
-5.81421
-5.82328
-5.83304
-5.84353
-5.85477
-5.86678
-5.87956
-5.89312
-5.90744
-5.92253
-5.93836
-5.95493
-5.97222
-5.9902
-6.00886
-6.02818
-6.04813
-6.0687
-6.08983
-6.11152
-6.13371
-6.15639
-6.17952
-6.20306
-6.22695
-6.25118
-6.27567
-6.3004
-6.32529
-6.35031
-6.37537
-6.40042
-6.42537
-6.45014
-6.47465
-6.49882
-6.52253
-6.54571
-6.56823
-6.58999
-6.61088
-6.63079
-6.64957
-6.66712
-6.6833
-6.69799
-6.71104
-6.72232
-6.73169
-6.73902
-6.74416
-6.74699
-6.74735
-6.74511
-6.74015
-6.73232
-6.72151
-6.70759
-6.69043
-6.66994
-6.64599
-6.61849
-6.58733
-6.55243
-6.51369
-6.47104
-6.42439
-6.37367
-6.3188
-6.25972
-6.19634
-6.12859
-6.05637
-5.9796
-5.89813
-5.81193
-5.7208
-5.62456
-5.52297
-5.41584
-5.30293
-5.18398
-5.05871
-4.92677
-4.78786
-4.64157
-4.48757
-4.32547
-4.15486
-3.97529
-3.78629
-3.58735
-3.37794
-3.15747
-2.92536
-2.68098
-2.42368
-2.15283
-1.86783
-1.56807
-1.25299
-0.92203
-0.574701
-0.210618
0.170499
0.568756
0.984096
1.41625
1.8647
2.3287
2.80713
3.29868
3.8017
4.31424
4.83394
5.35828
5.88433
6.409
6.92907
7.44143
7.94312
8.43145
8.90409
9.35895
9.79435
10.209
10.6019
10.9725
11.3202
11.645
11.947
12.2268
12.4848
12.7217
12.9385
13.1361
13.3154
13.4776
13.6236
13.7546
13.8717
13.9759
14.0682
14.1496
14.2209
14.283
14.3366
14.3825
14.4213
14.4536
14.48
14.5009
14.5169
14.5284
14.5357
14.5391
14.5389
14.5352
14.5282
14.5178
14.5038
14.4854
14.4628
14.4306
14.4036
14.3118
-5.7246
-5.73091
-5.73979
-5.74805
-5.75524
-5.76174
-5.76779
-5.77359
-5.77933
-5.78518
-5.79129
-5.79777
-5.80474
-5.81227
-5.82043
-5.82928
-5.83884
-5.84916
-5.86026
-5.87214
-5.88481
-5.89828
-5.91253
-5.92757
-5.94337
-5.95994
-5.97724
-5.99527
-6.01399
-6.03341
-6.05347
-6.07416
-6.09543
-6.11728
-6.13964
-6.1625
-6.18579
-6.20949
-6.23354
-6.2579
-6.28251
-6.30734
-6.33233
-6.35741
-6.38252
-6.40758
-6.43251
-6.45722
-6.48164
-6.50567
-6.5292
-6.55215
-6.57441
-6.59586
-6.61639
-6.63589
-6.65424
-6.6713
-6.68695
-6.70107
-6.71351
-6.72415
-6.73284
-6.73946
-6.74386
-6.74592
-6.7455
-6.74246
-6.73668
-6.72803
-6.7164
-6.70166
-6.6837
-6.66242
-6.63771
-6.60947
-6.57763
-6.54209
-6.50277
-6.4596
-6.41252
-6.36145
-6.30634
-6.24711
-6.1837
-6.11604
-6.04408
-5.96767
-5.88677
-5.80123
-5.71094
-5.61567
-5.51521
-5.40934
-5.29785
-5.18042
-5.0568
-4.9266
-4.78955
-4.64521
-4.49329
-4.33333
-4.16499
-3.98772
-3.80113
-3.60459
-3.39764
-3.17959
-2.94989
-2.70783
-2.45278
-2.18404
-1.90102
-1.60302
-1.28947
-0.959732
-0.613283
-0.249691
0.131366
0.530016
0.94626
1.37978
1.83017
2.29657
2.77802
3.27305
3.7801
4.29702
4.82156
5.35097
5.88231
6.41223
6.93738
7.45442
7.96037
8.45251
8.92846
9.3861
9.82373
10.2401
10.6342
11.0053
11.3532
11.6778
11.9793
12.2582
12.515
12.7507
12.966
13.1619
13.3396
13.5001
13.6445
13.7738
13.8893
13.9919
14.0827
14.1627
14.2327
14.2935
14.3459
14.3907
14.4284
14.4597
14.4851
14.5051
14.5201
14.5306
14.5369
14.5393
14.538
14.5331
14.5248
14.5128
14.4969
14.4763
14.4511
14.4161
14.386
14.2906
-5.74246
-5.74756
-5.7546
-5.76121
-5.767
-5.77225
-5.77718
-5.78198
-5.78682
-5.79188
-5.79728
-5.80315
-5.80956
-5.81661
-5.82435
-5.83283
-5.84207
-5.85211
-5.86295
-5.87462
-5.8871
-5.90041
-5.91454
-5.92948
-5.94521
-5.96173
-5.97901
-5.99704
-6.01578
-6.03522
-6.05531
-6.07605
-6.09737
-6.11928
-6.1417
-6.16462
-6.18796
-6.2117
-6.23576
-6.26011
-6.28468
-6.30945
-6.33433
-6.35928
-6.3842
-6.40904
-6.43371
-6.45813
-6.4822
-6.50584
-6.52894
-6.55142
-6.57315
-6.59405
-6.61398
-6.63284
-6.6505
-6.66685
-6.68175
-6.69509
-6.70672
-6.71652
-6.72435
-6.73009
-6.73359
-6.73474
-6.73339
-6.72944
-6.72273
-6.71317
-6.70062
-6.685
-6.66618
-6.64407
-6.61856
-6.58957
-6.55705
-6.52086
-6.48099
-6.43732
-6.38986
-6.33848
-6.28319
-6.22388
-6.16053
-6.09308
-6.02144
-5.94554
-5.86526
-5.78053
-5.69117
-5.59698
-5.49775
-5.39326
-5.28325
-5.16745
-5.04553
-4.91717
-4.782
-4.6397
-4.48988
-4.33216
-4.16609
-3.99121
-3.80701
-3.61294
-3.40841
-3.19281
-2.96548
-2.72573
-2.47286
-2.20618
-1.92502
-1.62868
-1.31648
-0.987795
-0.642053
-0.278775
0.102365
0.501552
0.918777
1.35381
1.80617
2.27509
2.75952
3.25808
3.76902
4.29023
4.81937
5.35365
5.88997
6.42486
6.95476
7.47614
7.98588
8.48131
8.96002
9.41992
9.85932
10.2769
10.6717
11.0431
11.3907
11.7146
12.0151
12.2927
12.5481
12.7821
12.9956
13.1897
13.3655
13.5241