/*--------------------------------*- C++ -*----------------------------------*\
  =========                 |
  \\      /  F ield         | OpenFOAM: The Open Source CFD Toolbox
   \\    /   O peration     | Website:  https://openfoam.org
    \\  /    A nd           | Version:  8
     \\/     M anipulation  |
\*---------------------------------------------------------------------------*/
FoamFile
{
    version     2.0;
    format      ascii;
    class       surfaceScalarField;
    location    "160";
    object      phi;
}
// * * * * * * * * * * * * * * * * * * * * * * * * * * * * * * * * * * * * * //

dimensions      [0 3 -1 0 0 0 0];

internalField   nonuniform List<scalar> 
24170
(
3.12901e-06
5.93998e-08
3.04661e-06
8.23895e-08
2.97351e-06
7.31019e-08
2.90485e-06
6.86496e-08
2.8405e-06
6.435e-08
2.78314e-06
5.73568e-08
2.73378e-06
4.93571e-08
2.69178e-06
4.19941e-08
2.65605e-06
3.57284e-08
2.62553e-06
3.05177e-08
2.59923e-06
2.62941e-08
2.5763e-06
2.29216e-08
2.55607e-06
2.0231e-08
2.5379e-06
1.81658e-08
2.52137e-06
1.65323e-08
2.50516e-06
1.61993e-08
2.48971e-06
1.54481e-08
2.3604e-08
2.46611e-06
3.45306e-06
2.35859e-08
3.457e-06
7.84467e-08
3.45053e-06
7.95686e-08
3.43907e-06
8.01115e-08
3.42427e-06
7.91391e-08
3.40701e-06
7.46159e-08
3.38777e-06
6.85985e-08
3.36721e-06
6.25479e-08
3.34602e-06
5.69114e-08
3.32479e-06
5.17445e-08
3.304e-06
4.70848e-08
3.28391e-06
4.30039e-08
3.26472e-06
3.94169e-08
3.24646e-06
3.64292e-08
3.22921e-06
3.37807e-08
3.21289e-06
3.25104e-08
3.19791e-06
3.04312e-08
3.45332e-08
3.18698e-06
3.66816e-06
1.79464e-08
3.67919e-06
6.7408e-08
3.68541e-06
7.33476e-08
3.68943e-06
7.60867e-08
3.69102e-06
7.75532e-08
3.69003e-06
7.5598e-08
3.68687e-06
7.17559e-08
3.682e-06
6.74164e-08
3.67581e-06
6.30988e-08
3.66862e-06
5.89299e-08
3.66071e-06
5.49919e-08
3.65232e-06
5.13906e-08
3.64363e-06
4.81069e-08
3.63479e-06
4.52666e-08
3.62584e-06
4.27286e-08
3.61721e-06
4.11413e-08
3.60822e-06
3.94212e-08
4.03836e-08
3.60236e-06
3.92585e-06
1.74886e-08
3.93591e-06
5.73424e-08
3.94255e-06
6.67036e-08
3.94808e-06
7.05569e-08
3.95248e-06
7.31526e-08
3.9554e-06
7.26682e-08
3.95705e-06
7.01088e-08
3.95765e-06
6.68121e-08
3.9574e-06
6.33487e-08
3.95643e-06
5.98901e-08
3.95489e-06
5.65305e-08
3.95289e-06
5.33895e-08
3.95051e-06
5.04805e-08
3.94787e-06
4.79128e-08
3.94497e-06
4.56262e-08
3.94214e-06
4.39646e-08
3.9391e-06
4.24604e-08
4.1981e-08
3.9375e-06
4.2082e-06
1.64182e-08
4.21597e-06
4.95636e-08
4.22166e-06
6.10148e-08
4.22675e-06
6.54641e-08
4.23148e-06
6.84204e-08
4.23543e-06
6.8717e-08
4.23857e-06
6.6966e-08
4.24101e-06
6.4367e-08
4.24286e-06
6.14963e-08
4.24421e-06
5.85444e-08
4.24512e-06
5.56134e-08
4.24569e-06
5.28212e-08
4.24596e-06
5.02065e-08
4.24602e-06
4.78535e-08
4.2459e-06
4.57462e-08
4.24581e-06
4.40492e-08
4.24573e-06
4.25455e-08
4.14056e-08
4.2463e-06
4.51071e-06
1.47974e-08
4.51687e-06
4.33969e-08
4.52211e-06
5.57758e-08
4.52691e-06
6.06603e-08
4.5316e-06
6.37247e-08
4.53583e-06
6.44895e-08
4.53947e-06
6.33186e-08
4.5426e-06
6.12382e-08
4.54528e-06
5.88131e-08
4.54758e-06
5.62464e-08
4.54954e-06
5.365e-08
4.55122e-06
5.11338e-08
4.55268e-06
4.87523e-08
4.55396e-06
4.65672e-08
4.55512e-06
4.45817e-08
4.55631e-06
4.28606e-08
4.55757e-06
4.12843e-08
3.97967e-08
4.55918e-06
4.83433e-06
1.31892e-08
4.83962e-06
3.81059e-08
4.84473e-06
5.06613e-08
4.84942e-06
5.59707e-08
4.85403e-06
5.91095e-08
4.85832e-06
6.01943e-08
4.86217e-06
5.94736e-08
4.8656e-06
5.78063e-08
4.86867e-06
5.57375e-08
4.87143e-06
5.34816e-08
4.87392e-06
5.11583e-08
4.87619e-06
4.88697e-08
4.87826e-06
4.66775e-08
4.8802e-06
4.46275e-08
4.88205e-06
4.27276e-08
4.88392e-06
4.09915e-08
4.88586e-06
3.93389e-08
3.76639e-08
4.88799e-06
5.18104e-06
1.1725e-08
5.18574e-06
3.34064e-08
5.19073e-06
4.56697e-08
5.19537e-06
5.13335e-08
5.19993e-06
5.45419e-08
5.20427e-06
5.58576e-08
5.20823e-06
5.55048e-08
5.21185e-06
5.41882e-08
5.21516e-06
5.24229e-08
5.21821e-06
5.04336e-08
5.22102e-06
4.83442e-08
5.22364e-06
4.62516e-08
5.22609e-06
4.42188e-08
5.22844e-06
4.22822e-08
5.23071e-06
4.04489e-08
5.23299e-06
3.87099e-08
5.23533e-06
3.70046e-08
3.52395e-08
5.23775e-06
5.55269e-06
1.03718e-08
5.55688e-06
2.9217e-08
5.56167e-06
4.08735e-08
5.56626e-06
4.67397e-08
5.57081e-06
4.9996e-08
5.57519e-06
5.14753e-08
5.57926e-06
5.14271e-08
5.58303e-06
5.04196e-08
5.58653e-06
4.89246e-08
5.58978e-06
4.71738e-08
5.59283e-06
4.52938e-08
5.59571e-06
4.33771e-08
5.59844e-06
4.14853e-08
5.60107e-06
3.96502e-08
5.60364e-06
3.78775e-08
5.60619e-06
3.6152e-08
5.60877e-06
3.44269e-08
3.26381e-08
5.61137e-06
5.95104e-06
9.11102e-09
5.95477e-06
2.54763e-08
5.95933e-06
3.63112e-08
5.96387e-06
4.21988e-08
5.9684e-06
4.54671e-08
5.97282e-06
4.70528e-08
5.97699e-06
4.72497e-08
5.9809e-06
4.65133e-08
5.98456e-06
4.52627e-08
5.988e-06
4.37302e-08
5.99125e-06
4.20431e-08
5.99433e-06
4.02899e-08
5.99729e-06
3.85297e-08
6.00014e-06
3.67926e-08
6.00294e-06
3.50846e-08
6.00569e-06
3.33924e-08
6.00844e-06
3.16823e-08
2.99182e-08
6.01116e-06
6.37798e-06
7.94212e-09
6.38133e-06
2.21197e-08
6.38565e-06
3.19933e-08
6.39012e-06
3.77274e-08
6.39462e-06
4.09604e-08
6.39907e-06
4.26016e-08
6.40334e-06
4.29843e-08
6.40737e-06
4.24794e-08
6.41118e-06
4.14486e-08
6.41479e-06
4.01164e-08
6.41822e-06
3.86095e-08
6.4215e-06
3.70118e-08
6.42465e-06
3.53798e-08
6.4277e-06
3.37433e-08
6.43067e-06
3.21105e-08
6.43358e-06
3.04736e-08
6.43645e-06
2.88109e-08
2.71089e-08
6.43926e-06
5.74176e-06
7.01779e-09
5.74433e-06
1.95416e-08
5.74779e-06
2.8532e-08
5.75151e-06
3.40104e-08
5.75529e-06
3.71714e-08
5.75907e-06
3.88253e-08
5.76273e-06
3.93198e-08
5.76623e-06
3.89775e-08
5.76956e-06
3.81131e-08
5.77274e-06
3.69377e-08
5.77577e-06
3.55743e-08
5.77868e-06
3.4104e-08
5.78148e-06
3.25806e-08
5.78418e-06
3.10343e-08
5.78682e-06
2.94757e-08
5.78939e-06
2.79028e-08
5.79189e-06
2.63024e-08
2.46767e-08
5.79433e-06
6.99914e-06
6.03615e-09
7.00186e-06
1.68135e-08
7.00562e-06
2.47761e-08
7.00977e-06
2.98547e-08
7.01407e-06
3.28649e-08
7.01841e-06
3.44869e-08
7.02266e-06
3.50633e-08
7.02677e-06
3.48701e-08
7.03071e-06
3.41723e-08
7.03448e-06
3.31608e-08
7.0381e-06
3.19531e-08
7.04158e-06
3.06251e-08
7.04493e-06
2.92282e-08
7.04817e-06
2.77926e-08
7.05131e-06
2.63327e-08
7.05436e-06
2.48519e-08
7.05732e-06
2.33458e-08
2.18279e-08
7.06016e-06
8.53188e-06
5.00489e-09
8.53473e-06
1.39622e-08
8.53875e-06
2.07526e-08
8.54333e-06
2.52666e-08
8.54817e-06
2.80214e-08
8.55311e-06
2.95473e-08
8.55801e-06
3.01585e-08
8.5628e-06
3.00866e-08
8.56742e-06
2.95458e-08
8.57188e-06
2.87005e-08
8.57617e-06
2.76582e-08
8.58031e-06
2.64887e-08
8.58429e-06
2.52396e-08
8.58814e-06
2.39411e-08
8.59186e-06
2.26105e-08
8.59546e-06
2.12569e-08
8.59892e-06
1.98823e-08
1.85082e-08
8.60224e-06
1.04003e-05
3.93284e-09
1.04032e-05
1.10066e-08
1.04075e-05
1.64821e-08
1.04125e-05
2.02533e-08
1.04179e-05
2.26224e-08
1.04235e-05
2.39672e-08
1.04291e-05
2.45487e-08
1.04346e-05
2.45548e-08
1.044e-05
2.41499e-08
1.04453e-05
2.34667e-08
1.04503e-05
2.2597e-08
1.04552e-05
2.16027e-08
1.04599e-05
2.0526e-08
1.04645e-05
1.9396e-08
1.04688e-05
1.82313e-08
1.0473e-05
1.70451e-08
1.04771e-05
1.58435e-08
1.46521e-08
1.04809e-05
1.26779e-05
2.82468e-09
1.2681e-05
7.94017e-09
1.26855e-05
1.19616e-08
1.26909e-05
1.48069e-08
1.26969e-05
1.66382e-08
1.27032e-05
1.76947e-08
1.27096e-05
1.81668e-08
1.27159e-05
1.81938e-08
1.27222e-05
1.78929e-08
1.27283e-05
1.73608e-08
1.27342e-05
1.66691e-08
1.27399e-05
1.58673e-08
1.27455e-05
1.49908e-08
1.27508e-05
1.40646e-08
1.27559e-05
1.31071e-08
1.27608e-05
1.2132e-08
1.27655e-05
1.11477e-08
1.01793e-08
1.277e-05
1.54543e-05
1.66903e-09
1.54576e-05
4.71565e-09
1.54624e-05
7.13163e-09
1.54683e-05
8.86515e-09
1.5475e-05
9.99167e-09
1.5482e-05
1.06363e-08
1.54893e-05
1.09087e-08
1.54966e-05
1.08925e-08
1.55038e-05
1.06579e-08
1.55109e-05
1.02636e-08
1.55178e-05
9.75531e-09
1.55245e-05
9.16615e-09
1.5531e-05
8.52089e-09
1.55372e-05
7.83797e-09
1.55432e-05
7.13197e-09
1.55489e-05
6.41451e-09
1.55543e-05
5.69319e-09
4.9903e-09
1.55595e-05
1.88389e-05
4.25225e-10
1.88424e-05
1.20714e-09
1.88477e-05
1.81622e-09
1.88543e-05
2.23422e-09
1.88618e-05
2.48214e-09
1.88699e-05
2.58759e-09
1.88782e-05
2.5725e-09
1.88866e-05
2.45633e-09
1.8895e-05
2.25885e-09
1.89033e-05
1.99763e-09
1.89114e-05
1.68734e-09
1.89192e-05
1.33972e-09
1.89267e-05
9.64975e-10
1.8934e-05
5.71594e-10
1.8941e-05
1.67156e-10
1.89476e-05
-2.41507e-10
1.8954e-05
-6.50074e-10
-1.04121e-09
1.896e-05
2.29648e-05
-1.00885e-09
2.29688e-05
-2.87568e-09
2.29751e-05
-4.40593e-09
2.29829e-05
-5.56449e-09
2.29917e-05
-6.37072e-09
2.30012e-05
-6.91133e-09
2.30111e-05
-7.27345e-09
2.3021e-05
-7.5121e-09
2.30309e-05
-7.66417e-09
2.30407e-05
-7.76132e-09
2.30502e-05
-7.82776e-09
2.30594e-05
-7.87831e-09
2.30683e-05
-7.92134e-09
2.30768e-05
-7.96126e-09
2.3085e-05
-8.00038e-09
2.30928e-05
-8.03851e-09
2.31002e-05
-8.07629e-09
-8.10261e-09
2.31073e-05
1.68118e-05
-2.13552e-09
1.6815e-05
-6.05668e-09
1.68199e-05
-9.25241e-09
1.68259e-05
-1.15845e-08
1.68326e-05
-1.31117e-08
1.68398e-05
-1.40616e-08
1.68471e-05
-1.46223e-08
1.68545e-05
-1.4897e-08
1.68618e-05
-1.49656e-08
1.68689e-05
-1.48998e-08
1.68758e-05
-1.47531e-08
1.68825e-05
-1.45581e-08
1.68889e-05
-1.43363e-08
1.68951e-05
-1.41009e-08
1.69009e-05
-1.38612e-08
1.69065e-05
-1.3621e-08
1.69118e-05
-1.3384e-08
-1.31429e-08
1.69168e-05
1.46356e-05
-3.21764e-09
1.46387e-05
-9.15356e-09
1.46435e-05
-1.39825e-08
1.46492e-05
-1.73499e-08
1.46555e-05
-1.94259e-08
1.46621e-05
-2.06605e-08
1.46688e-05
-2.13236e-08
1.46755e-05
-2.15517e-08
1.4682e-05
-2.14757e-08
1.46883e-05
-2.12124e-08
1.46944e-05
-2.08373e-08
1.47002e-05
-2.03956e-08
1.47058e-05
-1.99172e-08
1.47111e-05
-1.94234e-08
1.47162e-05
-1.89272e-08
1.4721e-05
-1.84361e-08
1.47256e-05
-1.79546e-08
-1.74786e-08
1.47299e-05
1.27411e-05
-4.23083e-09
1.27443e-05
-1.22904e-08
1.27491e-05
-1.88279e-08
1.27548e-05
-2.30157e-08
1.27608e-05
-2.54313e-08
1.2767e-05
-2.68483e-08
1.27732e-05
-2.75298e-08
1.27792e-05
-2.7625e-08
1.27851e-05
-2.73413e-08
1.27907e-05
-2.6844e-08
1.27961e-05
-2.62226e-08
1.28013e-05
-2.55292e-08
1.28061e-05
-2.48003e-08
1.28108e-05
-2.40619e-08
1.28152e-05
-2.33291e-08
1.28193e-05
-2.26102e-08
1.28233e-05
-2.19095e-08
-2.12244e-08
1.2827e-05
1.10918e-05
-5.07764e-09
1.1095e-05
-1.55206e-08
1.11001e-05
-2.39667e-08
1.11058e-05
-2.86578e-08
1.11115e-05
-3.11883e-08
1.11174e-05
-3.26876e-08
1.11231e-05
-3.32869e-08
1.11287e-05
-3.31684e-08
1.1134e-05
-3.26349e-08
1.1139e-05
-3.18837e-08
1.11438e-05
-3.10066e-08
1.11483e-05
-3.00602e-08
1.11526e-05
-2.90879e-08
1.11566e-05
-2.81177e-08
1.11605e-05
-2.71653e-08
1.11641e-05
-2.62382e-08
1.11675e-05
-2.53405e-08
-2.44694e-08
1.11708e-05
9.65582e-06
-5.68735e-09
9.65925e-06
-1.89518e-08
9.66461e-06
-2.93236e-08
9.67012e-06
-3.41696e-08
9.67569e-06
-3.67649e-08
9.68127e-06
-3.82681e-08
9.68662e-06
-3.86435e-08
9.69167e-06
-3.82223e-08
9.69645e-06
-3.74076e-08
9.70095e-06
-3.63935e-08
9.7052e-06
-3.52589e-08
9.7092e-06
-3.40633e-08
9.71297e-06
-3.28544e-08
9.71651e-06
-3.16614e-08
9.71984e-06
-3.04994e-08
9.72298e-06
-2.93754e-08
9.72593e-06
-2.82914e-08
-2.72433e-08
9.7287e-06
8.40532e-06
-5.66016e-09
8.40964e-06
-2.3273e-08
8.41489e-06
-3.45683e-08
8.41992e-06
-3.921e-08
8.4253e-06
-4.21462e-08
8.43073e-06
-4.36939e-08
8.43583e-06
-4.37489e-08
8.44056e-06
-4.29499e-08
8.44495e-06
-4.17997e-08
8.44903e-06
-4.04745e-08
8.45281e-06
-3.90439e-08
8.45631e-06
-3.75702e-08
8.45956e-06
-3.61033e-08
8.46257e-06
-3.46705e-08
8.46535e-06
-3.3287e-08
8.46794e-06
-3.19588e-08
8.47033e-06
-3.06878e-08
-2.94704e-08
8.47256e-06
7.31455e-06
-2.92428e-09
7.32119e-06
-2.99217e-08
7.32675e-06
-4.01278e-08
7.33171e-06
-4.41724e-08
7.33712e-06
-4.75569e-08
7.34246e-06
-4.90298e-08
7.34735e-06
-4.86434e-08
7.35178e-06
-4.73809e-08
7.35577e-06
-4.57969e-08
7.35935e-06
-4.40502e-08
7.36252e-06
-4.22211e-08
7.36533e-06
-4.03822e-08
7.36781e-06
-3.85865e-08
7.37e-06
-3.68577e-08
7.37192e-06
-3.52112e-08
7.37361e-06
-3.36494e-08
7.37509e-06
-3.21728e-08
-3.07717e-08
7.37639e-06
6.36245e-06
4.69002e-09
6.3719e-06
-3.9368e-08
6.37933e-06
-4.75621e-08
6.38598e-06
-5.08223e-08
6.39227e-06
-5.38501e-08
6.39759e-06
-5.43553e-08
6.4019e-06
-5.29522e-08
6.40539e-06
-5.08767e-08
6.40821e-06
-4.86129e-08
6.41041e-06
-4.6252e-08
6.41206e-06
-4.38709e-08
6.41322e-06
-4.15471e-08
6.41396e-06
-3.93312e-08
6.41435e-06
-3.72413e-08
6.41442e-06
-3.5291e-08
6.41425e-06
-3.34766e-08
6.41387e-06
-3.17988e-08
-3.02374e-08
6.41334e-06
5.5412e-06
8.95108e-09
5.55033e-06
-4.8495e-08
5.55835e-06
-5.55862e-08
5.56606e-06
-5.85323e-08
5.57253e-06
-6.03211e-08
5.57686e-06
-5.86907e-08
5.57911e-06
-5.52056e-08
5.57968e-06
-5.14491e-08
5.57894e-06
-4.78733e-08
5.57717e-06
-4.44815e-08
5.57459e-06
-4.12925e-08
5.57139e-06
-3.83492e-08
5.56772e-06
-3.56595e-08
5.56369e-06
-3.32152e-08
5.55941e-06
-3.10133e-08
5.55497e-06
-2.90367e-08
5.55046e-06
-2.72869e-08
-2.5715e-08
5.54593e-06
4.86004e-06
-2.34857e-08
4.86539e-06
-5.38403e-08
4.86524e-06
-5.54456e-08
4.86218e-06
-5.54693e-08
4.85701e-06
-5.51587e-08
4.84952e-06
-5.11993e-08
4.83983e-06
-4.55198e-08
4.82845e-06
-4.00673e-08
4.81588e-06
-3.53123e-08
4.80262e-06
-3.12164e-08
4.78903e-06
-2.77086e-08
4.77541e-06
-2.4726e-08
4.76194e-06
-2.21905e-08
4.74875e-06
-2.00313e-08
4.73594e-06
-1.8202e-08
4.72357e-06
-1.66693e-08
4.71175e-06
-1.54713e-08
-1.51272e-08
4.70116e-06
4.17919e-06
4.12535e-06
4.0699e-06
4.01443e-06
3.95928e-06
3.90808e-06
3.86256e-06
3.82249e-06
3.78718e-06
3.75596e-06
3.72825e-06
3.70352e-06
3.68133e-06
3.6613e-06
3.6431e-06
3.62643e-06
3.61096e-06
3.59583e-06
1.84101e-08
-1.84637e-08
3.35405e-08
-1.51849e-08
4.08803e-08
-7.40396e-09
4.03613e-08
4.8488e-10
3.30414e-08
7.26329e-09
2.04676e-08
1.25475e-08
3.97143e-09
1.64385e-08
-1.52809e-08
1.92317e-08
-3.65747e-08
2.12397e-08
-5.93044e-08
2.27114e-08
-8.31891e-08
2.38356e-08
-1.07962e-07
2.47485e-08
-1.33531e-07
2.55238e-08
-1.59684e-07
2.61195e-08
-1.86215e-07
2.64889e-08
-2.12865e-07
2.66126e-08
-2.39725e-07
2.68214e-08
-2.67462e-07
2.77076e-08
-2.96752e-07
2.92559e-08
-3.28215e-07
3.14459e-08
-3.62356e-07
3.41064e-08
-4.00961e-07
3.85907e-08
-4.38465e-07
3.74556e-08
-4.70426e-07
3.19389e-08
-5.06642e-07
3.61599e-08
-5.46819e-07
4.0146e-08
-5.8478e-07
3.7908e-08
-6.32275e-07
4.74653e-08
-6.81997e-07
4.96614e-08
-7.21089e-07
3.90502e-08
-7.62219e-07
4.10651e-08
-8.04984e-07
4.27204e-08
-8.48133e-07
4.30878e-08
-8.91541e-07
4.3361e-08
-9.35089e-07
4.34884e-08
-9.78636e-07
4.34989e-08
-1.02211e-06
4.34191e-08
-1.06544e-06
4.3284e-08
-1.1086e-06
4.31092e-08
-1.15156e-06
4.29104e-08
-1.1943e-06
4.26952e-08
-1.23681e-06
4.24735e-08
-1.2791e-06
4.22481e-08
-1.32116e-06
4.20239e-08
-1.363e-06
4.18005e-08
-1.40462e-06
4.15794e-08
-1.44601e-06
4.13591e-08
-1.48719e-06
4.11391e-08
-1.52814e-06
4.09169e-08
-1.56888e-06
4.06911e-08
-1.60937e-06
4.04593e-08
-1.64964e-06
4.02189e-08
-1.68965e-06
3.99681e-08
-1.72941e-06
3.97046e-08
-1.76888e-06
3.9427e-08
-1.80807e-06
3.91319e-08
-1.84694e-06
3.88188e-08
-1.88549e-06
3.84851e-08
-1.92367e-06
3.81308e-08
-1.96149e-06
3.77524e-08
-1.99889e-06
3.7351e-08
-2.03589e-06
3.6924e-08
-2.0724e-06
3.64731e-08
-2.10846e-06
3.59944e-08
-2.144e-06
3.54908e-08
-2.17902e-06
3.4958e-08
-2.21346e-06
3.44004e-08
-2.24734e-06
3.38136e-08
-2.28057e-06
3.32037e-08
-2.3132e-06
3.25657e-08
-2.34514e-06
3.19067e-08
-2.37642e-06
3.12209e-08
-2.40696e-06
3.05158e-08
-2.43681e-06
2.97839e-08
-2.46587e-06
2.90349e-08
-2.4942e-06
2.82603e-08
-2.52171e-06
2.74706e-08
-2.54845e-06
2.66584e-08
-2.57431e-06
2.58342e-08
-2.59937e-06
2.49857e-08
-2.62353e-06
2.41248e-08
-2.64684e-06
2.324e-08
-2.66921e-06
2.23437e-08
-2.6907e-06
2.14185e-08
-2.7112e-06
2.04794e-08
-2.73078e-06
1.95122e-08
-2.74932e-06
1.8535e-08
-2.76686e-06
1.75288e-08
-2.78331e-06
1.65006e-08
-2.79863e-06
1.54449e-08
-2.81286e-06
1.43323e-08
-2.82595e-06
1.31569e-08
-2.8378e-06
1.19082e-08
-2.84833e-06
1.05805e-08
-2.85745e-06
9.15922e-09
-2.86503e-06
7.62788e-09
-2.87096e-06
5.9605e-09
-2.87507e-06
4.13641e-09
-2.87723e-06
2.17207e-09
-2.87738e-06
1.53337e-10
-2.87563e-06
-1.77522e-09
-2.87207e-06
-3.63255e-09
-2.86663e-06
-5.53417e-09
-2.85925e-06
-7.5301e-09
-2.8498e-06
-9.61595e-09
-2.83816e-06
-1.18177e-08
-2.82419e-06
-1.41173e-08
-2.8078e-06
-1.65457e-08
-2.78883e-06
-1.9084e-08
-2.76717e-06
-2.17663e-08
-2.74267e-06
-2.45691e-08
-2.71521e-06
-2.75258e-08
-2.68462e-06
-3.06082e-08
-2.65079e-06
-3.38469e-08
-2.61355e-06
-3.72089e-08
-2.57279e-06
-4.07211e-08
-2.52836e-06
-4.43494e-08
-2.48015e-06
-4.81141e-08
-2.42802e-06
-5.19771e-08
-2.37192e-06
-5.59461e-08
-2.31178e-06
-5.99851e-08
-2.24756e-06
-6.40888e-08
-2.17919e-06
-6.82164e-08
-2.10666e-06
-7.23571e-08
-2.02996e-06
-7.64743e-08
-1.94911e-06
-8.05923e-08
-1.86421e-06
-8.46136e-08
-1.77541e-06
-8.84853e-08
-1.68288e-06
-9.22047e-08
-1.58683e-06
-9.57229e-08
-1.4875e-06
-9.90315e-08
-1.38515e-06
-1.02059e-07
-1.28011e-06
-1.04783e-07
-1.17273e-06
-1.07153e-07
-1.06339e-06
-1.09161e-07
-9.52468e-07
-1.10768e-07
-8.40396e-07
-1.11991e-07
-7.27571e-07
-1.1281e-07
-6.14429e-07
-1.13254e-07
-5.01303e-07
-1.13338e-07
-3.88585e-07
-1.13002e-07
-2.76589e-07
-1.1233e-07
-1.65252e-07
-1.1169e-07
-5.43518e-08
-1.11279e-07
5.6413e-08
-1.11142e-07
1.65855e-07
-1.09813e-07
2.72294e-07
-1.06791e-07
3.75099e-07
-1.03148e-07
4.73953e-07
-9.91776e-08
5.6865e-07
-9.50099e-08
6.59088e-07
-9.07339e-08
7.45205e-07
-8.64025e-08
8.26998e-07
-8.20627e-08
9.04486e-07
-7.77459e-08
9.77726e-07
-7.34845e-08
1.04679e-06
-6.9299e-08
1.11179e-06
-6.52123e-08
1.17283e-06
-6.12404e-08
1.23004e-06
-5.74014e-08
1.28357e-06
-5.3702e-08
1.33356e-06
-5.01504e-08
1.38017e-06
-4.67492e-08
1.42354e-06
-4.35047e-08
1.46383e-06
-4.0414e-08
1.5012e-06
-3.74794e-08
1.53581e-06
-3.46977e-08
1.56779e-06
-3.20654e-08
1.59729e-06
-2.95752e-08
1.62444e-06
-2.7218e-08
1.64936e-06
-2.49776e-08
1.67213e-06
-2.28306e-08
1.69282e-06
-2.07354e-08
1.71139e-06
-1.86213e-08
1.72771e-06
-1.63643e-08
1.74136e-06
-1.37001e-08
1.75145e-06
-1.01203e-08
1.75505e-06
-3.63515e-09
1.74585e-06
9.16823e-09
1.70854e-06
3.72857e-08
9.17767e-08
1.61674e-06
8.91005e-09
-2.74208e-08
9.10361e-09
-1.54221e-08
4.07087e-09
-2.40722e-09
-4.69428e-09
9.22892e-09
-1.6779e-08
1.93199e-08
-3.20491e-08
2.78016e-08
-5.03609e-08
3.47235e-08
-7.14111e-08
4.02685e-08
-9.48945e-08
4.46971e-08
-1.20479e-07
4.82817e-08
-1.47932e-07
5.12634e-08
-1.77033e-07
5.38314e-08
-2.07655e-07
5.61205e-08
-2.39791e-07
5.82325e-08
-2.73588e-07
6.02601e-08
-3.09292e-07
6.22918e-08
-3.46992e-07
6.4497e-08
-3.86487e-07
6.71818e-08
-4.27711e-07
7.04576e-08
-4.70373e-07
7.40929e-08
-5.13871e-07
7.75813e-08
-5.55698e-07
8.0403e-08
-5.99832e-07
8.1565e-08
-6.49304e-07
8.1395e-08
-6.95875e-07
8.27038e-08
-7.40155e-07
8.44059e-08
-7.87864e-07
8.55885e-08
-8.2827e-07
8.78497e-08
-8.67637e-07
8.89985e-08
-9.15362e-07
8.67499e-08
-9.60477e-07
8.61495e-08
-1.00383e-06
8.60451e-08
-1.04655e-06
8.57848e-08
-1.08864e-06
8.54145e-08
-1.13017e-06
8.49901e-08
-1.17121e-06
8.45192e-08
-1.21183e-06
8.4008e-08
-1.25205e-06
8.34697e-08
-1.29188e-06
8.29158e-08
-1.33135e-06
8.2357e-08
-1.37048e-06
8.1799e-08
-1.40928e-06
8.12468e-08
-1.44776e-06
8.07021e-08
-1.48592e-06
8.01658e-08
-1.52378e-06
7.96363e-08
-1.56133e-06
7.9112e-08
-1.59858e-06
7.85893e-08
-1.63553e-06
7.80651e-08
-1.67217e-06
7.7535e-08
-1.7085e-06
7.69952e-08
-1.74451e-06
7.64409e-08
-1.78018e-06
7.58683e-08
-1.81551e-06
7.52733e-08
-1.85049e-06
7.46523e-08
-1.8851e-06
7.40013e-08
-1.91932e-06
7.33172e-08
-1.95313e-06
7.25969e-08
-1.98652e-06
7.18381e-08
-2.01946e-06
7.10379e-08
-2.05194e-06
7.01945e-08
-2.08393e-06
6.93066e-08
-2.11542e-06
6.83727e-08
-2.14637e-06
6.73921e-08
-2.17678e-06
6.63634e-08
-2.20661e-06
6.52867e-08
-2.23585e-06
6.41611e-08
-2.26447e-06
6.29878e-08
-2.29245e-06
6.17667e-08
-2.31978e-06
6.04995e-08
-2.34643e-06
5.91864e-08
-2.37238e-06
5.78297e-08
-2.39762e-06
5.64288e-08
-2.42212e-06
5.49865e-08
-2.44586e-06
5.3502e-08
-2.46883e-06
5.19782e-08
-2.49103e-06
5.04141e-08
-2.5124e-06
4.88143e-08
-2.53296e-06
4.71773e-08
-2.55266e-06
4.55061e-08
-2.57151e-06
4.37972e-08
-2.58947e-06
4.20544e-08
-2.60653e-06
4.0273e-08
-2.62267e-06
3.84552e-08
-2.63788e-06
3.6594e-08
-2.65212e-06
3.46926e-08
-2.66538e-06
3.27446e-08
-2.67762e-06
3.07524e-08
-2.6888e-06
2.87047e-08
-2.69886e-06
2.6602e-08
-2.70777e-06
2.44219e-08
-2.71552e-06
2.21501e-08
-2.7221e-06
1.97713e-08
-2.72743e-06
1.7273e-08
-2.73149e-06
1.46574e-08
-2.73422e-06
1.19128e-08
-2.73562e-06
9.04383e-09
-2.73569e-06
6.04415e-09
-2.73447e-06
2.93155e-09
-2.73202e-06
-2.83214e-10
-2.72829e-06
-3.59007e-09
-2.72306e-06
-7.03378e-09
-2.7161e-06
-1.06445e-08
-2.70729e-06
-1.4441e-08
-2.69649e-06
-1.84348e-08
-2.68359e-06
-2.26353e-08
-2.66847e-06
-2.7052e-08
-2.65101e-06
-3.16916e-08
-2.63108e-06
-3.65699e-08
-2.60855e-06
-4.1695e-08
-2.58329e-06
-4.7084e-08
-2.55518e-06
-5.27406e-08
-2.52405e-06
-5.86787e-08
-2.48979e-06
-6.48948e-08
-2.45224e-06
-7.13979e-08
-2.41127e-06
-7.81761e-08
-2.36672e-06
-8.5232e-08
-2.31848e-06
-9.25461e-08
-2.26641e-06
-1.0011e-07
-2.21041e-06
-1.07895e-07
-2.15038e-06
-1.1588e-07
-2.08626e-06
-1.24023e-07
-2.01798e-06
-1.3229e-07
-1.94549e-06
-1.4062e-07
-1.86878e-06
-1.48971e-07
-1.78784e-06
-1.57286e-07
-1.70275e-06
-1.65536e-07
-1.61361e-06
-1.73588e-07
-1.52055e-06
-1.81367e-07
-1.42379e-06
-1.88783e-07
-1.32357e-06
-1.95773e-07
-1.22016e-06
-2.0228e-07
-1.11387e-06
-2.08194e-07
-1.00508e-06
-2.13442e-07
-8.94173e-07
-2.17952e-07
-7.81565e-07
-2.2168e-07
-6.67692e-07
-2.24582e-07
-5.52999e-07
-2.26649e-07
-4.37941e-07
-2.27889e-07
-3.22951e-07
-2.28311e-07
-2.08422e-07
-2.27992e-07
-9.45136e-08
-2.27048e-07
1.856e-08
-2.25559e-07
1.301e-07
-2.23375e-07
2.39088e-07
-2.20429e-07
3.44396e-07
-2.16604e-07
4.45966e-07
-2.11548e-07
5.44285e-07
-2.05268e-07
6.39195e-07
-1.98223e-07
7.30518e-07
-1.90655e-07
8.181e-07
-1.82751e-07
9.01838e-07
-1.74622e-07
9.81663e-07
-1.66381e-07
1.05755e-06
-1.58095e-07
1.1295e-06
-1.49844e-07
1.19756e-06
-1.41674e-07
1.26177e-06
-1.33646e-07
1.32223e-06
-1.25792e-07
1.37902e-06
-1.18156e-07
1.43227e-06
-1.1076e-07
1.48209e-06
-1.03632e-07
1.52863e-06
-9.67816e-08
1.57202e-06
-9.02269e-08
1.6124e-06
-8.39722e-08
1.64994e-06
-7.80241e-08
1.68478e-06
-7.2382e-08
1.71707e-06
-6.70453e-08
1.74696e-06
-6.20063e-08
1.77459e-06
-5.72555e-08
1.80011e-06
-5.27752e-08
1.82364e-06
-4.85355e-08
1.84526e-06
-4.44898e-08
1.86506e-06
-4.05575e-08
1.88302e-06
-3.66058e-08
1.89903e-06
-3.23999e-08
1.9128e-06
-2.74896e-08
1.92369e-06
-2.10281e-08
1.931e-06
-1.09574e-08
1.93365e-06
6.51539e-09
1.92931e-06
4.16254e-08
1.11713e-07
1.90936e-06
-4.40357e-09
-2.30573e-08
-1.49817e-08
-4.87637e-09
-2.81461e-08
1.07325e-08
-4.31601e-08
2.4229e-08
-5.99059e-08
3.60475e-08
-7.84736e-08
4.63594e-08
-9.90276e-08
5.52604e-08
-1.21644e-07
6.28766e-08
-1.46353e-07
6.93888e-08
-1.73092e-07
7.50105e-08
-2.01801e-07
7.9955e-08
-2.32394e-07
8.44108e-08
-2.64819e-07
8.85272e-08
-2.99015e-07
9.2413e-08
-3.34918e-07
9.61454e-08
-3.72422e-07
9.97792e-08
-4.11327e-07
1.03385e-07
-4.51221e-07
1.07062e-07
-4.91609e-07
1.1083e-07
-5.32059e-07
1.14531e-07
-5.7233e-07
1.17838e-07
-6.12353e-07
1.20414e-07
-6.52932e-07
1.22129e-07
-6.9467e-07
1.23121e-07
-7.35965e-07
1.23982e-07
-7.76348e-07
1.24775e-07
-8.16174e-07
1.25396e-07
-8.5428e-07
1.2594e-07
-8.9144e-07
1.2614e-07
-9.3015e-07
1.25443e-07
-9.68722e-07
1.24703e-07
-1.00669e-06
1.23998e-07
-1.04418e-06
1.23249e-07
-1.08124e-06
1.22462e-07
-1.11792e-06
1.2165e-07
-1.15424e-06
1.20824e-07
-1.19024e-06
1.19989e-07
-1.22594e-06
1.19154e-07
-1.26137e-06
1.18323e-07
-1.29653e-06
1.17503e-07
-1.33144e-06
1.16696e-07
-1.36612e-06
1.15904e-07
-1.40056e-06
1.15125e-07
-1.43476e-06
1.14358e-07
-1.46874e-06
1.13598e-07
-1.50249e-06
1.12843e-07
-1.536e-06
1.12086e-07
-1.56927e-06
1.11322e-07
-1.60229e-06
1.10546e-07
-1.63506e-06
1.09751e-07
-1.66757e-06
1.08931e-07
-1.6998e-06
1.08082e-07
-1.73174e-06
1.07197e-07
-1.76338e-06
1.06271e-07
-1.7947e-06
1.05299e-07
-1.82568e-06
1.04276e-07
-1.85631e-06
1.032e-07
-1.88656e-06
1.02065e-07
-1.91641e-06
1.00869e-07
-1.94585e-06
9.96101e-08
-1.97486e-06
9.82849e-08
-2.0034e-06
9.68922e-08
-2.03146e-06
9.54307e-08
-2.05902e-06
9.38993e-08
-2.08606e-06
9.22976e-08
-2.11255e-06
9.06254e-08
-2.13847e-06
8.88832e-08
-2.1638e-06
8.70718e-08
-2.18851e-06
8.51926e-08
-2.21259e-06
8.32465e-08
-2.23602e-06
8.12352e-08
-2.25877e-06
7.91598e-08
-2.28082e-06
7.70222e-08
-2.30216e-06
7.48232e-08
-2.32277e-06
7.25649e-08
-2.34262e-06
7.02486e-08
-2.36171e-06
6.78766e-08
-2.38e-06
6.54497e-08
-2.39749e-06
6.2969e-08
-2.41414e-06
6.04337e-08
-2.42995e-06
5.78445e-08
-2.4449e-06
5.51994e-08
-2.45896e-06
5.2497e-08
-2.47212e-06
4.97334e-08
-2.48435e-06
4.69068e-08
-2.49564e-06
4.4012e-08
-2.50595e-06
4.10449e-08
-2.51525e-06
3.79989e-08
-2.52349e-06
3.48627e-08
-2.53065e-06
3.16256e-08
-2.53672e-06
2.82642e-08
-2.5417e-06
2.47631e-08
-2.54553e-06
2.11169e-08
-2.54818e-06
1.73143e-08
-2.54962e-06
1.33566e-08
-2.54981e-06
9.23514e-09
-2.54872e-06
4.95356e-09
-2.5463e-06
5.04866e-10
-2.54248e-06
-4.11634e-09
-2.53714e-06
-8.94396e-09
-2.5302e-06
-1.4019e-08
-2.52153e-06
-1.93705e-08
-2.51103e-06
-2.50161e-08
-2.49859e-06
-3.09627e-08
-2.4841e-06
-3.72278e-08
-2.46742e-06
-4.38153e-08
-2.44845e-06
-5.07481e-08
-2.42705e-06
-5.8035e-08
-2.4031e-06
-6.57024e-08
-2.37647e-06
-7.37577e-08
-2.34703e-06
-8.22236e-08
-2.31463e-06
-9.11017e-08
-2.27914e-06
-1.00407e-07
-2.2404e-06
-1.10131e-07
-2.1983e-06
-1.2028e-07
-2.15267e-06
-1.30836e-07
-2.1034e-06
-1.41787e-07
-2.05035e-06
-1.53104e-07
-1.99343e-06
-1.64758e-07
-1.93254e-06
-1.76706e-07
-1.86762e-06
-1.88896e-07
-1.79859e-06
-2.01263e-07
-1.72543e-06
-2.13731e-07
-1.64812e-06
-2.26214e-07
-1.56669e-06
-2.38626e-07
-1.48123e-06
-2.50888e-07
-1.39186e-06
-2.62851e-07
-1.29872e-06
-2.7438e-07
-1.20204e-06
-2.85338e-07
-1.10208e-06
-2.95612e-07
-9.99138e-07
-3.05102e-07
-8.93563e-07
-3.13665e-07
-7.85726e-07
-3.21182e-07
-6.76043e-07
-3.27556e-07
-5.6494e-07
-3.32716e-07
-4.52865e-07
-3.3661e-07
-3.40268e-07
-3.39222e-07
-2.27593e-07
-3.40567e-07
-1.15223e-07
-3.40719e-07
-3.52462e-09
-3.39743e-07
1.06981e-07
-3.37618e-07
2.15669e-07
-3.34297e-07
3.21994e-07
-3.29752e-07
4.25495e-07
-3.23972e-07
5.25743e-07
-3.16903e-07
6.22633e-07
-3.0848e-07
7.1618e-07
-2.98863e-07
8.06266e-07
-2.88349e-07
8.92753e-07
-2.77187e-07
9.75536e-07
-2.65571e-07
1.05453e-06
-2.53661e-07
1.12971e-06
-2.41591e-07
1.20105e-06
-2.29474e-07
1.26858e-06
-2.17406e-07
1.33234e-06
-2.05473e-07
1.39241e-06
-1.93745e-07
1.44887e-06
-1.82287e-07
1.50183e-06
-1.71146e-07
1.55141e-06
-1.60367e-07
1.59773e-06
-1.49981e-07
1.64094e-06
-1.40015e-07
1.68117e-06
-1.30486e-07
1.71859e-06
-1.21409e-07
1.75333e-06
-1.12789e-07
1.78556e-06
-1.04631e-07
1.81543e-06
-9.69309e-08
1.84309e-06
-8.96847e-08
1.8687e-06
-8.2874e-08
1.89238e-06
-7.64773e-08
1.91428e-06
-7.04471e-08
1.9345e-06
-6.47183e-08
1.9531e-06
-5.91734e-08
1.97011e-06
-5.36285e-08
1.98545e-06
-4.77602e-08
1.99894e-06
-4.0993e-08
2.01018e-06
-3.22788e-08
2.01869e-06
-1.94833e-08
2.02396e-06
1.22624e-09
2.02705e-06
3.85301e-08
1.07717e-07
2.03103e-06
-1.48258e-08
-8.26802e-09
-3.28368e-08
1.31084e-08
-5.1904e-08
2.97799e-08
-7.17263e-08
4.40405e-08
-9.23784e-08
5.66854e-08
-1.14032e-07
6.80055e-08
-1.36914e-07
7.81292e-08
-1.612e-07
8.71556e-08
-1.8703e-07
9.52057e-08
-2.14453e-07
1.02425e-07
-2.43476e-07
1.08965e-07
-2.74042e-07
1.14966e-07
-3.06063e-07
1.20534e-07
-3.39402e-07
1.25741e-07
-3.7389e-07
1.3062e-07
-4.09308e-07
1.35186e-07
-4.45394e-07
1.39459e-07
-4.81808e-07
1.43467e-07
-5.18203e-07
1.47213e-07
-5.54307e-07
1.50626e-07
-5.90051e-07
1.53569e-07
-6.25562e-07
1.55916e-07
-6.61085e-07
1.5764e-07
-6.96765e-07
1.58791e-07
-7.32327e-07
1.5953e-07
-7.67529e-07
1.59966e-07
-8.02285e-07
1.60138e-07
-8.36435e-07
1.60077e-07
-8.7007e-07
1.5976e-07
-9.03746e-07
1.59106e-07
-9.37339e-07
1.58281e-07
-9.70722e-07
1.57367e-07
-1.00388e-06
1.56391e-07
-1.03681e-06
1.55376e-07
-1.06951e-06
1.5434e-07
-1.102e-06
1.53298e-07
-1.13428e-06
1.52257e-07
-1.16636e-06
1.51225e-07
-1.19826e-06
1.50209e-07
-1.22998e-06
1.4921e-07
-1.26153e-06
1.48229e-07
-1.2929e-06
1.47266e-07
-1.32411e-06
1.46317e-07
-1.35514e-06
1.45379e-07
-1.386e-06
1.44446e-07
-1.41668e-06
1.43513e-07
-1.44718e-06
1.42572e-07
-1.47749e-06
1.41617e-07
-1.50759e-06
1.4064e-07
-1.53749e-06
1.39634e-07
-1.56716e-06
1.38592e-07
-1.5966e-06
1.37506e-07
-1.62578e-06
1.36369e-07
-1.6547e-06
1.35176e-07
-1.68334e-06
1.33919e-07
-1.71167e-06
1.32595e-07
-1.73969e-06
1.31196e-07
-1.76736e-06
1.2972e-07
-1.79467e-06
1.28162e-07
-1.8216e-06
1.26519e-07
-1.84812e-06
1.24789e-07
-1.87422e-06
1.22968e-07
-1.89987e-06
1.21057e-07
-1.92504e-06
1.19052e-07
-1.94972e-06
1.16955e-07
-1.97388e-06
1.14765e-07
-1.99749e-06
1.12482e-07
-2.02055e-06
1.10108e-07
-2.04302e-06
1.07644e-07
-2.06488e-06
1.05091e-07
-2.08611e-06
1.02452e-07
-2.10669e-06
9.97278e-08
-2.12661e-06
9.69209e-08
-2.14583e-06
9.40333e-08
-2.16435e-06
9.10669e-08
-2.18214e-06
8.80238e-08
-2.19919e-06
8.49064e-08
-2.21547e-06
8.17158e-08
-2.23097e-06
7.84533e-08
-2.24567e-06
7.51187e-08
-2.25955e-06
7.17122e-08
-2.2726e-06
6.8232e-08
-2.28479e-06
6.4676e-08
-2.29611e-06
6.10406e-08
-2.30654e-06
5.73217e-08
-2.31606e-06
5.35139e-08
-2.32464e-06
4.96108e-08
-2.33225e-06
4.56032e-08
-2.33885e-06
4.14834e-08
-2.34443e-06
3.72282e-08
-2.34897e-06
3.28281e-08
-2.35246e-06
2.82597e-08
-2.35486e-06
2.35132e-08
-2.35612e-06
1.85765e-08
-2.35621e-06
1.34425e-08
-2.35508e-06
8.09908e-09
-2.35268e-06
2.53722e-09
-2.34893e-06
-3.26078e-09
-2.34375e-06
-9.31765e-09
-2.33705e-06
-1.56708e-08
-2.32876e-06
-2.23591e-08
-2.31878e-06
-2.94113e-08
-2.30702e-06
-3.68521e-08
-2.29338e-06
-4.46928e-08
-2.27774e-06
-5.29553e-08
-2.25998e-06
-6.16494e-08
-2.23999e-06
-7.0804e-08
-2.21765e-06
-8.04323e-08
-2.19284e-06
-9.05669e-08
-2.16541e-06
-1.01218e-07
-2.13525e-06
-1.12414e-07
-2.10222e-06
-1.24156e-07
-2.06618e-06
-1.36466e-07
-2.02698e-06
-1.49331e-07
-1.98449e-06
-1.62761e-07
-1.93858e-06
-1.76728e-07
-1.88912e-06
-1.9122e-07
-1.83599e-06
-2.06194e-07
-1.77908e-06
-2.21617e-07
-1.71832e-06