/*--------------------------------*- C++ -*----------------------------------*\
  =========                 |
  \\      /  F ield         | OpenFOAM: The Open Source CFD Toolbox
   \\    /   O peration     | Website:  https://openfoam.org
    \\  /    A nd           | Version:  8
     \\/     M anipulation  |
\*---------------------------------------------------------------------------*/
FoamFile
{
    version     2.0;
    format      ascii;
    class       volVectorField;
    location    "160";
    object      U;
}
// * * * * * * * * * * * * * * * * * * * * * * * * * * * * * * * * * * * * * //

dimensions      [0 1 -1 0 0 0 0];

internalField   nonuniform List<vector> 
12225
(
(9.85699 -0.886403 0)
(9.66662 -0.740759 0)
(9.45567 -0.429476 0)
(9.22441 -0.222217 0)
(9.00632 -0.106448 0)
(8.81409 -0.0458529 0)
(8.64706 -0.0151591 0)
(8.50477 0.000478265 0)
(8.38288 0.00842547 0)
(8.27993 0.0123277 0)
(8.19116 0.0140652 0)
(8.11463 0.0150934 0)
(8.04725 0.0155152 0)
(7.98746 0.0158402 0)
(7.9329 0.015907 0)
(7.88463 0.0164919 0)
(7.82616 0.0171507 0)
(7.81567 0.0148496 0)
(10.0545 0.227547 0)
(10.1211 0.326936 0)
(10.1196 0.261574 0)
(10.0855 0.186564 0)
(10.0433 0.134689 0)
(9.9966 0.101147 0)
(9.94384 0.0793325 0)
(9.88497 0.0646199 0)
(9.82353 0.0543328 0)
(9.76084 0.0467713 0)
(9.69924 0.0410448 0)
(9.63917 0.0365556 0)
(9.58161 0.0329865 0)
(9.52684 0.0302691 0)
(9.47443 0.0280433 0)
(9.42653 0.0277416 0)
(9.37727 0.025808 0)
(9.34527 0.0381006 0)
(10.0035 0.0579191 0)
(10.0303 0.0560112 0)
(10.056 0.0337973 0)
(10.0703 0.0329159 0)
(10.0769 0.0406801 0)
(10.0777 0.0465887 0)
(10.0723 0.0494184 0)
(10.0611 0.0503838 0)
(10.0458 0.0503114 0)
(10.0272 0.0496367 0)
(10.0065 0.0486491 0)
(9.98411 0.0475663 0)
(9.9607 0.0465035 0)
(9.9367 0.0456417 0)
(9.91228 0.0448948 0)
(9.88837 0.0451637 0)
(9.86418 0.0451295 0)
(9.8423 0.0497993 0)
(9.99779 0.0110579 0)
(10.011 0.0266182 0)
(10.035 0.0371717 0)
(10.0524 0.0481166 0)
(10.0643 0.0554966 0)
(10.0733 0.0582455 0)
(10.0793 0.0584366 0)
(10.0821 0.0577237 0)
(10.0824 0.0567131 0)
(10.0807 0.0555702 0)
(10.0775 0.0543729 0)
(10.0729 0.0532514 0)
(10.0673 0.0522194 0)
(10.0609 0.0514262 0)
(10.0537 0.0508081 0)
(10.0464 0.0509477 0)
(10.039 0.0511467 0)
(10.0321 0.0533003 0)
(9.99935 0.00720344 0)
(10.009 0.0316703 0)
(10.0274 0.0439497 0)
(10.0417 0.0499639 0)
(10.0527 0.0536698 0)
(10.0627 0.0553151 0)
(10.0714 0.0556226 0)
(10.078 0.0553681 0)
(10.0831 0.0548723 0)
(10.0868 0.0542332 0)
(10.0894 0.0535142 0)
(10.0912 0.0528236 0)
(10.0921 0.052197 0)
(10.0925 0.0517487 0)
(10.0924 0.0514747 0)
(10.0921 0.0516803 0)
(10.0918 0.0520518 0)
(10.092 0.0531507 0)
(10.0003 0.0091854 0)
(10.0083 0.0311902 0)
(10.0227 0.0409785 0)
(10.0349 0.045444 0)
(10.0449 0.0491095 0)
(10.0546 0.0514697 0)
(10.0635 0.0524833 0)
(10.0711 0.0527583 0)
(10.0775 0.05268 0)
(10.083 0.0523919 0)
(10.0877 0.051979 0)
(10.0917 0.0515423 0)
(10.0951 0.0511367 0)
(10.0982 0.0508483 0)
(10.1008 0.0506975 0)
(10.1034 0.0508276 0)
(10.1061 0.0510869 0)
(10.1091 0.0515223 0)
(10.0005 0.00895338 0)
(10.0071 0.0271106 0)
(10.019 0.0364554 0)
(10.0301 0.0414523 0)
(10.0395 0.0454998 0)
(10.0485 0.0481943 0)
(10.0571 0.0495006 0)
(10.0646 0.0500178 0)
(10.0713 0.0501534 0)
(10.0773 0.0500593 0)
(10.0828 0.0498222 0)
(10.0877 0.0495317 0)
(10.0921 0.0492483 0)
(10.0963 0.0490345 0)
(10.1002 0.0489129 0)
(10.104 0.0489382 0)
(10.1079 0.0490142 0)
(10.112 0.0490312 0)
(10.0004 0.0079261 0)
(10.006 0.0234095 0)
(10.0161 0.0327857 0)
(10.0262 0.0381743 0)
(10.035 0.0421966 0)
(10.0435 0.0449129 0)
(10.0515 0.0463654 0)
(10.0589 0.0470518 0)
(10.0656 0.0473418 0)
(10.0717 0.0473865 0)
(10.0773 0.0472727 0)
(10.0826 0.047081 0)
(10.0875 0.0468713 0)
(10.0921 0.0466889 0)
(10.0965 0.0465506 0)
(10.1009 0.0464647 0)
(10.1053 0.0463554 0)
(10.1099 0.0460914 0)
(10.0004 0.00697203 0)
(10.005 0.0204624 0)
(10.0136 0.029512 0)
(10.0228 0.0349455 0)
(10.0311 0.0388272 0)
(10.039 0.0415258 0)
(10.0466 0.0431035 0)
(10.0538 0.0439345 0)
(10.0603 0.0443469 0)
(10.0664 0.0444963 0)
(10.072 0.044471 0)
(10.0774 0.0443453 0)
(10.0824 0.0441745 0)
(10.0872 0.0439933 0)
(10.0919 0.0438108 0)
(10.0965 0.0436151 0)
(10.1011 0.0433414 0)
(10.1058 0.0428839 0)
(10.0004 0.00614278 0)
(10.0043 0.017902 0)
(10.0116 0.0263424 0)
(10.0198 0.031677 0)
(10.0276 0.0354359 0)
(10.035 0.0381026 0)
(10.0422 0.0397638 0)
(10.0491 0.040702 0)
(10.0554 0.0412054 0)
(10.0614 0.0414317 0)
(10.067 0.0414688 0)
(10.0723 0.0413852 0)
(10.0774 0.0412303 0)
(10.0822 0.041032 0)
(10.087 0.0407943 0)
(10.0916 0.0404988 0)
(10.0962 0.0400923 0)
(10.1009 0.0395037 0)
(10.0003 0.00538436 0)
(10.0036 0.0155974 0)
(10.0099 0.023312 0)
(10.0172 0.0284521 0)
(10.0244 0.0320719 0)
(10.0314 0.0346652 0)
(10.0382 0.0363548 0)
(10.0448 0.0373602 0)
(10.0509 0.0379268 0)
(10.0567 0.038207 0)
(10.0623 0.0382866 0)
(10.0675 0.0382275 0)
(10.0725 0.0380743 0)
(10.0774 0.03785 0)
(10.0821 0.0375571 0)
(10.0867 0.037178 0)
(10.0912 0.0366725 0)
(10.0957 0.0359992 0)
(10.0003 0.00472053 0)
(10.0032 0.0136601 0)
(10.0086 0.0206719 0)
(10.0152 0.0255493 0)
(10.0219 0.0290057 0)
(10.0284 0.031496 0)
(10.0349 0.0331688 0)
(10.0412 0.0342025 0)
(10.0472 0.0348038 0)
(10.0528 0.0351143 0)
(10.0582 0.0352168 0)
(10.0634 0.035168 0)
(10.0684 0.0350078 0)
(10.0731 0.0347571 0)
(10.0778 0.0344185 0)
(10.0823 0.033979 0)
(10.0867 0.0334092 0)
(10.0911 0.0326917 0)
(10.0003 0.00410696 0)
(10.0028 0.0118944 0)
(10.0075 0.0181784 0)
(10.0134 0.0227165 0)
(10.0196 0.0259745 0)
(10.0258 0.0283357 0)
(10.0319 0.0299582 0)
(10.0379 0.0309919 0)
(10.0437 0.0316078 0)
(10.0492 0.0319333 0)
(10.0545 0.0320467 0)
(10.0596 0.0320001 0)
(10.0644 0.0318293 0)
(10.0691 0.0315541 0)
(10.0737 0.0311783 0)
(10.0781 0.0306946 0)
(10.0824 0.0300833 0)
(10.0866 0.0293445 0)
(10.0002 0.00347316 0)
(10.0024 0.0100592 0)
(10.0064 0.0155035 0)
(10.0117 0.0195772 0)
(10.0174 0.0225531 0)
(10.0231 0.0247247 0)
(10.0289 0.0262455 0)
(10.0346 0.0272402 0)
(10.0402 0.0278441 0)
(10.0455 0.0281657 0)
(10.0506 0.0282763 0)
(10.0555 0.0282226 0)
(10.0603 0.0280368 0)
(10.0649 0.0277369 0)
(10.0693 0.0273299 0)
(10.0736 0.0268138 0)
(10.0778 0.0261783 0)
(10.0818 0.0254367 0)
(10.0002 0.002815 0)
(10.002 0.00815248 0)
(10.0055 0.0126567 0)
(10.0101 0.0161358 0)
(10.0153 0.0187268 0)
(10.0206 0.0206327 0)
(10.026 0.0219861 0)
(10.0314 0.0228884 0)
(10.0366 0.0234412 0)
(10.0417 0.0237313 0)
(10.0467 0.0238194 0)
(10.0515 0.0237464 0)
(10.0561 0.0235399 0)
(10.0605 0.0232176 0)
(10.0648 0.0227879 0)
(10.069 0.0222551 0)
(10.0729 0.0216155 0)
(10.0768 0.020892 0)
(10.0002 0.0021316 0)
(10.0017 0.00617583 0)
(10.0047 0.00964538 0)
(10.0087 0.0123956 0)
(10.0134 0.0144814 0)
(10.0182 0.0160273 0)
(10.0233 0.0171326 0)
(10.0283 0.0178741 0)
(10.0333 0.0183234 0)
(10.0382 0.018544 0)
(10.0429 0.0185835 0)
(10.0475 0.0184752 0)
(10.052 0.0182418 0)
(10.0563 0.0178995 0)
(10.0604 0.0174582 0)
(10.0644 0.0169254 0)
(10.0681 0.0163028 0)
(10.0718 0.0156166 0)
(10.0002 0.00141971 0)
(10.0015 0.00411431 0)
(10.0041 0.00645205 0)
(10.0076 0.00833762 0)
(10.0118 0.00978588 0)
(10.0163 0.0108614 0)
(10.0209 0.0116252 0)
(10.0257 0.0121262 0)
(10.0304 0.0124093 0)
(10.035 0.0125147 0)
(10.0396 0.0124746 0)
(10.044 0.0123121 0)
(10.0482 0.0120447 0)
(10.0524 0.0116849 0)
(10.0563 0.0112425 0)
(10.0601 0.0107252 0)
(10.0637 0.0101378 0)
(10.0672 0.00950538 0)
(10.0001 0.000662502 0)
(10.0013 0.00191511 0)
(10.0036 0.00300287 0)
(10.0069 0.00387953 0)
(10.0107 0.00454676 0)
(10.0149 0.00502701 0)
(10.0192 0.00534322 0)
(10.0237 0.00551514 0)
(10.0282 0.0055617 0)
(10.0326 0.00550037 0)
(10.037 0.00534568 0)
(10.0412 0.00510889 0)
(10.0453 0.00479905 0)
(10.0492 0.00442359 0)
(10.053 0.00398902 0)
(10.0566 0.00350169 0)
(10.0601 0.00296517 0)
(10.0634 0.00240183 0)
(10.0001 -0.000183585 0)
(10.0013 -0.0005448 0)
(10.0035 -0.00087721 0)
(10.0066 -0.00117347 0)
(10.0103 -0.00143194 0)
(10.0143 -0.00166695 0)
(10.0186 -0.0018962 0)
(10.0229 -0.00213236 0)
(10.0272 -0.00238289 0)
(10.0315 -0.00265442 0)
(10.0357 -0.0029517 0)
(10.0398 -0.00327837 0)
(10.0438 -0.00363569 0)
(10.0476 -0.00402427 0)
(10.0512 -0.00444308 0)
(10.0547 -0.00489036 0)
(10.058 -0.0053652 0)
(10.0611 -0.00585153 0)
(10.0001 -0.000993887 0)
(10.0013 -0.00290712 0)
(10.0037 -0.00461037 0)
(10.007 -0.00602594 0)
(10.0109 -0.00714995 0)
(10.0151 -0.00804224 0)
(10.0194 -0.0087646 0)
(10.0238 -0.00935896 0)
(10.0282 -0.00986037 0)
(10.0325 -0.0103004 0)
(10.0367 -0.0107048 0)
(10.0407 -0.0110905 0)
(10.0446 -0.0114694 0)
(10.0484 -0.0118493 0)
(10.0519 -0.0122359 0)
(10.0553 -0.0126313 0)
(10.0586 -0.0130386 0)
(10.0616 -0.0134468 0)
(10.0002 -0.00169303 0)
(10.0015 -0.00497085 0)
(10.0041 -0.00787363 0)
(10.0078 -0.0102019 0)
(10.012 -0.0119765 0)
(10.0165 -0.0133473 0)
(10.0211 -0.0144208 0)
(10.0256 -0.015254 0)
(10.0302 -0.0159044 0)
(10.0346 -0.0164305 0)
(10.0388 -0.0168776 0)
(10.0429 -0.0172743 0)
(10.0468 -0.0176406 0)
(10.0505 -0.01799 0)
(10.054 -0.0183328 0)
(10.0574 -0.018674 0)
(10.0606 -0.0190184 0)
(10.0637 -0.0193588 0)
(10.0002 -0.002357 0)
(10.0017 -0.00700987 0)
(10.0047 -0.0111335 0)
(10.009 -0.0142846 0)
(10.0137 -0.0165626 0)
(10.0186 -0.0182781 0)
(10.0235 -0.0195913 0)
(10.0283 -0.0205732 0)
(10.033 -0.0213053 0)
(10.0375 -0.0218694 0)
(10.0418 -0.0223218 0)
(10.046 -0.0227 0)
(10.0499 -0.0230301 0)
(10.0536 -0.0233326 0)
(10.0572 -0.0236198 0)
(10.0605 -0.0239006 0)
(10.0637 -0.0241794 0)
(10.0667 -0.0244531 0)
(10.0002 -0.00297839 0)
(10.0018 -0.00907412 0)
(10.0054 -0.0144146 0)
(10.0105 -0.0182893 0)
(10.0159 -0.021019 0)
(10.0212 -0.023027 0)
(10.0264 -0.0244689 0)
(10.0315 -0.0254698 0)
(10.0364 -0.0261842 0)
(10.0411 -0.0267222 0)
(10.0455 -0.0271406 0)
(10.0497 -0.0274752 0)
(10.0537 -0.0277556 0)
(10.0574 -0.0280042 0)
(10.061 -0.0282355 0)
(10.0644 -0.0284579 0)
(10.0675 -0.028677 0)
(10.0705 -0.0288903 0)
(10.0001 -0.00352616 0)
(10.0018 -0.0115329 0)
(10.0063 -0.0178579 0)
(10.0123 -0.0219445 0)
(10.0183 -0.0250005 0)
(10.0241 -0.0273992 0)
(10.0297 -0.0290268 0)
(10.0352 -0.0300268 0)
(10.0403 -0.0306699 0)
(10.0451 -0.031121 0)
(10.0496 -0.0314479 0)
(10.0539 -0.0316913 0)
(10.0579 -0.0318854 0)
(10.0617 -0.0320539 0)
(10.0652 -0.0322109 0)
(10.0686 -0.0323632 0)
(10.0717 -0.0325149 0)
(10.0747 -0.032662 0)
(9.99991 -0.00337636 0)
(10.0016 -0.0149539 0)
(10.0073 -0.0227031 0)
(10.0143 -0.0262064 0)
(10.0207 -0.028785 0)
(10.0269 -0.0311423 0)
(10.0332 -0.0328556 0)
(10.0391 -0.0339359 0)
(10.0446 -0.0346285 0)
(10.0496 -0.0350859 0)
(10.0542 -0.0353783 0)
(10.0586 -0.0355604 0)
(10.0626 -0.0356783 0)
(10.0663 -0.0357631 0)
(10.0698 -0.0358328 0)
(10.0729 -0.0358975 0)
(10.0759 -0.0359619 0)
(10.0786 -0.0360245 0)
(9.9986 -0.000394798 0)
(9.99909 -0.0157458 0)
(10.0076 -0.0274123 0)
(10.0166 -0.0324667 0)
(10.0238 -0.0348366 0)
(10.0307 -0.0361861 0)
(10.0377 -0.0369317 0)
(10.0442 -0.0373924 0)
(10.05 -0.0377355 0)
(10.0551 -0.0379778 0)
(10.0597 -0.0381184 0)
(10.0638 -0.0381827 0)
(10.0674 -0.0382012 0)
(10.0706 -0.0381946 0)
(10.0734 -0.0381784 0)
(10.0759 -0.038161 0)
(10.078 -0.0381462 0)
(10.0799 -0.0381323 0)
(9.99488 0.0013379 0)
(9.99288 -0.00808499 0)
(10.006 -0.020339 0)
(10.0202 -0.0322589 0)
(10.0307 -0.0404559 0)
(10.0393 -0.0441225 0)
(10.0468 -0.04503 0)
(10.053 -0.0448807 0)
(10.0579 -0.0444094 0)
(10.0618 -0.0438098 0)
(10.0648 -0.0431617 0)
(10.067 -0.0425223 0)
(10.0685 -0.0419259 0)
(10.0693 -0.0413806 0)
(10.0697 -0.0408961 0)
(10.0696 -0.0404691 0)
(10.0691 -0.0400966 0)
(10.0684 -0.0397531 0)
(9.99473 -0.0305598 0)
(9.99926 -0.0228665 0)
(10.0147 -0.00262628 0)
(10.0304 -0.00189645 0)
(10.0435 -0.0116422 0)
(10.0533 -0.0209023 0)
(10.0595 -0.0272559 0)
(10.062 -0.0314804 0)
(10.0616 -0.0342521 0)
(10.0592 -0.0359457 0)
(10.0552 -0.036875 0)
(10.0499 -0.0373067 0)
(10.0437 -0.037431 0)
(10.0367 -0.0373677 0)
(10.0292 -0.0372072 0)
(10.0213 -0.0370046 0)
(10.0132 -0.036825 0)
(10.005 -0.0366368 0)
(10.0273 -0.182757 0)
(10.0763 -0.28831 0)
(10.0872 -0.24775 0)
(10.0777 -0.186512 0)
(10.0664 -0.140287 0)
(10.0538 -0.10821 0)
(10.0366 -0.0858675 0)
(10.0146 -0.0704053 0)
(9.98948 -0.0596344 0)
(9.96247 -0.0518587 0)
(9.93452 -0.0460353 0)
(9.90623 -0.0415369 0)
(9.87809 -0.0379803 0)
(9.85041 -0.0351052 0)
(9.82345 -0.0327395 0)
(9.79731 -0.0308196 0)
(9.77225 -0.0293042 0)
(9.74828 -0.0284866 0)
(9.93574 0.68932 0)
(9.86861 0.609606 0)
(9.76455 0.380626 0)
(9.62667 0.217446 0)
(9.48595 0.119273 0)
(9.35729 0.0631933 0)
(9.2428 0.031583 0)
(9.14129 0.0136243 0)
(9.05164 0.00327218 0)
(8.97271 -0.00278838 0)
(8.90285 -0.00634351 0)
(8.84071 -0.00846255 0)
(8.78505 -0.00971293 0)
(8.73498 -0.0104597 0)
(8.68959 -0.0109631 0)
(8.64828 -0.0112322 0)
(8.61012 -0.0114404 0)
(8.5748 -0.0121021 0)
(0.00967851 -0.0204207 -5.34819e-19)
(0.025271 -0.0218268 3.2499e-19)
(0.034313 -0.0129325 0)
(0.0374624 -0.00214543 0)
(0.0337968 0.00717454 0)
(0.024692 0.0140355 -1.31584e-19)
(0.0115379 0.0185974 0)
(-0.00452661 0.0213913 0)
(-0.0226618 0.0229762 0)
(-0.042305 0.0238025 0)
(-0.0630889 0.0241514 7.98385e-20)
(-0.0847913 0.024197 0)
(-0.107301 0.0240566 0)
(-0.130647 0.0236616 0)
(-0.154569 0.0232636 0)
(-0.178615 0.0232558 5.71335e-20)
(-0.202582 0.0248663 0)
(-0.226688 0.0294504 0)
(-0.252004 0.036174 0)
(-0.279193 0.0445749 0)
(-0.30796 0.0525061 0)
(-0.338027 0.0625625 0)
(-0.372028 0.0472592 0)
(-0.408987 0.0127097 8.91093e-20)
(-0.438072 0.0159298 -8.37335e-20)
(-0.47144 0.0245661 7.8795e-20)
(-0.510992 0.0197563 6.36277e-20)
(-0.548909 0.0598427 0)
(-0.585278 0.0695958 0)
(-0.632369 0.0317504 -6.4087e-20)
(-0.666691 0.034791 -6.13949e-20)
(-0.704383 0.0378511 0)
(-0.744049 0.037487 0)
(-0.783331 0.0375321 -5.46767e-20)
(-0.822985 0.0374814 0)
(-0.862725 0.0373237 0)
(-0.90248 0.0370637 4.93802e-20)
(-0.942183 0.0367488 0)
(-0.981792 0.0363938 4.64722e-20)
(-1.02128 0.0360156 9.03421e-20)
(-1.06062 0.0356233 0)
(-1.09982 0.0352286 0)
(-1.13887 0.0348343 0)
(-1.17776 0.0344459 0)
(-1.2165 0.0340628 0)
(-1.25509 0.0336875 7.79044e-20)
(-1.29354 0.0333177 7.62344e-20)
(-1.33184 0.0329537 7.46515e-20)
(-1.37 0.0325927 0)
(-1.408 0.0322342 -7.17173e-20)
(-1.44586 0.0318752 0)
(-1.48356 0.0315147 6.90484e-20)
(-1.5211 0.0311506 6.77996e-20)
(-1.55847 0.0307819 0)
(-1.59565 0.0304061 0)
(-1.63262 0.0300219 0)
(-1.66938 0.0296281 6.32708e-20)
(-1.70591 0.0292238 0)
(-1.74218 0.0288076 0)
(-1.77818 0.0283785 0)
(-1.81388 0.0279366 0)
(-1.84926 0.0274812 0)
(-1.88429 0.0270125 0)
(-1.91896 0.0265292 0)
(-1.95324 0.0260325 0)
(-1.9871 0.0255215 -5.49246e-20)
(-2.02052 0.0249983 0)
(-2.05347 0.0244619 0)
(-2.08593 0.0239149 5.24761e-20)
(-2.11788 0.0233558 5.16807e-20)
(-2.14928 0.0227879 0)
(-2.18013 0.0222091 -5.0112e-20)
(-2.21038 0.0216242 4.93358e-20)
(-2.24004 0.0210312 0)
(-2.26907 0.020436 -4.77924e-20)
(-2.29746 0.0198359 0)
(-2.3252 0.0192387 0)
(-2.35224 0.0186433 4.54827e-20)
(-2.37859 0.0180567 0)
(-2.40421 0.0174743 -4.39346e-20)
(-2.4291 0.0169037 0)
(-2.45323 0.016339 4.23731e-20)
(-2.47658 0.0157848 4.15862e-20)
(-2.49915 0.0152304 4.07947e-20)
(-2.5209 0.0146802 7.99972e-20)
(-2.54181 0.0141213 -7.83948e-20)
(-2.56187 0.013555 0)
(-2.58102 0.012962 0)
(-2.59922 0.0123403 0)
(-2.61644 0.0116768 -7.18436e-20)
(-2.63268 0.0109558 -7.01621e-20)
(-2.64792 0.0101781 6.84618e-20)
(-2.66209 0.00934723 0)
(-2.67511 0.00847375 -6.50049e-20)
(-2.6869 0.00756742 -6.32511e-20)
(-2.69734 0.00663934 -6.1483e-20)
(-2.70634 0.00569345 0)
(-2.71373 0.00473262 0)
(-2.71937 0.00377156 0)
(-2.72311 0.00283353 -5.42582e-20)
(-2.72494 0.00196938 0)
(-2.72516 0.00115996 0)
(-2.72366 0.000341224 4.8475e-20)
(-2.72036 -0.000507527 0)
(-2.71517 -0.00138555 0)
(-2.70796 -0.00230651 4.22926e-20)
(-2.69861 -0.00326499 0)
(-2.68699 -0.00427955 0)
(-2.67298 -0.0053456 -3.55486e-20)
(-2.65645 -0.00648461 -3.31347e-20)
(-2.63726 -0.00769103 0)
(-2.61528 -0.0089876 2.7983e-20)
(-2.59034 -0.010368 0)
(-2.56232 -0.0118554 -2.22872e-20)
(-2.53106 -0.0134429 0)
(-2.49641 -0.0151541 -1.58755e-20)
(-2.45824 -0.0169826 -1.23336e-20)
(-2.4164 -0.0189495 0)
(-2.37077 -0.0210458 0)
(-2.32123 -0.0232869 0)
(-2.26772 -0.0256662 0)
(-2.21016 -0.0281921 0)
(-2.14847 -0.0308441 0)
(-2.08261 -0.0336177 0)
(-2.01252 -0.0364707 2.91681e-20)
(-1.93825 -0.0394664 -3.67931e-20)
(-1.85976 -0.0424983 0)
(-1.77723 -0.045508 0)
(-1.69079 -0.0485881 0)
(-1.60055 -0.0516445 0)
(-1.50676 -0.0546503 -1.75411e-19)
(-1.40964 -0.0575651 0)
(-1.30949 -0.0603624 2.31343e-19)
(-1.2066 -0.0630105 -2.63416e-19)
(-1.10133 -0.0654959 0)
(-0.994052 -0.0677908 0)
(-0.885142 -0.0698863 0)
(-0.775008 -0.0717604 4.26265e-19)
(-0.664053 -0.0734247 4.77743e-19)
(-0.552661 -0.0748885 0)
(-0.441169 -0.0761082 5.98015e-19)
(-0.329974 -0.0770496 6.68772e-19)
(-0.219354 -0.0777677 -7.4841e-19)
(-0.109748 -0.0781083 0)
(0.000879808 -0.0769349 0)
(0.112021 -0.0740709 -8.11137e-19)
(0.220368 -0.0706225 0)
(0.325734 -0.0670814 0)
(0.427609 -0.0635567 0)
(0.525712 -0.0600913 0)
(0.619875 -0.0567145 6.99339e-19)
(0.709998 -0.0534381 6.84516e-19)
(0.796035 -0.0502724 0)
(0.877977 -0.0472223 6.59278e-19)
(0.955847 -0.0442939 0)
(1.0297 -0.041488 0)
(1.0996 -0.0388099 6.29566e-19)
(1.16565 -0.0362604 0)
(1.22795 -0.0338389 6.1374e-19)
(1.28664 -0.0315424 0)
(1.34184 -0.0293687 0)
(1.39369 -0.0273153 5.94254e-19)
(1.44234 -0.0253806 0)
(1.48792 -0.0235556 5.83477e-19)
(1.53059 -0.0218355 0)
(1.57049 -0.0202161 0)
(1.60776 -0.0186928 0)
(1.64254 -0.0172594 -5.65859e-19)
(1.67496 -0.0159096 0)
(1.70514 -0.0146328 5.58697e-19)
(1.73319 -0.0134176 0)
(1.75915 -0.0122468 0)
(1.78306 -0.0110951 0)
(1.80481 -0.00991959 0)
(1.82418 -0.00863448 0)
(1.8402 -0.00708692 0)
(1.85247 -0.00468692 0)
(1.85272 -0.000283062 -1.09228e-18)
(1.84398 0.00901139 0)
(1.75762 0.0252106 0)
(0.00501658 -0.050455 1.17426e-18)
(0.00930967 -0.0352439 -5.20232e-19)
(0.00657119 -0.0141768 0)
(0.000443162 0.00506955 1.5463e-19)
(-0.0087489 0.0214311 0)
(-0.0209537 0.0345241 5.70756e-20)
(-0.0359586 0.0444999 -1.03779e-19)
(-0.0535408 0.0518467 -9.60337e-20)
(-0.0734285 0.05717 0)
(-0.0953408 0.0610463 -8.49655e-20)
(-0.119039 0.0639418 -4.04992e-20)
(-0.144346 0.0662085 0)
(-0.171137 0.0680964 0)
(-0.199337 0.0697832 0)
(-0.22889 0.071335 0)
(-0.259943 0.0727555 -3.4022e-20)
(-0.292652 0.0741938 0)
(-0.327039 0.076195 6.52089e-20)
(-0.36307 0.0789502 0)
(-0.400505 0.0819195 0)
(-0.43916 0.0846484 -6.89642e-20)
(-0.477518 0.0875232 0)
(-0.517957 0.0904756 7.55354e-20)
(-0.560274 0.0920373 -3.72747e-20)
(-0.603476 0.0947246 3.55023e-20)
(-0.644235 0.0974088 -3.33812e-20)
(-0.686269 0.0985808 -3.0933e-20)
(-0.723369 0.0988581 0)
(-0.761786 0.100224 0)
(-0.801539 0.0986087 2.82131e-20)
(-0.843323 0.0985583 -2.72301e-20)
(-0.883645 0.0987899 0)
(-0.922911 0.098536 0)
(-0.961571 0.0978573 2.54548e-20)
(-0.999754 0.0969926 0)
(-1.03753 0.0959994 0)
(-1.07495 0.0949155 -2.38276e-20)
(-1.11204 0.0937768 0)
(-1.14883 0.092608 2.27107e-20)
(-1.18533 0.0914303 -4.49077e-20)
(-1.22156 0.0902539 0)
(-1.25754 0.0890897 0)
(-1.29327 0.0879414 -8.47982e-20)
(-1.32876 0.0868132 -8.33924e-20)
(-1.36403 0.0857035 -8.20505e-20)
(-1.39906 0.0846124 4.02129e-20)
(-1.43388 0.0835358 -3.99379e-20)
(-1.46847 0.0824717 -1.177e-19)
(-1.50283 0.0814147 7.72162e-20)
(-1.53696 0.0803618 3.82253e-20)
(-1.57085 0.0793077 0)
(-1.6045 0.078249 -3.71774e-20)
(-1.6379 0.0771815 3.63538e-20)
(-1.67103 0.0761023 0)
(-1.70388 0.0750076 0)
(-1.73644 0.0738946 0)
(-1.76869 0.0727608 -3.47976e-20)
(-1.80062 0.0716043 0)
(-1.8322 0.0704233 6.75348e-20)
(-1.86341 0.0692159 0)
(-1.89425 0.0679819 6.58385e-20)
(-1.92468 0.0667204 0)
(-1.95469 0.0654317 -6.41854e-20)
(-1.98426 0.0641145 0)
(-2.01337 0.0627699 6.25625e-20)
(-2.04199 0.0613973 -3.07511e-20)
(-2.07012 0.0599992 0)
(-2.09771 0.0585755 -6.01598e-20)
(-2.12477 0.0571302 -2.97992e-20)
(-2.15126 0.0556626 -2.93968e-20)
(-2.17718 0.0541768 0)
(-2.20249 0.0526711 -2.8374e-20)
(-2.22718 0.0511498 -2.81827e-20)
(-2.25123 0.0496104 0)
(-2.27463 0.0480582 2.73625e-20)
(-2.29736 0.0464903 -5.37104e-20)
(-2.3194 0.0449134 0)
(-2.34073 0.0433249 -2.6107e-20)
(-2.36134 0.0417304 0)
(-2.3812 0.0401247 7.55915e-20)
(-2.4003 0.0385152 0)
(-2.41861 0.0368969 -7.29737e-20)
(-2.43612 0.0352764 -2.39255e-20)
(-2.45282 0.0336454 2.33454e-20)
(-2.46867 0.0320128 4.57891e-20)
(-2.48367 0.0303719 -4.48764e-20)
(-2.49777 0.0287313 0)
(-2.51094 0.0270783 0)
(-2.52312 0.0254139 0)
(-2.53428 0.0237218 1.23751e-19)
(-2.5444 0.0219797 4.03359e-20)
(-2.55346 0.0201736 -3.93393e-20)
(-2.56142 0.0182918 0)
(-2.56822 0.0163314 -3.71715e-20)
(-2.57383 0.014281 3.62697e-20)
(-2.57822 0.0121376 3.52233e-20)
(-2.58137 0.00989353 0)
(-2.5833 0.00755891 0)
(-2.58405 0.00516018 0)
(-2.58367 0.00275281 3.09153e-20)
(-2.58207 0.000365855 0)
(-2.5789 -0.00203535 -5.72447e-20)
(-2.57403 -0.00450582 -8.24217e-20)
(-2.56735 -0.00706801 5.25864e-20)
(-2.55874 -0.00972393 0)
(-2.54807 -0.0124836 2.38809e-20)
(-2.53523 -0.0153426 0)
(-2.52009 -0.0183155 4.27345e-20)
(-2.50251 -0.0213985 -2.0092e-20)
(-2.48238 -0.0246075 -1.87659e-20)
(-2.45955 -0.0279349 0)
(-2.43388 -0.0313948 -4.77286e-20)
(-2.40523 -0.034975 2.89165e-20)
(-2.37345 -0.0386865 1.28285e-20)
(-2.33839 -0.0425122 0)
(-2.29991 -0.04646 9.51276e-21)
(-2.25785 -0.0505101 2.35296e-20)
(-2.21209 -0.054664 0)
(-2.16249 -0.0588967 8.17673e-21)
(-2.10894 -0.0632015 4.01855e-21)
(-2.05135 -0.0675494 -4.04064e-22)
(-1.98964 -0.0719269 0)
(-1.92374 -0.0763028 0)
(-1.85358 -0.0806634 0)
(-1.77915 -0.0849911 1.00822e-20)
(-1.70044 -0.0892585 1.44156e-20)
(-1.61756 -0.0933834 0)
(-1.5306 -0.0973532 4.12075e-20)
(-1.4397 -0.101099 4.87656e-20)
(-1.34504 -0.104608 0)
(-1.2469 -0.107863 6.74135e-20)
(-1.14553 -0.110801 1.48558e-19)
(-1.04126 -0.11339 -8.61872e-20)
(-0.934449 -0.115596 -9.11109e-20)
(-0.825484 -0.117404 0)
(-0.714771 -0.118796 0)
(-0.602736 -0.119781 0)
(-0.48982 -0.120372 -1.40882e-19)
(-0.376462 -0.120587 1.46677e-19)
(-0.263056 -0.120446 3.24334e-19)
(-0.15003 -0.119977 -1.78105e-19)
(-0.0372663 -0.119325 1.81397e-19)
(0.0748353 -0.118572 1.9364e-19)
(0.185131 -0.117523 0)
(0.292491 -0.115291 0)
(0.396417 -0.111648 -2.02424e-19)
(0.49716 -0.107271 0)
(0.594888 -0.102572 0)
(0.689405 -0.0977156 4.36765e-19)
(0.780524 -0.0928051 0)
(0.868104 -0.0879001 2.23634e-19)
(0.952044 -0.0830519 -2.31314e-19)
(1.03228 -0.0782909 0)
(1.1088 -0.0736484 2.33289e-19)
(1.18159 -0.0691422 0)
(1.25069 -0.0647926 0)
(1.31616 -0.0606097 -2.44018e-19)
(1.37808 -0.0566066 4.89049e-19)
(1.43655 -0.0527878 -2.47745e-19)
(1.49165 -0.0491593 0)
(1.54353 -0.0457202 0)
(1.59229 -0.0424705 2.49983e-19)
(1.63809 -0.0394075 0)
(1.68105 -0.0365284 2.52551e-19)
(1.72132 -0.0338289 0)
(1.75905 -0.0313025 0)
(1.79437 -0.0289414 0)
(1.82744 -0.0267365 2.57536e-19)
(1.85838 -0.0246765 0)
(1.88732 -0.0227456 -2.58626e-19)
(1.91438 -0.0209221 0)
(1.93963 -0.0191713 0)
(1.9631 -0.0174376 5.18815e-19)
(1.98472 -0.0156268 -5.1963e-19)
(2.00432 -0.0135515 0)
(2.02132 -0.0108743 0)
(2.03519 -0.00656195 0)
(2.04371 0.00105973 1.58128e-18)
(2.05108 0.0170438 0)
(2.03643 0.0477679 -1.08776e-18)
(-0.0037695 -0.0515468 -1.1788e-21)
(-0.00901101 -0.0221093 5.03871e-19)
(-0.0188064 0.00515714 0)
(-0.0311401 0.0287712 -2.02963e-19)
(-0.0452754 0.0490375 0)
(-0.0609879 0.0661531 0)
(-0.0783869 0.0803064 1.87263e-23)
(-0.0976048 0.0918108 6.34133e-20)
(-0.118699 0.101103 6.0162e-20)
(-0.141659 0.10867 5.76388e-20)
(-0.166437 0.114976 0)
(-0.192972 0.12041 0)
(-0.221208 0.125259 -5.23861e-20)
(-0.251088 0.12972 -1.0213e-19)
(-0.2825 0.133936 9.95663e-20)
(-0.315327 0.138003 0)
(-0.349485 0.142098 9.46373e-20)
(-0.384786 0.14651 -4.64639e-20)
(-0.420832 0.151381 0)
(-0.457191 0.156496 8.97793e-20)
(-0.493616 0.161248 4.46302e-20)
(-0.529973 0.164935 -8.83502e-20)
(-0.566711 0.166908 -4.37736e-20)
(-0.604055 0.16746 0)
(-0.641535 0.168105 8.25761e-20)
(-0.678343 0.168498 7.95233e-20)
(-0.714449 0.168167 0)
(-0.749389 0.168102 7.39853e-20)
(-0.783777 0.167273 0)
(-0.818464 0.164362 7.08425e-20)
(-0.853685 0.162056 3.46584e-20)
(-0.888625 0.160083 0)
(-0.923062 0.158085 0)
(-0.957127 0.156059 0)
(-0.990872 0.154008 0)
(-1.02433 0.151939 0)
(-1.05753 0.149863 0)
(-1.09049 0.147793 6.01802e-20)
(-1.12323 0.14574 -8.88197e-20)
(-1.15578 0.143716 0)
(-1.18814 0.141727 0)
(-1.22033 0.139776 0)
(-1.25234 0.137863 1.77977e-22)
(-1.28419 0.135987 5.48968e-20)
(-1.31588 0.134144 1.08059e-19)
(-1.3474 0.132329 -1.06562e-19)
(-1.37876 0.130536 -5.24675e-20)
(-1.40994 0.128759 5.19524e-20)
(-1.44096 0.126991 -1.83492e-22)
(-1.47179 0.125226 5.04358e-20)
(-1.50243 0.123456 0)
(-1.53288 0.121677 4.91743e-20)
(-1.56311 0.119882 -1.81666e-22)
(-1.59313 0.118066 0)
(-1.62291 0.116225 0)
(-1.65243 0.114355 -4.68143e-20)
(-1.68169 0.112452 0)
(-1.71066 0.110513 0)
(-1.73934 0.108536 4.49733e-20)
(-1.76768 0.10652 8.92032e-20)
(-1.79569 0.104464 -4.42297e-20)
(-1.82334 0.102367 0)
(-1.8506 0.100228 4.31579e-20)
(-1.87747 0.0980486 0)
(-1.90391 0.0958289 4.17853e-20)
(-1.9299 0.0935695 4.1563e-20)
(-1.95543 0.0912728 -8.17689e-20)
(-1.98048 0.0889402 -4.02125e-20)
(-2.00502 0.086575 0)
(-2.02904 0.0841786 7.85864e-20)
(-2.05251 0.0817545 0)
(-2.07541 0.079304 1.14785e-19)
(-2.09772 0.0768305 7.53528e-20)
(-2.11943 0.0743345 7.42584e-20)
(-2.14052 0.0718195 -7.3154e-20)
(-2.16097 0.0692862 1.08169e-19)
(-2.18075 0.066739 0)
(-2.19986 0.0641776 0)
(-2.21827 0.0616047 -6.86182e-20)
(-2.23597 0.0590185 -1.01268e-19)
(-2.25293 0.0564219 0)
(-2.26913 0.0538121 3.26182e-20)
(-2.28456 0.0511903 0)
(-2.2992 0.0485521 -9.40199e-20)
(-2.31303 0.0458994 -1.40452e-22)
(-2.32603 0.0432276 1.33946e-22)
(-2.33817 0.0405372 5.8854e-20)
(-2.34941 0.0378211 0)
(-2.35972 0.0350746 -5.6256e-20)
(-2.36906 0.0322845 -1.11072e-22)
(-2.37741 0.0294337 0)
(-2.38478 0.0265102 0)
(-2.39112 0.0235083 0)
(-2.3964 0.0204259 4.95634e-20)
(-2.40058 0.0172625 0)
(-2.40363 0.0140194 0)
(-2.4055 0.0106999 0)
(-2.40617 0.00730975 0)
(-2.40557 0.00384842 0)
(-2.40362 0.000295521 4.07868e-20)
(-2.40021 -0.00338443 0)
(-2.39522 -0.0072074 3.77082e-20)
(-2.38856 -0.0111817 3.61272e-20)
(-2.38011 -0.0153104 -3.4523e-20)
(-2.36977 -0.0196005 0)
(-2.3574 -0.0240528 -3.12371e-20)
(-2.3429 -0.0286757 0)
(-2.32613 -0.0334742 -2.7831e-20)
(-2.30697 -0.0384586 2.60751e-20)
(-2.28529 -0.043633 7.30253e-20)
(-2.26096 -0.0490042 0)
(-2.23382 -0.0545721 6.18879e-20)
(-2.20375 -0.0603375 1.88972e-20)
(-2.17059 -0.0662948 0)
(-2.13419 -0.0724375 2.93617e-20)
(-2.09441 -0.0787542 2.50663e-20)
(-2.0511 -0.0852303 -3.06107e-20)
(-2.00413 -0.0918462 0)
(-1.95338 -0.0985783 -5.1442e-21)
(-1.89873 -0.105399 -2.5173e-21)
(-1.84008 -0.112273 -1.6599e-22)
(-1.77737 -0.119161 0)
(-1.71052 -0.126015 0)
(-1.63949 -0.132788 0)
(-1.56427 -0.139434 1.15562e-20)
(-1.48489 -0.14592 0)
(-1.40145 -0.152147 0)
(-1.31407 -0.158042 -2.47381e-20)
(-1.22289 -0.163534 -2.90852e-20)
(-1.12813 -0.168566 0)
(-1.03007 -0.173097 0)
(-0.929 -0.17705 -8.67798e-20)
(-0.825266 -0.180369 0)
(-0.719242 -0.183011 1.07819e-19)
(-0.611334 -0.18495 1.15607e-19)
(-0.501962 -0.18617 0)
(-0.391564 -0.186681 0)
(-0.280574 -0.186504 -1.49788e-19)
(-0.169434 -0.185676 -3.73839e-21)
(-0.0584445 -0.184285 -3.8041e-21)
(0.0519881 -0.18238 0)
(0.16122 -0.179868 -3.8144e-19)
(0.268654 -0.176646 0)
(0.373796 -0.172765 0)
(0.476174 -0.168247 0)
(0.575523 -0.163014 2.20834e-19)
(0.671814 -0.157129 0)
(0.76499 -0.150814 -4.61129e-19)
(0.854908 -0.144223 -2.39702e-19)
(0.941429 -0.137475 0)
(1.02445 -0.130659 -2.50821e-19)
(1.10389 -0.123847 0)
(1.17971 -0.117096 0)
(1.25191 -0.110455 -7.91198e-19)
(1.32051 -0.103964 5.34696e-19)
(1.38554 -0.0976574 0)
(1.44709 -0.0915594 5.50601e-19)
(1.50524 -0.0856932 -2.80661e-19)
(1.56007 -0.0800733 0)
(1.61172 -0.0747115 0)
(1.66029 -0.0696139 0)
(1.70593 -0.0647844 -8.73911e-19)
(1.74877 -0.0602236 0)
(1.78896 -0.055929 -2.96711e-19)
(1.82663 -0.0518976 0)
(1.86194 -0.0481231 0)
(1.89505 -0.0445975 0)
(1.92608 -0.0413085 0)
(1.9552 -0.0382411 0)
(1.98252 -0.035371 0)
(2.00817 -0.0326658 -6.13342e-19)
(2.03223 -0.0300723 0)
(2.05475 -0.0275085 -3.09253e-19)
(2.0757 -0.0248341 9.2952e-19)
(2.09496 -0.0217959 0)
(2.11215 -0.0179297 0)
(2.12699 -0.0122429 -6.26514e-19)
(2.13796 -0.00292804 -6.31397e-19)
(2.14841 0.0143789 6.35215e-19)
(2.15014 0.0477305 6.49984e-19)
(-0.0112665 -0.0317307 -1.71088e-18)
(-0.0229202 0.00535492 -6.04117e-19)
(-0.0375332 0.0356626 -2.2083e-19)
(-0.0545021 0.0614157 -7.95722e-20)
(-0.0725505 0.0837431 0)
(-0.0913757 0.103142 1.15409e-19)
(-0.111172 0.119883 -5.279e-20)
(-0.132158 0.134225 0)
(-0.15449 0.146482 -4.70107e-20)
(-0.178253 0.157019 0)
(-0.203477 0.1662 8.71307e-20)
(-0.230142 0.174348 0)
(-0.258183 0.18171 4.11346e-20)
(-0.287491 0.188445 8.01348e-20)
(-0.317905 0.194633 -7.80498e-20)
(-0.349238 0.200318 0)
(-0.381298 0.205571 -7.38787e-20)
(-0.413853 0.210504 0)
(-0.446606 0.21516 0)
(-0.479272 0.219397 -6.81091e-20)
(-0.511708 0.222916 0)
(-0.543935 0.225423 -2.87189e-23)
(-0.57613 0.226804 0)
(-0.60839 0.227175 0)
(-0.640615 0.226958 -8.06662e-23)
(-0.672606 0.2263 -5.90832e-20)
(-0.704238 0.225213 -5.74604e-20)
(-0.735431 0.223813 -5.61232e-20)
(-0.766257 0.221905 0)
(-0.796949 0.219239 -1.07316e-19)
(-0.827653 0.216404 0)
(-0.858254 0.213553 -5.1434e-20)
(-0.888678 0.210674 0)
(-0.918927 0.207788 0)
(-0.949007 0.204914 4.85708e-20)
(-0.978926 0.202065 0)
(-1.00869 0.199251 -4.69066e-20)
(-1.03832 0.196479 -5.69795e-23)
(-1.06781 0.193756 9.0864e-20)
(-1.09718 0.191086 -8.9405e-20)
(-1.12643 0.188472 0)
(-1.15556 0.185911 0)
(-1.18458 0.1834 -4.27125e-20)
(-1.21349 0.180934 0)
(-1.24228 0.178506 -4.17056e-20)
(-1.27096 0.176109 4.11607e-20)
(-1.29951 0.173735 4.06336e-20)
(-1.32793 0.171375 0)
(-1.35622 0.169021 -3.96261e-20)
(-1.38436 0.166663 -3.91427e-20)
(-1.41236 0.164295 7.71794e-20)
(-1.44018 0.161907 -3.821e-20)
(-1.46783 0.159494 -3.77583e-20)
(-1.49529 0.157048 0)
(-1.52254 0.154564 0)
(-1.54956 0.152036 3.6449e-20)
(-1.57635 0.149462 0)
(-1.60288 0.146836 0)
(-1.62914 0.144157 -7.03795e-20)
(-1.6551 0.141422 -6.95548e-20)
(-1.68074 0.138631 0)
(-1.70605 0.135782 0)
(-1.731 0.132875 0)
(-1.75557 0.129912 0)