/*--------------------------------*- C++ -*----------------------------------*\
| =========                 |                                                 |
| \\      /  F ield         | OpenFOAM: The Open Source CFD Toolbox           |
|  \\    /   O peration     | Version:  2312                                  |
|   \\  /    A nd           | Website:  www.openfoam.com                      |
|    \\/     M anipulation  |                                                 |
\*---------------------------------------------------------------------------*/
FoamFile
{
    version     2.0;
    format      ascii;
    arch        "LSB;label=64;scalar=64";
    class       volScalarField;
    location    "180";
    object      p;
}
// * * * * * * * * * * * * * * * * * * * * * * * * * * * * * * * * * * * * * //

dimensions      [0 2 -2 0 0 0 0];

internalField   nonuniform List<scalar> 
404911
(
0.0495953
0.0496031
0.0496413
0.0496184
0.0495538
0.0495828
0.0496103
0.0496179
0.0496173
0.0496177
0.0500986
0.0497825
0.0496561
0.0496436
0.0496259
0.0496207
0.0502413
0.0500694
0.0498687
0.0497816
0.0505006
0.0503504
0.0501054
0.0509035
0.0506956
0.0503345
0.0512655
0.0511131
0.0510026
0.0517184
0.05159
0.0514371
0.0512352
0.0511802
0.0517954
0.0517109
0.0515279
0.0523283
0.0521487
0.0519688
0.0517866
0.0524909
0.0524169
0.0523039
0.0521647
0.0519273
0.052595
0.0525169
0.0524034
0.0523208
0.0528382
0.0527438
0.0525878
0.0525224
0.0528567
0.0528495
0.0549605
0.0493629
0.0493662
0.0493703
0.0498984
0.0496776
0.0502384
0.0500609
0.049897
0.0505444
0.0503374
0.0501185
0.0509487
0.0506343
0.0512686
0.0509953
0.0509975
0.051576
0.0514073
0.0511268
0.0510445
0.0517538
0.0516632
0.0522111
0.0519846
0.0524337
0.0522445
0.052234
0.0526307
0.0525489
0.0529106
0.0526899
0.0525574
0.0529033
0.0529166
0.0548189
0.0549143
0.0548014
0.0553855
0.0551751
0.0550683
0.0556509
0.0554615
0.0552375
0.0559008
0.0558522
0.0556892
0.0558671
0.0202805
0.0200733
0.0198844
0.0213997
0.021206
0.0207483
0.0207001
0.0204198
0.0202241
0.0200705
0.0197704
0.0220399
0.0218005
0.0212624
0.0209519
0.0206954
0.0205434
0.0203236
0.0201514
0.0192136
0.0227719
0.0225348
0.0223623
0.0221512
0.021969
0.0218263
0.0214817
0.021115
0.0208195
0.0206556
0.020474
0.0202375
0.0198181
0.0193525
0.0192499
0.0191802
0.0233534
0.0230918
0.0228587
0.0226226
0.0224182
0.0222296
0.0220505
0.0218734
0.0216343
0.0213385
0.0210766
0.0208005
0.0206234
0.0203755
0.0192158
0.0240951
0.0237515
0.0234677
0.0231596
0.0228846
0.0226837
0.0224803
0.0222882
0.0221031
0.0219305
0.0216731
0.0214266
0.021223
0.0209769
0.0208375
0.0245179
0.0242985
0.0239225
0.0236162
0.023327
0.022993
0.0227749
0.0225379
0.022358
0.0222053
0.0220048
0.0218122
0.0215566
0.0213304
0.0211157
0.0209831
0.0253694
0.0250065
0.0246508
0.0244035
0.0239947
0.0237913
0.0234972
0.0230783
0.0228396
0.0226164
0.0224606
0.0222826
0.0220877
0.0218825
0.0216585
0.0214371
0.0212434
0.0264207
0.0261266
0.0258565
0.0255133
0.0251598
0.0248409
0.0245757
0.0242495
0.0239624
0.0236364
0.0231926
0.022971
0.022751
0.0225817
0.0224012
0.0221783
0.0219843
0.0217772
0.0269709
0.0266987
0.0262971
0.0260001
0.0256744
0.0253311
0.0250543
0.0247188
0.0244107
0.0240822
0.0237758
0.0233866
0.023071
0.0228808
0.0227119
0.0224907
0.0223083
0.0220943
0.0276986
0.0274468
0.0271871
0.0268952
0.026534
0.0261975
0.0258754
0.0255261
0.0252102
0.0248785
0.0245721
0.0242568
0.0239449
0.0235733
0.0232291
0.0230007
0.022839
0.0226482
0.0281669
0.0279061
0.0276261
0.0273756
0.027078
0.0267338
0.0264188
0.0260786
0.0257336
0.0254256
0.0250897
0.0247703
0.0244147
0.0240979
0.0238485
0.0234574
0.0230885
0.0288153
0.0285767
0.0282664
0.0280652
0.0278258
0.0275509
0.0272441
0.0269324
0.0266163
0.0262697
0.0259368
0.0256008
0.0252752
0.0249602
0.0245952
0.0242597
0.0240275
0.0294393
0.0291736
0.0289191
0.028808
0.028556
0.0282952
0.0280117
0.0277571
0.0274658
0.0271711
0.0268484
0.0264589
0.0261007
0.0257558
0.0254845
0.0251243
0.0247649
0.0244695
0.0303084
0.0300426
0.0296285
0.0293152
0.0290655
0.0289776
0.0287218
0.0284685
0.0281889
0.0279444
0.0277215
0.0273869
0.027019
0.0266407
0.0262511
0.0258754
0.025663
0.0254159
0.0308378
0.030677
0.0305026
0.0303432
0.0299319
0.0295253
0.0292584
0.0291386
0.0289573
0.0286829
0.0283545
0.0281193
0.0279644
0.0276196
0.027172
0.0267786
0.0264438
0.0260727
0.031169
0.0309689
0.0307924
0.0306245
0.0304588
0.0301972
0.0298001
0.0295108
0.0292765
0.0291029
0.0287843
0.0284516
0.028262
0.0281364
0.0278138
0.0273165
0.0269038
0.0265826
0.0317276
0.0315119
0.0312305
0.0310726
0.0309004
0.0306839
0.030515
0.0302841
0.0300334
0.0297428
0.0294785
0.0292869
0.0289546
0.0285967
0.0283617
0.0282417
0.0279593
0.0275046
0.0321195
0.0318569
0.0316432
0.0314122
0.0311858
0.0309885
0.0307818
0.0305608
0.0303421
0.0301849
0.0300058
0.0297166
0.029448
0.0291437
0.0287801
0.0285201
0.0283587
0.0281521
0.0330211
0.0327675
0.0323297
0.0320005
0.0318216
0.0315788
0.0313462
0.0311095
0.0309125
0.0306467
0.0304078
0.0302834
0.0301484
0.0299873
0.029736
0.0294119
0.0290164
0.028688
0.0334336
0.0332437
0.033054
0.0326762
0.0323085
0.0320562
0.03183
0.0316078
0.0313094
0.0310899
0.0307455
0.0305411
0.0303926
0.0302448
0.0300716
0.0298698
0.0295677
0.0339076
0.03372
0.0335372
0.0333835
0.0332396
0.0328854
0.0325845
0.0322766
0.0320425
0.0317399
0.0314625
0.0312546
0.0309394
0.0306963
0.0305425
0.0303687
0.0301897
0.0299746
0.0342496
0.0340435
0.0338629
0.033664
0.0335049
0.0333395
0.0330839
0.0328057
0.0325486
0.032321
0.0320389
0.0317083
0.0313976
0.0310922
0.0308427
0.0306654
0.030491
0.0303035
0.0345585
0.0343842
0.0341989
0.0340139
0.0337883
0.0335739
0.0334193
0.0332014
0.03296
0.0327581
0.0325616
0.0322998
0.0319051
0.0315923
0.0312792
0.031116
0.0308338
0.0306593
0.0350777
0.0348721
0.0346947
0.0345248
0.0343536
0.0342005
0.0339404
0.0337106
0.0334962
0.0332525
0.0330251
0.0328749
0.0327008
0.0325132
0.0321575
0.0317932
0.0314881
0.0312205
0.0355537
0.0353795
0.0352064
0.0350215
0.0348523
0.0346718
0.0344904
0.0343158
0.0341233
0.033874
0.033616
0.0333721
0.0331053
0.0329604
0.032784
0.0325824
0.0322624
0.0319987
0.035886
0.0356843
0.0355115
0.0353385
0.0351597
0.0350025
0.0348533
0.0346568
0.0344684
0.034241
0.0339996
0.0337496
0.0335344
0.0332651
0.033078
0.0329014
0.0327117
0.0324325
0.0363704
0.0361826
0.0360036
0.0358212
0.0356253
0.0354623
0.0353027
0.0351528
0.0350264
0.0348805
0.0346452
0.0343906
0.0341404
0.0339344
0.0337008
0.0334196
0.0331177
0.033054
0.0366747
0.0364929
0.0363093
0.0361293
0.0359344
0.0357504
0.0355863
0.0354287
0.0352834
0.0351592
0.0350511
0.0348269
0.0345815
0.0343093
0.0340484
0.0338912
0.0336322
0.0333899
0.0370145
0.0368057
0.0365948
0.0364147
0.0362399
0.0360385
0.0358514
0.0356981
0.0355485
0.0354013
0.0352596
0.03511
0.0349233
0.0346935
0.0344453
0.0342204
0.0340116
0.0337638
0.0374183
0.0371863
0.0369413
0.0366982
0.0365616
0.0363834
0.0361652
0.0359249
0.0357946
0.0356586
0.0355135
0.0353613
0.0351946
0.0350016
0.0347878
0.0345737
0.0343443
0.0341703
0.0378657
0.0377373
0.0376072
0.0374043
0.0371505
0.0369143
0.0367471
0.0365713
0.036341
0.0360508
0.0359102
0.0357785
0.0356336
0.0354722
0.0352983
0.0351091
0.0349151
0.0346682
0.0382374
0.0380297
0.0378528
0.0377065
0.0375151
0.037283
0.0370857
0.0369375
0.0368142
0.0365934
0.0362674
0.0360587
0.0359215
0.035772
0.0355943
0.0354245
0.0352474
0.0350576
0.0385796
0.0383865
0.0381849
0.038
0.0377752
0.0375555
0.0373589
0.0372001
0.0370569
0.03693
0.0367464
0.0364965
0.036259
0.0360805
0.0359109
0.035748
0.0355883
0.0354189
0.0388735
0.038709
0.038533
0.0383225
0.0381618
0.0379243
0.0376815
0.0374072
0.0372889
0.0371535
0.0370132
0.0368485
0.0366391
0.0364401
0.036238
0.0360507
0.0358801
0.0394657
0.0392318
0.0390407
0.0388589
0.0386578
0.0384678
0.0383249
0.0380829
0.0378072
0.0375314
0.03739
0.0372604
0.0371208
0.0369569
0.0367685
0.0365765
0.0363836
0.0361853
0.03981
0.0396103
0.0394093
0.0392125
0.0389924
0.0387719
0.0385639
0.0384105
0.0382375
0.0380073
0.037746
0.0374742
0.0373778
0.0372393
0.0370816
0.0369079
0.0367188
0.0365509
0.0401052
0.0399414
0.0397635
0.0395765
0.0393992
0.0391835
0.0389764
0.0386813
0.0385239
0.0383922
0.0381893
0.0378772
0.0376539
0.0375192
0.0373758
0.0372273
0.037074
0.0368996
0.0405856
0.0403973
0.0402437
0.040087
0.0399265
0.0397745
0.0396395
0.0393719
0.0391626
0.0388847
0.0386479
0.0385127
0.0383659
0.0381284
0.0378732
0.0376872
0.037526
0.0373649
0.040864
0.040696
0.0405499
0.040392
0.040239
0.0400887
0.03995
0.0398371
0.0396277
0.0393724
0.0390747
0.0388363
0.0385991
0.0385127
0.0383381
0.0380806
0.0378667
0.0376593
0.0411956
0.0410087
0.0408423
0.0406887
0.0405298
0.0403827
0.0402369
0.0400991
0.0399812
0.0398404
0.0395136
0.0393042
0.0389769
0.0387557
0.0386286
0.0384653
0.0382599
0.0380659
0.0414647
0.0413354
0.0411601
0.0409929
0.0408324
0.0406728
0.0405264
0.0403806
0.0402195
0.0400658
0.0399289
0.0397519
0.0394856
0.0391829
0.0389556
0.0387775
0.0386213
0.0384219
0.0418355
0.0416703
0.0414737
0.0413056
0.0411261
0.0409665
0.0408155
0.0406812
0.0405449
0.0403642
0.0401767
0.0399928
0.0398332
0.0396529
0.0393716
0.039157
0.0389522
0.0423151
0.0421291
0.0419721
0.0417896
0.0415941
0.0414306
0.0412506
0.0410907
0.0409505
0.0408296
0.0407274
0.0405559
0.0403813
0.040111
0.039951
0.0397844
0.0395674
0.0393604
0.042594
0.042432
0.0422797
0.0421182
0.0419442
0.041764
0.0415682
0.0413582
0.041188
0.0410699
0.0409653
0.0408801
0.0408261
0.0405606
0.040317
0.0400853
0.0399225
0.0397384
0.0429167
0.0427443
0.042581
0.0424297
0.0422572
0.0421047
0.0419572
0.0417616
0.0415692
0.0413053
0.0411767
0.0410872
0.0409897
0.0408863
0.0407177
0.0404805
0.0402665
0.0400826
0.0432154
0.0430484
0.0428916
0.0427214
0.0425626
0.042395
0.0422525
0.0421302
0.0420165
0.0418603
0.0415242
0.0413327
0.0412232
0.0411055
0.0409746
0.0408019
0.0406196
0.0404298
0.043568
0.0433612
0.0431899
0.0430269
0.0428516
0.0426804
0.0425156
0.042373
0.0422452
0.04213
0.0419577
0.0417377
0.0415296
0.0413796
0.041236
0.0410804
0.0409205
0.0407354
0.0439157
0.0437112
0.0435134
0.0433307
0.0431508
0.0429686
0.0427889
0.0426182
0.042469
0.0423377
0.0422078
0.0420567
0.0418791
0.0416946
0.0415313
0.0413715
0.0412154
0.0410401
0.0442967
0.0440693
0.0438353
0.0436367
0.0434453
0.0432648
0.0430825
0.0428875
0.0427053
0.0425494
0.0424295
0.0423033
0.042168
0.0420074
0.0418404
0.041682
0.041517
0.0413319
0.0446355
0.0444575
0.0442618
0.0439889
0.043723
0.0435447
0.0433737
0.0432168
0.0430316
0.0427878
0.0426018
0.0425159
0.0424171
0.0422935
0.0421443
0.0419826
0.0418206
0.0416814
0.0451376
0.0449774
0.0448067
0.0446637
0.0445026
0.0441682
0.0438901
0.0437269
0.0434883
0.043363
0.0431331
0.0429998
0.0427582
0.0426428
0.0425494
0.0424311
0.0422834
0.042136
0.0419702
0.0454394
0.0453044
0.0451554
0.0449935
0.0448501
0.0447452
0.0445227
0.0442746
0.0439478
0.0436798
0.0435529
0.043385
0.0432077
0.0429817
0.0428276
0.0427125
0.0425776
0.0424343
0.0455963
0.045445
0.045297
0.0451391
0.0450086
0.0448976
0.044759
0.0445274
0.0442374
0.0440067
0.0437227
0.0435505
0.0434417
0.0432491
0.0430343
0.0428731
0.0427273
0.0460673
0.0459126
0.0457633
0.0455994
0.04544
0.0452809
0.0451408
0.0450276
0.0449145
0.044666
0.0444593
0.0441805
0.0439412
0.0437362
0.0435749
0.0434126
0.0432301
0.0430475
0.0464055
0.0462121
0.0460738
0.0459163
0.0457505
0.0455848
0.0454134
0.0452517
0.0451319
0.0450418
0.044854
0.044627
0.0443519
0.0440942
0.0439236
0.0437497
0.043578
0.0433759
0.0466177
0.0465228
0.046378
0.0462212
0.0460673
0.0459139
0.0457578
0.0455619
0.0453542
0.0451995
0.0451435
0.0450058
0.0448074
0.0445426
0.0442895
0.044098
0.0439282
0.0437678
0.0467921
0.0466501
0.0465091
0.0463627
0.0462169
0.046075
0.0459482
0.0457754
0.0455343
0.0453074
0.0452317
0.0451465
0.0449564
0.0447009
0.0444893
0.044288
0.044113
0.0471822
0.0469311
0.046754
0.0466466
0.0465104
0.0463595
0.0462174
0.046106
0.0459645
0.0457561
0.0454811
0.0453353
0.0452328
0.0450622
0.0448603
0.0446669
0.0444747
0.0480841
0.0477774
0.0474554
0.047152
0.0469693
0.0468182
0.0466689
0.0464903
0.0463295
0.0462163
0.0461283
0.045919
0.0456442
0.0454836
0.0453496
0.0451928
0.0450018
0.0448127
0.0484333
0.0482418
0.0479875
0.0476755
0.0473377
0.0471565
0.0470066
0.0468576
0.0466706
0.0465078
0.0463073
0.0462461
0.0460567
0.0458182
0.0456391
0.0454736
0.0453412
0.0487119
0.048564
0.0483436
0.0481044
0.04783
0.0475116
0.0472869
0.0471679
0.0470462
0.046821
0.0466764
0.0464862
0.0463437
0.0462217
0.0460006
0.0457961
0.0456217
0.0492406
0.0490476
0.0488818
0.0487115
0.0484735
0.0482609
0.047996
0.0476766
0.0474816
0.0473222
0.0471709
0.0470602
0.0468572
0.0466562
0.046492
0.0463417
0.0461545
0.0459646
0.0495757
0.0493788
0.0491742
0.0490329
0.0488725
0.0487048
0.0485086
0.0482328
0.0479399
0.0477889
0.0474967
0.0473576
0.0471691
0.0469756
0.0468209
0.0466596
0.0465024
0.0463292
0.0499464
0.0497084
0.0495683
0.049323
0.0492294
0.0490943
0.049083
0.0489496
0.0486863
0.0482462
0.0479833
0.0477886
0.0475854
0.0473366
0.0470795
0.0469365
0.0468086
0.0466561
0.0504148
0.0501838
0.0499264
0.0497191
0.049562
0.0494282
0.0493621
0.0491931
0.0490498
0.048963
0.0485936
0.0483019
0.0480916
0.0478522
0.0475946
0.0473191
0.0471342
0.0469885
0.0509784
0.0507927
0.0505891
0.0503596
0.0501457
0.0499461
0.0498042
0.0497109
0.0497287
0.0494496
0.0492314
0.0490328
0.0488055
0.0485554
0.0483447
0.0481579
0.0478619
0.0475624
0.0473499
0.0512707
0.0511137
0.0509517
0.0507775
0.0505698
0.0503463
0.0501685
0.0500116
0.0499502
0.0496728
0.0494837
0.0493005
0.0491239
0.0489479
0.0487271
0.0485032
0.0483263
0.0480701
0.0478258
0.0513934
0.0512599
0.0510799
0.0509189
0.0507279
0.0505453
0.0502748
0.0500957
0.0499525
0.0497333
0.049566
0.0493981
0.0492357
0.0490554
0.048846
0.0486523
0.0484565
0.0482646
0.0518268
0.0516326
0.0514391
0.0512484
0.0510856
0.0509835
0.0507783
0.0505007
0.0502189
0.0500353
0.0498306
0.0496711
0.0495284
0.0493603
0.0491738
0.0489829
0.048783
0.0522231
0.0520215
0.0518304
0.0516251
0.0514264
0.0512456
0.0509495
0.0509738
0.0506629
0.050411
0.0501667
0.0499836
0.0498251
0.0496752
0.0495021
0.0493236
0.0491005
0.0526515
0.0524158
0.0522076
0.0519998
0.0517782
0.0515185
0.0513338
0.0511062
0.0510189
0.0508599
0.0505709
0.0503464
0.0501643
0.0499982
0.0498313
0.0496572
0.0494668
0.0531927
0.0530106
0.0528264
0.0525848
0.0523698
0.0521326
0.0518654
0.051681
0.0515479
0.0513828
0.0512014
0.0510014
0.0507337
0.050518
0.0503381
0.050166
0.0499902
0.0498381
0.0536172
0.0534128
0.0531788
0.0529845
0.0527444
0.0524957
0.0523506
0.0522922
0.0518947
0.0517318
0.0515548
0.0513874
0.0511882
0.0509089
0.0506992
0.050511
0.0503309
0.0540096
0.053806
0.0535793
0.0533523
0.0530878
0.0528199
0.0525076
0.0523451
0.0522446
0.0520859
0.0519047
0.0517215
0.0515562
0.0513614
0.0511281
0.0508976
0.0507028
0.0543787
0.0541894
0.054007
0.0537643
0.0534638
0.0531056
0.0529109
0.0527836
0.0525453
0.0524198
0.0522638
0.052085
0.0518768
0.0516962
0.0515062
0.0512967
0.0510928
0.0548255
0.0545924
0.0543681
0.0541558
0.0538719
0.0535446
0.0532346
0.0530861
0.0528248
0.0527145
0.0526007
0.0524386
0.0522597
0.0520722
0.0518637
0.0516831
0.0514709
0.055185
0.0550257
0.0547999
0.0545606
0.054329
0.0540565
0.0536796
0.0530342
0.053138
0.053078
0.0529776
0.0528024
0.0526112
0.0524287
0.0522346
0.0520321
0.051843
0.0555434
0.0553547
0.0551895
0.0550316
0.0547868
0.0546504
0.0544032
0.0539708
0.0536669
0.0534555
0.0533108
0.0531838
0.0530138
0.0527919
0.0526077
0.052416
0.0522052
0.0556996
0.0555101
0.0553425
0.0551346
0.0549619
0.0547696
0.0546443
0.0543221
0.0539599
0.0537012
0.0535184
0.0533499
0.0531648
0.0529656
0.0528023
0.0525867
0.0563507
0.0560092
0.0557167
0.0555485
0.0553672
0.055185
0.0550665
0.0547203
0.0544488
0.0541707
0.0538987
0.0536791
0.0535192
0.0533222
0.0531314
0.0571813
0.0569833
0.0566655
0.0563202
0.0559503
0.0557855
0.0555568
0.0552846
0.0551467
0.0548589
0.054576
0.0543142
0.0541191
0.0538894
0.0536911
0.0535057
0.0575713
0.057392
0.0572079
0.0569136
0.0565824
0.0561646
0.0558124
0.0558728
0.0555184
0.0553252
0.0550595
0.0547549
0.0543957
0.0542441
0.0540631
0.0538706
0.0580226
0.0578224
0.0576183
0.0573457
0.0570573
0.056754
0.0563991
0.0562487
0.0559664
0.0557424
0.0555435
0.0553034
0.0549694
0.0546469
0.0544207
0.0542451
0.0586704
0.0584462
0.0582278
0.0580239
0.0578748
0.0575852
0.0573001
0.0570597
0.0568243
0.0565829
0.0563075
0.0559768
0.0557021
0.0554902
0.0552381
0.0549463
0.0590279
0.058806
0.058642
0.0584686
0.0582485
0.0580651
0.0577694
0.0574847
0.0572366
0.0570688
0.056814
0.0565448
0.0562237
0.0559432
0.0557475
0.0555177
0.0594881
0.0592129
0.0589642
0.0587917
0.0586359
0.0584152
0.0582335
0.0580006
0.0576969
0.0575107
0.0573426
0.0571551
0.0568942
0.0565343
0.0562176
0.05593
0.0600121
0.0596817
0.0593239
0.0590941
0.0589323
0.0587812
0.0585895
0.0583193
0.058112
0.0578918
0.0577243
0.0575867
0.0574193
0.0572046
0.0568319
0.0564968
0.0605595
0.0601749
0.0598945
0.0596039
0.0593005
0.0591377
0.0589381
0.0587541
0.0584538
0.0582587
0.0580547
0.0578606
0.0577755
0.0576375
0.0573984
0.0571455
0.0610468
0.0607916
0.060484
0.060204
0.0599261
0.0596878
0.0594101
0.0591675
0.0589848
0.0586568
0.0583989
0.0582386
0.0581048
0.0579154
0.057759
0.0615227
0.0613277
0.061054
0.0607597
0.0604325
0.0601608
0.059932
0.0597058
0.0594519
0.0592037
0.0589413
0.0585958
0.0583898
0.0582606
0.0581162
0.0579134
0.061918
0.0617247
0.0615438
0.0613495
0.0610163
0.060674
0.0604109
0.0601419
0.0599663
0.0597104
0.0594732
0.0592413
0.0588956
0.0586397
0.0584789
0.0583153
0.0622727
0.0621171
0.0619131
0.0617126
0.0614864
0.0611944
0.0609317
0.0606878
0.0604221
0.0601971
0.0599691
0.0597494
0.0595482
0.059237
0.0589231
0.0625314
0.0622809
0.0621197
0.0619483
0.0617031
0.0613994
0.0611296
0.0609194
0.0606932
0.0604666
0.0601836
0.0599866
0.0597329
0.0594823
0.0633497
0.0629215
0.0626057
0.0624058
0.0621572
0.0618972
0.0616096
0.0613902
0.0611446
0.0609485
0.060716
0.0604199
0.0601989
0.063983
0.0638013
0.0635198
0.0632411
0.0629495
0.0626604
0.0623879
0.0621423
0.061878
0.0616279
0.0613629
0.0611137
0.0609029
0.0606083
0.0643588
0.0641373
0.0639685
0.0637303
0.0634937
0.0631655
0.0629287
0.0625971
0.0623397
0.0620873
0.0618078
0.0615608
0.0613335
0.0611099
0.0647931
0.0645641
0.0643266
0.0640767
0.0639249
0.063682
0.0634196
0.063125
0.0628535
0.0626087
0.0622746
0.062011
0.0617825
0.0615783
0.0651589
0.0650008
0.0647736
0.0645422
0.0643301
0.0640777
0.0639017
0.063644
0.063345
0.0630662
0.0628363
0.0625008
0.0622524
0.0620309
0.0655314
0.0653521
0.0651901
0.0650193
0.064845
0.0646663
0.0643413
0.0640946
0.063819
0.0635166
0.0632537
0.0630415
0.0627833
0.062499
0.0658594
0.0656596
0.0654908
0.0653959
0.0652555
0.0649826
0.064809
0.0646249
0.0643798
0.0640603
0.0636744
0.0634284
0.0632371
0.0655782
0.0655131
0.065316
0.064994
0.0648582
0.0646555
0.0643037
0.0638454
0.0635878
0.0657757
0.0657223
0.0655308
0.0652349
0.0650441
0.0648759
0.0646083
0.0642081
0.0661936
0.0659605
0.0659078
0.0658447
0.0655632
0.0652347
0.065042
0.0668813
0.0665991
0.0662379
0.0660902
0.0659946
0.0657655
0.0654734
0.0669029
0.0666444
0.066389
0.0661909
0.065996
0.0678073
0.0674342
0.0669252
0.0669333
0.0666618
0.0664404
0.0698917
0.0696927
0.068609
0.0681726
0.0670226
0.069931
0.0696569
0.0694206
0.0691641
0.0689865
0.0674083
0.0702811
0.0692933
0.0689436
0.0688175
0.0684164
0.0704877
0.0698653
0.069339
0.00531317
0.0051032
0.0049666
0.00696863
0.00661305
0.00629622
0.00603141
0.00572054
0.00541945
0.0051446
0.00499101
0.00370528
0.00834653
0.00804548
0.00765846
0.00738114
0.00704772
0.00671553
0.00641756
0.00611212
0.00579675
0.00549195
0.00515645
0.00492522
0.00462357
0.00420999
0.00390979
0.00939384
0.00907567
0.00879678
0.00844897
0.00815848
0.00777114
0.00745305
0.00715693
0.00683148
0.00650987
0.00619341
0.00582743
0.0055129
0.00519831
0.00489662
0.0046293
0.00428793
0.00390781
0.00367136
0.0031787
0.00265509
0.00234584
0.0105158
0.0102556
0.00987956
0.00954293
0.00917425
0.00887057
0.00856122
0.00821213
0.00787131
0.00753759
0.00723396
0.00693238
0.00661994
0.00630955
0.00594631
0.00561564
0.00516832
0.00492309
0.00465918
0.00432798
0.00400549
0.00363855
0.00321518
0.0117776
0.0114016
0.0111241
0.010716
0.0103955
0.00996299
0.0096084
0.00927442
0.00898347
0.00866495
0.0083031
0.00793908
0.00758771
0.00729603
0.0069606
0.00674065
0.00648355
0.00619794
0.00558691
0.00520518
0.00493949
0.00469922
0.00438222
0.00408262
0.00373511
0.0125384
0.0121352
0.0119244
0.0116004
0.011267
0.0107839
0.0104921
0.0100419
0.00966457
0.00935441
0.00909695
0.00879209
0.00845077
0.00797623
0.00759491
0.00733767
0.00706261
0.006836
0.00659897
0.0062436
0.00564748
0.00527844
0.00501995
0.0047596
0.00444955
0.0135936
0.0131099
0.0126299
0.0123719
0.0120513
0.0116873
0.0114143
0.0111885
0.0107856
0.0102352
0.00975575
0.00943276
0.00922107
0.00894071
0.00874165
0.00811371
0.00760731
0.00737857
0.00712683
0.00688375
0.00661849
0.00633273
0.00579119
0.00540944
0.00511873
0.0146087
0.0142214
0.0137494
0.0132173
0.0127997
0.0125448
0.0122363
0.0119133
0.0115292
0.011351
0.011035
0.0105142
0.00997512
0.00954772
0.0093354
0.00913104
0.00892765
0.00833189
0.00768703
0.00742298
0.00718854
0.00690662
0.00663216
0.00629182
0.00590332
0.0162611
0.0158734
0.015271
0.0148334
0.014339
0.0138221
0.0133747
0.0129879
0.0127039
0.0124216
0.0120262
0.0116797
0.0114907
0.0112604
0.0108198
0.0103387
0.00981981
0.00942364
0.00918094
0.00898623
0.00845996
0.00784422
0.00751734
0.00726777
0.00697101
0.00663819
0.0172233
0.016941
0.0166656
0.0163822
0.0160167
0.0154974
0.0150127
0.0144723
0.0139422
0.0136167
0.0132201
0.012865
0.0124711
0.0120787
0.0117848
0.0115677
0.0113263
0.0110021
0.010609
0.0100516
0.00961109
0.00928101
0.00887109
0.00840048
0.00805484
0.00762746
0.00736242
0.0176144
0.017362
0.0170729
0.0168081
0.0164639
0.0160971
0.0156435
0.0151922
0.0147432
0.0142663
0.0138368
0.013394
0.0129869
0.0125631
0.0121276
0.0119033
0.0116719
0.0114147
0.0111207
0.0108153
0.0104159
0.00984525
0.00947837
0.00900991
0.00846964
0.0192619
0.0189042
0.0184301
0.0179566
0.0175941
0.0171903
0.0169518
0.0166495
0.0161532
0.0157672
0.0153587
0.0149201
0.0144833
0.0139896
0.0135753
0.0131763
0.0126788
0.0122351
0.0120154
0.01179
0.0115274
0.0112866
0.0110293
0.0106822
0.0101844
0.0197564
0.0193806
0.0190906
0.0187133
0.0182532
0.0177415
0.0174186
0.0171448
0.016742
0.0163569
0.0158896
0.0155446
0.015122
0.0146844
0.014153
0.0137343
0.0132778
0.0128161
0.0123965
0.0121274
0.011903
0.0116793
0.0114425
0.0111861
0.0207882
0.0206334
0.0203402
0.0199555
0.0195326
0.0192796
0.0189888
0.0185607
0.0181533
0.0176683
0.0173544
0.0169816
0.0165786
0.0162631
0.0157947
0.01533
0.0148591
0.0143729
0.0139038
0.013428
0.0129601
0.0125582
0.0122839
0.0120336
0.0117734
0.0214199
0.0211333
0.0209042
0.0207374
0.0205511
0.0200997
0.0198158
0.0195707
0.0192778
0.0189538
0.0184272
0.0179739
0.0176272
0.0172206
0.0168412
0.0164648
0.0160495
0.0155871
0.0151174
0.0146663
0.0141315
0.0135146
0.0129851
0.0127035
0.0123615
0.0219873
0.0217516
0.0215233
0.0212657
0.0210081
0.0207899
0.0205964
0.0202971
0.0200643
0.0198564
0.0195991
0.0192249
0.0187061
0.0183116
0.017797
0.0174595
0.0170917
0.0167517
0.0163176
0.0158744
0.0154421
0.0149427
0.0144381
0.013807
0.0131795
0.022776
0.0225405
0.0223351
0.0221181
0.0218982
0.021685
0.0213813
0.0211504
0.0208319
0.0206521
0.0204269
0.0202241
0.0200318
0.0197464
0.0194473
0.0189976
0.0185293
0.0180683
0.0177557
0.0173379
0.0169786
0.01656
0.0161076
0.01567
0.0152193
0.0147421
0.0234194
0.0232369
0.0229295
0.0226827
0.0224657
0.0222318
0.0220291
0.0218136
0.021564
0.0212771
0.0209831
0.0207281
0.0205366
0.0203391
0.0201686
0.0198523
0.019427
0.0191775
0.0188034
0.0184375
0.0180877
0.0176091
0.0172129
0.0167761
0.0163663
0.0159255
0.0242261
0.0238762
0.0235442
0.0233012
0.0230527
0.0227698
0.0225294
0.0223328
0.0221412
0.021949
0.0216451
0.0213641
0.0211735
0.020864
0.0206593
0.0204562
0.0202068
0.0198504
0.019416
0.0192008
0.0189954
0.0185384
0.0182994
0.0180161
0.0175038
0.0170406
0.0166271
0.0248117
0.0245959
0.0243054
0.0239957
0.0236732
0.023369
0.0230948
0.0228501
0.0226239
0.0224243
0.022232
0.0220437
0.0218481
0.0215246
0.0212334
0.0210301
0.0208107
0.0206147
0.0203272
0.0198873
0.0194355
0.019183
0.0189363
0.0186479
0.0184116
0.0182022
0.0179148
0.0253118
0.0249962
0.0247159
0.0244308
0.0241065
0.0237619
0.0234547
0.0231657
0.0228959
0.0226743
0.0224841
0.022302
0.0221174
0.0219202
0.0216873
0.0214263
0.0211935
0.0209937
0.0208198
0.0206058
0.0201004
0.0195869
0.0192543
0.0190242
0.0187527
0.0184898
0.026134
0.0257542
0.025449
0.025143
0.0248345
0.0245523
0.0241683
0.023931
0.0236494
0.0233202
0.0230461
0.0227667
0.022533
0.0223708
0.022193
0.0219948
0.0217772
0.0215452
0.021324
0.0211281
0.0209938
0.0206957
0.0201756
0.0197331
0.0194142
0.0191398
0.026851
0.0265494
0.0262673
0.0259598
0.0256291
0.025315
0.0250174
0.0246362
0.0243439
0.0240682
0.0237207
0.0234062
0.0230608
0.0228761
0.0226287
0.0224556
0.0222808
0.022085
0.0218703
0.0216492
0.0214392
0.0212208
0.0209708
0.0206718
0.0203676
0.0199553
0.0272974
0.0270404
0.0267461
0.0264067
0.0261069
0.0256963
0.0254921
0.0251798
0.0247755
0.0244875
0.0242086
0.0238522
0.0235556
0.0232119
0.0229243
0.0227508
0.0225713
0.0223851
0.022185
0.0219716
0.0217323
0.021521
0.0212974
0.0210507
0.0207908
0.0280467
0.0277911
0.0275172
0.0272525
0.0269602
0.0266123
0.0263734
0.0259543
0.025591
0.0252373
0.0249685
0.0246896
0.0243492
0.0240259
0.0237148
0.0233979
0.0231091
0.0228807
0.0227006
0.0225071
0.0223028
0.0220789
0.0218428
0.0216108
0.021407
0.0211801
0.0287638
0.0285059
0.0282468
0.0279755
0.0276988
0.0274309
0.0271569
0.026711
0.0265071
0.0261948
0.0258271
0.0254876
0.0251415
0.0248143
0.0245268
0.0241987
0.0238414
0.0235321
0.0233451
0.0230151
0.0228472
0.0226409
0.0224105
0.022182
0.0219717
0.0217507
0.0294672
0.0291786
0.0289128
0.0286652
0.0284064
0.0281645
0.0279013
0.0276327
0.0273255
0.026954
0.0266736
0.0264036
0.0260275
0.025677
0.0253337
0.0249987
0.0246797
0.0244317
0.0241302
0.0236822
0.0234025
0.0231735
0.0230095
0.0227766
0.0225489
0.0223264
0.0220998
0.0298535
0.0295835
0.0293287
0.0290484
0.0288174
0.0285727
0.0283385
0.0280924
0.0278374
0.0275618
0.0272255
0.0269039
0.0266264
0.0262294
0.0258777
0.0255269
0.025177
0.0249185
0.024553
0.0243728
0.0239737
0.023681
0.0233946
0.0231615
0.0229295
0.022714
0.0305268
0.0303019
0.0300578
0.0297493
0.0294558
0.0291791
0.0289579
0.0287859
0.0285735
0.028307
0.0280183
0.0277273
0.0274314
0.0271716
0.0268202
0.0264477
0.0260736
0.0256767
0.0252443
0.0252659
0.0247962
0.0244394
0.024169
0.0238575
0.0235328
0.0233151
0.030886
0.0306891
0.0304908
0.0302649
0.0299417
0.0297452
0.0294543
0.0291805
0.0289481
0.0287439
0.0285021
0.028201
0.0279075
0.0275403
0.027315
0.0270269
0.0265934
0.0262282
0.0260286
0.0256837
0.0253004
0.024929
0.0246255
0.0243558
0.0240456
0.031469
0.0312617
0.0310515
0.0308181
0.0306399
0.0304624
0.0301475
0.0297697
0.0296283
0.0294367
0.0291655
0.0288617
0.0286508
0.0284012
0.0280947
0.0278095
0.0275022
0.0272249
0.026904
0.026419
0.0260719
0.0258011
0.0254706
0.0251542
0.0247976
0.031867
0.0316216
0.0314061
0.0311821
0.0309614
0.030778
0.0305984
0.0303186
0.0299464
0.0298078
0.0296557
0.0293962
0.0290803
0.0288152
0.0285327
0.0282392
0.0279888
0.027682
0.0274142
0.0269754
0.0265763
0.0262362
0.025927
0.0256302
0.0253753
0.0325433
0.032283
0.03202
0.0317405
0.031518
0.0312915
0.031072
0.0308692
0.0307023
0.0304773
0.0301115
0.0298582
0.0296996
0.0296422
0.0293154
0.0289867
0.0286907
0.0283708
0.0281626
0.0280273
0.0275206
0.0271238
0.0267615
0.026463
0.02611
0.033025
0.0327611
0.0324709
0.0321725
0.0318787
0.0316614
0.0314447
0.0312207
0.0310029
0.0306682
0.0306513
0.0303506
0.0300993
0.0298544
0.0296148
0.0294349
0.0291877
0.0288233
0.0285282
0.0283599
0.0280683
0.0276234
0.0273335
0.0269973
0.0266561
0.0335843
0.0334122
0.033202
0.032966
0.0326573
0.0324783
0.0322987
0.0319449
0.0316505
0.0314136
0.031181
0.0308362
0.0306879
0.0305211
0.0302663
0.0300952
0.0299005
0.0295967
0.0293364
0.0290419
0.0287118
0.0284779
0.028191
0.0278372
0.027527
0.0339504
0.0337641
0.0335796
0.0333909
0.0332052
0.0328612
0.0324949
0.0323979
0.0321476
0.0318974
0.0315505
0.0312634
0.0309995
0.0307674
0.0305928
0.0303971
0.0302187
0.0300693
0.0298548
0.0295665
0.0292657
0.0289427
0.0286608
0.0282901
0.0344761
0.0342689
0.0340847
0.0338894
0.0337069
0.0335423
0.0333588
0.0330856
0.0326974
0.0325694
0.032355
0.0320906
0.031806
0.0314867
0.031215
0.0309632
0.0307466
0.0305593
0.0303628
0.0301831
0.0299489
0.0297
0.0294324
0.0291503
0.0288883
0.0347841
0.0345905
0.0344203
0.0342401
0.0340486
0.0338587
0.0336968
0.0334944
0.0332127
0.0329784
0.0327834
0.0325953
0.0323268
0.0320399
0.0317105
0.0314197
0.0311667
0.0308562
0.0306694
0.0305078
0.030297
0.0300645
0.0298529
0.0295926
0.0352869
0.035096
0.0349221
0.0347224
0.0345483
0.0343845
0.0341971
0.0340133
0.0338462
0.0336694
0.0334082
0.0331366
0.0329417
0.0327246
0.0323962
0.032135
0.0318778
0.0316593
0.0313158
0.0310713
0.030869
0.0306565
0.0304257
0.0302264
0.0299996
0.0356118
0.0354181
0.0352424
0.0350617
0.0348678
0.0346909
0.0345119
0.0343412
0.03412
0.0338518
0.0337597
0.0335596
0.033306
0.0331273
0.0328767
0.0326714
0.0324051
0.0320623
0.0317973
0.0315102
0.0312621
0.0310345
0.0308285
0.0306018
0.0361254
0.0359364
0.0357465
0.0355374
0.0353652
0.0352047
0.035018
0.0348518
0.0346648
0.034488
0.0343038
0.0339667
0.0338253
0.0336255
0.0334545
0.0332378
0.0329746
0.0327848
0.0325807
0.0322968
0.0319796
0.0317089
0.0314334
0.0312391
0.0310351
0.0364286
0.0362455
0.0360645
0.0358792
0.0356822
0.0355053
0.0353261
0.0351672
0.0349963
0.034831
0.0345964
0.0345032
0.0342529
0.0339896
0.0337211
0.0335919
0.0333638
0.0331035
0.0328953
0.0326984
0.0324205
0.0321192
0.0318922
0.0316381
0.0367461
0.0365755
0.0363784
0.036179
0.0360078
0.035814
0.0356418
0.0354568
0.0352975
0.0351412
0.0349847
0.0347195
0.0345659
0.034353
0.0341555
0.0339289
0.033632
0.0334258
0.0332011
0.0330322
0.032825
0.0325564
0.0323141
0.0320821
0.0372416
0.0370712
0.0368948
0.0366862
0.0364908
0.0363111
0.0361183
0.0359345
0.0357492