/*--------------------------------*- C++ -*----------------------------------*\
| =========                 |                                                 |
| \\      /  F ield         | OpenFOAM: The Open Source CFD Toolbox           |
|  \\    /   O peration     | Version:  2312                                  |
|   \\  /    A nd           | Website:  www.openfoam.com                      |
|    \\/     M anipulation  |                                                 |
\*---------------------------------------------------------------------------*/
FoamFile
{
    version     2.0;
    format      ascii;
    arch        "LSB;label=64;scalar=64";
    class       volScalarField;
    location    "10";
    object      Ndy;
}
// * * * * * * * * * * * * * * * * * * * * * * * * * * * * * * * * * * * * * //

dimensions      [0 0 0 0 0 0 0];

internalField   nonuniform List<scalar> 
404911
(
0.549194
1.04321
0.0997262
0.149249
1.05967
1.03585
0.826138
0.238998
0.31791
0.34972
0.523801
0.360548
1.027
0.521057
0.301341
0.176739
0.5436
0.976132
1.07432
0.521366
0.521268
0.965574
0.491312
0.553523
0.95238
0.197291
0.510897
0.972864
1.02452
0.188048
0.538627
0.968697
0.939806
0.582239
0.444888
0.940367
0.818814
0.293138
0.43102
0.900236
0.566908
0.18512
0.432177
0.892948
1.03272
0.312831
0.336406
0.892185
1.03967
0.416861
0.302408
0.474545
0.64997
0.160881
0.325836
0.246637
0.059676
1.19429
0.34352
0.421511
1.37309
1.60988
0.495488
2.21324
1.20912
0.66887
2.2592
0.499748
1.13397
2.32379
1.15906
2.77446
1.18071
1.75104
1.98832
0.246913
0.123226
0.415821
1.48242
1.04524
1.54524
0.867638
2.3698
1.23645
1.61254
1.42636
0.534913
1.47303
0.17556
1.14388
0.793444
0.107949
1.80891
1.24165
1.08534
1.73747
1.22134
1.43837
2.26938
0.421414
0.242854
1.82562
1.72328
0.282458
0.17356
0.296938
0.474854
0.247109
0.386428
0.462206
0.554461
0.544608
0.561351
0.528679
0.125099
0.291578
0.52555
0.0875742
0.264183
0.619947
0.605026
0.606783
0.592626
0.455542
0.168662
0.401522
0.539982
0.565146
0.60761
0.287607
0.303023
0.288518
0.619276
0.637935
0.604109
0.623888
0.508335
0.51347
0.627815
0.428376
0.178573
0.406339
0.565683
0.60565
0.602197
0.607274
0.600099
0.628963
0.288619
0.309534
0.613556
0.642148
0.584547
0.142386
0.428165
0.197458
0.462951
0.625601
0.664629
0.633918
0.626088
0.605045
0.595839
0.598198
0.612749
0.628162
0.627202
0.628444
0.59247
0.459158
0.341211
0.26835
0.313811
0.324222
0.314701
0.316739
0.286625
0.610891
0.593428
0.613501
0.614256
0.618305
0.596097
0.568266
0.556251
0.556798
0.425266
0.240358
0.306434
0.328869
0.32692
0.565153
0.354564
0.278921
0.31069
0.650937
0.621914
0.626543
0.600906
0.582952
0.568648
0.509573
0.179656
0.197131
0.464737
0.270082
0.482473
0.417608
0.425113
0.542122
0.313574
0.374896
0.340716
0.311536
0.307857
0.6616
0.611818
0.59614
0.598203
0.540374
0.296991
0.21354
0.265803
0.433539
0.795538
0.895204
0.685999
0.501851
0.423994
0.614117
0.552949
0.578127
0.672096
0.717293
0.606462
0.59537
0.548773
0.415812
0.176429
0.175152
0.429295
0.782642
0.835196
0.961229
0.941641
0.938185
0.908755
0.65069
0.614807
0.45689
0.86783
0.87157
0.394318
0.300062
0.628987
0.527078
0.184509
0.308343
0.629052
0.852437
0.749866
0.955064
0.995032
1.01216
0.960462
0.960379
0.84713
0.933658
0.929461
0.58025
0.339413
0.306596
0.283028
0.323474
0.305175
0.532416
0.65304
0.580747
0.947641
0.985844
0.892749
1.01016
0.996673
0.866439
0.988981
0.967747
0.739014
0.349386
0.317028
0.303876
0.147398
0.364155
0.609404
0.680059
1.13331
1.03071
0.959288
0.927159
0.97437
0.968311
0.962028
1.00053
1.01498
0.987351
0.67548
0.336208
0.317272
0.472191
0.192549
0.197857
0.210944
0.40948
0.84365
1.70395
1.72741
0.957248
0.972787
0.973301
0.999662
1.00029
0.999029
0.983699
0.971417
0.832154
0.356192
0.577381
0.278985
0.184486
0.464793
0.702103
0.575486
0.981928
1.00571
0.99916
1.88999
0.980795
1.03754
1.01895
1.47286
1.60663
0.964985
0.937006
0.878462
0.517967
0.448851
0.30605
0.647415
0.990892
1.43827
1.75718
1.23059
1.29123
1.13758
1.74145
1.45814
1.84387
1.89529
1.51175
1.21139
0.90852
0.857928
0.568412
0.195421
0.181986
0.448774
0.681993
1.07631
1.669
1.83621
1.5548
1.19419
1.56687
1.57964
2.04908
1.42049
1.44053
1.21015
0.837104
0.768745
0.483613
0.210402
0.370678
0.711672
0.8174
1.28569
1.21727
1.48806
1.11069
1.58905
1.91999
1.95833
1.96731
1.5602
1.45226
0.99766
0.898833
0.735618
0.432472
0.237872
0.185634
0.210347
0.483242
0.926117
1.284
1.48061
1.20627
1.4394
1.51372
1.6678
2.02889
1.96053
1.98027
1.58117
1.02987
0.832152
0.698579
0.319153
0.323434
0.63627
0.586487
1.0926
1.44811
1.7497
1.61486
1.37516
1.55508
1.1058
1.42134
2.01234
1.87063
1.72234
1.25777
0.739532
0.435791
0.199064
0.582497
0.814987
1.1573
1.82989
1.56723
1.526
1.69391
1.19887
1.06629
1.06487
1.35154
1.44786
1.50677
1.67783
1.02737
0.682317
0.401734
0.324556
0.739342
1.13528
1.38925
1.84073
1.99137
1.51253
1.85479
1.53019
1.45832
1.08149
1.12517
1.47062
1.04492
1.49784
0.912632
0.627138
0.198073
0.472863
0.85563
1.47245
1.87563
2.01161
2.0263
1.86996
1.2063
2.06219
2.0392
1.63977
1.58587
1.2299
0.951914
0.899178
0.642693
0.431056
0.178873
0.310266
0.620329
1.02063
1.6474
1.87557
2.00374
1.61186
1.69438
1.95161
1.96942
2.10632
1.97997
1.87818
1.83406
0.943714
0.854356
0.588288
0.195086
0.182908
0.491907
0.841322
1.20064
1.72243
1.88107
2.00963
2.01901
2.03177
1.65175
2.0745
1.69704
1.70119
1.76894
1.67539
1.27973
0.674484
0.415892
0.321745
0.682334
1.05325
1.69727
1.82024
1.92987
1.92294
2.00475
1.70131
2.0737
2.09153
2.14467
1.56529
1.77759
1.45608
0.980267
0.604591
0.195801
0.181903
0.49107
0.828489
1.37391
1.83243
1.9111
1.94531
1.92774
1.9108
2.02763
1.64705
1.72762
1.69838
1.95887
1.75983
1.41025
0.611715
0.443259
0.207611
0.666348
1.04186
1.76901
1.88039
1.94853
1.95383
1.88042
1.88799
1.93258
2.02441
2.06254
2.06964
1.96819
1.7633
0.910455
0.556828
0.389581
0.450413
0.803073
1.40551
1.82667
1.91905
1.98869
1.94668
1.924
1.92176
1.90942
1.98652
2.00075
1.94673
1.8148
1.45952
0.976309
0.641127
0.291863
0.48532
0.687374
1.29422
1.87602
1.96731
2.03538
2.06402
2.03448
1.96617
1.98604
2.01462
1.98632
1.88091
1.70393
1.21138
0.797731
0.471261
0.183678
0.180539
0.606751
1.07026
1.47122
1.57617
2.04195
1.97706
2.09059
1.68465
1.71289
2.09605
2.04581
1.93444
1.83637
1.73939
1.03752
0.645401
0.311009
0.203836
0.649405
1.05033
1.78196
1.95309
2.03019
2.02089
1.96419
2.03378
1.8463
1.99225
2.21064
1.93077
1.83921
1.67598
1.01877
0.625619
0.188943
0.422033
0.730668
1.03673
1.70859
1.92138
2.00892
2.00063
1.93752
1.93705
2.03119
2.17506
2.18134
1.93707
1.86187
1.41871
0.868752
0.604585
0.185009
0.4374
0.813987
1.3898
1.72517
1.98733
1.68099
1.65238
1.93642
1.93117
1.92387
2.00531
1.98661
1.88015
1.80541
1.39549
0.799437
0.442831
0.191653
0.551197
0.821874
1.43221
1.81105
1.9695
2.0209
1.69944
1.80895
2.02902
2.03754
2.03405
1.98085
1.85849
1.76801
1.05585
0.69224
0.315968
0.321886
0.693646
1.00409
1.42818
1.79681
2.04149
2.10209
2.0517
1.65583
1.69427
2.32405
2.21742
1.89867
1.84532
1.77211
1.0234
0.627758
0.194371
0.430413
0.804225
1.41082
1.74819
1.91224
2.10146
1.68836
1.76112
1.63859
2.05055
1.6776
2.11808
2.08394
1.88918
1.76343
1.00953
0.514884
0.181501
0.189846
0.592685
0.858031
1.43958
1.75471
1.93819
2.04708
1.68094
1.94559
1.66595
1.68431
2.2368
2.0106
1.74565
2.02763
1.48451
0.843425
0.47084
0.190686
0.625899
1.02401
1.69474
1.8686
1.93514
1.9684
2.01823
1.77238
1.69114
1.71768
1.84134
2.10166
1.97164
1.90517
1.39314
0.751813
0.327432
0.192363
0.630566
1.01963
1.75249
1.86368
1.97465
1.96815
1.97595
1.9793
2.01724
2.40301
2.02183
2.01851
2.06387
1.79348
1.06921
0.685467
0.206215
0.192909
0.641194
1.02362
1.76728
1.89053
1.93202
1.96596
1.96161
1.985
1.98591
2.15264
2.42649
1.86272
1.68871
1.85996
1.04454
0.517551
0.181713
0.43457
0.710637
1.03738
1.79095
1.88378
1.92993
1.95214
1.96033
1.99518
2.17307
2.3634
2.40843
2.11376
1.67292
1.88941
1.0459
0.478007
0.180319
0.462887
0.814048
1.37321
1.75561
1.86827
1.96661
1.97396
1.96295
1.89821
2.07142
2.40136
2.14676
1.88696
2.0697
1.85563
1.04626
0.486475
0.184978
0.625748
0.971225
1.39443
1.74994
1.86363
1.99082
2.05937
2.07427
2.00987
1.88176
2.06446
2.18186
1.77344
1.6757
1.54023
0.964939
0.465574
0.197564
0.637681
1.02396
1.70984
1.84271
1.91897
1.97289
2.09183
1.8187
1.86878
2.10799
2.04228
2.00355
1.93535
1.93224
1.44441
0.817518
0.450244
0.190449
0.635877
1.01889
1.73849
1.90859
1.9026
1.97089
1.98746
2.07513
1.80142
1.90689
2.21333
1.97087
1.87665
1.87205
1.40857
0.796946
0.431567
0.190192
0.622583
1.00613
1.74406
1.91573
1.87333
1.97525
1.99062
1.93991
1.98095
2.09418
2.21429
1.98011
1.90496
1.79207
1.18049
0.744869
0.326746
0.197532
0.646419
1.01375
1.72703
1.93761
1.90381
1.98488
1.95641
1.97648
1.90413
1.99494
2.05786
1.95558
1.89593
1.78629
1.03554
0.643223
0.196538
0.419733
0.658745
1.01411
1.78881
1.96387
1.96882
2.00631
2.03043
1.98814
2.03478
1.99293
2.04067
1.96148
1.87723
1.7729
1.03441
0.633775
0.18763
0.41476
0.674019
1.03842
1.77951
2.08079
2.07602
2.08917
2.11324
2.3657
2.3851
2.38528
2.14408
1.91361
1.88874
1.74951
1.02005
0.640263
0.190787
0.178095
0.538024
0.693743
1.02639
1.80038
1.71144
1.75055
2.47036
2.43492
2.37128
2.11228
2.22201
2.17123
2.11497
1.90595
1.76887
1.02844
0.603213
0.192259
0.188388
0.628964
0.859257
1.17871
1.76961
2.03133
1.76009
2.07549
2.24642
2.2328
2.27585
2.38869
2.26306
1.9827
1.98987
1.72267
1.00803
0.502919
0.612881
1.00844
1.64478
1.88378
1.96798
1.98807
2.22272
2.61389
2.26354
2.14061
2.40757
2.53109
2.21524
1.99531
1.40636
0.856769
0.483966
0.19484
0.605483
1.02355
1.71244
1.93052
1.9347
1.97964
2.00972
2.22966
2.21302
2.30821
2.4134
2.18716
2.20846
1.93618
1.39999
0.794897
0.427037
0.190367
0.628386
1.03942
1.7681
1.91671
1.9002
2.02323
2.054
2.05923
2.25279
2.25457
2.3472
2.15559
2.26776
1.99537
1.40194
0.758479
0.323155
0.181133
0.63107
1.03729
1.76323
1.9015
1.94918
2.03779
2.21157
2.38643
2.39789
2.34722
2.24674
2.06114
2.19839
1.95254
1.21666
0.726905
0.213785
0.675723
1.00423
1.73255
1.88402
1.96592
1.96639
2.01548
2.3961
2.17628
2.03231
2.32239
2.13066
2.07466
1.80309
1.04051
0.645666
0.200336
0.229586
0.725034
1.84965
1.90787
1.97688
1.97764
1.96111
2.06387
2.47482
2.17854
2.22346
2.06945
1.97291
1.78454
1.0246
0.630118
0.189416
0.128545
0.500706
1.14265
1.46089
2.02026
1.98746
1.96466
2.04423
2.16911
2.2032
2.41253
2.11149
2.11126
1.93259
1.45107
0.855205
0.581285
0.184587
0.428163
1.11158
1.28321
1.55603
2.06944
1.99201
1.97259
2.06002
2.32257
2.14448
2.10639
2.17463
2.04125
1.96004
1.39922
0.80886
0.45194
0.447233
0.881697
1.50269
1.92671
2.10048
2.05601
2.05646
2.00386
2.22055
2.06227
2.26671
1.80109
2.00785
1.886
1.36199
0.772928
0.429978
0.177323
0.495165
0.966097
1.55431
1.56861
1.68635
1.68254
1.75343
2.12437
2.16176
2.39786
2.44274
2.16899
2.06694
1.79786
1.04995
0.684113
0.213119
0.200307
0.614846
1.07316
1.86308
1.63429
1.71561
1.77322
1.78029
1.99805
2.44366
2.17941
2.06337
2.14512
2.01406
1.81972
1.0562
0.646259
0.196574
0.217978
0.777986
1.28599
1.52804
1.66188
1.69399
2.10122
3.40597
2.3598
2.20078
2.26914
2.08428
1.73365
1.69025
1.58309
1.13009
0.639053
0.195476
0.321068
0.823006
1.13306
1.59354
1.70332
1.77928
1.87958
2.51155
2.59692
2.29809
1.99707
1.72297
1.69231
1.67953
1.57934
1.12515
0.622603
0.191663
0.194409
0.499858
0.832564
1.61969
1.65518
1.72377
1.86078
3.29237
2.93665
1.95276
1.72647
1.65095
1.67595
1.66435
2.00184
1.79947
1.07437
0.401352
0.190947
0.208271
0.741156
1.2287
1.81142
1.74078
1.71537
2.2379
3.74406
2.74066
1.81697
1.66448
2.06292
2.04979
2.0017
1.91648
1.71568
1.02303
0.58697
0.187969
0.544297
1.44685
1.99345
1.67634
1.78077
2.40868
3.59703
2.82671
2.19798
1.83282
2.32341
2.01569
1.97223
1.88954
1.45425
0.855219
0.486294
0.176818
0.48683
1.14038
1.54477
1.72991
1.81816
3.18222
3.62447
2.25427
2.2798
1.91632
1.99345
2.09279
1.97561
1.88798
1.40872
0.797045
0.43334
0.4769
1.07128
1.4801
1.68412
1.87929
2.60491
4.16253
2.7302
1.89572
2.17164
1.84176
2.07111
1.96066
1.87379
1.38308
0.760621
0.324603
0.513583
1.17617
1.49199
1.64124
1.73589
3.5084
3.3969
2.58281
2.61058
2.17846
1.99565
2.11612
1.93222
1.83245
1.20431
0.733092
0.211519
0.201359
0.676656
1.36352
1.5206
1.62241
1.80366
2.41577
3.09307
2.32181
2.20525
1.85693
1.71158
1.82207
1.96495
1.76036
1.02587
0.623447
0.198335
0.207662
0.656743
1.30933
1.49384
1.63421
1.86323
3.18961
2.93517
2.26957
2.03311
1.741
1.74245
1.66555
1.95951
1.468
0.854561
0.467702
0.216542
0.756692
1.4516
1.59432
1.64528
1.76361
2.50832
3.25302
2.68168
2.14186
1.58593
1.65781
2.00508
1.90834
1.461
0.80934
0.423507
0.214929
0.770335
1.49329
1.58395
1.60949
1.94885
3.46127
2.40496
1.67792
1.61513
1.71236
1.65813
2.03492
1.87954
1.42843
0.773649
0.422593
0.21316
0.754406
1.45935
2.00374
1.60156
1.81521
3.19568
2.39318
1.92243
1.81215
1.78461
1.64533
1.95426
1.7957
1.23303
0.739064
0.213286
0.212003
0.747645
1.52275
1.58719
1.67327
1.66913
1.76031
2.82974
2.47266
1.70092
1.63175
1.60715
1.92928
1.77335
1.0606
0.644768
0.199612
0.442591
0.740364
0.877178
1.5185
1.67195
2.04323
2.07934
1.91674
1.68335
1.75642
1.69551
1.95687
1.92544
1.74721
1.0447
0.625027
0.191133
0.384893
0.816468
1.38218
1.60666
1.90561
3.77953
2.76226
1.8953
1.78482
1.71056
1.96884
1.8516
1.52145
0.973373
0.520543
0.178753
0.397154
0.958308
1.12894
1.56517
3.19738
3.57902
2.96643
1.76702
1.62765
1.63363
1.59662
1.86994
1.48334
0.804088
0.45221
0.44552
0.469092
0.953595
1.01008
1.52395
3.22525
3.34071
2.24019
2.00738
1.59137
1.62212
1.95072
1.81322
1.39047
0.784151
0.425604
0.423371
0.808683
1.34269
0.967672
1.1279
1.9443
3.6333
2.93952
1.8203
1.59982
1.62545
1.52093
1.77673
1.00922
0.678706
0.214794
0.414857
0.780517
0.818947
0.998703
0.947752
1.13529
1.927
1.73372
1.66596
1.60401
1.52419
1.36786
1.10679
0.935347
0.595008
0.191333
0.180046
0.439517
0.6754
1.12976
1.03504
1.04658
0.951946
1.11075
1.79275
1.06309
1.04167
1.26444
1.55602
1.04339
0.842505
0.306633
0.176063
0.562487
0.809484
1.25236
1.78634
0.994172
1.03627
1.10128
2.20341
1.46898
1.33959
1.05007
1.0019
0.983123
0.659847
0.495447
0.198613
0.582419
0.725122
1.13448
1.78618
1.29868
1.36027
1.29113
1.35936
1.51977
1.07118
1.02349
0.975197
0.93954
0.521404
0.223468
0.430388
0.745957
0.557982
1.09821
1.4397
2.0181
1.64208
1.61856
1.62738
1.68219
1.51088
1.58334
1.14303
0.906212
0.42362
0.0926858
0.418973
0.285803
0.652363
0.94407
1.00215
1.43581
1.57216
1.05427
1.02409
1.34572
1.38902
1.15277
0.936954
0.623175
0.437841
0.227334
0.190095
0.260317
0.40806
0.94986
1.29545
1.08283
1.78401
1.56075
1.27933
1.12717
0.954797
0.916986
0.568188
0.593466
0.40643
0.179062
0.581011
0.323405
0.76318
1.14194
1.22747
1.571
1.47046
0.984835
0.954445
1.00775
0.92961
0.80806
0.599791
0.518886
0.162841
0.179986
0.542181
0.694618
0.507075
0.729956
0.918324
1.61297
1.58214
1.0094
0.947115
0.96652
0.927764
0.900295
0.71414
0.41005
0.174878
0.27611
0.561218
0.678219
0.306251
0.393479
0.903683
1.41289
1.20414
0.950909
0.978986
0.933518
0.805229
0.803263
0.669009
0.402254
0.184671
0.286768
0.311386
0.364632
0.664268
1.10526
1.02485
1.03824
0.9205
0.930727
0.767343
0.692551
0.528488
0.183224
0.2417
0.294868
0.319837
0.348022
0.696857
0.410629
0.965882
1.0378
0.921195
0.835675
0.799386
0.660314
0.411357
0.18127
0.579247
0.687006
0.302086
0.453138
0.928948
0.403628
0.501621
0.906933
0.855336
0.748401
0.701723
0.575025
0.295778
0.176255
0.552108
0.664022
0.299473
0.310032
0.437186
0.954991
0.705184
0.599866
0.487329
0.388878
0.672636
0.547012
0.178903
0.182691
0.552531
0.285968
0.303956
0.299786
0.360942
0.819661
0.474027
0.90449
0.380661
0.302489
0.658483
0.534271
0.172307
0.177175
0.550199
0.281199
0.303099
0.299759
0.311238
0.803772
0.833965
0.930504
0.686111
0.303034
0.645982
0.424
0.169114
0.181418
0.530282
0.62402
0.294511
0.30964
0.295993
0.491697
0.914574
0.901712
0.389797
0.67543
0.612132
0.421405
0.162199
0.160731
0.18282
0.610651
0.64671
0.303176
0.304559
0.265614
0.542869
0.782006
0.374562
0.298055
0.60445
0.407207
0.629646
0.292901
0.310259
0.307044
0.712242
0.30198
0.297971
0.29183
0.305337
0.62264
0.680712
0.310605
0.282776
0.653995
0.60419
0.471645
0.184328
0.0741656
0.270872
0.68108
0.305338
0.29479
0.573115
0.381668
0.112454
0.131736
0.303109
0.229271
0.583137
0.534341
0.184212
0.311725
0.231083
0.57032
0.548909
0.283678
0.220939
0.267996
0.494369
0.58099
0.507847
0.184523
0.182004
0.448254
0.137206
0.222685
0.304994
0.394754
0.604801
0.619849
0.540199
0.538335
0.264986
0.454844
0.578952
0.3734
0.249965
0.159814
0.170254
0.0732885
0.308512
0.165407
0.300888
0.309617
0.172828
0.299339
0.402017
0.502098
0.520341
0.550137
0.581812
0.591418
0.449633
0.170626
0.294903
0.413211
0.528067
0.55196
0.586439
0.60633
0.604663
0.587729
0.588589
0.595565
0.619905
0.610276
0.596996
0.613326
0.177207
0.307163
0.500475
0.552344
0.595965
0.602405
0.61018
0.617833
0.605004
0.599596
0.592819
0.617898
0.640097
0.628489
0.603831
0.606856
0.602193
0.614209
0.590528
0.451398
0.393805
0.231589
0.207653
0.315915
0.513668
0.572256
0.588914
0.61667
0.625042
0.616217
0.612738
0.612413
0.609211
0.60127
0.591156
0.646376
0.295447
0.295635
0.605236
0.583505
0.616801
0.594167
0.599024
0.542852
0.288415
0.294185
0.438792
0.542488
0.591958
0.646116
0.676558
0.6593
0.63996
0.623693
0.620843
0.617146
0.626253
0.605899
0.611081
0.604208
0.605369
0.661078
0.309177
0.293104
0.660551
0.600022
0.59022
0.559528
0.500077
0.17887
0.352155
0.637502
0.782759
0.810169
0.661696
0.63767
0.557362
0.574431
0.532724
0.713781
0.647196
0.628875
0.674261
0.703251
0.676608
0.620397
0.611913
0.642884
0.693137
0.317659
0.295323
0.638528
0.575465
0.503252
0.282246
0.159842
0.366452
1.14882
1.25145
1.61831
1.61791
1.67866
1.36543
0.955672
0.922691
0.944502
1.0052
0.728947
0.674538
0.450255
0.867587
0.58033
0.679377
0.623163
0.602551
0.607989
0.295009
0.292383
0.534399
0.287271
0.176795
0.512212
0.869974
1.11371
1.76956
1.8437
1.99062
1.55974
1.95418
1.80106
1.01232
0.914656
0.933831
0.948589
1.11249
0.94963
0.597952
0.989075
0.668412
0.638449
0.608605
0.606834
0.592884
0.536463
0.305874
0.346365
0.16962
0.426166
0.95469
1.33621
1.53633
2.05329
1.97325
1.98893
2.07715
1.71469
1.91589
1.92633
1.00541
0.970943
0.931224
0.946186
1.56315
1.06312
0.89442
0.748531
0.763082
0.619464
0.567635
0.416287
0.283881
0.189941
0.359875
0.674064
0.954852
0.984176
1.76588
1.5768
2.03881
2.09943
2.10073
1.64099
1.75971
2.02511
1.99925
1.98768
1.95051
1.96553
1.91803
1.52747
1.14085
0.577784
0.69174
0.687927
0.667309
0.575304
0.307451
0.188574
0.529167
0.798565
1.10835
1.44123
1.84844
1.59907
2.14721
1.69589
1.72183
1.63251
1.70557
1.66565
1.68074
1.60021
1.98873
1.99792
1.97221
1.89241
1.73474
1.16829
0.719132
0.285025
0.298439
0.26195
0.0884217
0.232204
0.166404
0.423422
1.28487
1.84753
2.03914
2.27728
1.98637
1.91068
1.76958
1.70567
1.61145
1.68061
1.5936
1.65921
1.71027
1.68835
2.07644
1.9003
1.79102
1.65787
1.19882
0.814142
0.286529
0.151936
0.174836
0.476053
1.42886
1.93201
2.01556
1.81094
2.19033
2.27215
2.32146
2.17031
1.93215
1.76758
1.65629
1.94105
1.94826
1.58691
1.63815
1.69892
1.8135
1.6109
1.19642
0.859162
0.611453
0.336825
0.332847
0.656017
0.475206
1.10638
1.47277
1.98192
2.22929
2.04813
2.22897
2.34236
2.37277
2.38121
2.30153
2.6225
2.13004
2.35828
2.42559
1.87668
1.77734
1.58331
1.30346
1.13846
0.846046
0.61789
0.321954
0.343792
0.640647
0.955944
1.42787
2.04155
2.12192
2.1265
1.95184
2.45544
2.25086
2.32303
2.37503
2.44161
2.73063
2.78022
2.40596
2.31351
2.06184
1.87682
1.69051
1.49926
1.17206
0.962499
0.641844
0.323265
0.369996
0.736688
1.10914
1.42053
1.94635
2.16291
2.3503
2.55954
2.65435
2.86302
2.80124
2.40003
2.49113
2.26192
2.91065
2.88524
2.42297
2.22472
1.79864
1.73646
1.60264
1.28031
0.94512
0.676978
0.220979
0.184919
0.378337
0.75379
1.2123
1.97255
2.06362
2.19733
2.58786
2.78479
3.09466
3.0514
3.05165
3.14644
3.03287
2.47564
2.32723
2.47861
2.4224
2.28666
2.18293
2.35579
1.76203
1.51258
1.15724
0.797519
0.34214
0.186991
0.382081
0.794905
1.24439
2.04112
2.37405
2.72563
2.97962
2.83762
3.01483
3.26026
3.2116
3.26027
3.25516
3.34188
3.02246
3.00628
2.86666
2.67114
2.29351
2.52936
2.32052
1.74574
1.34702
0.712829
0.329551
0.198271
0.506973
0.807357
1.23847
2.09049
2.54331
2.92086
3.11624
3.15096
3.26537
3.30196
3.34573
3.32619
3.21646
3.33329
3.29458
3.32694
3.15927
3.05031
3.20956
2.33485
2.21209
1.97007
1.27709
1.00393
0.408904
0.169315
0.17845
0.481109
0.82777
1.41549
2.14335
2.52369
2.92116
3.20656
3.3086
3.30413
3.3161
3.29896
3.3214
3.34806
3.43197
3.33213
3.34885
3.26367
2.97522
2.44117
2.74464
2.33821
1.94144
1.38597
0.958524
0.624852
0.157467
0.356867
0.77853
1.22244
1.99839
2.57183
3.02131
3.2704
3.37312
3.33481
3.407
3.32982
3.28693
3.31754
3.35588
3.41702
3.40859
3.38646
3.22743
3.00895
2.46644
2.40799
2.1131
1.50679
0.956553
0.642763
0.334721
0.3292
0.652744
1.04051
1.95536
2.33624
2.78821
3.28371
3.46921
3.50617
3.42998
3.54292
3.33727
3.27264
3.2969
3.37183
3.37757
3.40319
3.28428
3.15368
3.08027
2.93294
2.28409
2.0298
1.1648
0.649361
0.328177
0.200603
0.536755
1.02212
1.56546
2.22468
2.83891
3.17513
3.44666
3.54551
3.51432
3.59041
3.46662
3.38869
3.52431
3.40577
3.41015
3.41653
3.32179
3.21844
3.16202
3.01498
2.62335
2.09934
1.23073
0.75179
0.357563
0.36014
0.786173
1.45862
2.45217
3.0192
3.27621
3.70797
3.71729
3.68764
3.62895
3.54291
3.5788
3.4633
3.53967
3.54142
3.48312
3.38081
3.28192
3.26237
3.11047
2.78293
2.34336
1.56669
0.934142
0.462628
0.326811
0.69903
1.1855
2.05866
2.69425
3.3128
3.66582
3.88928
3.92346
3.74251
3.67179
3.70295
3.85891
3.63193
3.59934
3.77084
3.49827
3.31878
3.26159
3.13009
2.97391
2.55085
2.03894
1.18571
0.698409
0.223965
0.206691
0.55277
1.00018
1.55964
2.44108
3.09448
3.54864
3.91221
4.08948
4.0885
4.00452
3.96837
3.90809
3.67092
3.75045
3.9133
3.79941
3.48261
3.42385
3.27655
3.09521
2.65001
2.12635
1.26751
0.792079
0.358422
0.205912
0.525072
0.960375
1.48729
2.28898
2.78475
3.27822
3.7273
3.98471
4.03192
4.20757
4.20986
4.08903
4.05066
3.86803
4.03587
3.85976
3.64619
3.55545
3.46504
3.13478
2.71935
2.22759
1.43042
0.939351
0.506697
0.190588
0.352071
0.914996
1.49319
2.24317
2.73065
3.23525
3.47479
3.92123
4.12851
4.12165
3.96553
4.20305
3.97993
3.94049
4.20321
4.09422
3.7104
3.58699
3.48747
3.23629
2.68635
2.28126
1.54395
0.968587
0.541352
0.210128
0.230668
0.609588
1.20858
2.08227
2.73711
3.3279
3.49306
3.73565
4.05937
4.12619
4.06379
4.20907
4.18421
4.26856
4.21615
4.23592
4.00355
3.70065
3.53284
3.40603
2.9741
2.50724
1.58192
0.950495
0.547015
0.211729
0.508214
1.00803
2.0673
2.53107
3.17032
3.60613
3.85271
4.33071
4.36456
4.12749
4.11369
4.19532
4.3158
4.2748
4.31493
4.15466
4.06996
3.78623
3.48911
3.2177
2.68303
2.12514
1.19738
0.580388
0.212361
0.230729
0.733558
1.47878
2.41131
2.95275
3.47645
3.95272
4.05632
4.29731
4.20713
4.5442
4.16551
4.28324
4.32917
4.22993
4.32836
4.05023
3.98818
3.8932
3.49148
3.03476
2.29229
1.4786
0.89753
0.369115
0.480504
1.02445
2.13491
2.74606
3.36976
3.91435
4.30689
4.43125
4.39952
4.42665
4.41044
4.46091
4.18916
4.53402
4.54006
4.31873
4.06421
3.97991
3.70218
3.15777
2.55915
1.63661
0.955755
0.52999
0.206771
0.204769
0.587698
1.43694
2.4296
3.12978
3.57132
4.08596
4.36453
4.50294
4.3121
4.44367
4.54309
4.67964
4.71442
4.57635
4.53356
4.08771
3.79562
3.72584
3.39307
2.78044
2.16952
1.26672
0.724572
0.219847
0.396306
0.944154
1.66632
2.7791
3.42217
3.70581
4.17473
4.33014
4.29954
4.33264
4.68805
4.65197
4.70362
4.67072
4.61128
4.37263
4.16204
3.97514
3.56306
3.10985
2.44083
1.53022
0.946941
0.489086
0.177903
0.23778
0.754579
1.45493
2.38492
3.11153
3.67841
4.01291
4.49495
4.52685
4.29206
4.65701
4.64743
4.80207
4.74392
4.74017
4.69164
4.2726
3.97961
3.86144
3.38584
2.72857
2.11286
1.05622
0.544568
0.211246
0.556022
1.19329
2.19209
2.7678
3.34108
3.92903
4.28305
4.59024
4.9337
4.70244
4.49888
4.59394
4.2226
4.56956
4.72116
4.55031
4.36772
4.15047
3.59738
3.09594
2.32026
1.46472
0.789363
0.346656
0.241216
0.748262
1.51121
2.54893
3.33031
3.69546
4.08059
4.51365
4.64096
4.62041
4.60006
4.4008
4.30035
4.23263
4.41244
4.48221
4.22189
4.29763
4.00388
3.50296
2.92331
2.17796
1.051
0.536045
0.197675
0.499021
1.03873
2.17419
2.79964
3.47671
4.05448
4.32506
4.57173
4.67075
4.59341
4.87248
4.61692
4.498
4.31344
4.34726
4.41929
4.13283
4.05648
3.73707
3.30157
2.61254
1.63196
0.911758
0.355671
0.239299
0.750336
1.44167
2.31617
3.10245
3.70508
4.32631
4.6015
4.69936
4.71193
4.62322
4.44872
4.82332
4.78607
4.776
4.54942
4.24256
4.16101
3.92104
3.42014
2.99581
2.32923
1.27453
0.683864
0.211561
0.499483
1.01822
2.12213
2.72497
3.44602
3.88232
4.36508
4.64377
4.76167
4.71724
4.74801
4.61651
4.69157
4.91436
4.78424
4.57104
4.36958
4.10258
3.74106
3.33559
2.54204
1.60817
0.957964
0.479774
0.235956
0.746493
1.45284
2.426
3.01982
3.59974
4.15195
4.46001
4.63285
4.80052
4.76989
4.74048
4.77459
4.79751
4.83206
4.44435
4.45325
4.33316
4.06964
3.44854
2.98363
2.26029
1.26147
0.722228
0.217349
0.486196
1.01679
2.12628
2.76986
3.36705
3.93216
4.4454
4.56884
4.72297
4.71336
4.71543
4.80773
4.80695
4.84861
4.87733
4.54776
4.40799
4.22771
3.85137
3.34753
2.59212
2.04024
0.995112
0.487356
0.558883
1.26383
2.36059
3.10533
3.60399
4.16672
4.61877
4.71165
4.76193
4.74062
4.70793
4.73007
4.73582
4.90243
4.67012
4.571
4.35634
3.88311
3.43802
3.06479
2.30828
1.44214
0.78386
0.240585
0.230953
0.764288
1.56705
2.61078
3.30957
3.86284
4.55121
4.68384
4.78796
4.79763
4.68494
4.69113
4.764
4.81994
4.84304
4.81612
4.62895
4.43963
3.82845
3.31436
2.92265
2.19424
1.02139
0.525652
0.195918
0.23819
0.968057
2.16402
2.93006
3.55181
4.13932
4.60595
4.7467
4.85615
4.80328
4.76821
4.76096
4.75854
4.87461
4.87541
4.7607
4.55818
4.36275
3.91602
3.34901
2.69095
2.09377
0.948778
0.25015
0.370699
1.00217
2.26837
3.08033
3.79385
4.39829
4.5394
4.80552
4.90101
4.86376
4.82018
4.80294
4.88912
4.93095
4.8584
4.66993
4.44946
4.17542
3.58993
3.15712
2.44422
1.43794
0.630655
0.22396
0.556862
1.25023
2.39822
3.30331
3.90115
4.55447
4.59895
4.7975
4.84638
4.89703
4.83522
4.85223
4.94687
4.97426
4.77939
4.59019
4.47815
3.97965
3.37635
2.78931
2.15663
1.03635
0.497422
0.236144
0.885873
1.60901
2.61309
3.33958
3.95944
4.55723
4.71136
4.83715
4.88819
4.8415
4.82591
5.02936
5.0465
5.05235
4.77139
4.6038
4.40296
3.88877
3.30237
2.59284
1.50792
0.774915
0.235288
0.358909
0.978577
2.17246
2.92297
3.57424
4.01796
4.44208
4.6642
4.79084
4.84253
4.80278
4.80924
4.92441
5.03686
4.99354
4.74003
4.63239
4.37686
3.76986
3.30371
2.49944
1.42626
0.609094
0.198237
0.565622
1.21742
2.27951
3.03824
3.63898
4.2621
4.44092
4.75777
4.84002
4.72119
4.66858
4.78967
4.80214
4.92932
4.87022
4.67596
4.57305
4.17201
3.54786
3.03443
2.29484
1.087
0.512704
0.229434
0.74374
1.50565
2.51933
3.18365
3.69548
4.31741
4.5465
4.78662
4.82827
4.90169
4.91779
4.8074
4.95293
4.96108
4.85672
4.64642
4.53586
4.00956
3.4496
2.77868
2.09621
0.973642
0.359166
0.363183
0.970497
2.13906
2.80922
3.42438
3.92473
4.31119
4.51659
4.82117
4.8952
4.83684
4.85418
4.87797
5.03544
5.04962
4.72708
4.61274
4.52349
3.86308
3.29879
2.60953
1.5315
0.77936
0.238609
0.474859
1.06967
2.27604
3.04198
3.58594
4.17981
4.46551
4.67293
4.87499
4.9016
4.94882
4.84642
4.81386
4.82415
5.10136
4.79657
4.67288
4.52566
3.80474
3.22283
2.47758
1.43395
0.593181
0.196645
0.543687
1.24731
2.43455
3.2788
3.75928
4.31799
4.45858
4.74483
4.88458
4.90878
4.90685
4.84488
4.86503
5.03465
5.03502
4.83987
4.74584
4.26582
3.63497
3.05712
2.26479
1.20313
0.554775
0.204816
0.726911
1.45851
2.55649
3.33233
3.95821
4.43269
4.64768
4.75733
4.84335
4.86639
5.04222
4.89011
4.8791
5.03093
4.86314
4.75257
4.66651
4.11281
3.48042
2.7763
2.14681
0.980754
0.367265
0.233443
0.770346
1.54066
2.60707
3.3418
3.91355
4.49255
4.63485
4.83797
4.86042
4.87657
4.84502
4.8123
5.11588
5.13983
4.93862
4.79495
4.59217
3.96569
3.38377
2.56072
1.48024
0.754724
0.231065
0.244732
0.983177
2.07149
2.72414
3.39388
3.95558
4.4888
4.67425
4.76849
4.85336
4.85908
4.87088
4.86143
5.08032
5.19887
4.90366
4.84677
4.58479
3.83242
3.13976
2.39161
1.25537
0.568255
0.469495
1.02188
2.21347
2.99659
3.47407
3.994
4.56161
4.67514
4.77065
4.82041
4.84645
4.89646
4.95613
5.06718
5.20143
4.89685
4.81989
4.6019
3.79095
3.04218
2.24065
1.03211
0.476516
0.482632
1.07751
2.40636
3.15814
3.69826
4.20177
4.47083
4.64532
4.81864
4.85544
4.84191
4.76415
4.9942
5.12469
5.05651
4.8916
4.80494
4.54667
3.78253
3.01189
2.20523
0.946695
0.248765
0.537099
1.2609
2.49718
3.31164
3.87605
4.2383
4.4204
4.6133
4.81032
4.87289
4.89611
4.90919
4.75818
5.01451
5.01838
4.87234
4.74322
4.41428
3.68165
2.96112
1.70922
0.93103
0.240417
0.547581
1.47568
2.56066
3.33943
3.91042
4.42374
4.56961
4.71573
4.8263
4.89773
4.95705
4.85147
4.98003
4.989
4.9226
4.77903
4.69375
4.29962
3.60432
2.85002
1.65765
0.859786
0.216648
0.570072
1.49783
2.68119
3.39588
3.9523
4.48253
4.68238
4.7141
4.84732
4.87634
4.87286
4.89873
4.97891
5.08496
4.86346
4.69007
4.6499
4.22865
3.54321
3.06959
1.58702
0.713043
0.202541
0.208351
0.708739
1.4959
2.61877
3.35095
3.92505
4.46379
4.70856
4.68259
4.85411
4.89963
4.82241
4.84509
4.9406
5.08551
4.84525
4.72424
4.58305
4.02593
3.47404
2.71148
1.57356
0.590938
0.238355
0.909688
1.59599
2.66201
3.40762
3.94993
4.44821
4.75683
4.745
4.87509
4.85204
4.88576
4.78289
4.93054
5.0214
4.83975
4.70897
4.57872
3.93662
3.36278
2.54835
1.48133
0.571897
0.241054
0.985765
2.19546
2.92787
3.45537
3.98526
4.48968
4.81685
4.86766
4.92343
4.93201
4.85893
4.94208
4.92286
4.99236
4.84871
4.67521
4.55061
3.9524
3.33948
2.43991
1.26262
0.554578
0.364255
1.02006
2.28129
3.05101
3.49701
4.00075
4.47571
4.86295
4.96649
5.03545
5.00584
5.09332
5.07955
5.12658
5.04099
4.77189
4.68562
4.50721
3.90529
3.34344
2.44572
1.04663
0.468292
0.479732
1.08942
2.43567
3.16252
3.55533
4.02158
4.51073
4.89086
4.95994
5.198
5.19933
5.15499
5.17422
5.29691
5.09165
4.91966
4.70954
4.53117
3.87636
3.30785
2.39995
1.03151
0.254711
0.473256
1.07487
2.43473
3.30412
3.74568
4.11534
4.51568
4.87086
5.015
5.21073
5.29468
5.31569
5.34983
5.44564
5.20052
4.99252
4.79101
4.41992
3.81872
3.06624
2.2886
0.99643
0.246524
0.528777
1.09585
2.29978
3.31999
3.95621
4.35779
4.63391
4.83626
4.90111
5.06411
5.25892
5.32724
5.20124
5.45486
5.25457
5.01958
4.78052
4.28069
3.63113
2.98337
2.18487
0.936591
0.240275