/*--------------------------------*- C++ -*----------------------------------*\
| =========                 |                                                 |
| \\      /  F ield         | OpenFOAM: The Open Source CFD Toolbox           |
|  \\    /   O peration     | Version:  2312                                  |
|   \\  /    A nd           | Website:  www.openfoam.com                      |
|    \\/     M anipulation  |                                                 |
\*---------------------------------------------------------------------------*/
FoamFile
{
    version     2.0;
    format      ascii;
    arch        "LSB;label=64;scalar=64";
    class       volScalarField;
    location    "10";
    object      nut_ML_ND;
}
// * * * * * * * * * * * * * * * * * * * * * * * * * * * * * * * * * * * * * //

dimensions      [0 0 0 0 0 0 0];

internalField   nonuniform List<scalar> 
404911
(
0.563543
0.578659
0.532043
0.543888
0.579485
0.57836
0.576699
0.560165
0.567773
0.56969
0.552243
0.570256
0.579176
0.572169
0.566565
0.549828
0.555897
0.580274
0.580987
0.570105
0.550535
0.579587
0.562753
0.560621
0.579707
0.553744
0.55305
0.580363
0.580124
0.552032
0.555325
0.580224
0.576767
0.569577
0.573387
0.579561
0.573832
0.565887
0.572978
0.578622
0.569662
0.551481
0.573015
0.578691
0.580815
0.56742
0.568955
0.578673
0.578804
0.540069
0.566644
0.544523
0.571226
0.546488
0.568302
0.561136
0.509607
0.583178
0.56937
0.57269
0.585096
0.585673
0.574669
0.549817
0.584162
0.574115
0.556191
0.565313
0.583589
0.554565
0.584486
0.54177
0.584468
0.57903
0.568614
0.561186
0.537728
0.572505
0.585539
0.582334
0.581793
0.581295
0.547133
0.584785
0.585601
0.585148
0.570432
0.579809
0.5496
0.579015
0.575812
0.534021
0.578166
0.58243
0.581683
0.576556
0.585482
0.580252
0.561943
0.572684
0.560668
0.575479
0.585196
0.564967
0.549164
0.566194
0.574168
0.561179
0.571394
0.573847
0.575827
0.575647
0.575952
0.575345
0.53818
0.565742
0.575278
0.529204
0.563158
0.576917
0.576682
0.57671
0.576483
0.573675
0.548143
0.571967
0.575558
0.576018
0.576723
0.56543
0.566706
0.565515
0.57691
0.577186
0.576669
0.576976
0.574927
0.575039
0.577032
0.57289
0.550178
0.572143
0.576026
0.576691
0.576637
0.576717
0.576604
0.577052
0.56552
0.567193
0.576822
0.577247
0.57635
0.542297
0.572881
0.553749
0.573866
0.577003
0.577572
0.577129
0.577009
0.576683
0.576535
0.576574
0.576804
0.57704
0.577027
0.577046
0.576482
0.57377
0.569215
0.563592
0.567502
0.568207
0.567565
0.567706
0.565344
0.576775
0.576496
0.576815
0.576827
0.576889
0.57654
0.576075
0.57586
0.575868
0.572793
0.560347
0.566963
0.568504
0.56838
0.563799
0.569957
0.564644
0.567279
0.577376
0.576944
0.577014
0.576617
0.576324
0.57608
0.57495
0.550392
0.55369
0.573913
0.563771
0.550011
0.572556
0.572796
0.563429
0.567487
0.570924
0.569212
0.56734
0.56707
0.577526
0.576789
0.57654
0.576573
0.575565
0.566192
0.556458
0.563327
0.57306
0.575671
0.579211
0.57447
0.562096
0.572764
0.570135
0.558719
0.567209
0.567787
0.578274
0.576706
0.576527
0.575723
0.572472
0.549746
0.549487
0.572909
0.579076
0.57511
0.580204
0.580083
0.579954
0.578833
0.571684
0.569856
0.573728
0.577279
0.577514
0.571722
0.566473
0.577053
0.575307
0.551342
0.567073
0.577051
0.579863
0.573201
0.580281
0.580255
0.581148
0.58036
0.579667
0.578172
0.579402
0.578978
0.568475
0.569137
0.566977
0.565022
0.568128
0.566834
0.575414
0.577405
0.567026
0.57928
0.580585
0.579465
0.581005
0.581307
0.578794
0.581317
0.580598
0.574064
0.56969
0.567727
0.566769
0.543464
0.570411
0.576751
0.577782
0.581326
0.58086
0.580252
0.579784
0.580698
0.580449
0.580589
0.581042
0.58101
0.58074
0.571134
0.56895
0.567743
0.574104
0.552862
0.553818
0.556064
0.572275
0.575467
0.585527
0.585694
0.580503
0.580502
0.58032
0.581215
0.580898
0.581045
0.580725
0.580467
0.577661
0.570042
0.576231
0.564624
0.551338
0.573908
0.578073
0.561583
0.579923
0.581223
0.581268
0.585544
0.581084
0.581641
0.58047
0.579546
0.585072
0.580349
0.58009
0.578619
0.555702
0.573489
0.5669
0.577318
0.572784
0.581605
0.583094
0.577319
0.578188
0.583924
0.585727
0.58322
0.585709
0.585479
0.583496
0.579532
0.579705
0.577109
0.576079
0.553384
0.550852
0.57348
0.577808
0.576118
0.584779
0.585557
0.583717
0.582256
0.583597
0.583175
0.583343
0.584554
0.58527
0.584603
0.579698
0.578912
0.552671
0.555974
0.570714
0.578199
0.579476
0.581582
0.578749
0.583324
0.583033
0.585192
0.585444
0.585482
0.585074
0.583092
0.584553
0.581734
0.579179
0.578504
0.573006
0.559997
0.55156
0.555966
0.553202
0.579049
0.576667
0.584796
0.583702
0.582827
0.585567
0.578651
0.583606
0.585524
0.585408
0.584058
0.580264
0.576657
0.578029
0.567838
0.568122
0.577157
0.563568
0.582647
0.584771
0.575321
0.582363
0.584868
0.583552
0.584111
0.585296
0.585345
0.585725
0.585259
0.580061
0.578553
0.573106
0.554028
0.576312
0.57944
0.577058
0.585718
0.583247
0.582592
0.580835
0.585227
0.582892
0.582815
0.579097
0.585062
0.583384
0.584739
0.572662
0.577809
0.571974
0.568196
0.578543
0.577275
0.581431
0.585704
0.584321
0.582013
0.574795
0.58135
0.585721
0.582467
0.583105
0.585668
0.582276
0.581345
0.574961
0.577019
0.553853
0.57411
0.57989
0.581012
0.585727
0.583982
0.583157
0.585386
0.585283
0.581686
0.582767
0.58181
0.583396
0.578047
0.580608
0.578284
0.577251
0.57296
0.550236
0.567213
0.576916
0.573032
0.584108
0.585723
0.585195
0.581802
0.576581
0.584918
0.584772
0.584143
0.58553
0.58568
0.585718
0.579701
0.579886
0.576411
0.553319
0.551033
0.574562
0.579734
0.577924
0.584846
0.585726
0.585416
0.584667
0.581557
0.579521
0.580563
0.577722
0.584123
0.585661
0.585034
0.58035
0.577701
0.572473
0.568011
0.577805
0.574542
0.584226
0.585661
0.585677
0.585618
0.583579
0.580382
0.581053
0.58127
0.580778
0.583264
0.583489
0.581833
0.572866
0.576672
0.553449
0.550836
0.574543
0.579595
0.580237
0.585463
0.585702
0.585631
0.585641
0.585631
0.583712
0.579362
0.577709
0.578179
0.584311
0.58437
0.58213
0.576787
0.573322
0.555491
0.577584
0.57497
0.584454
0.585726
0.585636
0.585606
0.585687
0.585687
0.585622
0.584879
0.582732
0.583373
0.584023
0.585414
0.571684
0.57587
0.571507
0.573524
0.579309
0.581089
0.585514
0.585683
0.585497
0.58555
0.585627
0.58565
0.585663
0.585541
0.585494
0.585628
0.58569
0.581697
0.572482
0.577227
0.565766
0.574411
0.573347
0.577719
0.584953
0.585569
0.585178
0.583322
0.583464
0.585402
0.585551
0.585478
0.585577
0.58572
0.584874
0.578156
0.579245
0.574072
0.551181
0.550566
0.576704
0.577196
0.582324
0.580752
0.582524
0.585412
0.582962
0.577786
0.574291
0.584453
0.58541
0.585662
0.585726
0.584799
0.573595
0.57729
0.567267
0.554854
0.577346
0.574402
0.585214
0.585529
0.585031
0.585205
0.585505
0.583397
0.584951
0.554673
0.58335
0.585635
0.585715
0.584093
0.57372
0.576996
0.552187
0.572673
0.578437
0.573281
0.584754
0.585545
0.58512
0.585353
0.585603
0.585609
0.585196
0.583851
0.583686
0.585539
0.585717
0.580904
0.580031
0.576669
0.551437
0.573151
0.57943
0.580286
0.585151
0.58543
0.582723
0.581316
0.584107
0.585575
0.585627
0.58548
0.585561
0.585707
0.585454
0.580286
0.579264
0.57331
0.552691
0.575765
0.579519
0.580823
0.585679
0.585591
0.584899
0.579953
0.576799
0.582333
0.585227
0.585447
0.585598
0.585724
0.584929
0.574623
0.577938
0.567619
0.568021
0.577957
0.572987
0.581144
0.585715
0.584763
0.583186
0.584063
0.580633
0.575205
0.575561
0.582629
0.585661
0.585726
0.584852
0.574363
0.577028
0.553189
0.57294
0.579319
0.580609
0.585293
0.585667
0.582591
0.579446
0.575777
0.580279
0.583953
0.5789
0.55593
0.580292
0.585709
0.584521
0.574237
0.57506
0.550757
0.552355
0.576478
0.579916
0.580917
0.585608
0.585687
0.584964
0.579797
0.573974
0.574744
0.577244
0.583261
0.582263
0.572993
0.5842
0.581728
0.579759
0.574059
0.552512
0.577
0.574016
0.584086
0.58572
0.585676
0.585567
0.585058
0.578987
0.57665
0.575766
0.57045
0.579714
0.585139
0.585722
0.581074
0.578699
0.568381
0.552822
0.57707
0.573913
0.584801
0.585726
0.585589
0.58556
0.585539
0.585369
0.582559
0.565254
0.564722
0.571642
0.582852
0.585283
0.57533
0.577848
0.555257
0.552922
0.577227
0.574297
0.58472
0.585713
0.585636
0.585557
0.585559
0.585432
0.585241
0.584278
0.578325
0.563684
0.576666
0.585686
0.574842
0.575115
0.550798
0.573065
0.578181
0.574368
0.584912
0.585715
0.585628
0.585554
0.585537
0.585424
0.582432
0.572433
0.578134
0.581499
0.577731
0.585414
0.575804
0.574237
0.550523
0.573858
0.57943
0.580185
0.585362
0.585719
0.585605
0.585513
0.585487
0.585632
0.585065
0.576176
0.554617
0.577719
0.583037
0.585513
0.575632
0.574437
0.551431
0.576997
0.573025
0.580812
0.585535
0.585726
0.585384
0.584747
0.584638
0.585451
0.585686
0.585276
0.582935
0.569939
0.577945
0.58332
0.573323
0.573927
0.553762
0.577175
0.573817
0.584659
0.585717
0.585682
0.58553
0.582743
0.577695
0.57483
0.584364
0.585423
0.585563
0.585596
0.58564
0.582259
0.579474
0.573518
0.552468
0.577149
0.57358
0.584617
0.585708
0.585684
0.585567
0.585473
0.582771
0.568118
0.570592
0.583413
0.585539
0.585707
0.585678
0.580431
0.579236
0.572974
0.552419
0.57695
0.57335
0.58455
0.585702
0.585698
0.585579
0.585519
0.585596
0.585383
0.584459
0.583405
0.58538
0.585681
0.58508
0.577547
0.578611
0.568336
0.553757
0.577303
0.57343
0.584476
0.58569
0.585664
0.585546
0.585564
0.585539
0.585651
0.585539
0.585366
0.585599
0.585701
0.584848
0.574009
0.577257
0.553579
0.572598
0.577482
0.573612
0.584809
0.585655
0.585552
0.585432
0.585163
0.585239
0.585178
0.585478
0.585442
0.585621
0.585719
0.584806
0.573994
0.577117
0.551938
0.572433
0.577695
0.574724
0.585693
0.583089
0.584718
0.584906
0.584407
0.581593
0.574958
0.580964
0.584524
0.585659
0.585711
0.584797
0.574216
0.577213
0.55253
0.550079
0.575518
0.577963
0.573771
0.585334
0.580284
0.574181
0.570399
0.580191
0.577853
0.553293
0.548816
0.552843
0.584106
0.585693
0.58481
0.574114
0.576648
0.552802
0.552081
0.577044
0.579929
0.577724
0.58481
0.58525
0.576995
0.557362
0.547423
0.549749
0.55044
0.546842
0.548157
0.569714
0.585399
0.584132
0.573713
0.574805
0.5768
0.573345
0.583607
0.585685
0.58563
0.585435
0.582787
0.559371
0.546859
0.556992
0.54557
0.56902
0.582485
0.585422
0.58096
0.579902
0.574376
0.553273
0.576685
0.573768
0.584484
0.585711
0.58562
0.585553
0.585386
0.582005
0.552873
0.546555
0.544919
0.552864
0.57752
0.585691
0.580549
0.579212
0.572834
0.552453
0.577037
0.574702
0.584817
0.58571
0.585654
0.585348
0.585045
0.584971
0.581609
0.55152
0.546203
0.550262
0.577387
0.585604
0.580654
0.578779
0.568104
0.550684
0.577077
0.574243
0.584951
0.585706
0.585617
0.585322
0.582303
0.573821
0.581276
0.581099
0.556573
0.56454
0.577233
0.585726
0.578342
0.578387
0.556492
0.577721
0.573631
0.584587
0.585714
0.585591
0.585555
0.585138
0.574738
0.553538
0.560754
0.581074
0.583714
0.584624
0.585207
0.574583
0.577293
0.554251
0.558894
0.573403
0.585627
0.585702
0.585562
0.585523
0.585518
0.584978
0.568532
0.550865
0.554976
0.58452
0.585645
0.584342
0.574299
0.577063
0.552275
0.53901
0.556444
0.581387
0.584636
0.584703
0.585525
0.585523
0.584968
0.582893
0.583016
0.572689
0.560667
0.580691
0.585691
0.581276
0.579887
0.57629
0.551356
0.572871
0.580603
0.578478
0.582797
0.584234
0.585418
0.585526
0.584856
0.576208
0.553574
0.556196
0.581688
0.582545
0.585456
0.58078
0.579373
0.573565
0.573435
0.57102
0.583781
0.585442
0.584098
0.58335
0.584573
0.585328
0.582877
0.561526
0.554036
0.5677
0.585044
0.585615
0.580147
0.578954
0.572925
0.549926
0.574636
0.573648
0.583492
0.584275
0.580548
0.579355
0.574597
0.58039
0.579457
0.574957
0.569439
0.579676
0.583402
0.585326
0.57465
0.577829
0.556387
0.554247
0.576833
0.577469
0.585679
0.582895
0.576429
0.572445
0.57023
0.574204
0.566681
0.554515
0.564741
0.578941
0.584801
0.58533
0.574945
0.577301
0.553586
0.557153
0.579015
0.576143
0.585668
0.580474
0.576929
0.554511
0.539224
0.544303
0.54999
0.549111
0.566748
0.574604
0.577917
0.584348
0.578718
0.577196
0.553388
0.567968
0.579533
0.581662
0.582169
0.577774
0.570703
0.563281
0.542965
0.542839
0.551094
0.5673
0.573169
0.57669
0.578272
0.584179
0.581405
0.576952
0.552693
0.553196
0.57474
0.579646
0.582504
0.580554
0.575229
0.56079
0.538764
0.539264
0.564804
0.57388
0.576781
0.577566
0.578069
0.583779
0.584878
0.580668
0.571984
0.552562
0.555598
0.578566
0.578768
0.585705
0.577854
0.575254
0.542834
0.538679
0.541849
0.565509
0.577301
0.581566
0.584451
0.585113
0.585602
0.584534
0.576095
0.576388
0.552004
0.575638
0.581949
0.583755
0.578895
0.572158
0.541362
0.538821
0.540569
0.554687
0.570836
0.584914
0.584808
0.585535
0.585725
0.581237
0.579887
0.574433
0.549824
0.574447
0.579404
0.585241
0.576134
0.565762
0.539057
0.538814
0.548084
0.548116
0.560283
0.57113
0.58391
0.585529
0.585724
0.580626
0.579237
0.573029
0.574212
0.577896
0.585162
0.577602
0.560571
0.538938
0.538709
0.539477
0.562791
0.55329
0.567471
0.582629
0.585408
0.585698
0.580384
0.578805
0.568199
0.575027
0.5756
0.585131
0.579364
0.567495
0.538586
0.539001
0.542835
0.546379
0.554123
0.573237
0.579857
0.585511
0.585311
0.577927
0.578464
0.55613
0.554427
0.577714
0.575301
0.585723
0.57971
0.570813
0.540619
0.539747
0.546031
0.551605
0.568614
0.572889
0.572771
0.585408
0.584424
0.574565
0.576963
0.553899
0.555498
0.577452
0.57711
0.585657
0.579193
0.566007
0.538981
0.538695
0.548
0.574032
0.574186
0.575206
0.578277
0.584572
0.581954
0.57988
0.573981
0.556926
0.57876
0.58297
0.584444
0.577967
0.571722
0.539414
0.538966
0.541532
0.561117
0.579378
0.578783
0.584888
0.585632
0.581553
0.579379
0.572722
0.556673
0.578924
0.582581
0.584308
0.57957
0.567841
0.538669
0.542077
0.569384
0.577904
0.576118
0.57841
0.583708
0.585725
0.581017
0.578964
0.572692
0.556394
0.578733
0.58312
0.584205
0.581786
0.570366
0.53937
0.540636
0.558571
0.569462
0.575599
0.578641
0.58529
0.585377
0.578606
0.578541
0.556414
0.556208
0.578646
0.583511
0.584014
0.578445
0.578012
0.569782
0.540368
0.54627
0.577932
0.57945
0.579806
0.585383
0.585156
0.574808
0.577281
0.554125
0.573306
0.578552
0.573861
0.585377
0.577741
0.554757
0.552461
0.562631
0.572386
0.574973
0.577563
0.585044
0.585532
0.585092
0.574714
0.576987
0.552595
0.571343
0.573285
0.584757
0.579033
0.566352
0.538678
0.541224
0.568489
0.57513
0.578665
0.585072
0.585727
0.582362
0.573576
0.575176
0.550213
0.571828
0.579584
0.58236
0.582642
0.539193
0.538574
0.53896
0.568102
0.579093
0.579789
0.581195
0.585677
0.581679
0.57932
0.573573
0.573388
0.551395
0.57975
0.581635
0.584999
0.538854
0.539518
0.549699
0.558276
0.580478
0.579188
0.585114
0.58571
0.580825
0.579087
0.572789
0.572719
0.579374
0.578844
0.580814
0.583416
0.549272
0.5385
0.539253
0.569474
0.582459
0.58029
0.585121
0.585687
0.577741
0.577756
0.556653
0.572438
0.579044
0.575258
0.581077
0.58032
0.583021
0.562483
0.569157
0.577016
0.581067
0.584648
0.582624
0.582936
0.578168
0.576522
0.552632
0.550469
0.573216
0.577719
0.578158
0.581253
0.580486
0.580907
0.583588
0.57891
0.582785
0.582366
0.580009
0.585196
0.581623
0.575406
0.566976
0.549671
0.575969
0.579382
0.580025
0.585652
0.581935
0.581183
0.583927
0.560816
0.584238
0.582863
0.582006
0.58104
0.580588
0.568707
0.574648
0.553949
0.576314
0.578377
0.577581
0.58557
0.57807
0.582941
0.580672
0.583042
0.583
0.582856
0.580892
0.580698
0.579853
0.558138
0.558007
0.572942
0.578635
0.563446
0.576146
0.581529
0.583931
0.58399
0.582856
0.579895
0.581099
0.580318
0.584373
0.582217
0.57774
0.572752
0.530383
0.572578
0.565269
0.569542
0.579905
0.581212
0.583163
0.583209
0.582525
0.582868
0.583198
0.58302
0.581691
0.57558
0.576964
0.573169
0.558547
0.552404
0.562735
0.572231
0.580078
0.579041
0.58297
0.578326
0.584792
0.57958
0.582453
0.580709
0.573785
0.576075
0.576497
0.572145
0.550273
0.576292
0.568153
0.574805
0.582718
0.583474
0.58531
0.584391
0.581096
0.58055
0.580898
0.579975
0.579374
0.576599
0.575142
0.546899
0.550456
0.5756
0.577982
0.556105
0.574466
0.579736
0.583051
0.585103
0.58165
0.580246
0.580536
0.579839
0.578917
0.578234
0.572274
0.549429
0.564345
0.575949
0.577761
0.566949
0.571694
0.578906
0.582342
0.584413
0.58063
0.580174
0.580023
0.575462
0.57932
0.57763
0.571995
0.551396
0.565355
0.567329
0.570453
0.570882
0.58294
0.581652
0.581366
0.579746
0.579907
0.574281
0.57795
0.575337
0.551093
0.56052
0.566053
0.567918
0.569616
0.571621
0.572322
0.580148
0.581548
0.579848
0.575459
0.579273
0.577507
0.572318
0.550711
0.57626
0.577882
0.56663
0.550275
0.57902
0.572069
0.558298
0.57921
0.57878
0.573699
0.578073
0.576187
0.566092
0.54971
0.575786
0.577563
0.566425
0.567231
0.573173
0.578142
0.572807
0.569399
0.555904
0.57151
0.577682
0.57569
0.550241
0.550989
0.575794
0.565283
0.566775
0.566451
0.570276
0.576525
0.574168
0.578145
0.571171
0.566664
0.577485
0.575449
0.548902
0.549896
0.575749
0.564849
0.566711
0.566449
0.567319
0.575815
0.577495
0.579641
0.570094
0.566705
0.577308
0.572745
0.548238
0.550741
0.575372
0.576978
0.56602
0.567203
0.566148
0.553029
0.579669
0.578885
0.571549
0.577724
0.576795
0.572657
0.546762
0.546442
0.551031
0.576772
0.577316
0.566717
0.566822
0.563313
0.561355
0.574979
0.570908
0.566312
0.576673
0.572172
0.577064
0.565887
0.567248
0.56701
0.578215
0.566622
0.566307
0.565797
0.566848
0.576959
0.577793
0.567273
0.565002
0.577421
0.57667
0.574088
0.551312
0.526257
0.563851
0.577796
0.566878
0.566045
0.576159
0.571186
0.535108
0.539779
0.56671
0.558845
0.576328
0.575453
0.551287
0.567352
0.559103
0.576113
0.575727
0.565049
0.557629
0.563559
0.57463
0.576291
0.574916
0.551347
0.550859
0.573473
0.541084
0.557889
0.566826
0.571718
0.57668
0.576912
0.575566
0.575532
0.563224
0.573652
0.576254
0.570836
0.561523
0.546246
0.548496
0.526073
0.567094
0.547454
0.566509
0.567176
0.549012
0.566384
0.571989
0.574794
0.575178
0.575752
0.576308
0.576464
0.573517
0.548554
0.566023
0.572385
0.575331
0.575786
0.576385
0.576707
0.576681
0.576408
0.576422
0.576535
0.576917
0.57677
0.576561
0.576816
0.549903
0.566988
0.574757
0.575792
0.576541
0.576645
0.576767
0.576886
0.576687
0.576601
0.576493
0.57689
0.577222
0.577048
0.576668
0.576716
0.576644
0.576832
0.576455
0.573569
0.571689
0.559148
0.555499
0.567619
0.575039
0.576145
0.576426
0.576868
0.576996
0.576862
0.576808
0.576803
0.576752
0.576627
0.576464
0.577315
0.566095
0.566112
0.57669
0.576337
0.57687
0.576514
0.576593
0.57562
0.565477
0.565961
0.573196
0.575609
0.576477
0.577311
0.57774
0.577499
0.577219
0.576976
0.576933
0.576877
0.577016
0.576701
0.576781
0.576673
0.576691
0.577525
0.567168
0.565907
0.577516
0.576606
0.576447
0.575923
0.57475
0.550238
0.569808
0.577177
0.579078
0.579397
0.577534
0.577187
0.564498
0.564498
0.559317
0.578232
0.577324
0.577055
0.57771
0.578101
0.577738
0.576925
0.576793
0.577259
0.577963
0.56777
0.566092
0.5772
0.5762
0.574818
0.564919
0.546267
0.570536
0.578426
0.579843
0.584291
0.584445
0.584962
0.5818
0.5802
0.579758
0.579886
0.574719
0.578426
0.57771
0.543693
0.578377
0.564041
0.577773
0.576966
0.576646
0.576733
0.566061
0.565845
0.575457
0.565371
0.549848
0.558215
0.576618
0.58222
0.58565
0.585729
0.584326
0.584006
0.585012
0.585589
0.581492
0.579567
0.580003
0.580373
0.577219
0.571211
0.566689
0.580719
0.571443
0.577195
0.576742
0.576713
0.57649
0.575496
0.566892
0.569498
0.548365
0.572834
0.578895
0.582625
0.58538
0.584109
0.585282
0.585155
0.582759
0.577701
0.585696
0.585646
0.581527
0.580817
0.580047
0.580189
0.582175
0.576068
0.580305
0.574973
0.578852
0.576911
0.576063
0.572489
0.565066
0.552376
0.5702
0.577695
0.563083
0.579498
0.584127
0.584662
0.581848
0.581783
0.583628
0.583197
0.578037
0.58294
0.583303
0.585113
0.585473
0.585519
0.585711
0.583903
0.580824
0.576248
0.577949
0.577899
0.577613
0.576198
0.56701
0.552119
0.575354
0.579259
0.576899
0.582396
0.585464
0.581988
0.579834
0.581041
0.580156
0.582267
0.579802
0.578268
0.577994
0.579869
0.583508
0.585432
0.585591
0.585711
0.585562
0.577944
0.57831
0.565201
0.56634
0.562916
0.529397
0.559234
0.547687
0.572749
0.582398
0.585732
0.583771
0.57865
0.575652
0.582226
0.5756
0.576979
0.580366
0.578781
0.57978
0.579214
0.578903
0.579117
0.58273
0.585689
0.585658
0.584607
0.57808
0.579436
0.565332
0.544504
0.549447
0.554705
0.578964
0.585421
0.584694
0.574481
0.550902
0.55024
0.545643
0.549241
0.579582
0.576348
0.577539
0.579089
0.578584
0.577209
0.580735
0.579069
0.584325
0.584105
0.578079
0.579931
0.576782
0.568958
0.568717
0.577441
0.556924
0.581375
0.583634
0.585578
0.582809
0.573672
0.548237
0.545791
0.545278
0.545545
0.546488
0.550645
0.55872
0.547378
0.547835
0.576812
0.577642
0.583884
0.58133
0.574776
0.579789
0.576881
0.568027
0.569354
0.577219
0.573927
0.581027
0.585676
0.580819
0.584154
0.585383
0.573218
0.5471
0.546239
0.545471
0.54504
0.546832
0.547448
0.546535
0.547246
0.561313
0.561222
0.57776
0.585718
0.583267
0.56192
0.57724
0.568113
0.570677
0.578513
0.577657
0.581283
0.585601
0.584928
0.582031
0.585581
0.581584
0.572236
0.552221
0.545441
0.54509
0.546217
0.545879
0.546654
0.546303
0.554535
0.566566
0.575071
0.58204
0.579606
0.579473
0.570008
0.557631
0.551422
0.571049
0.578725
0.578739
0.585272
0.585481
0.585622
0.581867
0.577437
0.568582
0.567678
0.565013
0.562318
0.549814
0.543943
0.545715
0.544454
0.546403
0.549154
0.549167
0.57937
0.578787
0.585689
0.582692
0.573258
0.569289
0.551819
0.571209
0.579215
0.580005
0.585533
0.584012
0.583338
0.574351
0.572927
0.553828
0.54557
0.558956
0.561785
0.560812
0.559019
0.551872
0.551044
0.563003
0.550973
0.546928
0.568893
0.577558
0.577296
0.581135
0.573361
0.56854
0.55389
0.574892
0.57936
0.57977
0.585679
0.585723
0.580493
0.570086
0.565411
0.562185
0.554767
0.540803
0.540741
0.557191
0.559963
0.560693
0.560444
0.563361
0.561921
0.564495
0.580387
0.583712
0.585718
0.579997
0.57873
0.572258
0.548303
0.550152
0.574312
0.579589
0.581113
0.585698
0.585682
0.579766
0.568143
0.562642
0.561297
0.560968
0.56074
0.559341
0.553943
0.551776
0.558651
0.560043
0.561593
0.552239
0.547349
0.549889
0.580384
0.585528
0.580968
0.572833
0.576988
0.545741
0.570046
0.579022
0.578922
0.585553
0.585242
0.576419
0.564381
0.55919
0.558217
0.559265
0.560473
0.560847
0.560525
0.559923
0.558869
0.558527
0.559407
0.561917
0.564147
0.547161
0.545647
0.556906
0.583233
0.57382
0.577251
0.56883
0.568492
0.577396
0.575601
0.584993
0.583919
0.579985
0.56202
0.541928
0.540886
0.54091
0.541079
0.553303
0.559758
0.560782
0.559919
0.559704
0.55996
0.561172
0.56299
0.566074
0.574068
0.577891
0.584608
0.58075
0.577349
0.568429
0.554299
0.575496
0.576115
0.583784
0.584484
0.575248
0.561674
0.543758
0.540665
0.540108
0.539919
0.540176
0.540237
0.540424
0.555912
0.559412
0.559567
0.56065
0.562113
0.564328
0.572224
0.585126
0.585722
0.579234
0.578705
0.570083
0.570211
0.579115
0.58224
0.585703
0.578128
0.560263
0.541303
0.539816
0.539769
0.539966
0.539742
0.539495
0.539986
0.539878
0.550059
0.55702
0.560014
0.561263
0.562378
0.567757
0.582197
0.584557
0.583085
0.573212
0.573854
0.568342
0.57803
0.578961
0.585593
0.583666
0.560873
0.541353
0.541064
0.538751
0.538873
0.539477
0.539583
0.539016
0.539478
0.539184
0.539233
0.552252
0.559763
0.561816
0.566159
0.578984
0.585678
0.585503
0.578337
0.57802
0.558052
0.555339
0.575794
0.575189
0.583586
0.585725
0.578346
0.558628
0.539764
0.538657
0.538625
0.538624
0.538748
0.538958
0.539082
0.539106
0.538826
0.53893
0.540012
0.541031
0.559697
0.571459
0.584851
0.585727
0.57981
0.579182
0.570124
0.555208
0.575267
0.574353
0.582652
0.585112
0.582077
0.567068
0.553461
0.542035
0.538699
0.53857
0.53857
0.538623
0.53863
0.538706
0.538702
0.538827
0.5396
0.547518
0.541436
0.550324
0.581541
0.585302
0.582191
0.573636
0.574889
0.552495
0.569801
0.573558
0.582418
0.585293
0.582628
0.571536
0.560757
0.549172
0.53914
0.538671
0.538653
0.538574
0.538611
0.538696
0.538577
0.538674
0.539425
0.539813
0.540186
0.559462
0.583991
0.580904
0.582931
0.574353
0.575583
0.555906
0.559015
0.57675
0.579242
0.585729
0.580159
0.567758
0.559386
0.551527
0.545462
0.539036
0.538645
0.538583
0.538582
0.539561
0.538564
0.538582
0.538648
0.539654
0.540285
0.539781
0.573534
0.585445
0.583618
0.574649
0.57569
0.556167
0.574919
0.576023
0.585328
0.585327
0.567215
0.54277
0.539834
0.54366
0.543295
0.538863
0.538593
0.538589
0.539895
0.540638
0.539382
0.538587
0.538638
0.538953
0.550638
0.56671
0.580297
0.585723
0.579239
0.576277
0.556269
0.559022
0.578476
0.582087
0.585715
0.577088
0.562742
0.546834
0.538692
0.539582
0.540994
0.541642
0.540025
0.539818
0.540242
0.541733
0.543179
0.538733
0.538646
0.54343
0.553532
0.577835
0.584969
0.582216
0.572836
0.570638
0.574295
0.576523
0.585571
0.583154
0.566567
0.56043
0.549681
0.541686
0.538622
0.53888
0.539301
0.541794
0.543551
0.541071
0.5416
0.546224
0.547988
0.539027
0.539143
0.566292
0.584997
0.584373
0.574675
0.575365
0.555352
0.555015
0.576399
0.581434
0.585712
0.576829
0.560491
0.555071
0.547032
0.541759
0.543144
0.540638
0.539111
0.538953
0.539537
0.540097
0.538956
0.538585
0.550621
0.553395
0.542006
0.584192
0.585719
0.579836
0.578363
0.557437
0.571774
0.574911
0.584826
0.580574
0.563955
0.556055
0.54838
0.543102
0.543324
0.540629
0.53913
0.541592
0.541798
0.541227
0.539127
0.538588
0.5386
0.538678
0.555702
0.576557
0.584763
0.582862
0.574373
0.574502
0.550044
0.559982
0.578736
0.581575
0.585689
0.569049
0.542401
0.539924
0.542845
0.53955
0.538608
0.539009
0.538858
0.538637
0.539732
0.542241
0.542352
0.542716
0.544408
0.547073
0.561423
0.58216
0.585582
0.576776
0.575646
0.556089
0.575849
0.579157
0.585723
0.582079
0.566351
0.547751
0.538647
0.53871
0.538675
0.53883
0.53896
0.538852
0.538525
0.538759
0.54012
0.543143
0.54519
0.550403
0.557798
0.577843
0.584523
0.582059
0.579153
0.569513
0.56043
0.578658
0.582744
0.585284
0.571379
0.560605
0.554713
0.543948
0.538939
0.538536
0.538728
0.53851
0.538541
0.53855
0.539042
0.539315
0.544062
0.546267
0.558517
0.560539
0.5815
0.585728
0.576428
0.575482
0.553785
0.574719
0.57617
0.585667
0.581929
0.565369
0.555051
0.549188
0.544583
0.540141
0.538746
0.538599
0.538596
0.538468
0.539231
0.539591
0.53849
0.541331
0.549258
0.557887
0.565268
0.584457
0.58422
0.573912
0.569986
0.560181
0.578683
0.581436
0.584804
0.576704
0.559042
0.550522
0.544362
0.540607
0.539815
0.539667
0.539451
0.539096
0.539441
0.539751
0.539129
0.538517
0.540698
0.548737
0.562565
0.578989
0.585515
0.580367
0.577828
0.556139
0.574729
0.576421
0.585616
0.583226
0.568395
0.560668
0.548323
0.543941
0.541933
0.538997
0.538697
0.539193
0.539307
0.540783
0.542054
0.542678
0.542114
0.545772
0.551227
0.568222
0.584843
0.584206
0.574965
0.574281
0.559738
0.578636
0.581964
0.585715
0.575495
0.560109
0.55363
0.546982
0.543536
0.542208
0.541329
0.539329
0.538776
0.538767
0.538797
0.540604
0.543399
0.545456
0.550287
0.561296
0.580386
0.585381
0.580152
0.578331
0.557053
0.57443
0.575888
0.585556
0.582507
0.566554
0.557908
0.547863
0.544425
0.54297
0.542436
0.539996
0.538921
0.538968
0.538846
0.538842
0.538952
0.541366
0.548557
0.559296
0.567563
0.584485
0.585281
0.575361
0.574459
0.575901
0.580271
0.585539
0.575762
0.559413
0.551099
0.545318
0.543099
0.542536
0.542519
0.542235
0.539706
0.538711
0.538567
0.538746
0.539256
0.541922
0.549646
0.560683
0.578058
0.584903
0.581512
0.579086
0.56035
0.559052
0.578853
0.58346
0.58464
0.567925
0.557754
0.547346
0.543677
0.54254
0.54233
0.542512
0.54256
0.5422
0.541205
0.539395
0.539531
0.539759
0.54425
0.558469
0.563586
0.581726
0.585716
0.576041
0.575278
0.55347
0.560036
0.575133
0.585663
0.579991
0.561533
0.550645
0.545176
0.542898
0.542149
0.542116
0.542274
0.542355
0.542338
0.5421
0.542124
0.542307
0.543264
0.547952
0.559051
0.564211
0.582948
0.585371
0.574829
0.561542
0.57071
0.576578
0.585609
0.575884
0.551
0.544009
0.540677
0.542321
0.54175
0.539882
0.539868
0.541867
0.542045
0.541977
0.542267
0.542789
0.54484
0.551883
0.558879
0.57523
0.585727
0.581578
0.577073
0.558051
0.575865
0.580001
0.585602
0.571604
0.556163
0.542207
0.539083
0.539531
0.541798
0.539853
0.538714
0.538773
0.54101
0.541861
0.542452
0.54304
0.545117
0.556996
0.563068
0.582197
0.585589
0.576429
0.574684
0.559764
0.573037
0.583732
0.584752
0.567758
0.557803
0.546201
0.542274
0.541328
0.541538
0.541938
0.539837
0.538674
0.538609
0.540767
0.542333
0.543178
0.545922
0.55755
0.564907
0.585024
0.582948
0.578981
0.559649
0.570148
0.575326
0.585706
0.580984
0.562958
0.558692
0.547166
0.542637
0.541673
0.541849
0.542132
0.542155
0.541607
0.540805
0.540887
0.542188
0.543189
0.548633
0.555542
0.569012
0.585661
0.581472
0.576741
0.553884
0.576019
0.579417
0.585456
0.578645
0.559955
0.551326
0.546004
0.54251
0.53937
0.538877
0.539686
0.542037
0.542168
0.541917
0.542139
0.542577
0.544007
0.550058
0.5589
0.578536
0.58543
0.577818
0.575012
0.558839
0.578602
0.582594
0.585504
0.572506
0.559
0.550311
0.544344
0.542542
0.541456
0.538838
0.538576
0.539203
0.541571
0.541907
0.542274
0.542799
0.544773
0.555264
0.562636
0.582324
0.585548
0.575358
0.570161
0.570356
0.575089
0.585506
0.582401
0.565523
0.55945
0.549634
0.54407
0.541484
0.539737
0.540576
0.539111
0.538675
0.538681
0.540562
0.542374
0.542936
0.545023
0.556651
0.564779
0.584671
0.58301
0.579033
0.56009
0.57416
0.577253
0.585542
0.579142
0.560814
0.551205
0.545765
0.54312
0.540018
0.538864
0.538629
0.539049
0.540406
0.538879
0.538515
0.539372
0.542649
0.545398
0.557871
0.572731
0.585688
0.581754
0.576487
0.553601
0.575623
0.579746
0.585712
0.571935
0.557908
0.550134
0.544611
0.542815
0.541522
0.5389
0.53852
0.538599
0.538821
0.540235
0.538886
0.5389
0.540136
0.5479
0.556536
0.57731
0.585613
0.578626
0.575826
0.555021
0.578389
0.582027
0.585496
0.56849
0.558901
0.547946
0.543868
0.542681
0.54219
0.541433
0.538825
0.538596
0.538576
0.538564
0.539388
0.541574
0.542735
0.549048
0.561413
0.581411
0.585526
0.575019
0.570551
0.559397
0.578925
0.583159
0.585139
0.567505
0.558714
0.54704
0.54337
0.542341
0.542104
0.542025
0.541793
0.539506
0.538559
0.538464
0.538514
0.539498
0.544388
0.554319
0.56404
0.584597
0.582469
0.578736
0.559068
0.560878
0.574918
0.585413
0.584637
0.566456
0.558049
0.547076
0.543195
0.542382
0.542074
0.542045
0.541922
0.541709
0.541112
0.538993
0.538533
0.538783
0.541568
0.555957
0.572861
0.585631
0.579641
0.576065
0.574027
0.576133
0.585714
0.579999
0.563103
0.557171
0.546753
0.543155
0.54232
0.542026
0.541975
0.541895
0.540692
0.53914
0.53904
0.538952
0.539009
0.541349
0.555196
0.576467
0.585699
0.576173
0.574201
0.574347