/*--------------------------------*- C++ -*----------------------------------*\
| =========                 |                                                 |
| \\      /  F ield         | OpenFOAM: The Open Source CFD Toolbox           |
|  \\    /   O peration     | Version:  2312                                  |
|   \\  /    A nd           | Website:  www.openfoam.com                      |
|    \\/     M anipulation  |                                                 |
\*---------------------------------------------------------------------------*/
FoamFile
{
    version     2.0;
    format      ascii;
    arch        "LSB;label=64;scalar=64";
    class       volScalarField;
    location    "10";
    object      omega;
}
// * * * * * * * * * * * * * * * * * * * * * * * * * * * * * * * * * * * * * //

dimensions      [0 0 -1 0 0 0 0];

internalField   nonuniform List<scalar> 
404911
(
598.948
143.851
3564.73
1666.26
129.533
149.571
185.695
725.127
456.457
394.245
1084.16
377.871
134.739
317.373
496.918
1225.96
905.333
117.466
107.518
382.401
1181.85
127.954
630.034
706.928
126.078
1011.43
1043.62
116.194
119.623
1094.62
931.766
118.19
184.231
399.026
278.643
128.402
265.417
517.427
291.259
144.682
396.58
1128.69
290.313
143.429
109.823
468.185
419.164
143.757
141.225
2043.82
493.724
1606.58
346.867
1449.74
439.866
687.85
9536.32
81.6203
406.752
301.585
60.0917
43.2855
241.215
3.84355
71.0053
257.611
6.13395
541.149
77.1785
5.51334
67.4242
1.3908
67.6394
21.2435
12.1619
689.891
2390.64
307.623
40.6959
91.0546
25.6406
103.552
2.97962
63.9811
41.673
36.9084
373.067
22.3183
1247.08
137.611
208.83
3079.87
20.1598
89.8935
98.7045
18.3845
54.2881
117.703
8.58812
301.423
707.112
17.3274
37.2332
551.501
1256.57
506.008
254.1
682.679
339.516
263.52
206.907
211.754
203.698
220.212
2318.49
519.938
221.704
4579.18
615.155
179.803
185.219
184.579
190.124
269.131
1320.91
320.446
214.015
201.893
184.262
535.877
493.886
533.878
180.126
173.519
185.601
178.24
231.613
228.892
176.848
293.286
1193.36
315.061
201.576
184.947
186.313
184.37
187.164
176.576
533.009
477.318
182.224
172.093
193.398
1813.4
293.389
1000.66
262.897
177.731
165.019
174.919
177.544
185.243
188.836
187.896
182.332
176.8
177.153
176.715
190.192
266.078
408.186
598.928
467.363
444.288
465.313
460.605
538.906
183.092
189.809
182.035
181.758
180.268
188.734
200.535
206.037
205.745
296.28
719.36
484.88
434.665
438.542
591.553
387.491
563.767
474.805
169.279
178.974
177.322
186.829
194.113
200.298
230.849
1180.09
1003.29
261.559
593.027
1215.45
305.093
297.212
604.827
468.111
356.724
411.881
472.825
481.487
165.893
182.665
188.704
187.847
213.79
505.044
873.174
608.489
289.306
212.618
134.274
247.103
654.395
298.535
382.063
785.423
476.419
456.63
150.45
184.75
188.999
209.619
304.896
1218.96
1234.93
291.592
135.693
228.225
118.533
120.34
122.295
140.881
332.821
391.013
269.287
172.47
167.137
331.161
501.494
176.557
220.809
1125.18
476.17
176.37
122.951
285.008
117.402
117.782
105.486
116.273
126.771
153.489
131.047
138.251
435.388
414.248
484.799
550.241
442.312
483.843
217.979
168.547
482.186
133.035
113.068
130.044
107.375
103.475
141.614
103.345
112.897
258.914
396.511
460.13
491.374
1705.83
370.373
183.59
160.455
102.656
109.16
117.83
124.915
111.511
114.994
113.023
106.881
107.295
110.935
349.782
420.255
459.475
256.092
1045.9
996.437
898.911
313.439
218.338
53.321
48.9605
114.231
114.259
116.866
104.619
108.783
106.841
111.14
114.751
164.044
385.02
196.562
559.699
1125.78
261.156
154.231
671.742
122.746
104.522
103.91
40.6537
106.332
99.2415
114.647
128.289
60.2842
116.436
120.252
144.781
915.033
274.359
481.603
170.158
295.32
99.0311
82.3645
171.618
153.169
73.5792
46.1503
81.0226
44.3551
39.7825
77.799
128.297
126.165
176.31
200.557
1018.82
1153.22
274.044
159.832
199.338
63.7456
52.7855
75.6559
91.8556
29.9889
28.7844
29.2144
66.6277
57.7101
66.0738
125.616
138.611
1064.73
902.133
360.733
151.788
129.012
99.5667
142.217
79.8952
83.2051
37.2118
39.3896
39.8291
36.2848
28.5628
66.6463
98.1338
134.798
145.899
288.606
726.678
1114.08
903.118
1037.4
137.001
186.75
34.7173
75.9495
85.4534
41.1132
20.7593
29.9799
40.3409
38.9817
71.9658
117.55
187.079
155.203
451.395
442.083
173.908
599.848
87.4711
64.1263
17.1853
26.8168
62.9859
29.8566
71.5634
57.3477
38.4213
45.7301
57.6201
119.888
145.005
285.475
984.584
194.161
129.263
176.142
47.5785
28.9777
27.3361
23.9049
58.3358
84.7579
85.6175
136.238
60.5421
79.2258
64.2099
299.095
159.661
320.065
439.828
144.86
171.163
101.178
48.4095
32.4792
26.0785
16.708
24.8032
45.4956
89.4997
82.4119
50.0016
91.705
102.426
230.818
176.959
993.29
255.025
122.296
106.439
46.3892
31.1932
28.7053
55.8996
57.528
25.4053
27.7168
25.6594
29.3954
156.008
112.763
151.147
171.714
289.744
1188.94
471.499
179.413
287.606
71.2013
47.0998
37.1336
25.6491
18.414
35.3625
34.5557
31.7651
40.4275
43.3145
44.9307
126.184
122.639
191.777
1020.29
1143.32
241.874
124.663
157.224
62.9349
45.7975
39.0674
33.9894
25.1605
21.9084
23.4475
19.647
71.2983
50.1181
60.6389
115.648
161.87
304.73
445.727
159.533
242.64
69.9168
50.0728
43.1891
41.822
29.8951
23.1724
24.2601
24.6409
23.796
29.0299
78.107
96.3236
292.755
185.268
1013.86
1154.25
242.443
126.934
117.121
54.4275
44.0863
42.0788
42.3039
42.0834
30.3121
21.6893
19.6324
20.1802
32.4525
68.6006
92.9428
182.701
278.664
915.593
164.2
230.412
67.4313
46.4014
42.1751
41.5909
43.5208
43.5118
41.9175
35.0915
27.6296
29.2977
31.3479
55.2954
329.675
205.789
334.379
272.639
131.611
105.507
53.5163
43.3951
39.9856
40.7103
42.0102
42.5063
42.8105
40.5643
39.9487
42.0264
49.0926
97.9059
304.578
172.199
519.208
246.369
280.184
162.623
35.5401
40.986
36.9919
29.1461
29.5552
38.9252
40.715
39.7491
41.1033
45.0913
62.6068
152.562
132.551
256.31
1134.39
1169.06
184.405
173.139
91.035
23.7674
27.1395
39.0339
28.1915
19.7201
16.2675
32.9949
38.9999
42.8038
46.6544
63.4956
270.672
170.847
469.746
944.899
169.495
246.702
58.2496
40.4201
36.0016
37.1985
40.0942
29.3617
35.5997
5.55267
29.1915
42.1618
47.8074
71.3635
266.899
177.504
1079.04
298.387
146.966
280.201
64.0304
40.6426
36.5909
38.4517
41.5584
41.6556
37.1322
30.7228
30.1843
40.5394
47.6426
107.892
120.206
185.186
1119.37
283.877
129.491
116.382
59.1236
39.22
27.6324
24.737
31.6541
41.0987
41.9942
39.7806
40.8537
44.2946
54.5962
116.396
132.232
279.063
1051.99
208.36
128.071
108.95
49.4912
41.3538
35.2094
22.521
18.6341
26.7223
37.3714
39.3905
41.4546
45.5099
61.9288
240.354
156.78
458.369
445.436
156.409
289.121
104.78
47.8049
34.464
28.7791
31.4866
23.5698
17.0766
17.3984
27.357
42.7791
46.2038
62.8634
247.849
176.76
1026.6
290.346
131.325
111.859
57.1388
42.9324
27.2978
21.8011
17.6119
23.0138
31.1012
21.073
6.03166
23.0076
44.4286
66.6768
251.538
227.685
1158.91
1069.59
189.88
121.923
107.706
51.5358
43.5152
35.582
22.2947
15.9922
16.6628
19.1142
28.959
26.5808
15.2002
31.9807
97.5222
124.359
256.508
1061.53
177.402
258.046
71.4385
47.3494
43.1786
40.9553
36.1729
21.1858
18.4845
17.6056
13.3445
22.1498
36.7261
45.26
105.702
142.086
433.943
1045.37
175.777
261.155
63.4684
45.9556
41.3057
40.8485
40.551
38.6111
27.2249
10.2349
9.96026
14.1815
27.9231
57.2829
220.398
158.664
926.201
1040.27
172.196
249.784
64.4151
44.6563
42.1856
40.7963
40.8295
39.2411
37.4896
32.2788
20.3341
9.43112
18.5014
43.4855
234.063
226.143
1156.32
286.399
151.948
247.778
62.141
44.7483
42.0215
40.7582
40.516
39.149
26.9044
14.7551
20.105
25.0532
19.6576
39.0782
207.611
251.388
1171.78
262.626
129.463
117.843
56.0949
45.0306
41.5875
40.191
39.8786
42.1044
36.2008
17.9828
5.53261
19.6436
28.3912
53.5425
212.2
245.523
1119.63
177.433
287.935
109.141
53.1261
46.0832
38.738
34.3761
33.8228
39.4471
43.4921
37.7578
28.0962
13.001
19.9023
79.6744
278.893
260.505
997.404
173.343
263.995
65.1153
47.5822
43.3691
40.4141
27.6501
19.6101
16.7314
32.6047
39.1288
40.8947
41.4388
42.2918
91.3268
128.929
272.697
1063.79
173.957
271.072
65.5999
44.3881
43.4418
40.9445
39.7053
27.7189
11.8559
13.4415
29.3618
40.5484
44.301
49.5226
114.326
132.728
289.195
1066.09
178.575
278.005
66.3541
44.062
43.9413
41.1381
40.2719
41.438
38.7425
33.0195
29.3453
38.6998
43.3268
60.0355
165.175
143.57
435.248
997.908
170.468
275.604
67.1758
43.6351
42.8662
40.645
40.9063
40.5409
42.5483
40.5431
38.5608
41.4773
44.0424
62.9086
258.275
171.539
1006.79
300.632
166.638
270.261
63.3771
42.6374
40.7262
39.231
36.8811
37.4655
36.9931
39.7636
39.3393
41.8732
45.0451
63.4098
258.701
174.662
1091.94
305.778
162.07
237.602
49.0369
28.5123
34.2275
35.23
32.7962
25.2128
16.8381
24.0908
33.3012
42.7438
44.5309
63.5139
252.148
172.479
1060.19
1197.2
214.956
156.533
265.419
56.5486
23.0185
16.1721
13.3021
22.8551
19.7688
5.04533
3.51523
4.88413
31.6119
43.7443
63.3554
255.115
185.745
1046.01
1084.16
176.281
121.706
161.412
63.3759
37.5557
18.8417
6.59815
3.07048
3.8213
4.05167
2.88896
3.30311
12.8567
38.8865
70.9489
267.009
234.789
182.082
278.16
76.5577
49.2391
42.0646
39.2738
27.7389
7.43348
2.89422
6.45089
2.49885
12.4064
27.0318
39.1249
107.168
122.116
247.075
1022.1
184.887
265.426
67.09
44.5337
41.8688
40.7512
38.7634
26.0037
4.8948
2.80003
2.30324
4.89199
19.3926
43.6767
112.701
133.118
293.504
1064.7
176.549
238.027
63.2742
44.4686
42.6107
38.3965
36.0792
35.6162
25.2302
4.41956
2.69161
3.99222
19.2537
41.5782
111.248
140.58
442.724
1162.58
175.599
251.374
61.6562
44.294
41.8065
38.1592
26.6185
15.8544
24.6344
24.3076
6.28254
9.86527
19.0846
45.8401
148.977
147.815
870.223
161.676
269.731
65.9396
44.7287
41.3457
40.7659
36.7063
16.6403
5.13485
8.04427
24.263
30.2784
33.7624
58.3617
241.541
170.763
973.773
778.415
278.828
51.0845
44.0923
40.8707
40.3131
40.2635
35.6631
12.1013
4.19559
5.66691
33.2882
42.3681
68.6728
249.743
175.935
1074.07
2200.49
882.058
102.339
65.6994
34.1537
40.3392
40.3156
35.5972
27.9949
28.3104
14.9527
8.00443
23.6423
43.6435
103.077
122.398
194.612
1124.02
292.542
112.32
147.469
27.8163
32.1103
39.0911
40.3678
34.9465
18.0172
5.14697
6.13455
25.3897
27.1925
39.4923
109.557
130.46
271.313
275.29
349.921
74.7896
39.375
31.6014
29.2331
33.5364
38.227
27.9571
8.39442
5.31711
11.6086
36.0824
51.359
118.433
137.533
290.665
1207.61
239.825
269.184
77.8447
32.3264
23.4332
21.6773
16.5308
23.1672
21.7949
16.8396
12.6743
22.1058
29.369
56.6508
239.589
159.026
875.137
974.378
181.47
167.156
49.5047
28.052
18.2584
14.7784
13.1999
16.1917
11.019
5.49398
9.9701
21.118
34.6746
56.5891
231.114
170.537
1006.57
842.78
136.521
199.039
49.9451
23.3161
18.7776
5.49279
0.690496
2.12046
3.9013
3.6113
11.058
16.5396
19.872
32.623
142.055
172.924
1016.11
447.322
127.888
98.9188
26.3963
19.7065
13.5199
9.23173
1.7305
1.69439
4.2738
11.3751
15.3409
18.5266
20.2933
31.9668
102.108
178.657
1052.01
1026.23
236.82
126.357
88.7975
23.4424
17.1012
8.06122
0.567134
0.70139
10.0041
15.92
18.6208
19.4704
20.0489
30.5275
62.7611
111.821
322.598
1059.62
910.2
144.466
141.068
44.2717
19.7959
17.1248
1.69281
0.544323
1.41313
10.3773
19.177
25.1826
32.9989
36.5435
41.5424
66.5649
200
192.349
1089.28
211.743
94.9433
30.4474
21.0674
14.5629
1.27641
0.582118
1.05664
5.55926
13.6119
35.335
34.7019
40.4938
46.6435
103.572
122.389
245.658
1213.65
245.325
130.321
37.5758
17.9634
10.5135
0.645584
0.580403
3.28004
3.29009
7.83355
13.8146
30.9294
40.4131
46.994
111.623
132.699
287.593
252.255
158.164
59.1709
19.5114
7.96329
0.614042
0.552436
0.758926
8.99355
5.04459
11.4738
27.3868
38.9802
48.7278
114.997
140.118
439.757
228.078
213.44
59.5884
21.6922
11.49
0.519356
0.630301
1.69321
2.74579
5.34872
15.395
22.3626
40.1659
56.8606
157.176
146.312
886.466
964.568
160.675
220.96
45.7745
22.1743
13.5965
1.07023
0.831788
2.63915
4.44958
12.1607
15.1208
15.0271
38.9921
67.7677
241.956
178.286
990.789
915.043
167.209
175.09
42.8306
21.4618
10.6473
0.625062
0.548931
3.25313
16.0471
16.1784
17.0791
20.2976
33.5447
94.842
122.491
258.867
851.323
141.035
83.4568
33.023
19.9314
14.2413
0.741714
0.621045
1.32389
8.20787
21.7132
20.9257
35.1507
42.1151
99.6463
130.387
297.003
862.281
138.096
87.6911
32.4518
21.978
11.6939
0.541591
1.47743
12.647
19.8578
17.9485
20.4592
30.2911
45.5406
106.403
137.401
297.859
874.782
141.572
81.826
32.0213
25.6201
13.291
0.729723
1.07521
7.09736
12.6949
17.4462
20.7457
37.8936
55.8759
143.97
144.939
873.964
882.957
142.951
77.6309
31.3447
20.5035
19.9837
12.9033
1.00147
2.71235
19.8892
21.8107
22.3108
38.743
59.0607
235.028
171.052
979.994
279.531
144.52
263.702
38.7825
19.6699
5.58516
4.74911
8.91567
14.7345
16.8682
19.4662
36.0898
40.4416
59.9017
237.704
177.712
1057.27
342.708
282.067
64.2745
21.2518
10.8379
0.544042
1.2379
12.085
17.0103
20.7763
36.2714
46.2777
90.1255
271.244
224.418
1190.54
327.568
128.035
90.7107
27.4544
0.682082
0.516321
0.619931
11.8509
21.3301
22.2873
24.5212
43.2141
98.0849
131.388
271.103
276.809
1132.94
125.415
99.3459
35.8906
0.591231
0.769323
3.80471
6.97409
23.3273
21.4548
36.5652
48.1248
108.955
135.249
294.884
297.129
130.501
139.878
109.915
79.0489
3.66379
0.49665
0.698408
12.7034
27.0334
23.0322
36.6867
49.2738
161.33
160.586
863.369
305.739
135.942
223.431
106.421
116.86
83.336
8.84447
12.4997
18.8681
24.2999
65.4931
87.6891
84.2716
153.49
189.209
1055.38
1175.16
282.075
161.735
152.695
104.022
114.495
108.683
77.2144
21.086
85.9711
90.678
121.409
58.6559
99.4294
219.964
484.255
1222.62
202.987
130.361
120.464
50.4768
95.6972
105.023
73.5529
8.07087
32.1978
85.0498
94.8482
106.896
113.026
427.012
239.953
988.914
194.239
148.533
164.589
52.451
155.465
84.2589
111.883
83.1218
28.3297
85.1701
108.853
111.508
123.84
808.962
814.347
290.491
143.542
603.984
198.992
100.116
31.0239
31.2708
27.9623
22.4404
24.3522
116.553
68.4299
91.9862
162.229
298.883
4096.49
301.706
541.107
400.255
123.03
104.666
81.7505
28.875
88.8775
85.052
81.4078
83.1695
98.1684
213.742
178.539
283.8
785.119
1068.09
629.457
315.424
120.398
137.174
83.898
20.3556
34.7015
128.125
89.6841
111.354
265.761
200.643
189.772
314.893
1186.39
194.943
445.914
237.016
86.7121
78.404
38.1635
68.4818
106.18
113.569
108.778
121.976
130.821
187.253
225.363
1406.15
1175.25
212.899
156.493
895.388
247.145
125.678
28.4551
36.5692
99.1464
117.929
113.756
124.06
139.364
151.174
311.006
1236.87
568.505
203.709
161.066
485.398
332.581
139.622
90.9073
68.2204
112.455
118.992
121.237
218.293
131.725
163.563
319.546
1134.19
538.29
473.105
371.577
357.848
84.2263
99.1519
102.704
125.517
123.006
252.274
156.875
220.078
1139.4
712.594
515.513
453.817
398.835
334.254
312.691
119.334
100.405
123.921
218.424
132.44
166.181
309.481
1161.22
195.658
158.624
495.917
1200.42
137.519
320.087
802.413
134.271
141.913
269.782
154.445
197.389
508.235
1220.6
208.002
165.242
502.814
476.361
286.182
154.005
297.327
405.431
907.137
338.074
162.578
210.425
1188.06
1145.09
207.823
540.562
491.214
502.218
377.402
190.368
256.125
153.907
348.636
495.218
166.895
216.963
1270.38
1209.41
208.884
555.25
493.558
502.346
473.57
208.748
167.628
127.151
382.46
493.681
170.911
296.853
1314.67
1159.93
219.128
178.287
516.083
477.432
512.78
1046.93
126.719
139.935
337.031
161.896
182.545
299.23
1417.88
1441.56
1151.71
183.188
170.683
493.316
489.832
610.271
680.483
232.011
357.063
506.756
185.452
313.927
176.402
520.741
475.829
483.594
151.92
496.238
507.182
523.838
483.598
178.885
160.339
475.06
551.304
168.345
185.601
256.395
1129.65
6296.91
590.212
160.182
487.347
515.537
198.365
344.838
2827.61
2106.05
493.298
779.161
194.075
217.022
1129.39
472.186
769.519
199.633
209.556
543.439
830.353
600.835
240.953
194.928
231.95
1126.15
1154.83
275.041
1951.85
818.677
484.888
328.723
185.357
179.705
214.107
215.138
608.492
269.274
195.73
356.814
669.265
1460.35
1311.2
6442.95
476.917
1369.37
495.395
474.151
1265.08
499.135
319.982
235.531
224.695
208.981
194.592
190.583
274.046
1293.8
510.925
307.659
220.345
208.076
192.628
184.71
185.369
192.135
191.784
188.957
179.705
183.261
188.419
182.101
1209.19
479.161
236.448
207.873
188.735
186.222
183.269
180.441
185.251
187.357
190.078
180.465
172.729
176.664
185.706
184.551
186.354
181.769
190.912
272.291
329.959
760.659
915.771
458.671
228.434
198.64
191.602
180.849
177.849
181.037
182.326
182.447
183.649
186.699
190.745
170.708
513.113
512.82
185.243
193.913
180.826
189.515
187.557
212.597
529.758
512.61
282.684
212.746
190.324
170.738
161.429
166.57
172.755
178.337
179.358
180.714
177.455
184.923
182.944
185.553
185.122
166.143
478.388
520.597
166.296
187.193
191.096
204.511
236.744
1190.34
388.856
173.435
135.591
130.322
165.886
173.547
567.039
567.684
758.562
151.349
170.389
176.547
162.096
154.114
161.412
179.54
182.627
171.771
156.844
458.595
514.41
173.371
197.297
234.748
547.867
1472.53
368.653
147.624
123.221
69.2918
67.6346
61.6256
97.106
118.62
125.326
123.324
238.437
147.617
162.037
1679.84
149.383
583.138
160.587
178.522
186.2
184.194
514.727
522.323
217.028
532.617
1230.18
805.171
188.148
92.3261
50.5991
46.2844
32.4785
31.3269
35.8951
52.1102
101.117
128.369
121.561
116.08
172.8
344.26
493.694
111.229
339.914
173.306
183.866
184.511
189.965
215.846
482.401
398.676
1321.53
296.443
139.729
87.734
38.8233
31.6301
37.7927
36.8199
27.6984
19.6234
49.0748
42.406
100.658
109.902
120.906
118.783
92.4684
200.494
116.314
232.151
139.766
179.85
200.695
304.407
542.567
1069.79
376.548
161.921
610.156
129.353
71.3647
34.034
25.7283
25.5859
30.0267
28.8398
20.0084
28.1536
29.1027
36.5263
39.6673
40.222
44.3123
73.6087
109.365
196.525
157.221
158.312
164.187
197.314
478.589
1083.6
219.89
132.456
179.914
89.8414
54.6108
26.0205
22.3431
24.2535
22.828
26.6102
22.3054
20.287
19.961
22.4047
29.6841
39.2157
41.2891
44.3775
52.6483
157.049
150.061
543.525
505.328
623.522
4484.18
757.57
1368.75
299.33
90.0311
46.3264
30.4802
20.7334
17.4924
26.5247
17.4471
18.8301
23.1513
20.9252
22.2759
21.4902
21.0822
21.3607
27.6205
43.5364
50.2619
65.7449
154.162
129.485
538.566
1616.68
1253.2
961.791
137.628
39.0919
34.1058
16.4294
4.20748
3.98462
2.52112
3.6537
21.9944
18.1773
19.4418
21.325
20.6751
19.0786
23.7422
21.2965
69.1262
71.2676
154.152
121.723
182.67
415.959
423.153
167.402
860.051
102.513
76.6792
41.0918
27.776
15.7417
3.32836
2.56581
2.41074
2.49137
2.77934
4.12022
7.15909
3.05616
3.20033
18.6537
19.5551
30.9123
103.109
236.357
123.872
180.282
445.332
402.998
172.329
260.818
106.346
43.1299
23.8445
31.7871
38.7143
15.3663
2.96912
2.70284
2.46895
2.33941
2.88532
3.0777
2.79395
3.01501
8.29795
8.2554
19.6895
47.6399
80.6405
651.789
172.005
442.605
361.166
145.551
162.835
103.073
51.7478
35.3324
26.0457
41.1487
25.1685
14.5953
4.66276
2.45969
2.35435
2.69598
2.59197
2.82975
2.72251
5.50234
10.9563
16.957
26.13
127.722
129.877
385.55
829.106
1121.15
349.668
141.664
141.54
57.4499
39.7512
41.8523
25.7124
19.2845
12.1229
11.5795
10.1006
8.75873
3.84184
2.01442
2.54272
2.16472
2.75322
3.62565
3.62947
21.6927
20.9302
49.2229
86.9305
283.364
408.868
1099.53
344.679
133.148
120.678
53.1539
31.2426
29.1475
16.2862
15.1295
5.23746
2.49726
7.25322
8.50801
8.06278
7.27945
4.53954
4.2543
9.0885
4.23148
2.91553
12.3264
19.4491
19.1688
105.655
280.271
432.586
992.156
232.254
130.804
124.284
49.5269
47.285
23.2869
13.0806
10.3101
8.69483
5.58525
1.11987
1.1028
6.5259
7.6862
8.00834
7.89685
9.26165
8.57112
9.82987
23.1338
30.264
47.7268
121.463
142.691
314.294
1326.86
1194.06
249.213
127.067
105.217
43.8208
43.2842
22.1961
11.8544
8.91117
8.28239
8.133
8.03014
7.4168
5.27958
4.50544
7.12473
7.72089
8.41781
4.66798
3.04732
3.86677
23.1269
53.3097
107.128
293.828
177.887
1510.97
380.933
136.378
138.296
52.7944
37.4588
18.2081
9.7705
7.35144
6.94307
7.38431
7.9112
8.0785
7.93399
7.66829
7.21571
7.07212
7.44471
8.56868
9.65577
2.98839
2.52207
6.41504
80.622
264.067
171.638
419.539
430.3
168.457
213.027
61.1933
30.9287
22.5192
8.61662
1.43379
1.14292
1.14962
1.19633
5.04724
7.59716
8.04909
7.66688
7.57315
7.68441
8.22514
9.07934
10.6672
16.0463
19.81
33.6939
110.31
169.584
432.436
972.05
215.583
199.424
74.6878
33.0875
17.0843
8.45604
1.95876
1.0822
0.929242
0.877675
0.947787
0.964394
1.01556
6.02102
7.44696
7.51365
7.98985
8.66054
9.74448
14.5806
36.5969
47.4141
132.984
142.188
380.042
375.938
134.905
91.5471
44.007
20.0722
7.81758
1.25886
0.84958
0.837053
0.890449
0.829716
0.762734
0.895796
0.866239
3.92203
6.45666
7.70814
8.26648
8.78489
11.6223
26.3839
33.4109
82.154
282.273
262.859
435.246
154.971
137.625
51.9074
30.1143
8.08888
1.27266
1.1924
0.562931
0.595694
0.757945
0.78652
0.63395
0.758014
0.678967
0.691735
4.6718
7.59889
8.52112
10.7133
21.1312
43.1626
53.7365
149.059
155.092
803.96
923.289
207.524
224.334
76.8143
47.124
20.3313
7.11266
0.835474
0.537876
0.529495
0.529227
0.562178
0.618356
0.651588
0.658133
0.583023
0.610875
0.902858
1.18285
7.56899
14.0226
34.8978
45.7825
123.66
133.688
378.583
929.016
221.873
248.245
86.9085
36.4719
26.131
11.2227
5.10238
1.46435
0.548964
0.514672
0.514693
0.528809
0.53073
0.551088
0.549957
0.583437
0.791042
3.09894
1.29557
4.00846
25.0781
37.9351
92.1027
269.464
232.596
1063.31
388.882
271.793
89.532
37.8624
27.3397
14.0788
8.03603
3.62856
0.667158
0.541738
0.537064
0.515857
0.525668
0.548302
0.516832
0.542578
0.743732
0.848979
0.950317
7.46716
31.1904
108.115
83.8341
248.246
213.204
897.2
764.965
183.333
132.823
46.1223
22.7762
11.6261
7.43512
4.41878
2.4644
0.639235
0.534726
0.51838
0.51791
0.780533
0.513102
0.518069
0.535441
0.805736
0.977647
0.839625
15.6053
39.3345
76.4698
239.673
210.372
885.789
231.569
201.766
56.6118
38.1856
11.3108
1.67307
0.854747
1.93053
1.82444
0.59298
0.520912
0.519903
0.871415
1.07456
0.732079
0.519272
0.533014
0.616974
4.1156
11.0203
22.9829
47.3119
132.878
194.998
881.378
764.299
146.357
93.299
47.8441
18.9024
8.9584
2.88454
0.547057
0.786407
1.1731
1.35405
0.906681
0.850191
0.965963
1.37921
1.79085
0.558021
0.53493
1.86353
5.12793
19.7295
35.5539
91.8297
293.741
362.53
249.533
189.071
52.3603
28.641
10.9398
7.89105
3.79602
1.36608
0.528666
0.597446
0.710525
1.39661
1.89917
1.19434
1.34176
2.69632
3.24736
0.636601
0.667545
10.7868
35.7422
68.3426
238.957
219.19
922.4
938.128
191.989
101.149
48.0529
18.6279
7.91722
5.69882
2.94623
1.38703
1.78129
1.07476
0.659633
0.61712
0.774073
0.926364
0.617789
0.518733
4.1104
5.07895
1.45543
31.9272
44.8075
123.287
148.473
830.138
326.645
232.133
63.1999
23.4155
9.55377
6.07573
3.37217
1.76881
1.83318
1.07254
0.664984
1.33995
1.39793
1.23797
0.6637
0.519379
0.52281
0.543375
5.93834
18.3482
34.413
84.5589
247.665
243.903
1201.65
726.644
141.538
99.4062
49.1807
12.4133
1.5679
0.878892
1.69494
0.777604
0.524817
0.632167
0.59173
0.533024
0.827245
1.52317
1.55463
1.65827
2.14993
2.9584
8.33619
26.3006
52.1475
183.01
211.654
889.445
205.843
134.177
45.3589
26.1358
10.8203
3.17186
0.535471
0.551947
0.542599
0.584074
0.618848
0.590044
0.503005
0.565204
0.932811
1.78111
2.38293
4.03656
6.76922
19.7396
33.2565
93.6408
134.278
398.114
709.259
142.958
85.8671
37.8018
13.967
7.968
5.56428
2.01496
0.613595
0.505829
0.556749
0.498807
0.507076
0.509411
0.640851
0.714023
2.0482
2.70948
7.06759
7.93702
25.0051
46.1255
191.5
215.955
997.888
237.202
197.957
49.8901
25.8309
10.2859
5.69083
3.63406
2.20214
0.938568
0.562219
0.522832
0.521803
0.487702
0.691428
0.788695
0.493308
1.2665
3.65672
6.80602
10.2301
32.9864
69.9861
261.209
382.962
718.747
142.473
101.108
34.6353
18.4981
7.28746
4.07644
2.13666
1.06632
0.849955
0.809765
0.751302
0.655744
0.748434
0.832148
0.663998
0.500578
1.09076
3.4866
8.87151
21.1369
53.5107
115.41
159.164
886.681
236.928
191.6
51.3074
28.8342
12.0074
7.99709
3.35417
2.0129
1.43606
0.629202
0.549095
0.681631
0.712493
1.11507
1.47022
1.64743
1.48667
2.55824
4.3147
11.8994
34.8447
70.149
230.601
250.201
735.855
143.344
94.7273
47.8201
17.3101
7.74796
5.16437
2.93051
1.89464
1.51388
1.26662
0.718303
0.569986
0.567762
0.575563
1.06549
1.8549
2.46284
3.99742
8.2789
23.1183
38.6516
118.523
149.028
846.233
245.695
205.244
52.6661
27.0608
10.9327
6.81562
3.20764
2.15542
1.73126
1.57859
0.899004
0.608973
0.621451
0.588827
0.587759
0.616991
1.27676
3.42914
7.39657
11.5095
33.1075
57.3371
219.51
244.965
204.559
116.768
53.0486
17.5621
7.44616
4.27221
2.42148
1.76835
1.60712
1.60219
1.52141
0.820238
0.552656
0.514411
0.562071
0.698742
1.43276
3.78443
8.00297
19.9896
35.1759
100.165
135.341
712.457
762.748
139.439
78.1034
33.8222
11.7239
6.75279
3.04455
1.93586
1.60828
1.54832
1.60008
1.61379
1.51158
1.23215
0.736189
0.77294
0.834669
2.10351
7.04795
9.3707
25.4332
47.7177
201.333
221.541
1012.99
724.501
225.767
50.0055
22.523
8.38917
4.1182
2.37884
1.71062
1.49704
1.48778
1.53239
1.55561
1.55066
1.48309
1.48992
1.54186
1.81585
3.23572
7.29238
9.68205
28.1134
55.9387
234.391
667.921
360.28
187.665
41.6238
17.6802
4.23846
2.03293
1.08568
1.54586
1.38435
0.868
0.864227
1.41741
1.46782
1.44838
1.5305
1.67936
2.27836
4.5424
7.21832
17.064
46.5192
99.358
175.784
803.99
205.518
120.749
51.6732
14.1283
6.11787
1.51331
0.652423
0.772789
1.398
0.860259
0.55351
0.569298
1.17781
1.41565
1.58315
1.7512
2.36096
6.4466
9.11441
26.3823
51.9677
191.391
238.232
734.905
287.524
75.205
34.3757
11.6244
6.77249
2.68967
1.53259
1.26624
1.32499
1.43751
0.855854
0.542794
0.525603
1.11053
1.54926
1.79102
2.60421
6.66938
10.0408
35.9181
83.6405
137.196
739.611
377.84
220.433
48.3446
24.0904
9.06193
7.14135
2.98813
1.63576
1.36291
1.41256
1.49222
1.49862
1.34436
1.12124
1.14378
1.50817
1.79416
3.45371
5.87719
12.3859
42.7323
100.643
183.479
992.438
201.389
129.867
39.457
20.7023
7.681
4.34987
2.62947
1.5997
0.729367
0.597011
0.814913
1.46564
1.50258
1.43154
1.49419
1.61864
2.03199
3.92066
7.22693
20.566
39.1675
159.587
228.865
771.433
143.983
87.5285
40.0622
14.7963
7.2703
4.00576
2.13133
1.60877
1.30208
0.586493
0.516932
0.68447
1.33432
1.42883
1.53251
1.68206
2.25808
5.77219
8.90521
26.6542
52.8428
219.553
377.465
371.192
227.028
53.633
26.8254
10.3682
7.46349
3.7805
2.05058
1.31003
0.828658
1.05824
0.659761
0.543205
0.544739
1.05409
1.56092
1.72156
2.33286
6.30946
9.97443
33.9715
82.9647
136.275
722.157
253.689
171.796
40.5382
21.3408
8.06161
4.30851
2.55661
1.77438
0.905132
0.593492
0.530941
0.643261
1.01122
0.597559
0.500516
0.730003
1.6391
2.4455
6.79978
14.9675
43.546
97.2047
189.703
1006.61
211.934
124.65
47.9645
14.3682
6.815
3.94635
2.21039
1.68675
1.32056
0.603143
0.501782
0.522922
0.582071
0.96441
0.599413
0.603122
0.936954
3.21904
6.2631
19.1415
41.6906
143.632
206.433
937.096
147.884
93.9712
39.9574
12.0642
7.22882
3.23394
1.9915
1.64842
1.50863
1.29567
0.583213
0.522205
0.516787
0.513462
0.734153
1.33518
1.66382
3.58811
8.33216
24.8424
53.2709
228.978
365.175
749.084
138.141
81.3426
36.6946
11.4764
7.15033
2.94884
1.84648
1.55161
1.48448
1.46212
1.39645
0.766272
0.512395
0.487075
0.500378
0.763971
2.14432
5.41759
9.59521
33.6156
88.9283
141.495
762.262
692.516
231.762
55.2767
33.8109
10.8779
6.87349
2.95986
1.79607
1.56324
1.47597
1.46765
1.43314
1.37317
1.2065
0.628307
0.505407
0.571903
1.33295
6.03766
15.0683
50.953
126.287
200.195
257.574
198.865
44.6647
22.5352
9.13274
6.51683
2.85942
1.7845
1.54549
1.46227
1.448
1.42547
1.08999
0.667524
0.640933
0.61733
0.632461
1.27219
5.74582
18.2559
43.9029
197.861
252.467
248.198
155.533
54.7818
18.1063
7.86479
4.52572
2.5256
1.78927
1.54597
1.45984
1.43799
1.48936
1.34925
0.668352
0.507127
0.531766
0.784482
2.01763
6.00147
18.2087
47.1661
233.36
673.931
215.286
124.163
47.314
12.7604
7.8877
4.0072
2.33576
1.79053
1.47636
1.27743
1.24521
1.44201
1.54188
1.38043
1.07118
0.636902
0.768455
2.61135
7.44942
20.3338
60.6409
253.236
713.038
210.029
94.6682
37.5901
11.6954
7.21731
3.06487
1.97014
1.67246
1.50672
0.873915
0.575451
0.571546
1.17694
1.4091
1.46414
1.53009
1.54302
3.03578
6.41448
22.8041
64.0272
284.567
850.725
199.458
91.5536
37.0664
11.1081
7.26025
3.03318
1.81814
1.6265
1.50324
1.4445
0.850723
0.551708
0.522125
1.07292
1.43981
1.64034
1.88329
3.7388
7.21623
24.6116
71.3397
151.387
955.388
909.837
152.451
90.0223
37.1911
11.4461
7.46699
3.06925
1.79597
1.62269
1.50747
1.45453
1.48623
1.39577
1.16172
1.09221
1.379
1.61272
2.24215
4.8413
9.02517
27.0351
75.679
190.615
723.483
261.809
71.6082
34.1307
10.8952
7.37562
3.08748
1.77069
1.57161
1.48237
1.46764
1.45203
1.5074
1.43972
1.38155
1.48505
1.65248
2.35644
6.16359
9.73764
35.0886
93.4957
198.653
710.236
216.142
47.6328
24.8662
9.43808
7.0955
2.91585
1.71156
1.48318
1.4182
1.36198
1.38355
1.3621
1.41466
1.41671
1.5136
1.70429
2.39568
6.17655
10.557
44.9304
121.579
206.55
369.638
184.969
42.0165
22.8612
8.26893
6.39576
1.97462
1.00805
1.28695
1.29632
1.2444
0.715695
0.648124
0.697264
1.25395
1.53119
1.69921
2.43226
6.22252
10.3936
46.7628
169.479
258.52
250.147
160.605
54.3591
16.0937
7.6874
6.7674
2.62216
0.725065
0.545743
0.589455
0.675735
0.886181
0.511772
0.485255
0.521048
1.16804
1.65723
2.44522
6.52664
12.591
48.2067
176.965
648.308
254.808
165.788
49.2311
12.9326
6.72391
5.06608
2.79528
1.50779
0.642402
0.48741
0.482573
0.487558
0.4957
0.484293
0.501618
0.60799
1.46199
2.65999
6.94507
17.0715
41.8204
194.41
684.121
219.751
158.503
35.3047
13.502
7.72501
3.46671
2.11793
1.62605
1.42154
1.11859
0.616095
0.482016
0.482432
0.481194
0.552643
1.06213
1.41215
3.43541
6.28283
20.2054
51.1359
234.265
713.901
203.288
100.679
42.8881
13.5258
7.59521
3.14347
1.82874
1.55863
1.46036
1.37939
1.08594
0.519839
0.480657
0.480508
0.50263
0.743844
1.59565
3.60524
7.27757
24.8861
66.0834
137.598
781.344
210.486
94.8813
37.9332
11.4694
6.69936
2.92947
1.80408
1.56483
1.41591
1.33618
1.29737
1.04899
0.505042
0.481241
0.4919
0.659591
1.52804
3.68583
8.30987
27.1515
75.9592
184.537
976.64
200.89
105.563
42.8726
11.7601
6.94079
2.82302
1.76709
1.54458
1.41256
1.05736
0.657098
0.687287
0.958715
0.540998
0.534378
0.702333
1.66174
4.36371
8.96336
30.1156
91.3539
198.982
899.111
145.062
66.0295
33.5078
8.87285
7.0778
3.02908
1.77853
1.5313
1.46993
1.35487
0.655099
0.491333
0.502788
0.973831
1.1356
1.26729
2.15703
5.84014
9.12872
32.8607
94.4352
202.879
710.968
259.409
48.1726
4.75973
1.78804
0.816327
1.90316
1.73275
1.51287
1.45568
1.43753
1.3167
0.632605
0.484428
0.549435
1.18849
1.58602
2.49551
6.34418
9.82617
35.1622
93.5771
209.863
716.014
226.723
46.8343
17.5567
0.890239
0.522917
0.633619
1.22229
1.46774
1.45835