/*--------------------------------*- C++ -*----------------------------------*\
| =========                 |                                                 |
| \\      /  F ield         | OpenFOAM: The Open Source CFD Toolbox           |
|  \\    /   O peration     | Version:  2312                                  |
|   \\  /    A nd           | Website:  www.openfoam.com                      |
|    \\/     M anipulation  |                                                 |
\*---------------------------------------------------------------------------*/
FoamFile
{
    version     2.0;
    format      ascii;
    arch        "LSB;label=64;scalar=64";
    class       volScalarField;
    location    "10";
    object      p;
}
// * * * * * * * * * * * * * * * * * * * * * * * * * * * * * * * * * * * * * //

dimensions      [0 2 -2 0 0 0 0];

internalField   nonuniform List<scalar> 
404911
(
2.91704
2.91269
2.91216
2.91502
2.92213
2.91609
2.91379
2.9146
2.91482
2.91493
2.96207
2.95219
2.93957
2.93056
2.92216
2.91732
2.97682
2.96705
2.95656
2.94602
2.9966
2.98613
2.97452
3.01731
3.00817
2.99874
3.03618
3.02632
3.01844
3.06577
3.05674
3.04583
3.03475
3.02491
3.07736
3.06674
3.05565
3.11089
3.1006
3.09005
3.0796
3.12697
3.11955
3.10972
3.10056
3.09254
3.13726
3.12845
3.11841
3.10865
3.15536
3.1471
3.13655
3.12728
3.15844
3.15398
3.22611
2.90606
2.91767
2.91102
2.94978
2.93981
2.97723
2.96661
2.9566
2.9969
2.98585
2.97493
3.01702
3.0073
3.03601
3.02545
3.01705
3.05616
3.04545
3.03335
3.02395
3.07725
3.06632
3.10081
3.08995
3.12043
3.11008
3.1001
3.14095
3.13105
3.15956
3.15036
3.13831
3.16535
3.15878
3.22497
3.23246
3.22381
3.26289
3.25177
3.24191
3.28154
3.27186
3.25992
3.29869
3.2906
3.28224
3.29803
1.30337
1.28812
1.27362
1.37703
1.35953
1.33967
1.32591
1.31171
1.29746
1.28533
1.26659
1.41613
1.4025
1.36872
1.34832
1.33046
1.31918
1.30523
1.291
1.23655
1.46448
1.45033
1.43689
1.42332
1.41062
1.40061
1.38048
1.35855
1.33962
1.32693
1.31313
1.29697
1.27639
1.25498
1.24
1.22751
1.50252
1.48649
1.47093
1.4565
1.44288
1.42963
1.4167
1.40418
1.39133
1.37037
1.35231
1.33718
1.32307
1.30766
1.24356
1.54431
1.52632
1.50898
1.49207
1.47578
1.46143
1.4481
1.43519
1.4222
1.40882
1.39391
1.37796
1.36188
1.34664
1.33487
1.56978
1.55553
1.53677
1.51905
1.50176
1.48326
1.46646
1.45296
1.44108
1.42846
1.41485
1.40054
1.38534
1.37004
1.3548
1.34146
1.61333
1.59616
1.58059
1.56431
1.54669
1.52937
1.51182
1.49279
1.47472
1.45876
1.44793
1.43513
1.42161
1.40748
1.39286
1.37797
1.36348
1.6713
1.65475
1.64109
1.62352
1.60684
1.59032
1.57374
1.55649
1.53926
1.52144
1.50101
1.48296
1.46802
1.45567
1.4426
1.42887
1.41509
1.40053
1.69844
1.68329
1.66548
1.64975
1.63394
1.61669
1.60089
1.58312
1.56559
1.54835
1.53081
1.51023
1.4879
1.47631
1.46387
1.45047
1.4367
1.42291
1.73913
1.72418
1.71018
1.69456
1.67646
1.65969
1.64372
1.6272
1.61029
1.59268
1.57479
1.55801
1.54067
1.52135
1.49984
1.48371
1.47231
1.45959
1.76481
1.74893
1.73391
1.71972
1.7034
1.68559
1.67011
1.65283
1.63602
1.61989
1.60236
1.58477
1.56725
1.54992
1.53413
1.51289
1.49338
1.80372
1.78936
1.77404
1.75968
1.74446
1.72913
1.71273
1.69558
1.67994
1.66263
1.64591
1.62878
1.61188
1.59466
1.577
1.55958
1.54614
1.83861
1.82385
1.81125
1.79987
1.78684
1.7706
1.75441
1.73897
1.72357
1.70727
1.69135
1.6727
1.65521
1.63786
1.62277
1.60479
1.58602
1.5701
1.88203
1.8688
1.85044
1.83288
1.81827
1.81063
1.79647
1.78071
1.76434
1.74876
1.73546
1.71837
1.70078
1.68251
1.66483
1.64529
1.63083
1.61565
1.91417
1.90254
1.89141
1.88146
1.86325
1.84392
1.82721
1.81831
1.80666
1.79069
1.7741
1.75823
1.74736
1.73082
1.70969
1.69114
1.6753
1.65582
1.93521
1.92201
1.90995
1.89885
1.88857
1.87265
1.85489
1.83975
1.82556
1.81424
1.79663
1.77995
1.76694
1.75695
1.7402
1.71877
1.69796
1.68349
1.96982
1.95667
1.9429
1.92939
1.91734
1.90475
1.89281
1.88199
1.86611
1.85151
1.836
1.82342
1.80695
1.78907
1.77334
1.76445
1.74997
1.72887
1.99186
1.97715
1.9648
1.95222
1.93715
1.92333
1.91363
1.89844
1.8849
1.87427
1.86302
1.85072
1.83436
1.81772
1.80036
1.78275
1.77107
1.75774
2.0348
2.02213
2.00505
1.98887
1.97439
1.96344
1.94927
1.93376
1.92011
1.90496
1.89016
1.88063
1.87067
1.8599
1.84767
1.82964
1.81041
1.79404
2.05571
2.0445
2.03554
2.01914
2.00273
1.98852
1.97493
1.96041
1.94468
1.92947
1.91327
1.89763
1.88783
1.87712
1.86642
1.85339
1.83856
2.08549
2.07471
2.06364
2.0527
2.0429
2.03071
2.01456
2.00091
1.9868
1.971
1.95502
1.93933
1.92314
1.90664
1.89667
1.88546
1.87365
1.86093
2.10565
2.09403
2.08254
2.07162
2.06054
2.05104
2.03793
2.02464
2.01277
1.99986
1.9835
1.96763
1.95
1.93281
1.91745
1.90528
1.89411
1.88228
2.12439
2.1133
2.10251
2.09172
2.07912
2.06693
2.05703
2.04556
2.03269
2.0231
2.01304
1.99679
1.97915
1.96164
1.94407
1.92939
1.91544
1.90307
2.15556
2.14393
2.13277
2.12162
2.11094
2.10098
2.09066
2.07624
2.06257
2.05067
2.03868
2.02896
2.01831
2.00764
1.99091
1.97205
1.95578
1.9404
2.18466
2.17395
2.16292
2.15181
2.14124
2.13025
2.11914
2.10809
2.09809
2.08538
2.07259
2.05991
2.04504
2.03528
2.02452
2.01302
1.99794
1.9822
2.20338
2.19229
2.18159
2.17089
2.16026
2.1495
2.13915
2.12901
2.11531
2.10212
2.09142
2.08133
2.06885
2.05327
2.04274
2.03204
2.01997
2.00653
2.23155
2.22119
2.21051
2.20005
2.1894
2.17869
2.16807
2.15753
2.14765
2.13839
2.12571
2.11302
2.10091
2.08803
2.07767
2.06411
2.05112
2.04024
2.249
2.2388
2.22853
2.21814
2.20761
2.19682
2.1863
2.17579
2.16536
2.15536
2.14594
2.13483
2.12311
2.11102
2.09756
2.08636
2.07367
2.06094
2.26735
2.2562
2.24567
2.23602
2.22579
2.21488
2.20387
2.19356
2.18339
2.1731
2.16276
2.15234
2.14138
2.12984
2.11791
2.1059
2.09377
2.08112
2.28701
2.27658
2.26372
2.25249
2.2438
2.23404
2.22203
2.21016
2.20033
2.19084
2.18078
2.17031
2.15964
2.14857
2.13741
2.12533
2.11325
2.10147
2.31526
2.30525
2.2961
2.28711
2.27469
2.26167
2.25274
2.24404
2.23216
2.21887
2.20775
2.19871
2.18869
2.17817
2.16748
2.15654
2.14521
2.13285
2.33433
2.32368
2.31315
2.3031
2.29318
2.28235
2.2713
2.26162
2.2532
2.24231
2.22892
2.21677
2.20713
2.19691
2.18639
2.17564
2.16486
2.15388
2.35297
2.34288
2.33215
2.32156
2.3103
2.29888
2.28818
2.27862
2.26911
2.25998
2.25008
2.23828
2.22642
2.21574
2.20514
2.19476
2.18383
2.17349
2.37116
2.36109
2.35097
2.34073
2.33086
2.31993
2.30635
2.29422
2.28571
2.2765
2.26684
2.25686
2.24597
2.23489
2.22413
2.21338
2.2029
2.40071
2.3905
2.37986
2.36939
2.35888
2.3485
2.3395
2.33021
2.31628
2.30185
2.29286
2.28406
2.27451
2.26451
2.25409
2.24344
2.23255
2.22133
2.41957
2.40911
2.39884
2.38873
2.37792
2.36672
2.35535
2.34622
2.33833
2.32567
2.3098
2.30003
2.29175
2.28245
2.27255
2.26229
2.25181
2.24135
2.43678
2.42724
2.41744
2.40783
2.39814
2.38741
2.37542
2.36482
2.35293
2.34505
2.33548
2.32198
2.30877
2.3001
2.2908
2.28086
2.27053
2.26002
2.46354
2.45432
2.44467
2.43537
2.42582
2.41641
2.40783
2.39856
2.38573
2.37391
2.36209
2.35252
2.34478
2.3325
2.31895
2.30912
2.29943
2.28922
2.48093
2.47152
2.46224
2.4528
2.44354
2.43411
2.42488
2.41656
2.40782
2.39512
2.38305
2.36983
2.35911
2.35138
2.34133
2.32976
2.31861
2.30738
2.49876
2.48919
2.47967
2.47027
2.46083
2.45147
2.44218
2.43298
2.42438
2.41585
2.40634
2.39273
2.3802
2.36742
2.35893
2.34936
2.33861
2.32801
2.51683
2.50709
2.49747
2.48791
2.47848
2.46893
2.45955
2.45032
2.44079
2.43104
2.42218
2.41389
2.40179
2.38953
2.37706
2.36779
2.35785
2.3472
2.53487
2.52551
2.51538
2.50565
2.49595
2.48656
2.47712
2.46776
2.45882
2.44934
2.43754
2.42785
2.42025
2.41047
2.39845
2.38776
2.37747
2.56188
2.55248
2.54301
2.53331
2.52358
2.51374
2.50381
2.49428
2.48512
2.47602
2.46752
2.45987
2.44826
2.43726
2.42644
2.41824
2.40769
2.39719
2.57874
2.56961
2.56047
2.55131
2.54177
2.53215
2.52208
2.51112
2.50099
2.49255
2.48426
2.47588
2.46843
2.45961
2.44707
2.43576
2.42631
2.41629
2.59619
2.58695
2.5777
2.5687
2.55939
2.55014
2.54112
2.53239
2.51975
2.50838
2.50001
2.49221
2.48359
2.47505
2.46608
2.45559
2.44487
2.43489
2.61364
2.60431
2.59509
2.58579
2.57667
2.56733
2.55828
2.54965
2.54185
2.53171
2.51979
2.50904
2.50055
2.49158
2.48238
2.47287
2.46305
2.45331
2.63179
2.6221
2.61255
2.6032
2.59394
2.58462
2.5752
2.56616
2.55737
2.54897
2.53981
2.5293
2.51882
2.50937
2.4999
2.49071
2.48061
2.47051
2.65024
2.6402
2.63032
2.62069
2.61135
2.60197
2.59245
2.58291
2.57367
2.56477
2.55577
2.54669
2.53706
2.52731
2.51785
2.50836
2.49878
2.48899
2.66885
2.65902
2.64831
2.63788
2.62835
2.61918
2.60982
2.60001
2.59004
2.58067
2.57207
2.5633
2.55438
2.54508
2.53568
2.5263
2.51685
2.50716
2.68663
2.67744
2.66802
2.65625
2.64472
2.63526
2.62648
2.6178
2.6074
2.59678
2.58696
2.57897
2.57113
2.56244
2.55334
2.54405
2.5347
2.52546
2.71381
2.70481
2.69539
2.68648
2.67822
2.66864
2.65457
2.64286
2.63323
2.62581
2.61822
2.60706
2.59637
2.5871
2.57931
2.57067
2.5616
2.55239
2.54315
2.73093
2.72213
2.71294
2.70372
2.69518
2.68723
2.67923
2.66657
2.65436
2.6435
2.63328
2.62652
2.61726
2.60652
2.59645
2.58797
2.57908
2.57012
2.73933
2.73041
2.72138
2.71234
2.70342
2.69508
2.68717
2.67693
2.66506
2.65406
2.64372
2.63343
2.62594
2.61634
2.6061
2.59691
2.58747
2.76662
2.75743
2.74812
2.73888
2.72965
2.7204
2.71126
2.70278
2.69521
2.6864
2.67388
2.66318
2.65265
2.64181
2.63352
2.62433
2.61484
2.60548
2.78386
2.77467
2.76563
2.7566
2.74736
2.73803
2.72853
2.71875
2.70991
2.70274
2.69459
2.68247
2.67193
2.66076
2.65143
2.64223
2.63284
2.62285
2.80091
2.79169
2.78285
2.77391
2.76499
2.75591
2.74687
2.73729
2.72562
2.71601
2.70943
2.70271
2.69176
2.6809
2.67013
2.6607
2.65106
2.64173
2.80771
2.79953
2.79118
2.78237
2.77343
2.76444
2.75594
2.74801
2.73606
2.72461
2.71588
2.70895
2.69978
2.68936
2.67906
2.66931
2.65988
2.8305
2.81709
2.80727
2.79984
2.79108
2.78183
2.77267
2.76423
2.75675
2.74512
2.7334
2.72373
2.71573
2.70687
2.69716
2.68739
2.67789
2.86867
2.85495
2.84205
2.82921
2.81716
2.80894
2.79999
2.79028
2.77996
2.77138
2.76418
2.75363
2.74113
2.73239
2.72366
2.71476
2.70494
2.69531
2.88496
2.87685
2.86541
2.8523
2.83953
2.82767
2.81821
2.80933
2.79963
2.7881
2.77842
2.77113
2.76274
2.75124
2.74126
2.73193
2.72284
2.90253
2.8931
2.8825
2.87136
2.86001
2.84692
2.83567
2.8268
2.8186
2.81025
2.79877
2.78807
2.77842
2.76991
2.76008
2.7499
2.74026
2.93122
2.92095
2.91097
2.90149
2.89096
2.87902
2.86832
2.85716
2.84419
2.83475
2.82549
2.81718
2.80819
2.79826
2.78764
2.77836
2.76871
2.75887
2.94927
2.93903
2.92854
2.9192
2.9102
2.90021
2.89006
2.87901
2.86738
2.85405
2.84624
2.83519
2.82293
2.814
2.80551
2.79634
2.78709
2.77767
2.96909
2.9568
2.94647
2.93742
2.92734
2.91876
2.90918
2.90017
2.88975
2.87771
2.86619
2.85595
2.84541
2.83415
2.82161
2.81312
2.80482
2.79572
2.99033
2.98043
2.96794
2.95702
2.94724
2.93775
2.92809
2.91768
2.90757
2.89833
2.88758
2.87678
2.86638
2.856
2.84498
2.83271
2.82258
2.81368
3.01925
3.00933
2.99883
2.98891
2.97761
2.96665
2.95649
2.94682
2.93824
2.92691
2.91669
2.90736
2.89793
2.88735
2.87767
2.86761
2.85761
2.84375
2.83221
3.03674
3.02753
3.01755
3.00782
2.99752
2.98657
2.97601
2.96505
2.95546
2.94547
2.93533
2.92552
2.9165
2.90719
2.89659
2.88587
2.87578
2.86485
2.85391
3.04644
3.03646
3.02639
3.01685
3.00661
2.99581
2.98484
2.97367
2.96408
2.95362
2.94383
2.93441
2.92485
2.91512
2.90475
2.89443
2.88356
2.87295
3.06847
3.05737
3.04664
3.036
3.02602
3.0161
3.00574
2.99478
2.98351
2.97294
2.96206
2.95185
2.9431
2.93362
2.92372
2.91343
2.90311
3.09119
3.07946
3.06812
3.0568
3.04589
3.03549
3.02479
3.01644
3.00421
2.99298
2.98179
2.97203
2.96157
2.95221
2.94263
2.93276
2.92195
3.11532
3.10112
3.09053
3.07876
3.06708
3.05588
3.04513
3.03348
3.02443
3.01365
3.0023
2.99096
2.98105
2.97116
2.96183
2.95184
2.94205
3.15041
3.1392
3.12698
3.11406
3.10182
3.08982
3.07725
3.066
3.05519
3.04452
3.03412
3.02336
3.01132
3.00007
2.99057
2.98053
2.97053
2.9609
3.17122
3.16109
3.15043
3.13788
3.12529
3.11276
3.10114
3.09065
3.07684
3.0654
3.0544
3.04451
3.03386
3.02266
3.01068
3.00059
2.99012
3.19162
3.18119
3.17079
3.1599
3.14801
3.13553
3.12234
3.11044
3.09963
3.08749
3.07565
3.06369
3.05355
3.04338
3.03201
3.02081
3.01025
3.21224
3.20143
3.19125
3.18083
3.16864
3.15679
3.14505
3.13468
3.12122
3.10962
3.09764
3.08602
3.07486
3.06304
3.05232
3.04119
3.03034
3.23367
3.22236
3.21113
3.19967
3.19046
3.17701
3.16532
3.15604
3.14344
3.13174
3.11987
3.10787
3.09586
3.08441
3.07338
3.06202
3.05105
3.25464
3.24295
3.23187
3.22128
3.21022
3.19933
3.18641
3.17289
3.16387
3.1532
3.14247
3.13039
3.1177
3.10598
3.09447
3.08306
3.07184
3.27519
3.26404
3.25262
3.24086
3.2311
3.22085
3.21044
3.19759
3.18461
3.17335
3.16229
3.15144
3.14023
3.12784
3.11601
3.10448
3.09301
3.28585
3.27247
3.2629
3.25204
3.24087
3.22992
3.21923
3.20765
3.19455
3.18208
3.17036
3.15987
3.14878
3.13736
3.12563
3.11404
3.31696
3.30005
3.28492
3.27272
3.26139
3.25055
3.23977
3.22813
3.21537
3.20358
3.1909
3.17891
3.16862
3.15773
3.14648
3.35847
3.34826
3.33087
3.3132
3.296
3.28358
3.27184
3.2605
3.24898
3.23643
3.22301
3.21086
3.20008
3.18865
3.17763
3.16675
3.38362
3.37048
3.35738
3.34192
3.32497
3.30678
3.29316
3.28346
3.27062
3.25891
3.2467
3.23129
3.21707
3.20776
3.19792
3.18732
3.41023
3.39731
3.38468
3.36898
3.35282
3.33664
3.32066
3.30686
3.29346
3.28211
3.27043
3.26079
3.24478
3.22887
3.21696
3.20776
3.45193
3.43764
3.42358
3.41099
3.39978
3.38269
3.36709
3.35268
3.33881
3.32475
3.30941
3.29424
3.27951
3.27153
3.25874
3.24398
3.47899
3.46351
3.44974
3.43646
3.42426
3.41094
3.39475
3.37957
3.36623
3.35418
3.34144
3.3263
3.30942
3.29425
3.28114
3.27232
3.50826
3.491
3.47516
3.46194
3.44919
3.43671
3.42175
3.40738
3.39285
3.3804
3.36944
3.35976
3.34464
3.32771
3.31093
3.29554
3.53785
3.52139
3.50154
3.4838
3.47269
3.46124
3.44773
3.43162
3.41818
3.40504
3.39441
3.38337
3.37332
3.36221
3.34481
3.32734
3.56632
3.5515
3.5349
3.51896
3.50126
3.48558
3.47517
3.46212
3.44436
3.42901
3.41675
3.4051
3.39521
3.38439
3.3721
3.35882
3.59342
3.58016
3.56509
3.54916
3.53397
3.51881
3.50426
3.49056
3.47693
3.45983
3.44168
3.42829
3.4183
3.40679
3.39568
3.61864
3.60765
3.59358
3.57739
3.56247
3.54777
3.53334
3.51938
3.50453
3.49015
3.47514
3.45693
3.44019
3.43039
3.41911
3.40785
3.64224
3.63011
3.6188
3.60598
3.58964
3.57396
3.55986
3.54605
3.53335
3.51833
3.50352
3.48954
3.47263
3.45495
3.44317
3.43068
3.66343
3.6531
3.641
3.62914
3.61584
3.60043
3.58632
3.57283
3.55922
3.54544
3.53155
3.51732
3.50464
3.48825
3.47076
3.67761
3.66487
3.65312
3.64083
3.62684
3.61194
3.59757
3.58457
3.57174
3.55869
3.54387
3.52964
3.51502
3.50006
3.71375
3.69708
3.68004
3.66682
3.65257
3.63845
3.62384
3.61086
3.59688
3.58372
3.5714
3.55613
3.5418
3.75072
3.73867
3.72478
3.71235
3.69424
3.67993
3.66515
3.65042
3.63641
3.62256
3.60827
3.59452
3.5812
3.56669
3.77655
3.76242
3.74953
3.73631
3.7217
3.70663
3.69189
3.67773
3.66269
3.64822
3.63358
3.61998
3.60656
3.593
3.80357
3.78984
3.77543
3.75849
3.7478
3.73389
3.71922
3.70435
3.69015
3.67601
3.66018
3.64453
3.63211
3.6188
3.82878
3.81668
3.80412
3.78865
3.77271
3.75812
3.74628
3.73221
3.71694
3.70227
3.68947
3.67295
3.65833
3.64409
3.85267
3.84018
3.82895
3.81815
3.80168
3.7873
3.77054
3.75734
3.74294
3.72778
3.71285
3.6999
3.68528
3.67107
3.87663
3.86329
3.84843
3.84115
3.82948
3.81406
3.79914
3.78493
3.77137
3.75553
3.7371
3.72371
3.71094
3.85109
3.84429
3.82848
3.81092
3.79777
3.78844
3.77011
3.75042
3.73518
3.86116
3.85449
3.84124
3.82297
3.80723
3.7972
3.78338
3.76546
3.88946
3.87081
3.86353
3.85552
3.83813
3.82097
3.80784
3.92801
3.90998
3.89037
3.87399
3.86446
3.85051
3.83502
3.92488
3.90979
3.89253
3.87751
3.86397
3.98093
3.95856
3.93296
3.92248
3.90704
3.89168
4.08568
4.07475
4.02185
4.00138
3.93615
4.09394
4.07804
4.06513
4.05278
4.03991
3.9735
4.12661
4.05997
4.04677
4.03476
4.01586
4.14099
4.10483
4.06949
0.359697
0.338382
0.320259
0.485135
0.463109
0.439081
0.416251
0.392726
0.368933
0.346051
0.325889
0.242135
0.585643
0.563973
0.540032
0.517332
0.494348
0.47098
0.447556
0.423918
0.399807
0.375629
0.351927
0.329466
0.306064
0.279434
0.253735
0.663871
0.641351
0.617546
0.594464
0.571477
0.548009
0.524927
0.502218
0.479406
0.456163
0.432156
0.406271
0.38073
0.356713
0.333664
0.310408
0.285597
0.259618
0.232794
0.200643
0.163944
0.129326
0.747806
0.723719
0.697481
0.673044
0.649028
0.625656
0.60266
0.579308
0.555715
0.532351
0.50968
0.487503
0.465252
0.442657
0.41806
0.386626
0.359222
0.338163
0.315808
0.292083
0.266226
0.238249
0.206798
0.826358
0.805122
0.783351
0.758816
0.732717
0.705944
0.680358
0.656505
0.633904
0.611215
0.587651
0.563085
0.538995
0.516427
0.494765
0.474277
0.455662
0.429952
0.393627
0.361818
0.343336
0.321968
0.298745
0.273668
0.24706
0.876964
0.855758
0.835802
0.815351
0.794458
0.770206
0.744976
0.715421
0.687972
0.66239
0.642191
0.620646
0.597456
0.569625
0.543502
0.522214
0.501699
0.481926
0.464255
0.438938
0.402122
0.369276
0.350586
0.329131
0.305674
0.935759
0.908811
0.882643
0.865842
0.84641
0.825236
0.805674
0.788035
0.761756
0.731273
0.700293
0.668088
0.650598
0.631245
0.61283
0.58227
0.548705
0.527374
0.508053
0.48817
0.468003
0.447776
0.412889
0.38219
0.359376
0.996439
0.971285
0.945321
0.91921
0.893742
0.876867
0.859387
0.835736
0.81334
0.799493
0.777064
0.747214
0.715124
0.685049
0.658423
0.64163
0.625648
0.593584
0.558641
0.534571
0.514851
0.494015
0.472242
0.447831
0.42062
1.07817
1.06261
1.03481
1.00781
0.981536
0.954667
0.928735
0.906322
0.886143
0.869337
0.847375
0.821467
0.80714
0.790893
0.764343
0.734846
0.703064
0.671534
0.651434
0.630812
0.602812
0.567792
0.544519
0.522484
0.500565
0.477896
1.14199
1.12482
1.1063
1.08947
1.06788
1.04274
1.01915
0.989516
0.965025
0.940827
0.919852
0.89506
0.873764
0.852685
0.831671
0.813613
0.795119
0.774318
0.749114
0.720298
0.687038
0.660825
0.633101
0.604584
0.579621
0.553482
0.53102
1.16671
1.15113
1.1327
1.11618
1.09855
1.07669
1.04817
1.02927
1.00221
0.976533
0.953224
0.930459
0.906962
0.883297
0.85656
0.839196
0.821457
0.802367
0.781998
0.758777
0.733944
0.704753
0.673706
0.645957
0.610597
1.24382
1.22899
1.20471
1.18023
1.1612
1.14154
1.12589
1.10676
1.08512
1.06209
1.03942
1.01551
0.99092
0.965216
0.941276
0.916971
0.892137
0.863809
0.846866
0.829275
0.810518
0.791367
0.770575
0.750989
0.718565
1.27352
1.25021
1.23527
1.21649
1.19629
1.1782
1.15387
1.13591
1.11627
1.09495
1.0723
1.0527
1.02689
1.00201
0.976871
0.951581
0.92626
0.900713
0.872572
0.855367
0.837839
0.818987
0.799823
0.780252
1.3355
1.32067
1.30804
1.28587
1.2626
1.24464
1.228
1.20889
1.18783
1.16576
1.14617
1.12636
1.10571
1.08047
1.0634
1.03769
1.01351
0.988027
0.961805
0.935884
0.908857
0.882185
0.864421
0.846014
0.826956
1.37545
1.35937
1.34326
1.32835
1.31336
1.29535
1.27519
1.25725
1.24148
1.22071
1.19843
1.17731
1.15703
1.13597
1.1171
1.09827
1.07302
1.04932
1.02503
0.999791
0.973922
0.944729
0.910878
0.891805
0.872446
1.41375
1.39858
1.3832
1.36804
1.35122
1.3349
1.31902
1.30306
1.28627
1.26955
1.25227
1.23186
1.20936
1.18849
1.1664
1.14845
1.12719
1.10867
1.08576
1.06195
1.03701
1.01263
0.986911
0.958416
0.927387
1.46602
1.45147
1.43605
1.42135
1.40724
1.39245
1.37654
1.3587
1.34166
1.32558
1.31141
1.29672
1.28075
1.26242
1.24185
1.22156
1.20071
1.1784
1.16269
1.14129
1.11498
1.09762
1.07464
1.04872
1.02552
0.999472
1.50534
1.48996
1.47333
1.45796
1.44359
1.42943
1.41545
1.4016
1.38678
1.36787
1.34893
1.33238
1.31911
1.30488
1.28897
1.26959
1.24909
1.23115
1.21438
1.19382
1.17565
1.15848
1.13311
1.10931
1.08586
1.06137
1.54554
1.52982
1.51295
1.49625
1.48033
1.46491
1.45029
1.43667
1.42331
1.41002
1.3962
1.37774
1.35809
1.3412
1.32757
1.31302
1.29605
1.27611
1.25616
1.23837
1.22134
1.2034
1.18603
1.17151
1.14776
1.12195
1.09776
1.585
1.56946
1.55346
1.53733
1.52043
1.50342
1.4867
1.47117
1.4565
1.44292
1.42973
1.41674
1.40319
1.38682
1.36869
1.35167
1.33702
1.3223
1.30478
1.28594
1.26112
1.24472
1.22826
1.21083
1.19424
1.1788
1.16331
1.61101
1.59402
1.57773
1.56181
1.54528
1.52799
1.51065
1.49341
1.47702
1.46183
1.44833
1.43542
1.42245
1.40884
1.39374
1.37762
1.36138
1.34622
1.33179
1.3163
1.29512
1.27268
1.25275
1.23666
1.21892
1.20107
1.65314
1.6365
1.61996
1.60323
1.58681
1.57046
1.55444
1.53682
1.5193
1.50187
1.48443
1.46781
1.45381
1.44134
1.42849
1.41484
1.40035
1.38524
1.36988
1.35462
1.33937
1.3232
1.30389
1.28262
1.26337
1.24495
1.69279
1.67765
1.66168
1.64606
1.62952
1.6126
1.59584
1.57966
1.56331
1.54631
1.52888
1.51121
1.49318
1.47565
1.46058
1.4481
1.43518
1.42158
1.40728
1.3927
1.37784
1.3623
1.34643
1.32995
1.31142
1.29175
1.71909
1.70262
1.68741
1.67147
1.65521
1.63959
1.62216
1.60564
1.58919
1.57248
1.5555
1.53809
1.5202
1.50147
1.48375
1.46859
1.45571
1.44252
1.42889
1.41477
1.40028
1.38548
1.36969
1.35404
1.3373
1.76051
1.74476
1.72858
1.71309
1.69781
1.68186
1.66484
1.64874
1.6321
1.61529
1.59864
1.58178
1.56475
1.54735
1.52951
1.51027
1.49194
1.47693
1.464
1.4506
1.43661
1.42255
1.40794
1.39335
1.37761
1.36225
1.79927
1.78471
1.76951
1.75465
1.7389
1.72346
1.70833
1.69222
1.67504
1.65862
1.64194
1.62506
1.60814
1.5911
1.57415
1.55684
1.53958
1.52113
1.50198
1.48583
1.47278
1.45911
1.44491
1.43086
1.41609
1.40078
1.83661
1.82283
1.80829
1.794
1.77929
1.76415
1.74894
1.7334
1.71788
1.70159
1.68473
1.66861
1.65162
1.63479
1.61783
1.60072
1.58369
1.56632
1.54924
1.53248
1.51335
1.49614
1.48209
1.46768
1.45346
1.43865
1.4242
1.86051
1.84562
1.83154
1.81713
1.80309
1.78902
1.7742
1.759
1.74334
1.72755
1.71129
1.6947
1.67858
1.66143
1.64434
1.62733
1.61046
1.59339
1.57628
1.55921
1.54326
1.52492
1.50722
1.49195
1.47662
1.46213
1.89677
1.88364
1.86992
1.85565
1.84001
1.82525
1.812
1.79883
1.78417
1.76906
1.75319
1.73741
1.72179
1.70574
1.68901
1.67122
1.65373
1.6366
1.62053
1.6033
1.58624
1.5696
1.5525
1.53539
1.51736
1.50142
1.91802
1.90569
1.89308
1.88058
1.86681
1.85014
1.83409
1.82079
1.80859
1.79415
1.7789
1.76304
1.74731
1.73248
1.7161
1.69848
1.68073
1.66317
1.64545
1.62997
1.61351
1.59618
1.57993
1.56244
1.54527
1.9523
1.93929
1.92663
1.91403
1.90186
1.89028
1.87757
1.861
1.84364
1.83016
1.81797
1.80422
1.78892
1.77303
1.75764
1.74318
1.72647
1.70783
1.68995
1.67343
1.65579
1.63911
1.62243
1.60616
1.58901
1.97501
1.96158
1.94824
1.93496
1.9221
1.90985
1.89822
1.88588
1.8704
1.85348
1.8396
1.82695
1.81325
1.79777
1.78137
1.76686
1.7536
1.73662
1.71719
1.69914
1.68304
1.66575
1.64882
1.6313
1.61538
2.01209
1.99831
1.98414
1.97018
1.95679
1.94351
1.93009
1.91736
1.90523
1.89287
1.87908
1.86409
1.85018
1.83676
1.82231
1.80687
1.7897
1.77497
1.76247
1.74619
1.72732
1.70941
1.69319
1.67581
1.65861
2.03614
2.02221
2.0085
1.99341
1.97894
1.96561
1.95258
1.93855
1.92485
1.91179
1.89891
1.88605
1.87346
1.8609
1.8478
1.8328
1.81676
1.79962
1.78399
1.7707
1.75517
1.73741
1.72018
1.70307
1.68557
2.06862
2.05698
2.04546
2.03326
2.02031
2.00496
1.98971
1.97603
1.96334
1.94895
1.93374
1.91958
1.90558
1.89252
1.88107
1.8697
1.85749
1.84344
1.82776
1.81076
1.79475
1.77993
1.76403
1.74691
1.73037
2.08868
2.07718
2.06587
2.05456
2.04346
2.03201
2.01768
2.00256
1.98822
1.97434
1.95985
1.94439
1.92921
1.91368
1.90011
1.88871
1.87744
1.86549
1.85218
1.83741
1.8214
1.80564
1.79068
1.77284
2.11945
2.10806
2.09694
2.0856
2.07425
2.06326
2.05209
2.04097
2.02816
2.01476
2.001
1.98597
1.97036
1.95496
1.93903
1.92322
1.90893
1.89717
1.88557
1.87339
1.86023
1.84612
1.83136
1.8162
1.80249
2.13866
2.12746
2.11638
2.10509
2.09377
2.08239
2.07125
2.06002
2.04881
2.03671
2.02464
2.0123
1.99803
1.98203
1.96664
1.94959
1.93295
1.91852
1.90641
1.89431
1.88189
1.86872
1.85525
1.84037
2.16861
2.15762
2.14676
2.13549
2.1245
2.11349
2.10222
2.09093
2.07937
2.06763
2.05609
2.04446
2.03299
2.02173
2.00901
1.99348
1.9774
1.96085
1.94426
1.92912
1.91601
1.90353
1.89113
1.87765
1.86422
2.18747
2.17672
2.16583
2.15474
2.14359
2.13264
2.12159
2.11052
2.0994
2.08778
2.07569
2.06367
2.05184
2.04024
2.02921
2.01753
2.00377
1.98811
1.97161
1.95562
1.94036
1.9264
1.91326
1.90007
2.21638
2.20574
2.19522
2.18444
2.1737
2.16293
2.15183
2.14092
2.1299
2.11872
2.10741
2.09588
2.08392
2.07197
2.05977
2.04768
2.03641
2.02487
2.01218
1.99749
1.98154
1.96603
1.95138
1.93671
1.92336
2.2341
2.22407
2.21351
2.20286
2.19212
2.18146
2.17079
2.15998
2.14913
2.13829
2.12716
2.11541
2.1036
2.09188
2.08012
2.06796
2.05569
2.04423
2.0325
2.01992
2.00578
1.99092
1.97576
1.96124
2.25196
2.2415
2.23147
2.22114
2.21077
2.20001
2.1893
2.17864
2.16791
2.15718
2.14654
2.13568
2.12393
2.11212
2.10027
2.08832
2.07645
2.06434
2.05253
2.04045
2.02773
2.01391
2.00017
1.98596
2.27983
2.26984
2.25992
2.24955
2.23906
2.22872
2.21835
2.20776
2.19702
2.18639
2.17575
2.1651
2.15451
2.1438
2.13244
2.12079
2.10894
2.09671
2.08459
2.07274
2.06078
2.0486
2.0358
2.02198
2.00874
2.29835
2.28814
2.27806
2.26773
2.25731
2.24669
2.23643
2.22607
2.21539
2.20458
2.194
2.18351
2.17294
2.16228
2.15145
2.14024
2.12871
2.11702
2.10512
2.093
2.08102
2.06905
2.05704
2.04473
2.3184
2.30701
2.29645
2.28646
2.27603
2.26528
2.25456
2.2444
2.23411
2.22324
2.21215
2.20155
2.19123
2.18079
2.17011
2.15921
2.14801
2.13655
2.12495
2.11328
2.1014
2.08936
2.07737
2.06512
2.33655
2.32598
2.31554
2.30488
2.2949
2.28454
2.27377
2.26296
2.25277
2.24261
2.23167
2.22028
2.20942
2.19917
2.18877
2.17812
2.16726
2.15616
2.14473
2.13314
2.12159
2.10959
2.09782
2.36501
2.35489
2.34489
2.33454
2.32388
2.31323
2.30288
2.29243
2.28179
2.27125
2.26112
2.25112
2.24042
2.22898
2.21785
2.2074
2.19695
2.18637
2.17558
2.16457
2.15321
2.14156
2.13032
2.11824
2.38455
2.37353
2.36312
2.35295
2.34281
2.33223
2.3216
2.31083
2.29993
2.28923
2.27901
2.269
2.25904
2.24869
2.23763
2.2265
2.21573
2.20512
2.19461
2.18397
2.17294
2.16169
2.15013
2.13863
2.40267
2.39206
2.38175
2.37138
2.36115
2.35094
2.34055
2.33012
2.31928
2.30799
2.29686
2.28669
2.27677
2.26674
2.25647
2.24577
2.23491
2.22402
2.2133
2.20271
2.19207
2.18128
2.17015
2.43042
2.42052
2.41084
2.40057
2.39007
2.37978
2.36948
2.3591
2.34871
2.33849
2.32784
2.31647
2.30494
2.29451
2.28464
2.27464
2.26443
2.25395
2.24333
2.23252
2.22173
2.21106
2.20027
2.18891
2.44846
2.43843
2.42872
2.41884
2.40876
2.39852
2.38836
2.37798
2.36738
2.35681
2.34654
2.33621
2.32511
2.31342
2.30258
2.29269
2.28276
2.27259
2.26226
2.25173
2.24097
2.23018
2.21965
2.20884
2.46491
2.45572
2.44621
2.43681
2.42726
2.41721
2.40719
2.39721
2.38681
2.37606
2.36532
2.35474
2.34456
2.33394
2.32257
2.31135
2.30109
2.29111
2.28091
2.27064
2.26022
2.24933
2.23848
2.22772
2.48271
2.47277
2.46367
2.45407
2.44469
2.43527
2.42556
2.41577
2.40606
2.39577
2.38491
2.37397
2.3631
2.35282
2.34263
2.33174
2.32051
2.30974
2.29951
2.28922
2.2788
2.26855
2.25771
2.50948
2.50049
2.49091
2.48118
2.47164
2.46216
2.45271
2.44331
2.43377
2.42418
2.41463
2.40454
2.39378
2.38271
2.37163
2.36103
2.35106
2.34068
2.32977
2.31871
2.30804
2.29763
2.28709
2.27584
2.52766
2.51778
2.50854
2.49903
2.48933
2.47978
2.47031
2.46082
2.45137
2.4419
2.43238
2.42288
2.41317
2.40284
2.39164
2.38051
2.36964
2.35955
2.34939
2.33874
2.32774
2.31677
2.30627
2.29564
2.54552
2.53601
2.52649
2.51693
2.50724
2.49758
2.488
2.47849
2.46896
2.4595
2.45008
2.44047
2.4307
2.42108
2.41126
2.40043
2.38947
2.37868
2.36842
2.3582
2.34758
2.337
2.32581
2.56284
2.55372
2.54418
2.5348
2.52536
2.51553
2.5058
2.49615
2.48662
2.47714
2.46773
2.45844
2.44886
2.43866
2.42878
2.41917
2.40905
2.39846
2.38793
2.37754
2.36707
2.35628
2.34557
2.5797
2.57068
2.56147
2.55217
2.54292
2.53342
2.52371
2.51396
2.5042
2.4946
2.48523
2.47598
2.46691
2.45772
2.44751
2.43729
2.42736
2.41758
2.40735
2.39701
2.38666
2.37612
2.36537
2.59746
2.58783
2.57886
2.56956
2.56029
2.55104
2.54165
2.53208
2.5223
2.51227
2.50243
2.49319
2.4842
2.47523
2.46624
2.45635
2.44609
2.43603
2.42619
2.41612
2.4059
2.39566
2.38541
2.6154
2.60585
2.59639
2.58704
2.57774
2.56852
2.55922
2.54992
2.5406
2.53108
2.52096
2.51075
2.5013
2.49235
2.48329
2.4741
2.4645
2.45454
2.44462
2.43478
2.4248
2.4149
2.40464
2.63338
2.62363
2.61406
2.60456
2.59522
2.5859
2.57662
2.5673
2.55807
2.54896
2.53982
2.53005
2.51982
2.50994
2.50071
2.49144
2.482
2.47227
2.46263
2.45303
2.44336
2.43357
2.42379
2.66108
2.6516
2.64187
2.63206
2.62238
2.61282
2.60342
2.59406
2.58467
2.57528
2.56606
2.55696
2.54789
2.53849
2.52861
2.51875
2.50926
2.4998
2.49027
2.48044
2.47088
2.46138
2.45189
2.67912
2.66964
2.66021
2.65046
2.64055
2.63073
2.62109
2.61162
2.60217
2.59266
2.58315
2.57385
2.56473
2.5556
2.54636
2.53683
2.52723
2.51773
2.5082
2.49855
2.48875
2.47914
2.46971
2.69694
2.68748
2.67823
2.66879
2.6592
2.64905
2.63891
2.62916
2.61968
2.61021
2.60057
2.59087
2.58147
2.57243
2.56344
2.55433
2.54502
2.5356
2.52617
2.51664
2.50684
2.49739
2.48752
2.71543
2.70542
2.6958
2.68656
2.67729
2.66779
2.65759
2.64709
2.6371
2.62761
2.61832
2.60869
2.59881
2.58921
2.58022
2.57147
2.56251
2.55334
2.54404
2.53461
2.52506
2.51523
2.50548
2.73219
2.72308
2.71373
2.7043
2.69507
2.68594
2.67672
2.66676
2.65604
2.64556
2.63577
2.62664
2.61741
2.60768
2.59788
2.5886
2.57981
2.57086
2.56176
2.55262
2.5431
2.53351
2.52384
2.74975
2.74048
2.73126
2.72202
2.71273
2.70352
2.69451
2.68553
2.67605
2.66567
2.65505
2.64491
2.63533
2.62608
2.6167
2.60693
2.59743
2.5884
2.57932
2.57022
2.56114
2.55161
2.54206
2.76767
2.75819
2.74889
2.73966
2.73038
2.72114
2.71195
2.70288
2.69396
2.68493
2.67496
2.66431
2.65409
2.64421
2.63457
2.62534
2.61577
2.60624
2.59699
2.58773
2.57866
2.5695
2.56013
2.78558
2.77607
2.76669
2.75727
2.7481
2.73885
2.72955
2.72025
2.71103
2.70209
2.69327
2.68354
2.6731
2.66291
2.6529
2.64314
2.63371
2.62417
2.61481
2.60551
2.59618
2.58734
2.57797
2.80406
2.79386
2.78429
2.77491
2.76569
2.75656
2.74732
2.73799
2.72853
2.71901
2.7099
2.70125
2.69188
2.68172
2.67162
2.66157
2.65192
2.64239
2.63282
2.62347
2.61414
2.60469
2.59535
2.82369
2.8124
2.80175
2.79216
2.7831
2.77406
2.76499
2.75584
2.74662
2.7371
2.72708
2.71757
2.70895
2.70007
2.69032
2.68033
2.67033
2.66074
2.65117
2.64164
2.63223
2.62283
2.85546
2.84455
2.8325
2.82082
2.80971
2.80008
2.7914
2.78253
2.77348
2.76436
2.75534
2.74608
2.73584
2.72579
2.71667
2.70796
2.69858
2.68875
2.67891
2.66931
2.65983
2.65041
2.641
2.87524
2.86531
2.8555
2.84318
2.83088
2.81901
2.80876
2.8001
2.79121
2.78201
2.77276
2.76377
2.7547
2.74449
2.73423
2.72473
2.71576
2.70657
2.69693
2.68721
2.67771
2.66837
2.65906
2.89483
2.88492
2.87549
2.86596
2.85387
2.84154
2.82955
2.81858
2.80929
2.80014