/*--------------------------------*- C++ -*----------------------------------*\
| =========                 |                                                 |
| \\      /  F ield         | OpenFOAM: The Open Source CFD Toolbox           |
|  \\    /   O peration     | Version:  2312                                  |
|   \\  /    A nd           | Website:  www.openfoam.com                      |
|    \\/     M anipulation  |                                                 |
\*---------------------------------------------------------------------------*/
FoamFile
{
    version     2.0;
    format      ascii;
    arch        "LSB;label=64;scalar=64";
    class       volScalarField;
    location    "160";
    object      omega;
}
// * * * * * * * * * * * * * * * * * * * * * * * * * * * * * * * * * * * * * //

dimensions      [0 0 -1 0 0 0 0];

internalField   nonuniform List<scalar> 
404911
(
274.228
210.097
3443.81
1536.59
185.021
198.729
168.183
604.825
341.864
282.024
229.717
304.893
184.461
259.174
418.298
1108.48
241.723
194.11
216.155
324.663
459.431
242.031
691.133
454.283
184.085
962.708
240.609
151.366
193.666
972.445
206.403
136.461
269.501
400.113
198.557
135.925
259.067
407.542
204.16
110.988
215.583
1003.23
197.236
97.91
103.843
372.151
313.411
102.327
106.281
633.726
379.192
373.248
157.068
1328.26
329.011
569.512
9402.35
144.016
310.845
208.056
226.934
132.871
170.523
90.8859
86.0875
191.036
177.185
300.32
163.543
89.2393
138.177
48.8923
136.6
85.5711
45.9238
594.791
2269.7
227.155
92.1438
188.398
86.484
189.216
50.0921
84.7766
120.958
74.5883
199.026
76.9102
1122.93
146.647
138.129
2958.31
135.94
203.214
137.254
83.5887
103.109
205.265
81.4154
213.029
622.973
112.191
98.5348
465.135
1245.99
494.879
242.34
684.442
332.327
259.748
202.222
209.609
203.481
215.467
2275.15
522.839
224.851
4548.07
590.431
184.004
187.086
185.07
182.783
256.188
1311.83
315.732
213.516
206.614
188.441
535.645
471.615
503.973
177.756
165.756
175.038
164.948
214.6
233.361
175.368
277.076
1179.63
304.619
196.225
183.14
186.532
183.495
180.38
164.104
496.619
430.869
165.335
157.84
178.947
1777.98
284.019
985.625
249.736
172.551
163.409
172.369
170.851
175.769
174.89
167.051
157.396
153.475
157.76
161.596
178.376
252.858
391.725
580.901
442.212
410.367
410.159
407.615
492.896
166.975
169.086
159.155
159.425
161.279
173.757
189.643
197.606
198.204
282.893
698.494
451.877
382.558
373.93
242.456
319.6
502.695
426.424
155.452
160.535
158.843
169.764
180.624
189.768
223.246
1170.7
984.263
247.836
576.671
291.555
248.178
222.212
281.837
385.146
279.046
323.718
396.798
419.159
143.553
164.151
174.276
176.356
203.468
495.772
853.902
589.359
259.337
239.062
161.767
208.779
213.266
231.666
306.123
327.621
317.414
253.195
127.394
167.043
176.79
198.298
292.767
1209.92
1204.32
268.118
125.475
186.972
167.628
145.256
139.8
171.542
377.591
247.859
200.631
153.402
171.204
275.584
457.726
168.28
208.884
1108.38
448.407
154.88
107.302
236.427
157.32
141.557
131.749
157.479
154.585
158.253
151.974
172.696
220.162
367.169
447.996
521.439
414.304
467.262
202.303
149.269
378.064
185.291
140.971
150.688
130.381
136.009
162.259
149.531
159.259
306.993
331.228
416.287
463.341
1682.62
351.231
172.041
152.525
128.391
134.163
146.578
144.217
135.239
138.946
136.027
135.106
140.064
154.611
386.223
367.523
422.927
232.641
1022.34
972.725
879.981
291.937
231.921
112.284
100.726
159.667
132.182
136.89
138.023
147.059
148.222
133.193
143.17
193.754
335.11
175.983
533.283
1100.17
241.19
140.511
149.091
150.805
140.737
135.017
87.4055
147.797
120.178
143.124
113.862
111.668
137.879
144.26
187.105
457.833
256.543
461.191
154.754
115.661
113.871
108.121
195.16
120.239
126.235
78.5751
99.1633
84.934
92.1983
125.241
107.07
141.827
225.577
183.873
1005.55
1136.97
259.139
147.41
115.769
99.0543
89.242
108.48
109.001
98.1842
91.2661
83.3428
123.85
117.452
128.64
121.487
136.34
371.398
899.495
345.018
140.118
119.614
162.741
180.757
110.505
107.297
93.3786
79.3603
75.5058
77.9716
101.404
133.123
137.102
161.158
138.468
281.732
721.254
1105.25
894.872
315.211
178.237
138.658
125.632
147.687
103.356
97.3412
84.9996
79.5097
81.4267
88.3545
112.689
165.991
157.65
152.483
447.271
430.519
165.785
148.021
136.501
122.725
109.729
97.1147
135.217
90.8997
122.181
103.408
94.2647
94.6026
117.596
117.279
141.665
284.2
970.089
183.718
120.957
148
102.766
102.14
104.234
94.6707
101.54
98.0488
107.26
119.725
119.015
117.876
117.939
186.01
158.968
320.654
423.748
136.788
158.414
133.415
97.862
90.7301
102.96
89.4751
79.9575
102.306
134.827
120.634
115.685
135.446
135.993
185.27
178.386
999.225
242.553
114.778
102.794
87.7477
88.0898
86.0293
93.1125
114.385
70.8799
68.8402
82.6526
110.725
144.946
153.027
202.151
165.027
284.273
1190.4
447.384
166.382
114.531
95.1738
85.9316
81.2215
90.03
88.9305
74.0267
71.8419
71.552
77.0203
84.4506
97.4401
186.806
112.349
183.06
1010.37
1110.7
219.455
112.122
141.19
99.175
85.6307
81.1268
80.8015
79.383
83.9784
69.8918
79.8915
104.126
99.9404
104.468
113.254
152.195
294.401
416.826
139.557
109.152
91.4892
82.0405
77.6266
75.9078
82.3708
93.6153
79.0187
77.3983
81.9984
97.5364
125.693
148.052
144.924
175.393
1002.76
1131.56
221.952
110.052
100.096
85.8965
78.4649
73.9886
71.5452
70.7532
77.7645
93.6387
92.9599
92.9632
93.2731
111.933
129.564
169.421
264.795
900.129
151.108
118.011
99.6381
85.5069
78.3008
72.5083
69.3168
67.4831
67.6391
69.9036
79.7399
85.2981
91.1768
101.043
129.213
193.035
319.199
266.84
123.571
134.505
106.551
89.2487
79.7364
74.8945
68.1141
63.4577
64.2268
67.8037
74.1873
83.2532
90.6802
110.241
124.578
163.424
504.085
242.167
140.146
134.39
101.29
90.989
80.2648
77.5485
72.026
64.3707
61.5657
66.0419
73.3487
81.915
101.44
109.051
127.557
246.651
1117.86
1159.92
179.692
110.914
114.254
99.692
87.9992
81.21
77.3535
80.7906
75.0725
68.1988
68.3968
74.8609
83.031
96.4662
146.673
164.776
459.931
928.369
161.799
111.237
90.5385
83.1857
79.5827
75.0374
70.6832
68.3037
74.3234
73.9263
73.478
77.6025
86.0426
95.5182
129.891
170.668
1066.48
282.487
136.995
118.051
94.8426
85.0765
83.0573
77.8738
68.3319
61.7787
59.5612
63.5965
70.1374
78.7052
84.952
115.64
112.818
177.014
1101.16
268.014
120.073
100.445
87.8175
79.9774
84.9481
88.2377
67.2494
58.5534
59.3811
64.7087
71.5358
79.79
89.4405
102.075
122.992
263.184
1031.26
195.364
118.136
99.6148
86.1307
80.5756
73.2267
79.0099
77.4844
55.7191
54.5025
62.3938
70.2988
78.5178
90.117
114.775
146.125
441.842
429.673
146.904
140.273
129.943
92.4766
83.1801
77.4632
64.3317
73.778
64.2688
49.8116
64.2535
73.9022
79.2669
90.45
115.382
164.318
1000.04
277.499
125.203
98.4116
87.7339
79.6374
80.7967
88.6843
81.4895
70.9225
51.7818
66.3063
66.645
75.9897
82.5066
89.5316
126.415
210.124
1134.67
1051.64
181.444
116.408
101.643
85.6195
78.534
72.3069
82.2574
83.5823
76.0457
68.2422
49.6548
66.5767
78.9224
82.4744
103.508
112.137
236.487
1044.22
169.864
109.972
90.4885
80.1839
75.2178
71.1618
67.3384
79.616
79.5672
74.775
63.9076
61.5164
74.0059
86.2018
97.132
124.522
409.711
1026.46
167.065
110.078
87.994
79.7573
73.885
68.9887
66.0199
64.5197
64.7822
58.5988
71.523
65.8948
80.0449
97.2657
122.406
138.763
892.271
1021.51
162.169
109.279
88.1285
78.8414
74.2185
68.4157
63.3482
63.7583
67.9683
60.2542
58.8273
70.3695
85.0226
99.817
140.369
198.354
1119.98
271.649
142.432
113.226
91.7031
80.5885
73.3131
67.5526
62.1225
58.7599
61.3981
69.7369
70.8072
75.3763
85.3714
98.2568
134.895
223.836
1152.64
250.042
122.238
100.67
89.7197
80.7096
74.0178
66.567
60.2918
59.479
57.817
62.9018
77.922
85.2929
89.8905
92.659
133.262
220.528
1105.07
170.99
127.25
120.665
89.1749
80.7048
73.9783
69.5947
63.9855
57.1297
59.1503
61.6259
66.0401
78.1761
91.5628
103.374
117.616
238.168
981.444
167.334
110.607
87.3341
79.4027
75.2781
71.3782
69.0907
71.5748
70.2322
63.054
62.4007
67.3209
72.7787
80.9709
99.9934
118.189
253.321
1046.17
166.16
109.334
86.6878
76.7325
72.4872
67.1762
62.5429
59.0556
65.7596
69.2838
64.4443
68.3343
74.1313
80.9577
100.545
124.062
271.282
1042.2
167.578
118.256
87.653
75.963
69.627
63.2359
56.6069
52.5714
48.9966
52.539
59.1859
67.9692
74.6132
83.0616
99.4983
134.303
418.739
971.902
157.282
112.281
87.4308
75.341
67.5523
59.2607
52.9386
47.1101
46.4589
50.5867
59.114
67.9108
75.3169
83.6859
104.256
159.305
984.506
276.122
152.079
106.564
89.4375
77.7382
66.8134
57.4366
50.2328
44.3001
41.9341
48.2224
58.3267
67.1232
75.2312
84.7824
104.56
160.873
1066.32
278.163
146.225
103.16
89.8952
82.7282
71.6052
59.3306
49.738
43.3019
39.5155
45.9095
61.0167
69.1606
74.9519
87.0687
109.142
158.637
1031.25
1153.35
189.35
138.637
104.312
85.023
85.6293
83.939
59.9542
59.868
43.581
45.589
45.2545
60.848
74.9364
78.0494
86.744
122.016
170.934
1017.02
1036.71
152.376
105.23
142.167
94.2637
76.8788
78.7969
76.0613
61.3261
51.0145
45.692
43.84
61.0827
83.0249
83.9087
90.1801
117.229
214.597
156.279
100.287
80.7055
74.7302
72.874
70.243
62.7377
57.0798
55.7141
54.8384
45.2294
62.1936
70.4355
81.4813
105.462
109.128
226.296
968.157
154.698
98.0701
76.5873
70.6707
70.3279
70.6158
66.3082
56.322
61.0336
47.8546
43.6093
59.6291
76.103
81.5508
112.291
117.297
269.597
1011.93
148.225
96.6588
75.5747
70.3448
69.4858
66.9425
69.4885
64.6438
49.2288
54.9796
53.329
68.8311
78.0111
79.2368
102.827
123.136
416.86
1114.67
149.37
101.017
78.9362
70.6157
67.8303
64.9557
62.1914
68.6326
62.9061
45.4671
60.0332
72.959
74.6328
80.8657
94.2013
130.768
837.42
138.555
116.932
88.5353
72.9404
65.6916
64.0397
61.1449
59.5472
66.5186
56.8684
57.9554
62.5393
68.3961
80.5649
102.19
152.681
939.211
729.873
201.303
90.7786
71.3625
62.4561
59.2623
60.1344
57.2784
53.5715
58.1867
59.2651
66.3023
69.4037
79.2707
107.768
157.458
1037.57
2154.85
304.97
149.351
101.503
67.0946
56.9162
54.2118
53.0523
59.7525
58.1846
59.112
65.0366
70.1231
75.0978
85.264
108.096
175.417
1085.21
254.22
113.301
106.066
76.7794
54.8286
49.6677
47.5924
47.401
52.4426
62.8766
59.3665
61.4409
72.416
76.1801
98.5866
111.905
240.487
237.774
112.887
95.285
70.6235
51.1131
45.2641
44.862
45.9698
45.4311
59.8325
57.6898
67.7121
80.5627
85.6288
95.8704
116.088
260.008
1163.3
206.286
105.75
96.5252
85.6894
73.8367
70.3896
52.7739
42.0887
44.7532
46.9839
52.8563
71.1983
85.2139
97.7894
117.415
137.049
835.278
937.714
155.22
112.915
88.6389
80.4749
74.4692
135.772
139.186
56.1504
38.9217
50.9793
64.3748
77.2632
90.2634
111.537
139.525
150.851
971.589
813.365
119.041
198.375
129.643
88.4174
61.9555
64.2787
86.9334
157.356
69.1035
45.8678
67.992
89.9827
101.549
119.638
160.927
157.898
988.645
426.387
112.769
122.358
98.6104
82.1105
57.6655
71.1031
79.7731
82.5421
86.4908
66.1679
83.1011
95.2369
99.408
112.959
173.839
166.519
1031.38
1016.32
222.823
112.694
116.79
113.776
85.8822
54.0528
54.7065
88.3509
117.229
97.4322
80.8726
88.6962
92.4197
89.2125
109.236
139.538
302.522
1042.88
909.196
139.339
154.07
111.052
104.77
99.6826
54.7319
29.2889
38.0153
56.6926
67.9937
66.6857
74.5176
79.1587
86.3543
94.9986
115.288
184.404
1075.71
212.093
127.829
106.152
102.397
94.3982
50.4799
29.3151
25.9913
32.5751
44.1839
63.0833
74.6525
79.4172
87.3365
105.44
117.627
238.301
1200.59
242.472
125.573
124.028
111.467
94.1481
38.6189
40.9406
40.0613
31.6976
39.8791
59.6052
80.9098
82.7914
89.0941
109.756
126.92
278.512
245.33
132.49
133.302
117.582
98.0165
41.4597
29.4311
40.4216
42.4317
47.9561
76.7147
87.1147
87.0417
91.2955
114.76
133.23
431.362
217.158
210.791
148.604
118.56
96.6218
30.2117
22.693
27.6111
38.5883
52.9737
80.4276
92.2619
90.7088
98.9158
109.82
140.666
876.842
962.308
154.813
135.045
120.387
111.497
96.5729
41.0071
22.6389
26.5962
39.6563
68.1437
92.8508
100.299
97.6883
100.369
132.767
174.112
980.644
915.366
162.758
143.314
119.333
107.185
97.5397
34.5653
26.2846
28.8219
42.8477
70.774
92.6557
96.9011
94.2325
106.095
119.737
254.552
850.634
138.031
106.016
100.178
99.2935
94.7206
54.596
26.577
30.6715
45.8162
73.2871
92.0382
84.4911
87.4525
103.243
127.988
291.852
862.18
134.25
106.211
98.2181
95.1879
89.0089
41.0873
33.6743
38.2832
50.7776
72.2246
87.875
82.5172
84.6887
102.417
135.015
292.972
880.754
138.504
113.031
100.638
94.5614
79.4848
38.9232
34.4995
38.8021
50.1463
67.5363
83.7153
79.1539
84.6749
100.8
140.571
865.918
897.365
143.881
129.308
118.299
102.833
73.4838
50.2579
36.0388
42.1953
51.9433
64.4075
82.1758
78.5787
89.1595
105.353
162.099
967.043
286.914
147.457
163.586
142.855
103.832
92.1352
132.541
115.492
59.9508
52.8029
63.2991
78.6322
83.2365
90.5434
125.334
164.099
1039.79
345.05
332.096
152.492
125.163
65.3433
49.2293
75.5455
142.325
78.2706
73.5037
89.4115
92.8497
111.279
122.718
204.033
1173.13
338.533
203.064
150.978
138.468
75.1156
47.0796
59.9905
93.5076
111.115
114.123
118.035
99.8801
114.807
114.987
249.92
306.897
211.342
171.753
151.335
135.093
88.9079
59.1387
84.4938
98.1397
115.818
114.343
99.1184
108.579
113.081
120.601
277.347
326.178
145.296
138.019
150.001
150.151
116.033
69.0162
90.9646
119.482
133.055
120.831
124.774
118.985
163.695
149.107
843.244
323.979
150.908
145.652
151.231
151.579
157.31
93.6431
110.545
118.558
119.685
124.659
134.652
150.188
204.176
173.453
1037.49
1181.77
290.164
170.323
123.166
157.299
173.317
146.913
144.521
117.462
148.554
140.33
128.23
119.349
166.019
225.686
473.427
1224.18
206.594
137.729
139.192
107.634
188.918
178.49
135.727
94.7258
121.106
140.242
134.019
141.638
162.781
265.66
240.002
980.744
194.008
149.399
115.559
89.9598
119.239
146.708
227.586
141.625
121.61
147.217
156.516
168.877
186.256
288.38
818.848
276.549
144.143
526.142
257.998
141.59
83.6184
110.709
91.9418
91.353
110.192
124.273
119.621
137.009
181.879
311.093
4115.61
287.17
527.88
236.523
155.253
135.343
98.7233
91.7645
126.969
118.168
113.447
134.993
148.996
151.678
193.298
304.112
814.917
1054.51
616.803
297.998
164.192
127.568
108.492
79.1354
91.0393
116.853
124.234
149.233
176.453
208.204
202.723
332.019
1178.14
190.934
432.778
221.183
141.896
98.0014
78.899
97.5856
116.395
129.859
139.186
151.254
135.502
196.041
237.224
1435.13
1169.59
209.985
156.833
310.176
208.8
142.697
85.0656
73.8063
111.75
128.413
143.93
157.672
165.405
158.481
321.468
1257.57
562.161
199.148
162.249
471.729
303.003
159.129
106.071
98.2401
111.592
127.854
144.997
218.348
137.727
172.062
330.737
1120.99
527.854
454.062
335.642
205.497
118.887
109.346
113.242
136.496
149.318
222.992
159.667
226.517
1150.26
700.21
502.405
420.79
340.114
204.663
245.113
119.202
112.016
136.657
207.748
136.998
171.899
313.601
1133.91
186.455
154.974
470.61
473.343
157.132
228.33
302.853
133.786
162.404
200.432
159.122
201.399
519.34
1181.95
187.953
157.61
475.314
417.982
221.585
196.889
304.467
265.17
275.421
322.643
168.032
216.907
1197.95
1106.1
184.373
507.97
460.475
456.898
311.567
191.347
201.044
212.129
295.623
472.423
173.567
226.441
1287.95
1187.44
193.187
525.45
451.941
457.227
425.485
196.013
199.481
183.554
261.579
491.055
182.621
314.112
1342.39
1155.85
216.147
172.806
489.422
431.928
464.817
301.188
183.149
207.036
321.296
174.114
200.197
322.353
1459.83
1448.79
1151.8
190.318
172.69
467.683
456.879
575.836
300.511
250.857
359.236
524.275
206.471
344.753
182.677
517.129
460.058
467.071
162.241
522.594
542.076
565.384
528.284
185.127
165.816
477.181
560.758
190.2
214.645
294.98
1201.28
6293.87
594.455
168.356
505.781
546.703
228.68
390.292
2789.21
2101.25
509.973
796.905
219.283
249.09
1192.94
477.004
784.025
223.804
240.435
599.618
798.606
572.266
262.747
217.807
265.753
1190.83
1169.67
283.513
1887.56
756.598
524.79
342.036
203.881
187.115
214.858
208.283
655.432
284.172
214.325
377.93
693.51
1519.55
1326.09
6465.09
526.92
1525.24
607.502
576.497
1431.41
627.914
428.48
328.248
314.191
293.158
273.088
261.786
336.707
1437.09
625.257
410.024
308.322
293.537
272.867
260.427
258.593
264.711
261.992
256.259
241.676
243.124
248.213
238.807
1294.71
551.485
301.788
277.312
258.315
257.122
251.588
243.648
245.536
245.536
248.409
237.723
228.63
233.848
245.298
244.14
248.274
246.638
250.415
338.465
402.027
860.484
952.766
491.022
260.82
235.99
235.866
229.742
228.963
232.506
232.237
229.583
227.865
230.366
236.737
219.235
591.419
580.535
246.891
256.734
240.824
252.356
252.131
278.633
608.191
527.136
294.875
225.88
207.675
189.184
181.028
190.265
201.467
210.629
211.946
214.501
212.258
220.425
218.931
224.232
227.135
213.555
542.369
584.163
219.002
243.503
249.434
265.41
301.159
1293.7
419.2
195.62
152.904
143.3
177.935
186.665
406.853
595.243
728.16
174.103
192.524
202.028
193.933
187.872
193.979
216.531
223.243
213.233
201.94
522.665
574.928
225.149
252.361
294.339
628.123
1513.72
386.256
261.459
226.358
167.544
166.182
159.818
182.677
212.179
195.608
181.056
341.664
171.082
191.411
250.633
205.662
656.993
200.001
224.309
235.359
236.752
597.695
597.396
273.457
610.408
1257.35
307.07
293.83
213.939
154.246
134.796
141.832
167.251
168.15
154.421
245.695
192.733
167.458
165.768
253.401
417.804
174.41
191.487
517.181
225.403
237.91
237.258
242.812
270.43
554.801
401.845
1340.22
307.023
230.11
184.442
168.847
122.44
120.549
124.004
136.818
157.071
164.624
132.724
230.301
202.311
192.915
189.406
178.402
159.512
155.48
206.268
190.597
236.352
255.017
362.108
611.899
1063.4
372.566
163.443
154.831
188.676
157.082
158.528
125.051
113.278
103.606
130.228
131.757
122.932
124.008
116.171
122.221
123.698
127.187
170.935
161.017
217.022
190.681
203.092
216.386
248.983
552.701
1147.54
207.599
129.897
179.158
159.109
138.436
153.49
134.979
135.22
130.693
129.687
124.195
118.24
124.608
138.507
110.861
117.722
122.832
128.02
134.238
258.038
166.477
579.434
554.195
692.465
4597.41
770.794
1385.96
294.339
184.653
138.296
124.096
120.565
140.918
182.64
161.378
144.063
138.563
137.427
134.978
149.181
153.304
140.548
125.907
134.99
132.955
134.36
141.833
141.507
569.467
1669.5
1287.71
334.535
188.597
133.644
117.372
120.514
124.396
118.085
120.723
119.357
181.965
153.161
140.504
121.727
173.9
169.646
153.772
151.569
166.962
150.738
143.704
128.628
196.6
440.093
448.358
184.155
181.688
183.947
162.868
117.973
106.427
108.359
119.268
123.859
118.886
114.898
113.515
103.404
140.412
124.584
115.809
163.795
164.529
170.748
199.556
197.376
125.484
185.512
455.202
425.985
188.626
143.67
146.692
121.302
114.725
109.677
109.019
104.041
107.59
114.001
120.471
116.165
100.923
98.9134
113.79
122.587
135.74
143.197
179.765
205.657
206.744
360.388
171.985
443.627
388.248
163.537
173.219
155.186
125.833
113.768
110.21
105.341
104.958
99.0104
97.8562
102.804
106.753
112.116
95.4812
94.0083
104.123
121.207
138.68
138.2
166.213
232.039
243.467
380.843
822.499
1155.25
373.902
158.195
159.123
125.218
116.77
112.944
112.937
109.903
101.933
93.18
79.6219
76.1676
85.3871
101.842
107.15
103.32
105.125
109.019
116.656
125.178
136.466
165.806
206.433
365.914
395.908
1132.92
366.337
147.173
152.763
120.865
107.808
102.499
99.2513
99.6552
104.071
96.7216
79.2868
66.5131
64.4147
69.963
83.305
87.158
94.0155
105.757
111.515
106.817
117.402
130.085
178.54
359.663
435.331
1018.06
247.613
142.63
158.923
121.854
106.272
98.5905
90.3366
82.2475
76.5141
75.9676
81.4385
72.1693
67.5107
64.881
71.9748
80.0002
85.3054
83.0824
92.5399
111.787
110.646
123.301
148.91
206.963
304.158
1338.6
1219.6
262.479
136.25
121.266
109.406
102.647
99.7061
90.574
75.804
62.1944
58.2728
58.5993
60.1806
63.0959
65.7007
70.4088
75.5037
87.1954
95.5226
102.103
104.787
122.098
129.837
159.264
202.126
183.004
1530.84
395.426
143.955
162.297
119.912
102.929
98.6103
93.5591
79.5663
56.747
49.7307
48.0066
48.8548
51.6658
56.0674
61.3341
68.9091
79.3274
87.8909
97.0832
105.753
115.027
129.67
155.616
203.921
177.222
430.499
443.959
178
132.065
114.326
104.989
99.8047
92.8145
86.3897
52.4328
42.9519
40.3551
40.7942
43.131
46.5924
52.614
60.8285
72.2441
83.1779
92.1642
98.4737
104.607
113.474
124.723
158.568
174.721
439.817
989.611
226.586
130.923
128.077
107.285
101.875
97.7913
87.3425
53.5953
38.5923
33.7305
33.7312
34.7684
38.1262
42.5212
48.1732
56.6946
70.4258
84.0104
94.3584
100.954
109.631
123.948
142.305
150.236
390.398
384.168
142.714
119.177
101.123
95.7206
90.7084
85.8166
57.0436
35.5722
30.624
29.7123
30.462
32.0045
33.9485
38.1713
43.785
52.5023
68.0207
83.1607
95.8457
104.022
112.518
142.756
183.851
278.148
437.195
158.347
156.616
115.278
96.3559
88.0094
85.4362
71.8388
43.7295
32.1524
28.2934
27.5395
28.3482
29.6725
31.6515
35.4275
41.7513
53.2944
71.9678
88.6799
99.9958
110.863
121.063
140.56
168.429
825.896
922.841
205.77
127.623
125.7
100.246
90.5751
81.5067
75.9194
58.0107
41.6973
35.5925
32.5953
30.299
28.959
30.2495
33.2093
38.5754
49.2633
67.079
87.6077
97.4503
108.935
123.832
139.474
146.012
399.765
928.555
219.111
132.28
130.439
104.393
94.5802
85.7916
76.6126
64.0977
44.7605
36.6553
37.6998
35.5664
33.131
31.4813
32.835
39.1765
50.5061
74.9659
95.9074
103.805
112.808
119.896
153.016
200.807
245.992
1090.02
390.198
154.59
134.304
105.771
97.0523
91.0506
82.3331
71.5327
55.7152
36.2496
32.9493
37.5859
42.0615
40.1178
38.4941
41.0209
53.6486
77.1158
92.9264
100.921
108.52
121.736
151.407
196.371
223.017
918.866
765.664
183.415
163.035
115.166
97.7509
92.1834
87.7625
77.6209
67.5675
51.5896
34.5989
32.1731
39.968
46.3409
46.432
46.1099
51.6792
74.6574
87.4651
95.1127
100.675
110.548
154.045
190.952
220.134
905.576
227.102
131.478
109.394
95.5063
87.9911
87.8665
83.0025
64.8315
54.212
48.7023
37.4333
33.3417
39.8633
52.9711
60.7856
60.4865
69.341
84.114
92.7082
97.1973
104.207
120.414
145.093
200.632
899.041
751.407
140.491
119.409
97.9112
88.571
79.2788
72.0219
72.0753
57.0297
45.3677
43.1504
40.9556
37.6051
40.4269
51.4755
62.7053
71.937
79.1259
87.6469
92.6956
102.011
116.115
146.301
193.551
373.591
235.858
128.851
106.346
94.8386
83.687
71.5887
58.9103
49.6901
46.2074
39.4999
37.1756
38.9481
40.495
42.6417
48.4327
65.29
73.5669
82.1018
91.7059
100.742
105.57
129.959
178.201
228.558
937.95
921.838
182.705
117.728
98.8327
92.2894
82.689
67.5144
46.956
37.902
35.1026
33.5494
33.2187
36.7713
44.1831
51.8544
59.9727
72.7479
81.6369
86.343
93.6923
103.599
114.441
128.018
154.615
841.875
312.169
142.017
126.094
100.972
91.6058
84.2622
64.3024
41.5299
31.9382
28.6695
28.5495
30.6863
35.1458
43.7218
57.8421
74.726
82.8762
90.7593
93.1909
97.0637
107.639
123.969
160.248
250.957
1206.34
707.054
134.067
111.937
95.6621
86.7671
85.2289
81.8137
56.042
34.422
27.8363
25.3886
25.156
26.9638
31.7481
39.2503
49.7263
67.2767
80.8245
89.5544
97.2836
103.2
111.702
151.269
213.174
892.553
193.403
148.615
105.299
91.361
82.9462
76.3433
74.945
65.3539
38.6192
27.3967
24.8299
24.6261
25.6402
28.4231
34.715
44.1343
58.1363
74.6184
88.3136
100.827
117.172
135.969
135.937
397.644
685.956
133.702
107.239
88.7724
81.362
76.4961
72.2219
66.7061
60.0258
44.0941
30.2517
25.9707
26.2624
27.25
28.9722
34.2595
44.1008
59.2521
75.8966
90.1252
102.793
119.896
171.448
220.483
1001.68
220.153
122.129
97.7271
85.7739
77.9685
71.8285
67.4968
60.3145
50.1834
40.3069
31.3999
27.2982
28.3163
32.3373
36.7069
42.3843
53.7927
74.4025
83.0455
93.5082
107.286
139.153
177.61
388.974
693.631
131.523
108.419
91.729
81.5706
74.206
66.8114
59.8037
53.3587
42.0083
35.9957
31.0847
28.2901
29.706
35.8042
48.349
63.8598
72.4298
83.8369
93.2544
99.5496
113.363
129.452
162.944
896.504
218.03
120.859
97.7115
86.3855
78.0369
69.7006
61.9914
55.0612
48.439
41.0507
32.0234
29.1379
28.4591
30.5976
36.8511
47.1546
64.6051
76.9268
85.4899
94.2153
104.442
130.794
172.002
252.052
708.009
130.429
108.625
90.2794
81.9174
73.6043
64.5664
56.3862
50.3663
45.5352
40.8409
34.252
29.7884
29.4044
32.5556
40.7182
51.6863
64.1687
75.105
87.1007
95.8497
112.962
126.593
147.752
843.149
225.269
115.751
95.6746
87.7544
79.5313
71.351
60.688
49.9508
44.0865
42.0223
40.2947
37.062
33.3718
33.915
39.7416
51.8505
65.6874
72.2642
78.7307
88.0163
99.3637
111.235
177.228
238.187
189.186
145.261
100.153
86.2227
78.0204
70.6796
59.6289
46.0282
39.032
37.6265
38.2919
39.3082
40.8603
42.9453
49.0411
60.3588
70.4583
75.9487
80.8099
89.858
106.855
134.328
127.908
696.791
739.328
129.364
106.984
89.6941
81.8255
76.5559
70.1114
59.8727
44.6342
36.0043
33.4801
34.4388
37.3976
41.3126
46.7319
53.5211
61.0853
68.0733
75.4968
82.1642
89.3787
108.63
173.9
206.026
989.398
704.084
140.136
100.982
84.4053
78.9367
75.6456
70.682
60.2788
44.3069
34.667
30.7563
30.6739
33.3376
38.2298
44.8485
53.8882
61.7231
68.5323
74.2513
80.7734
88.3203
103.619
175.177
639.991
338.975
132.21
98.4848
83.2149
73.9212
69.7528
68.2735
60.2879
44.7103
34.4244
29.1978
28.2529
30.1676
34.6053
41.0732
50.8048
61.78
71.0638
78.9339
84.7853
95.5647
114.566
161.277
775.19
188.251
152.947
101.337
82.7322
71.7454
62.7016
57.5514
54.1805
44.7742
35.0374
29.2225
26.9308
29.011
33.6767
40.3262
49.6825
59.5661
70.4457
80.6611
90.4439
98.3995
142.237
219.492
704.739
151.169
123.641
90.1644
78.8243
69.9333
59.359
49.7175
43.2976
39.8642
34.6862
30.1328
28.288
29.6417
35.1115
42.0989
51.8773
61.2636
69.8423
79.9479
89.6688
120.058
127.608
713.471
351.22
128.301
95.2362
81.6143
74.7364
67.9198
57.9962
46.3905
38.0424
33.7896
31.3752
29.7311
29.5216
31.7464
37.1327
45.291
55.0021
64.3049
72.0504
78.7077
91.9341
114.085
167.754
962.641
182.625
148.976
100.971
82.8096
73.1622
65.5042
56.2216
43.7622
35.2117
29.7115
27.3713
27.5169
29.1789
32.8584
39.1603
47.4318
57.8152
66.5484
74.8663
81.7947
93.4496
125.363
211.007
742.257
131.627
106.229
86.7007
79.3044
72.2844
64.4632
55.4507
42.5349
32.8404
27.531
24.6778
24.5412
26.8915
31.4666
38.3338
47.3178
59.5552
68.9028
76.7128
86.3347
95.4112
133.398
355.048
347.058
126.367
94.9184
85.229
76.6022
69.9735
63.8532
55.477
42.8482
31.1916
25.324
22.8863
22.3025
24.0692
28.8318
36.5998
46.3226
58.9032
69.5634
77.5079
87.4156
116.59
123.429
690.616
234.362
112.71
91.6437
81.2441
73.0978
65.5282
58.9367
51.9439
42.9413
31.545
23.6841
21.1716
21.1229
22.8221
27.0815
35.3782
47.3972
60.0589
69.9582
78.9888
88.3442
119.895
170.285
973.095
194.888
149.649
98.1353
81.4351
71.659
62.4908
55.0344
48.1036
40.831
33.4838
25.0033
20.4579
19.9319
22.0263
27.0423
36.1938
49.8699
63.0373
72.4658
80.4907
97.3902
114.914
185.738
902.991
134.239
100.656
85.81
78.855
70.7587
60.6286
50.5986
44.2243
39.0779
33.4159
27.7093
22.3889
19.7818
20.8629
26.0913
36.7746
53.1954
64.7675
75.082
84.9554
96.5236
150.171
340.489
716.405
125.009
105.329
86.8609
79.2772
71.8762
61.5659
49.7339
40.1052
35.8375
33.0399
29.0762
24.7043
21.8479
21.4044
25.4573
37.4959
57.0716
67.4324
76.34
86.7036
118.656
129.372
734.131
664.699
133.906
98.49
85.9986
78.5567
71.6176
62.329
50.1931
38.8203
32.9143
30.7869
29.7582
27.0359
24.0386
24.2013
28.4464
40.7622
60.076
69.6755
78.2814
94.4733
107.437
180.048
236.747
111.799
89.7074
80.5564
76.3995
70.6588
61.9291
50.2321
38.4187
31.8751
29.0601
28.7858
29.0822
27.6216
27.3022
33.1635
46.9934
61.6
70.3441
80.2359
97.9805
148.266
224.794
228.912
112.233
90.9666
82.3846
75.0367
69.1713
61.6084
49.9533
38.1899
31.0425
28.0501
28.0006
29.7551
32.7108
36.5207
43.0324
55.0309
63.094
70.4563
81.968
95.3007
155.409
632.865
198.636
156.123
100.089
80.9075
71.8684
65.9695
59.8907
49.9323
38.5378
30.5266
26.7409
26.7713
29.4332
33.9902
40.0196
48.9847
58.7136
64.5974
70.2427
80.2852
113.29
147.673
666.872
193.645
111.987
86.7336
77.2258
69.291
61.3619
54.5781
46.9195
38.4751
30.56
25.7658
24.9289
27.578
32.3553
38.8859
47.8429
56.2704
63.3644
70.1431
80.4913
98.5599
151.095
801.485
182.062
108.16
84.699
75.939
67.8501
58.5011
49.4971
42.0024
36.2046
30.4654
26.088
24.456
26.296
31.1889
37.7195
46.5711
55.1063
62.6931
69.2667
78.5864
102.619
129.677
904.589
871.997
136.596
101.248
83.6384
75.6026
67.5522
56.8049
45.7531
37.3383
32.3084
28.5402
26.0021
24.9874
26.4107
30.9525
38.3049
47.631
56.3873
64.2994
70.9222
78.3115
100.003
165.099
689.419
136.52
116.914
86.3709
75.0332
67.1148
56.5491
43.4216
33.7855
28.6975
25.5921
24.1802
24.3852
26.5914
31.5306
39.0771
49.0117
57.6239
65.6603
73.7095
80.1533
102.725
172.111
681.001
133.044
92.4489
78.1879
71.7203
65.1475
57.069
42.748
31.3646
25.9384
22.9873
21.7302
22.29
25.055
30.2783
38.1514
48.9775
58.5265
66.0432
74.176
86.292
98.6206
178.534
343.38
121.611
88.2481
75.8844
70.2124
63.8996
57.2953
45.1371
30.2819
23.8961
21.0266
19.6584
19.8847
22.4518
28.0137
36.1519
47.0986
57.9284
66.0771
74.2846
87.3716
119.305
226.993
228.9
105.827
83.1552
72.7352
67.2196
62.3533
56.4626
47.9274
32.7286
22.583
19.2639
18.0465
18.2116
20.5165
25.9041
35.0186
46.7236
57.5276
66.0865
73.6902
89.1948
124.163
606.76
232.503
106.472
83.4285
71.6701
64.1106
59.1956
54.8994
47.8425
37.0353
25.3233
18.327
16.4178
16.8326
19.4783
25.2974
35.0215
47.9906
58.5887
67.545
74.9171
88.344
131.663
643.07
196.602
111.216
86.9431
72.4289
62.8897
55.168
49.739
45.0488
37.9117
28.9529
21.1412
16.4336
15.903
18.4996
24.8958
35.2453
49.3589
60.4317
69.2535
79.9321
88.2409
128.536
672.592
182.702
111.739
83.832
70.8332
61.1327
51.7605
43.8573
39.3115
36.3679
30.7816
24.2082
18.9847
16.5502
18.4984
25.2159
37.1432
51.6591
61.9545
69.7993
81.6816
106.005
120.146
741.139
190.714
113.366
84.4432
71.3365
60.1057
47.9911
38.7449
34.6621
32.1266
29.9244
25.9003
22.0778
20.1028
21.5628
28.7167
41.4561
53.4459
62.2692
70.5409
80.4166
109.398
160.007
932.582
184.447
116.737
91.0935
75.6452
61.9657
44.2124
34.8854
31.4758
28.8546
26.4074
24.2054
22.3439
22.8948
26.6182
34.5103
45.687
55.3474
62.383
69.8098
80.5793
108.034
172.051
874.656
134.144
108.686
97.1544
80.3397
65.3626
40.9809
32.0609
29.042
27.0403
24.6489
22.2588
20.8097
21.891
26.9117
35.4316
47.0534
56.8983
64.3563
70.58
79.0836
106.297
175.092
692.275
154.92
116.591
86.78
77.2865
66.9006
39.3376
30.027
27.1588
25.6162
24.0554
22.143
20.7564
21.1663
25.6191
34.5684
47.0381
57.2598
65.0001
72.6266
80.052
103.747
181.379
700.075
138.72
97.6594
80.4763
72.7437
66.1215
47.2459
30.1909
25.9365
24.3358
23.0577
21.9481
21.373
22.3768
25.8815
34.3408
48.0058
58.8118
66.6206
74.0603
87.097
107.696
172.821
362.323
129.75
94.5016
80.4983
71.711
61.6884
48.9341
32.7883
25.5698
23.4204
22.0925
20.8708
20.425
22.0158
26.9011
35.7305
50.679
62.4418
70.1745
77.3715
90.6932
124.701
207.31
228.029
114.887
93.1376
81.4203
73.4501