/*--------------------------------*- C++ -*----------------------------------*\
| =========                 |                                                 |
| \\      /  F ield         | OpenFOAM: The Open Source CFD Toolbox           |
|  \\    /   O peration     | Version:  2312                                  |
|   \\  /    A nd           | Website:  www.openfoam.com                      |
|    \\/     M anipulation  |                                                 |
\*---------------------------------------------------------------------------*/
FoamFile
{
    version     2.0;
    format      ascii;
    arch        "LSB;label=64;scalar=64";
    class       volScalarField;
    location    "160";
    object      p;
}
// * * * * * * * * * * * * * * * * * * * * * * * * * * * * * * * * * * * * * //

dimensions      [0 2 -2 0 0 0 0];

internalField   nonuniform List<scalar> 
404911
(
-0.175666
-0.175226
-0.169996
-0.168625
-0.177446
-0.175608
-0.171105
-0.169222
-0.168895
-0.168713
-0.179519
-0.182089
-0.181827
-0.178518
-0.175255
-0.171381
-0.182375
-0.182121
-0.18199
-0.180931
-0.186229
-0.18429
-0.183995
-0.186016
-0.187009
-0.194611
-0.186951
-0.18586
-0.184771
-0.188376
-0.187404
-0.187256
-0.186739
-0.184609
-0.189346
-0.188648
-0.187114
-0.191876
-0.190724
-0.19012
-0.190361
-0.192552
-0.192183
-0.191373
-0.190627
-0.191041
-0.193596
-0.192635
-0.192128
-0.191658
-0.194886
-0.194689
-0.193452
-0.192409
-0.194778
-0.194589
-0.196517
-0.179329
-0.179524
-0.178167
-0.18128
-0.180232
-0.182514
-0.18259
-0.182098
-0.185041
-0.183657
-0.183099
-0.185846
-0.186022
-0.186782
-0.186243
-0.18617
-0.187952
-0.187321
-0.186635
-0.186562
-0.189303
-0.188607
-0.190697
-0.189894
-0.192266
-0.191454
-0.190778
-0.193894
-0.192934
-0.195207
-0.194467
-0.193414
-0.195407
-0.194931
-0.199154
-0.1997
-0.198644
-0.201574
-0.201244
-0.200326
-0.203898
-0.202727
-0.202338
-0.205837
-0.204781
-0.203832
-0.20595
-0.0863888
-0.0847379
-0.0821207
-0.0926682
-0.0881484
-0.0924913
-0.0847486
-0.0866887
-0.0850164
-0.0835
-0.0815482
-0.0939201
-0.0940579
-0.0909253
-0.0889851
-0.0877528
-0.0865798
-0.0860284
-0.0836838
-0.0778379
-0.0966471
-0.0959473
-0.0941101
-0.0941353
-0.0934976
-0.092678
-0.0913245
-0.0898623
-0.08842
-0.0872667
-0.0860199
-0.0840933
-0.0826935
-0.0829766
-0.0777903
-0.0762674
-0.0992218
-0.0986099
-0.09695
-0.096364
-0.0955486
-0.0947018
-0.0940656
-0.0932747
-0.0923792
-0.0901085
-0.0888005
-0.0883414
-0.0864106
-0.0847071
-0.0821633
-0.101481
-0.10075
-0.0992469
-0.0988394
-0.0976982
-0.0964557
-0.0958072
-0.0951409
-0.0945069
-0.0934229
-0.0926576
-0.0912842
-0.0893333
-0.0889481
-0.0878071
-0.104133
-0.101914
-0.101347
-0.100056
-0.0988863
-0.0979469
-0.096382
-0.0958375
-0.0954907
-0.0945653
-0.0937722
-0.0922862
-0.0915215
-0.0905005
-0.0896781
-0.086436
-0.104609
-0.105509
-0.105591
-0.1033
-0.102697
-0.10072
-0.0994909
-0.0983797
-0.0970646
-0.0962008
-0.095707
-0.0949605
-0.0941329
-0.0929943
-0.0918959
-0.0909419
-0.0896056
-0.110001
-0.108678
-0.10779
-0.106031
-0.10534
-0.104563
-0.103522
-0.102226
-0.101175
-0.0997522
-0.0987357
-0.0973422
-0.0964758
-0.0958243
-0.094928
-0.0945993
-0.0930876
-0.0910503
-0.112681
-0.110456
-0.110074
-0.10895
-0.107531
-0.106237
-0.104779
-0.103642
-0.10273
-0.101538
-0.100452
-0.0989
-0.0977602
-0.0970246
-0.0961849
-0.0961254
-0.0938475
-0.0937206
-0.115592
-0.114429
-0.113727
-0.112167
-0.110854
-0.10954
-0.108143
-0.106816
-0.105366
-0.10428
-0.10308
-0.102085
-0.100948
-0.099713
-0.0984591
-0.0972514
-0.0968149
-0.0954972
-0.117775
-0.115784
-0.114694
-0.11437
-0.112982
-0.111723
-0.110399
-0.108942
-0.107552
-0.106141
-0.104897
-0.103763
-0.102734
-0.101922
-0.100098
-0.0993539
-0.0994172
-0.120655
-0.119226
-0.118805
-0.11671
-0.115214
-0.114642
-0.113576
-0.112578
-0.111412
-0.109795
-0.108296
-0.106771
-0.105574
-0.104509
-0.103452
-0.102548
-0.101851
-0.122547
-0.121363
-0.121797
-0.119682
-0.118402
-0.117203
-0.116285
-0.115312
-0.114352
-0.113135
-0.111498
-0.110586
-0.109074
-0.107622
-0.106507
-0.105181
-0.104152
-0.103272
-0.125523
-0.126598
-0.124048
-0.123111
-0.12197
-0.120857
-0.119569
-0.118273
-0.117089
-0.116132
-0.115165
-0.11373
-0.112501
-0.111032
-0.109905
-0.109125
-0.10756
-0.105295
-0.126597
-0.125957
-0.125902
-0.124855
-0.124267
-0.123539
-0.122128
-0.121365
-0.120439
-0.119079
-0.117838
-0.116984
-0.115792
-0.114518
-0.113613
-0.111897
-0.110348
-0.108985
-0.12774
-0.126829
-0.126582
-0.126155
-0.125856
-0.125119
-0.123954
-0.122813
-0.12203
-0.120887
-0.119652
-0.11876
-0.117796
-0.116431
-0.11537
-0.114551
-0.11252
-0.112754
-0.1293
-0.128592
-0.129056
-0.12706
-0.126824
-0.126551
-0.125925
-0.125334
-0.124491
-0.123665
-0.122629
-0.121545
-0.120435
-0.119311
-0.118565
-0.11757
-0.116293
-0.11543
-0.130804
-0.129819
-0.129183
-0.128401
-0.12754
-0.127114
-0.126781
-0.126288
-0.125572
-0.125165
-0.124602
-0.123645
-0.122417
-0.121361
-0.120139
-0.118665
-0.117888
-0.11609
-0.134403
-0.133595
-0.132141
-0.130791
-0.129549
-0.129166
-0.128152
-0.127432
-0.12675
-0.126374
-0.125975
-0.125561
-0.125176
-0.124746
-0.123616
-0.122449
-0.121116
-0.119698
-0.133762
-0.134198
-0.133291
-0.132135
-0.131378
-0.130287
-0.129471
-0.128553
-0.127996
-0.126936
-0.126586
-0.126182
-0.125811
-0.125556
-0.124644
-0.124199
-0.123623
-0.135079
-0.135126
-0.134539
-0.134665
-0.134028
-0.133138
-0.132216
-0.131209
-0.130217
-0.129411
-0.12844
-0.127461
-0.126789
-0.126445
-0.125806
-0.125835
-0.124785
-0.124
-0.136963
-0.135945
-0.135337
-0.134972
-0.134534
-0.134169
-0.133511
-0.132786
-0.131893
-0.130914
-0.129939
-0.129103
-0.128044
-0.12715
-0.126692
-0.126228
-0.125891
-0.125117
-0.137422
-0.13721
-0.136505
-0.135597
-0.135205
-0.134889
-0.13416
-0.133657
-0.133003
-0.132416
-0.131876
-0.130712
-0.129735
-0.128682
-0.127534
-0.125878
-0.127166
-0.125568
-0.139095
-0.138872
-0.138257
-0.137671
-0.136927
-0.13626
-0.13561
-0.13504
-0.134545
-0.133974
-0.133348
-0.132755
-0.132213
-0.131253
-0.130644
-0.129387
-0.128883
-0.128172
-0.140655
-0.139938
-0.139457
-0.139212
-0.138635
-0.138225
-0.137367
-0.136625
-0.13596
-0.135337
-0.134728
-0.13426
-0.133816
-0.133032
-0.132646
-0.131707
-0.131999
-0.129816
-0.141778
-0.141197
-0.140386
-0.139981
-0.139601
-0.139181
-0.138662
-0.137982
-0.137097
-0.136476
-0.135784
-0.135088
-0.134454
-0.133972
-0.133137
-0.132947
-0.132497
-0.132233
-0.143418
-0.142799
-0.142119
-0.141493
-0.140879
-0.140482
-0.139987
-0.139618
-0.13915
-0.138611
-0.137719
-0.137075
-0.136314
-0.135799
-0.134963
-0.134265
-0.136114
-0.132066
-0.144749
-0.143969
-0.143443
-0.142606
-0.141969
-0.141369
-0.14088
-0.140457
-0.140041
-0.139611
-0.139193
-0.138485
-0.137656
-0.136862
-0.136061
-0.134692
-0.134601
-0.133994
-0.145123
-0.144868
-0.144676
-0.144105
-0.143286
-0.142502
-0.141845
-0.141313
-0.140879
-0.140461
-0.140022
-0.139588
-0.138985
-0.13832
-0.137637
-0.136598
-0.135757
-0.135007
-0.146282
-0.145836
-0.145352
-0.145224
-0.144554
-0.143829
-0.143051
-0.142306
-0.14169
-0.141267
-0.140855
-0.140407
-0.140032
-0.139509
-0.138818
-0.138466
-0.137736
-0.13624
-0.148934
-0.146926
-0.146822
-0.146476
-0.14613
-0.1457
-0.145106
-0.144419
-0.143639
-0.14288
-0.142076
-0.141583
-0.14114
-0.140743
-0.140346
-0.14008
-0.13958
-0.139194
-0.148125
-0.148513
-0.148001
-0.14729
-0.146943
-0.146694
-0.146169
-0.145552
-0.144948
-0.144032
-0.143392
-0.142543
-0.141972
-0.141432
-0.141079
-0.140782
-0.140475
-0.139611
-0.148933
-0.148817
-0.148479
-0.148013
-0.147569
-0.147081
-0.146808
-0.146448
-0.145885
-0.145269
-0.144577
-0.143804
-0.143111
-0.142511
-0.141915
-0.14117
-0.140141
-0.139927
-0.151
-0.149557
-0.149044
-0.14878
-0.148509
-0.148007
-0.147395
-0.147135
-0.146691
-0.146202
-0.145637
-0.144946
-0.144289
-0.143646
-0.143092
-0.142499
-0.141668
-0.151322
-0.151862
-0.150726
-0.15004
-0.149486
-0.149105
-0.148846
-0.148498
-0.147754
-0.147255
-0.146922
-0.146501
-0.145993
-0.145422
-0.144743
-0.144223
-0.143594
-0.143037
-0.152579
-0.152265
-0.151748
-0.151058
-0.150427
-0.149892
-0.149531
-0.14913
-0.148846
-0.148229
-0.147518
-0.147169
-0.146751
-0.146311
-0.145751
-0.145163
-0.144738
-0.143505
-0.153855
-0.152938
-0.152745
-0.152051
-0.151515
-0.150837
-0.150274
-0.149829
-0.149326
-0.149064
-0.148653
-0.148083
-0.147576
-0.147022
-0.146572
-0.145855
-0.144876
-0.14447
-0.154193
-0.154624
-0.154206
-0.153659
-0.153084
-0.152518
-0.152065
-0.151443
-0.150738
-0.150156
-0.14966
-0.149389
-0.149072
-0.148433
-0.147927
-0.14738
-0.146928
-0.146358
-0.155931
-0.155472
-0.154723
-0.154416
-0.153882
-0.153429
-0.152889
-0.152428
-0.151873
-0.151208
-0.150636
-0.149954
-0.14965
-0.149326
-0.148828
-0.148294
-0.14794
-0.147249
-0.156808
-0.156617
-0.155981
-0.155318
-0.154833
-0.154321
-0.153807
-0.153209
-0.152709
-0.152211
-0.15167
-0.151071
-0.150483
-0.150081
-0.14959
-0.149293
-0.148597
-0.148201
-0.159592
-0.157068
-0.156854
-0.156339
-0.155737
-0.155267
-0.154753
-0.15422
-0.153623
-0.15297
-0.152445
-0.151973
-0.15137
-0.150825
-0.150464
-0.149964
-0.149442
-0.149443
-0.158758
-0.158401
-0.158089
-0.157306
-0.156789
-0.156224
-0.155733
-0.155207
-0.154695
-0.154074
-0.153385
-0.152864
-0.152338
-0.151666
-0.151276
-0.150759
-0.150842
-0.159572
-0.160273
-0.159392
-0.159284
-0.158663
-0.157913
-0.157253
-0.15669
-0.156212
-0.155702
-0.155182
-0.154623
-0.153956
-0.153421
-0.15297
-0.152362
-0.151788
-0.151127
-0.161457
-0.160869
-0.160389
-0.159997
-0.159727
-0.159131
-0.158435
-0.157717
-0.157132
-0.15664
-0.156162
-0.155691
-0.155234
-0.154413
-0.153736
-0.153397
-0.15279
-0.152326
-0.161836
-0.161721
-0.161309
-0.160948
-0.160689
-0.160207
-0.15964
-0.159037
-0.158307
-0.157763
-0.157117
-0.156624
-0.156142
-0.155652
-0.155133
-0.154425
-0.153955
-0.153479
-0.163302
-0.162389
-0.162035
-0.161868
-0.161361
-0.161172
-0.160689
-0.160154
-0.159644
-0.158951
-0.158342
-0.157618
-0.157058
-0.156513
-0.156023
-0.155516
-0.155021
-0.15455
-0.163654
-0.163792
-0.162956
-0.162502
-0.162154
-0.161786
-0.161476
-0.16106
-0.160536
-0.159989
-0.159426
-0.158757
-0.158083
-0.157465
-0.156939
-0.156304
-0.155875
-0.155195
-0.164535
-0.163944
-0.163632
-0.163295
-0.162835
-0.162473
-0.162099
-0.161739
-0.161342
-0.160861
-0.160341
-0.15981
-0.159194
-0.15861
-0.157986
-0.157497
-0.156847
-0.156552
-0.165733
-0.165012
-0.164345
-0.163878
-0.163574
-0.163155
-0.162781
-0.162358
-0.161948
-0.161576
-0.161181
-0.16071
-0.160218
-0.159658
-0.159061
-0.158387
-0.158089
-0.158004
-0.166436
-0.166291
-0.165401
-0.164729
-0.164296
-0.163842
-0.163435
-0.163054
-0.162604
-0.162189
-0.161812
-0.161446
-0.161013
-0.160489
-0.159995
-0.159514
-0.159027
-0.157852
-0.167753
-0.16726
-0.167096
-0.166327
-0.165936
-0.16528
-0.164735
-0.164171
-0.163762
-0.163392
-0.163101
-0.162672
-0.162311
-0.161791
-0.161427
-0.160842
-0.160314
-0.159757
-0.159276
-0.16896
-0.168084
-0.16757
-0.167365
-0.166883
-0.166416
-0.165878
-0.165219
-0.164725
-0.164252
-0.163752
-0.163475
-0.163096
-0.162619
-0.162122
-0.161772
-0.161257
-0.160629
-0.169288
-0.16875
-0.168371
-0.1679
-0.167386
-0.166898
-0.166441
-0.165879
-0.165333
-0.164685
-0.164342
-0.163856
-0.163505
-0.16314
-0.162702
-0.162342
-0.161301
-0.170956
-0.170437
-0.16984
-0.169381
-0.168911
-0.168451
-0.167857
-0.167331
-0.166937
-0.166503
-0.165798
-0.165189
-0.164685
-0.164287
-0.163806
-0.163377
-0.162931
-0.163039
-0.171739
-0.171518
-0.17075
-0.17035
-0.169885
-0.169404
-0.168894
-0.168261
-0.167676
-0.167306
-0.166891
-0.166181
-0.165595
-0.165065
-0.164612
-0.164281
-0.163793
-0.163495
-0.174643
-0.172031
-0.171797
-0.17129
-0.170827
-0.170329
-0.169841
-0.169384
-0.168731
-0.168191
-0.167697
-0.16725
-0.166545
-0.166076
-0.165562
-0.164937
-0.164818
-0.163897
-0.173164
-0.17267
-0.172205
-0.171768
-0.171287
-0.170766
-0.170299
-0.169935
-0.169328
-0.168712
-0.16816
-0.167729
-0.167134
-0.166614
-0.166065
-0.1656
-0.165043
-0.175503
-0.174017
-0.173148
-0.172711
-0.172232
-0.171746
-0.171193
-0.17071
-0.17036
-0.169728
-0.169174
-0.168625
-0.168121
-0.16751
-0.166968
-0.166494
-0.166006
-0.176033
-0.174525
-0.175119
-0.174385
-0.173545
-0.173185
-0.17271
-0.172209
-0.171589
-0.17107
-0.170593
-0.170122
-0.169576
-0.169064
-0.168479
-0.167901
-0.167298
-0.166666
-0.177366
-0.176468
-0.175641
-0.175312
-0.174838
-0.17415
-0.173649
-0.173196
-0.172661
-0.172022
-0.171546
-0.17117
-0.17061
-0.17005
-0.169485
-0.169153
-0.167865
-0.178351
-0.177172
-0.176738
-0.175889
-0.175734
-0.175206
-0.174537
-0.17403
-0.173645
-0.173308
-0.172626
-0.172173
-0.171562
-0.171033
-0.170622
-0.170267
-0.169561
-0.179235
-0.178917
-0.178536
-0.177698
-0.176889
-0.176354
-0.175948
-0.17561
-0.174872
-0.17434
-0.173941
-0.173523
-0.1731
-0.172627
-0.17211
-0.1717
-0.171202
-0.171059
-0.180086
-0.180032
-0.179697
-0.179055
-0.178425
-0.177964
-0.176987
-0.175607
-0.175916
-0.175273
-0.174921
-0.174419
-0.173877
-0.17347
-0.172983
-0.172576
-0.171761
-0.171616
-0.183371
-0.181213
-0.180833
-0.180345
-0.179803
-0.179303
-0.178818
-0.178004
-0.176388
-0.17621
-0.175902
-0.175347
-0.174808
-0.174323
-0.173968
-0.173475
-0.172902
-0.172195
-0.183958
-0.183442
-0.182057
-0.181478
-0.180948
-0.180369
-0.179722
-0.179317
-0.17863
-0.177643
-0.176833
-0.176201
-0.175724
-0.175207
-0.174759
-0.174256
-0.173937
-0.172859
-0.183803
-0.183613
-0.184489
-0.183592
-0.182642
-0.18222
-0.181671
-0.181299
-0.180635
-0.179687
-0.178925
-0.178204
-0.177384
-0.176763
-0.176413
-0.175743
-0.175137
-0.174995
-0.174228
-0.18517
-0.184371
-0.184572
-0.184685
-0.184123
-0.183269
-0.182795
-0.182179
-0.181741
-0.181204
-0.180349
-0.179549
-0.179008
-0.178356
-0.177737
-0.177044
-0.175916
-0.176248
-0.175571
-0.18858
-0.185334
-0.185644
-0.185331
-0.184629
-0.184088
-0.1835
-0.182724
-0.182013
-0.181338
-0.180592
-0.180068
-0.179441
-0.178801
-0.178324
-0.177569
-0.176712
-0.175765
-0.189058
-0.188073
-0.18682
-0.18639
-0.185979
-0.185369
-0.184905
-0.184247
-0.18322
-0.182367
-0.181656
-0.180909
-0.180418
-0.179916
-0.179418
-0.17885
-0.178461
-0.190387
-0.189545
-0.18834
-0.187752
-0.1872
-0.186641
-0.18594
-0.185497
-0.184571
-0.183582
-0.182757
-0.181959
-0.181381
-0.180784
-0.180159
-0.179539
-0.179628
-0.191732
-0.190785
-0.189983
-0.188935
-0.188349
-0.187875
-0.187281
-0.18659
-0.185992
-0.185042
-0.184171
-0.183362
-0.182642
-0.181964
-0.181009
-0.180839
-0.180175
-0.194709
-0.193082
-0.192566
-0.191402
-0.190428
-0.189603
-0.189027
-0.188555
-0.187884
-0.187204
-0.186457
-0.185619
-0.184733
-0.18385
-0.183301
-0.182757
-0.182065
-0.180455
-0.195327
-0.194616
-0.194565
-0.193456
-0.192319
-0.19126
-0.19049
-0.189971
-0.189353
-0.188595
-0.187898
-0.187053
-0.186166
-0.185494
-0.184702
-0.184287
-0.183411
-0.197502
-0.196657
-0.196246
-0.195418
-0.194442
-0.193284
-0.192213
-0.19132
-0.190666
-0.190044
-0.18928
-0.188493
-0.187619
-0.18696
-0.185904
-0.185573
-0.185105
-0.19925
-0.198049
-0.197711
-0.197301
-0.196535
-0.195324
-0.194085
-0.193178
-0.192261
-0.191559
-0.190857
-0.190053
-0.189221
-0.188352
-0.187583
-0.18668
-0.185456
-0.199904
-0.199652
-0.198828
-0.198399
-0.197872
-0.196965
-0.195696
-0.194836
-0.193831
-0.193129
-0.192555
-0.191701
-0.190764
-0.189932
-0.188862
-0.187961
-0.187237
-0.202456
-0.200296
-0.19988
-0.199473
-0.198678
-0.19784
-0.196807
-0.195913
-0.195134
-0.194556
-0.194041
-0.193383
-0.192448
-0.191448
-0.190602
-0.190128
-0.188725
-0.203159
-0.202745
-0.201242
-0.20043
-0.199893
-0.199299
-0.197767
-0.196216
-0.195996
-0.195608
-0.195194
-0.194729
-0.193971
-0.193057
-0.192012
-0.190985
-0.190906
-0.206524
-0.20348
-0.202314
-0.20091
-0.200399
-0.199913
-0.199031
-0.197682
-0.196572
-0.196048
-0.195643
-0.195139
-0.194415
-0.193547
-0.191968
-0.191842
-0.207883
-0.206851
-0.204769
-0.203369
-0.201829
-0.201136
-0.2005
-0.199593
-0.198262
-0.19711
-0.196529
-0.196089
-0.195665
-0.195448
-0.194349
-0.211785
-0.210417
-0.209384
-0.208102
-0.206286
-0.204386
-0.202917
-0.201832
-0.20116
-0.200119
-0.199048
-0.198201
-0.197593
-0.1968
-0.196067
-0.195276
-0.213401
-0.211896
-0.211474
-0.210523
-0.208914
-0.207652
-0.205554
-0.204276
-0.203039
-0.202187
-0.200912
-0.199962
-0.199482
-0.198429
-0.19729
-0.197139
-0.212454
-0.213001
-0.212791
-0.211504
-0.211107
-0.209798
-0.208471
-0.206966
-0.205569
-0.204194
-0.203102
-0.202118
-0.200715
-0.199809
-0.19843
-0.19826
-0.214071
-0.214108
-0.213925
-0.213486
-0.213621
-0.212463
-0.211448
-0.210452
-0.209542
-0.208234
-0.207037
-0.205143
-0.204238
-0.203297
-0.201507
-0.200233
-0.218076
-0.215979
-0.214886
-0.214498
-0.214065
-0.213846
-0.212685
-0.212029
-0.211612
-0.210868
-0.20963
-0.208243
-0.2065
-0.204965
-0.203385
-0.202256
-0.218831
-0.217762
-0.216956
-0.215831
-0.215162
-0.214869
-0.214399
-0.213465
-0.212759
-0.212412
-0.211904
-0.211167
-0.209673
-0.208165
-0.206704
-0.205086
-0.220235
-0.219508
-0.218916
-0.217494
-0.21645
-0.215785
-0.215107
-0.214509
-0.214254
-0.213708
-0.2131
-0.212888
-0.213411
-0.211849
-0.209395
-0.207169
-0.222584
-0.223374
-0.221052
-0.219513
-0.218224
-0.217168
-0.216666
-0.215542
-0.214723
-0.214057
-0.21357
-0.214315
-0.21241
-0.212317
-0.21344
-0.210818
-0.227036
-0.225136
-0.223552
-0.221594
-0.220392
-0.219348
-0.21851
-0.217565
-0.216417
-0.215415
-0.214332
-0.213774
-0.213622
-0.213316
-0.211984
-0.22912
-0.22782
-0.226588
-0.224441
-0.222726
-0.221427
-0.220497
-0.219569
-0.218567
-0.217449
-0.21635
-0.215512
-0.214523
-0.213783
-0.21272
-0.213162
-0.231069
-0.229537
-0.228194
-0.226286
-0.225349
-0.223606
-0.222402
-0.221465
-0.220487
-0.219437
-0.218377
-0.217239
-0.216071
-0.214885
-0.214521
-0.212004
-0.23189
-0.231567
-0.230577
-0.2292
-0.228102
-0.226146
-0.224506
-0.223297
-0.222248
-0.221306
-0.220294
-0.219342
-0.218657
-0.217653
-0.216145
-0.234055
-0.234184
-0.231954
-0.229705
-0.228329
-0.226898
-0.22541
-0.224318
-0.223166
-0.221931
-0.221017
-0.219845
-0.219558
-0.218098
-0.234214
-0.235501
-0.234177
-0.23235
-0.230836
-0.229374
-0.227934
-0.22644
-0.225229
-0.224017
-0.22328
-0.222393
-0.220601
-0.239508
-0.238433
-0.237153
-0.236484
-0.234597
-0.233066
-0.231661
-0.229905
-0.228479
-0.227479
-0.22632
-0.225662
-0.223918
-0.223614
-0.242124
-0.240678
-0.238957
-0.238023
-0.236494
-0.235815
-0.234108
-0.232296
-0.230796
-0.229181
-0.2284
-0.22763
-0.226323
-0.224484
-0.245909
-0.243795
-0.241907
-0.240778
-0.239536
-0.238725
-0.237051
-0.235376
-0.23348
-0.231224
-0.230618
-0.228968
-0.228394
-0.226442
-0.250309
-0.247332
-0.246087
-0.243584
-0.242021
-0.241801
-0.240372
-0.238732
-0.236549
-0.234562
-0.232891
-0.232412
-0.230868
-0.228837
-0.25227
-0.251642
-0.249722
-0.247527
-0.244331
-0.242604
-0.242961
-0.242052
-0.240564
-0.23939
-0.235803
-0.2338
-0.232524
-0.232526
-0.252819
-0.252462
-0.252654
-0.251858
-0.249266
-0.248878
-0.246271
-0.244756
-0.24357
-0.242994
-0.239996
-0.237725
-0.234381
-0.253678
-0.252303
-0.249152
-0.24946
-0.24751
-0.24693
-0.243581
-0.242645
-0.240268
-0.253988
-0.253067
-0.252504
-0.249538
-0.247373
-0.248131
-0.245393
-0.243973
-0.255166
-0.253959
-0.253925
-0.250973
-0.251538
-0.250836
-0.247921
-0.25735
-0.255363
-0.257275
-0.253674
-0.253384
-0.253829
-0.253527
-0.257294
-0.257946
-0.256049
-0.254498
-0.254137
-0.262574
-0.26176
-0.26246
-0.255066
-0.257189
-0.255873
-0.279198
-0.273746
-0.266469
-0.265059
-0.260719
-0.279156
-0.278067
-0.274821
-0.27208
-0.267333
-0.270527
-0.278015
-0.274493
-0.276934
-0.270015
-0.268046
-0.276747
-0.278131
-0.277881
-0.0175297
-0.0134598
-0.00696845
-0.0205564
-0.0246562
-0.0219674
-0.0185117
-0.0183619
-0.0181986
-0.0179676
-0.00726407
0.000974627
-0.0271248
-0.0267986
-0.0293608
-0.0246182
-0.0252433
-0.023692
-0.0204872
-0.0191145
-0.0180972
-0.017065
-0.0186981
-0.0139977
-0.0100394
-0.00766266
-0.000242023
-0.0351157
-0.0343129
-0.0296183
-0.0290302
-0.0257881
-0.0276441
-0.0262874
-0.0238558
-0.0232284
-0.0216338
-0.0198495
-0.0193047
-0.0177173
-0.0173113
-0.0164175
-0.0113786
-0.00930668
-0.00706192
0.00645226
0.00855835
0.00840935
0.00903522
-0.0449527
-0.0410533
-0.0378852
-0.034811
-0.0344131
-0.0316034
-0.0294402
-0.0283933
-0.026978
-0.025848
-0.0243946
-0.0230272
-0.0221243
-0.0204559
-0.021311
-0.0151296
-0.0172342
-0.0139915
-0.0114288
-0.0100737
-0.00625279
-0.00180677
0.00306413
-0.0499146
-0.049436
-0.0466476
-0.0450069
-0.0408329
-0.0388407
-0.0359705
-0.0344183
-0.0321396
-0.0305441
-0.0297536
-0.027696
-0.0266939
-0.0246657
-0.0255205
-0.0222053
-0.0216938
-0.0155696
-0.015611
-0.0148356
-0.0145071
-0.0105726
-0.00983902
-0.00692927
-0.00333724
-0.0550765
-0.0554618
-0.051544
-0.050095
-0.0484623
-0.0472524
-0.0424437
-0.039125
-0.03688
-0.0349322
-0.0328736
-0.0313166
-0.0299247
-0.0292422
-0.0272119
-0.0253508
-0.0241673
-0.0218161
-0.0211152
-0.0202375
-0.0196492
-0.0132319
-0.0126736
-0.0103257
-0.00831869
-0.0576195
-0.0565585
-0.0559929
-0.0550964
-0.0536975
-0.051347
-0.0494404
-0.0469378
-0.0433045
-0.0402093
-0.0378218
-0.035677
-0.0338219
-0.0329893
-0.0294114
-0.0296019
-0.0281082
-0.0244028
-0.0256067
-0.0228232
-0.0217657
-0.0189726
-0.0179072
-0.0138859
-0.0118895
-0.0627318
-0.0588109
-0.0584342
-0.0576267
-0.0564862
-0.0554006
-0.0546393
-0.0523455
-0.0505903
-0.0478986
-0.044264
-0.0408086
-0.038559
-0.036979
-0.0343914
-0.0331832
-0.0332698
-0.0301263
-0.0300605
-0.026554
-0.0244454
-0.0235209
-0.0206037
-0.0201038
-0.0176871
-0.0676043
-0.0697276
-0.0675746
-0.0631453
-0.0609912
-0.059137
-0.0576791
-0.0567452
-0.0554507
-0.0548104
-0.053034
-0.0511179
-0.0487398
-0.04587
-0.0425198
-0.0404554
-0.0376764
-0.0348131
-0.0332483
-0.0330673
-0.030527
-0.027848
-0.0269429
-0.0241272
-0.0232387
-0.0232853
-0.0721834
-0.0713626
-0.0689302
-0.0689278
-0.0673607
-0.0655562
-0.0638853
-0.0617248
-0.0598726
-0.0584868
-0.0573331
-0.0558761
-0.0547282
-0.0530482
-0.0513451
-0.0495621
-0.0471794
-0.0447894
-0.0418304
-0.0397833
-0.0376
-0.0342936
-0.031587
-0.0300711
-0.0263947
-0.0262656
-0.0242594
-0.0747221
-0.0727711
-0.071488
-0.0701886
-0.0689426
-0.0673048
-0.0661655
-0.0647607
-0.0627752
-0.0609568
-0.0593607
-0.0578114
-0.0564112
-0.0549636
-0.0533342
-0.0515752
-0.0497573
-0.0479614
-0.0462975
-0.0432476
-0.0413899
-0.0416827
-0.034707
-0.0336269
-0.0297595
-0.0814847
-0.0800526
-0.0764438
-0.07488
-0.0731039
-0.0717556
-0.070524
-0.0694645
-0.067987
-0.0664716
-0.0649826
-0.0635449
-0.0620583
-0.0604411
-0.0583521
-0.056571
-0.0552866
-0.0538356
-0.0519157
-0.0502039
-0.0487263
-0.0468534
-0.0445907
-0.044094
-0.0394108
-0.0844652
-0.0817974
-0.0804372
-0.0779901
-0.0760915
-0.0745521
-0.0725389
-0.071231
-0.0699694
-0.0690515
-0.0673368
-0.0657466
-0.0640672
-0.0632387
-0.0614542
-0.0591601
-0.057306
-0.0558746
-0.0546146
-0.052411
-0.050879
-0.0495403
-0.0478481
-0.0461736
-0.0891706
-0.0857365
-0.0868479
-0.08471
-0.083454
-0.081194
-0.0791474
-0.07706
-0.0754074
-0.0734297
-0.0718289
-0.070626
-0.0696619
-0.0679769
-0.066738
-0.0651362
-0.0641072
-0.0628038
-0.0603482
-0.0582914
-0.0566028
-0.0548131
-0.0529665
-0.0516236
-0.0504524
-0.0893993
-0.0897143
-0.0888345
-0.0871915
-0.0866089
-0.0854694
-0.0839261
-0.0822213
-0.0802315
-0.0778496
-0.0760646
-0.074362
-0.0727618
-0.0714055
-0.0702046
-0.0690884
-0.0672853
-0.0660585
-0.0652612
-0.0641896
-0.0618227
-0.0595123
-0.0574709
-0.0554506
-0.0540508
-0.0932609
-0.0920585
-0.0911472
-0.0901697
-0.0888212
-0.0877691
-0.0864974
-0.0858075
-0.084703
-0.0830753
-0.0813299
-0.0793893
-0.077082
-0.0754283
-0.0737289
-0.0723341
-0.0709663
-0.0697564
-0.0680755
-0.0667693
-0.0661712
-0.0650046
-0.0634754
-0.0604624
-0.0597403
-0.0970878
-0.0969946
-0.0941899
-0.0935884
-0.0930221
-0.0921392
-0.091461
-0.0894294
-0.0883004
-0.0869125
-0.0861473
-0.0853683
-0.0839408
-0.081918
-0.0799285
-0.077889
-0.0762325
-0.0744747
-0.07343
-0.0722272
-0.0704496
-0.0688619
-0.0675757
-0.0666353
-0.065324
-0.0639322
-0.100133
-0.0974515
-0.0973121
-0.0961823
-0.0949304
-0.0943803
-0.0938204
-0.0933387
-0.0922893
-0.0904279
-0.0886897
-0.0874687
-0.0867066
-0.0857409
-0.0843948
-0.0824586
-0.080691
-0.0786933
-0.0765205
-0.0753009
-0.0739127
-0.0729599
-0.0712869
-0.0700153
-0.0691192
-0.0685398
-0.098319
-0.101064
-0.101173
-0.0990631
-0.0977719
-0.0967799
-0.0957551
-0.0949611
-0.0943844
-0.0938239
-0.0930804
-0.091324
-0.0895923
-0.0882283
-0.0874373
-0.0862078
-0.0844375
-0.0825082
-0.0814578
-0.0800043
-0.0776245
-0.0763975
-0.0752454
-0.0740175
-0.071854
-0.071593
-0.0701073
-0.105134
-0.101918
-0.101607
-0.101327
-0.100572
-0.0995896
-0.0983584
-0.0971917
-0.0961709
-0.0953817
-0.0947346
-0.0940695
-0.093246
-0.0920209
-0.090437
-0.0890925
-0.0882036
-0.0867977
-0.0846121
-0.0826984
-0.0819574
-0.0801352
-0.0787801
-0.077489
-0.0764193
-0.0750363
-0.0720479
-0.106786
-0.105238
-0.104149
-0.102875
-0.102028
-0.101036
-0.0999666
-0.0987863
-0.0976534
-0.0965664
-0.0957181
-0.0950559
-0.0943581
-0.0934682
-0.0923326
-0.0911245
-0.0900019
-0.0890198
-0.0874909
-0.0855313
-0.0835042
-0.0821171
-0.0802804
-0.0797214
-0.0789183
-0.076742
-0.108024
-0.108637
-0.106919
-0.105928
-0.10455
-0.103495
-0.102661
-0.101367
-0.100418
-0.0992461
-0.0981067
-0.0969115
-0.0959764
-0.0953409
-0.0946253
-0.0937267
-0.0926661
-0.0915681
-0.0905874
-0.0897082
-0.0882557
-0.0871631
-0.0845147
-0.0825424
-0.0814232
-0.0798035
-0.11147
-0.111333
-0.109064
-0.108952
-0.107533
-0.106097
-0.1049
-0.103866
-0.103065
-0.101986
-0.100753
-0.0995474
-0.0984586
-0.0973111
-0.0962774
-0.0956125
-0.0949323
-0.0940793
-0.0929973
-0.091864
-0.0909234
-0.0899481
-0.0889201
-0.0878202
-0.0854706
-0.0833733
-0.114874
-0.112656
-0.111803
-0.110631
-0.109511
-0.108179
-0.106567
-0.10547
-0.104409
-0.103347
-0.10224
-0.101075
-0.0998659
-0.0987068
-0.0975535
-0.0966657
-0.0959648
-0.0952493
-0.0943963
-0.0933033
-0.0921708
-0.0911124
-0.0899457
-0.0891883
-0.0876799
-0.118059
-0.11523
-0.11478
-0.113558
-0.112609
-0.111569
-0.110165
-0.108786
-0.107332
-0.106011
-0.104792
-0.103677
-0.102614
-0.101502
-0.10031
-0.0990415
-0.0979398
-0.0971079
-0.0963395
-0.0955287
-0.0946917
-0.0936097
-0.0926026
-0.0915871
-0.090261
-0.0886545
-0.119222
-0.118356
-0.117541
-0.116414
-0.115029
-0.114118
-0.113255
-0.112239
-0.110869
-0.109474
-0.108046
-0.106652
-0.105336
-0.104156
-0.103123
-0.102048
-0.100845
-0.0995213
-0.0984694
-0.0975604
-0.0966817
-0.0957956
-0.0951425
-0.0940257
-0.0929607
-0.0900259
-0.121098
-0.121907
-0.120246
-0.119401
-0.118203
-0.11698
-0.115711
-0.114683
-0.113821
-0.112817
-0.111547
-0.110209
-0.108797
-0.107391
-0.106055
-0.104854
-0.103776
-0.102691
-0.1016
-0.100256
-0.0989981
-0.098053
-0.0971654
-0.0963528
-0.0952951
-0.0941025
-0.0937268
-0.124996
-0.123114
-0.122294
-0.121242
-0.120157
-0.118976
-0.117726
-0.116449
-0.115355
-0.114481
-0.113438
-0.112249
-0.11098
-0.109566
-0.108126
-0.106799
-0.105568
-0.104509
-0.103349
-0.102312
-0.101203
-0.0999656
-0.0987461
-0.0976594
-0.0965338
-0.0951487
-0.125323
-0.124958
-0.124783
-0.124276
-0.12312
-0.122083
-0.121071
-0.119908
-0.118492
-0.117263
-0.116246
-0.115323
-0.11428
-0.112981
-0.111661
-0.110239
-0.108747
-0.107561
-0.106288
-0.105137
-0.104117
-0.103235
-0.10209
-0.101074
-0.100985
-0.0986041
-0.127777
-0.126135
-0.125702
-0.125385
-0.125097
-0.123908
-0.122709
-0.121897
-0.120743
-0.119365
-0.118186
-0.117163
-0.116236
-0.115138
-0.113555
-0.112125
-0.110832
-0.109441
-0.108302
-0.107262
-0.106254
-0.105107
-0.104086
-0.103143
-0.1021
-0.128818
-0.128028
-0.127361
-0.126743
-0.126218
-0.125901
-0.125576
-0.124622
-0.123318
-0.122456
-0.121445
-0.120161
-0.119029
-0.118051
-0.11713
-0.115975
-0.114407
-0.112909
-0.111672
-0.110512
-0.109339
-0.108291
-0.107271
-0.106506
-0.106205
-0.130148
-0.129024
-0.128339
-0.12776
-0.12711
-0.126598
-0.126188
-0.125798
-0.124998
-0.12383
-0.122928
-0.122007
-0.12082
-0.119665
-0.118729
-0.11783
-0.116782
-0.11545
-0.113886
-0.112554
-0.111589
-0.110562
-0.109624
-0.107797
-0.106425
-0.133047
-0.131531
-0.130533
-0.129632
-0.12872
-0.128095
-0.127453
-0.126892
-0.126475
-0.125921
-0.12523
-0.124418
-0.123678
-0.12269
-0.121457
-0.120249
-0.119317
-0.118336
-0.117342
-0.116153
-0.114646
-0.113441
-0.112192
-0.110993
-0.110468
-0.133837
-0.133133
-0.132319
-0.131009
-0.130035
-0.129139
-0.128492
-0.127756
-0.12717
-0.126695
-0.126199
-0.125581
-0.125056
-0.124492
-0.123572
-0.122364
-0.121122
-0.119946
-0.118789
-0.117743
-0.116509
-0.115174
-0.113804
-0.112664
-0.111418
-0.135398
-0.134223
-0.134079
-0.133631
-0.133007
-0.131735
-0.130472
-0.129583
-0.128927
-0.128176
-0.12743
-0.126864
-0.126437
-0.125916
-0.125505
-0.125139
-0.124359
-0.123382
-0.122296
-0.120897
-0.119678
-0.118448
-0.116902
-0.115757
-0.114684
-0.13538
-0.135373
-0.134765
-0.13437
-0.13398
-0.133543
-0.132606
-0.131294
-0.130304
-0.129516
-0.128663
-0.127827
-0.127144
-0.126581
-0.126156
-0.125784
-0.125498
-0.124947
-0.124057
-0.123058
-0.121751
-0.120358
-0.119093
-0.118793
-0.136664
-0.137105
-0.13611
-0.135625
-0.135199
-0.134776
-0.134328
-0.133911
-0.133285
-0.132323
-0.13131
-0.130332
-0.12931
-0.128367
-0.127498
-0.126835
-0.126351
-0.12595
-0.125576
-0.125011
-0.124387
-0.123584
-0.12251
-0.121413
-0.120183
-0.138295
-0.137747
-0.137076
-0.136511
-0.136015
-0.135505
-0.13498
-0.134591
-0.134194
-0.13366
-0.132966
-0.132068
-0.131112
-0.130047
-0.128983
-0.12802
-0.127233
-0.126673
-0.126268
-0.125743
-0.125105
-0.124345
-0.123664
-0.122937
-0.13944
-0.139329
-0.138562
-0.13817
-0.137601
-0.136968
-0.136408
-0.135834
-0.135211
-0.134786
-0.134326
-0.133852
-0.133319
-0.13262
-0.13184
-0.130764
-0.129556
-0.128683
-0.127892
-0.127082
-0.126639
-0.126081
-0.125645
-0.125188
-0.12439
-0.140712
-0.14021
-0.13954
-0.13906
-0.138581
-0.138065
-0.137472
-0.136831
-0.136172
-0.135517
-0.135017
-0.134553
-0.134063
-0.133565
-0.132995
-0.132445
-0.131602
-0.130413
-0.129461
-0.128645
-0.127885
-0.127335
-0.126559
-0.125613
-0.142353
-0.141811
-0.141235
-0.140673
-0.140029
-0.139506
-0.139044
-0.138566
-0.137973
-0.137315
-0.136577
-0.135927
-0.135345
-0.134783
-0.134224
-0.133724
-0.133215
-0.13276
-0.132189
-0.131095
-0.130218
-0.129323
-0.128797
-0.127348
-0.126371
-0.143684
-0.143013
-0.142366
-0.141677
-0.141048
-0.140481