/*--------------------------------*- C++ -*----------------------------------*\
  =========                 |
  \\      /  F ield         | OpenFOAM: The Open Source CFD Toolbox
   \\    /   O peration     | Website:  https://openfoam.org
    \\  /    A nd           | Version:  8
     \\/     M anipulation  |
\*---------------------------------------------------------------------------*/
FoamFile
{
    version     2.0;
    format      ascii;
    class       volScalarField;
    location    "40";
    object      p;
}
// * * * * * * * * * * * * * * * * * * * * * * * * * * * * * * * * * * * * * //

dimensions      [0 2 -2 0 0 0 0];

internalField   nonuniform List<scalar> 
404911
(
-35.8548
-35.8149
-35.8052
-35.8386
-35.9261
-35.8505
-35.8255
-35.831
-35.8373
-35.8383
-36.3276
-36.2402
-36.1276
-36.0189
-35.9183
-35.8543
-36.4993
-36.395
-36.2958
-36.1906
-36.7314
-36.604
-36.4877
-36.9597
-36.8714
-36.7738
-37.1609
-37.0409
-36.9569
-37.5026
-37.3945
-37.269
-37.125
-37.0055
-37.6851
-37.5363
-37.3996
-38.09
-37.972
-37.8517
-37.7479
-38.2928
-38.2088
-38.0863
-37.9766
-37.9033
-38.4009
-38.3069
-38.2026
-38.0819
-38.5798
-38.5091
-38.3971
-38.3035
-38.6099
-38.5801
-39.3334
-35.7776
-35.9092
-35.826
-36.2206
-36.1316
-36.5083
-36.399
-36.3016
-36.7305
-36.6185
-36.5008
-36.9455
-36.8396
-37.1657
-37.055
-36.9479
-37.3919
-37.2854
-37.1525
-37.0402
-37.6666
-37.5359
-37.9549
-37.8202
-38.2007
-38.1026
-37.9524
-38.4192
-38.3073
-38.6055
-38.5252
-38.4088
-38.6759
-38.6105
-39.3352
-39.4208
-39.3327
-39.7846
-39.6628
-39.5391
-40.0018
-39.9007
-39.7772
-40.1956
-40.1037
-40.0199
-40.1926
-17.7741
-17.5798
-17.363
-18.6742
-18.4617
-18.2903
-18.0754
-17.9054
-17.6878
-17.458
-17.1216
-19.1914
-19.0198
-18.6013
-18.4355
-18.1903
-18.0191
-17.8113
-17.5588
-16.9006
-19.8087
-19.6464
-19.4809
-19.2948
-19.1116
-18.9106
-18.6787
-18.5357
-18.3326
-18.1257
-17.8812
-17.6659
-17.4198
-17.1994
-16.9971
-16.7452
-20.3318
-20.1266
-19.9295
-19.7547
-19.5786
-19.3982
-19.2065
-19.01
-18.7947
-18.6177
-18.4334
-18.2457
-17.9874
-17.8088
-17.1028
-20.7862
-20.6057
-20.422
-20.2253
-20.0264
-19.8433
-19.6692
-19.4984
-19.3126
-19.1168
-18.9308
-18.7313
-18.5245
-18.3301
-18.114
-21.094
-20.9332
-20.7385
-20.5611
-20.3724
-20.1798
-19.9469
-19.7534
-19.5941
-19.407
-19.2243
-19.0291
-18.8368
-18.6336
-18.4257
-18.208
-21.5759
-21.4112
-21.2282
-21.0375
-20.847
-20.6526
-20.4616
-20.2531
-20.0711
-19.8375
-19.6807
-19.5069
-19.3275
-19.1378
-18.9431
-18.7367
-18.5479
-22.2132
-22.0431
-21.9078
-21.698
-21.5127
-21.3264
-21.1325
-20.9482
-20.7588
-20.5716
-20.3574
-20.1754
-19.9558
-19.7808
-19.6019
-19.4276
-19.245
-19.0614
-22.5293
-22.3294
-22.1632
-22.0021
-21.8249
-21.6235
-21.4446
-21.2456
-21.0555
-20.868
-20.6846
-20.4797
-20.2456
-20.0639
-19.8843
-19.7014
-19.5236
-19.2961
-23.0387
-22.8388
-22.6627
-22.4658
-22.2967
-22.1216
-21.9455
-21.7494
-21.5558
-21.3629
-21.163
-20.9877
-20.8074
-20.6228
-20.4327
-20.1633
-19.9788
-19.8196
-23.3864
-23.1917
-22.9848
-22.7813
-22.6016
-22.4166
-22.2467
-22.0585
-21.8725
-21.6867
-21.4827
-21.2867
-21.1028
-20.9115
-20.7313
-20.5301
-20.3011
-23.8706
-23.7034
-23.5175
-23.3395
-23.1271
-22.9298
-22.7343
-22.5505
-22.38
-22.1841
-22.0037
-21.7978
-21.6011
-21.4105
-21.2216
-21.0334
-20.8457
-24.2852
-24.1514
-23.9929
-23.8254
-23.6515
-23.4462
-23.2454
-23.0511
-22.8676
-22.6897
-22.5203
-22.3087
-22.1182
-21.9125
-21.7204
-21.5235
-21.344
-21.12
-24.7176
-24.5163
-24.3858
-24.2439
-24.0523
-23.9472
-23.7483
-23.5599
-23.352
-23.1502
-22.975
-22.7947
-22.6244
-22.435
-22.2428
-22.0346
-21.8392
-21.6326
-25.0909
-24.9246
-24.7815
-24.6331
-24.4712
-24.3124
-24.144
-24.0119
-23.8533
-23.6637
-23.4575
-23.2421
-23.101
-22.9006
-22.7241
-22.5557
-22.3696
-22.1585
-25.3378
-25.1951
-25.0335
-24.871
-24.7427
-24.5506
-24.3897
-24.242
-24.0657
-23.9502
-23.7446
-23.5161
-23.3407
-23.1945
-22.9848
-22.8255
-22.6375
-22.4914
-25.8172
-25.6657
-25.4881
-25.3155
-25.1475
-24.9753
-24.8172
-24.6937
-24.4961
-24.333
-24.1583
-24.0337
-23.8668
-23.6686
-23.4157
-23.2721
-23.0683
-22.9263
-26.0809
-25.9214
-25.7671
-25.6136
-25.4243
-25.2157
-25.0915
-24.9122
-24.7472
-24.6135
-24.4524
-24.2723
-24.1147
-23.9501
-23.7816
-23.5356
-23.383
-23.1561
-26.4722
-26.3062
-26.193
-26.0459
-25.8667
-25.7236
-25.5443
-25.3368
-25.1621
-24.9958
-24.8172
-24.6855
-24.5375
-24.3819
-24.2169
-24.0348
-23.8574
-23.6825
-26.692
-26.5476
-26.4211
-26.2828
-26.1418
-25.9874
-25.8231
-25.6498
-25.4535
-25.268
-25.0966
-24.9211
-24.7781
-24.6196
-24.4698
-24.33
-24.1541
-27.0488
-26.9182
-26.79
-26.6465
-26.5226
-26.4029
-26.262
-26.1117
-25.9507
-25.7678
-25.5746
-25.3839
-25.2041
-25.0357
-24.8935
-24.7222
-24.5621
-24.4113
-27.2582
-27.1401
-27.0001
-26.8754
-26.7513
-26.646
-26.506
-26.3836
-26.2506
-26.0779
-25.8898
-25.7122
-25.5057
-25.3238
-25.1548
-25.0044
-24.8338
-24.6957
-27.4917
-27.3478
-27.2214
-27.0972
-26.9657
-26.8296
-26.7319
-26.6159
-26.4982
-26.3808
-26.2419
-26.0173
-25.8261
-25.6386
-25.4418
-25.2526
-25.1034
-24.8882
-27.8418
-27.7185
-27.5892
-27.4478
-27.3094
-27.2007
-27.0699
-26.9393
-26.7967
-26.6908
-26.5733
-26.4545
-26.3185
-26.1705
-25.9298
-25.7691
-25.5598
-25.4335
-28.1771
-28.0598
-27.9311
-27.8048
-27.6768
-27.5421
-27.4048
-27.2803
-27.1812
-27.047
-26.9245
-26.8105
-26.6754
-26.5408
-26.4053
-26.2553
-26.0803
-25.8912
-28.3754
-28.264
-28.1494
-28.0286
-27.9057
-27.7733
-27.6392
-27.5105
-27.3616
-27.2258
-27.1234
-27.027
-26.9136
-26.7764
-26.6344
-26.5099
-26.3503
-26.2281
-28.6946
-28.5869
-28.4664
-28.3524
-28.2363
-28.1183
-27.9951
-27.8631
-27.7332
-27.6107
-27.4574
-27.3382
-27.2178
-27.0964
-26.9947
-26.884
-26.7636
-26.6135
-28.8842
-28.7882
-28.6852
-28.5666
-28.4441
-28.3244
-28.2054
-28.0834
-27.9545
-27.8241
-27.7045
-27.5702
-27.4484
-27.3284
-27.2026
-27.0868
-26.9599
-26.84
-29.0575
-28.9755
-28.8832
-28.7758
-28.658
-28.5349
-28.4128
-28.2918
-28.1705
-28.0453
-27.9173
-27.7893
-27.6581
-27.5326
-27.4102
-27.3032
-27.1762
-27.0565
-29.2297
-29.1359
-29.0483
-28.9626
-28.8538
-28.7441
-28.6241
-28.4985
-28.3784
-28.2573
-28.1354
-28.0117
-27.8843
-27.7504
-27.6257
-27.5065
-27.4027
-27.2189
-29.557
-29.4237
-29.3057
-29.1943
-29.1196
-29.034
-28.9346
-28.8296
-28.7147
-28.605
-28.4608
-28.3455
-28.2269
-28.1097
-27.9856
-27.8573
-27.7232
-27.6015
-29.7556
-29.6389
-29.5269
-29.4005
-29.2996
-29.2166
-29.1193
-29.0174
-28.9148
-28.7866
-28.6847
-28.5557
-28.4362
-28.3186
-28.2095
-28.0919
-27.9649
-27.832
-29.9582
-29.8568
-29.7419
-29.6282
-29.5044
-29.3891
-29.2936
-29.2004
-29.0999
-28.9977
-28.8926
-28.7765
-28.6536
-28.5299
-28.4092
-28.3039
-28.1795
-28.0458
-30.1675
-30.0537
-29.9426
-29.8369
-29.7335
-29.6139
-29.5024
-29.3874
-29.292
-29.1902
-29.0831
-28.9748
-28.8614
-28.7391
-28.6188
-28.507
-28.3997
-30.4838
-30.3726
-30.2601
-30.1436
-30.0331
-29.9225
-29.831
-29.7244
-29.6229
-29.4836
-29.386
-29.2819
-29.1734
-29.0647
-28.9552
-28.8405
-28.7132
-28.5972
-30.6685
-30.5633
-30.4517
-30.3413
-30.2371
-30.1246
-30.0043
-29.9098
-29.8276
-29.717
-29.5714
-29.4786
-29.3719
-29.2649
-29.1521
-29.0439
-28.9411
-28.8129
-30.8613
-30.7607
-30.6508
-30.537
-30.43
-30.3257
-30.217
-30.1174
-29.9888
-29.9175
-29.8248
-29.7079
-29.571
-29.4651
-29.3543
-29.2358
-29.1243
-28.9749
-31.1523
-31.0615
-30.9489
-30.8433
-30.7388
-30.6259
-30.5227
-30.4141
-30.3162
-30.2053
-30.0906
-29.9975
-29.9155
-29.7964
-29.6734
-29.5595
-29.4512
-29.3288
-31.3509
-31.2484
-31.148
-31.0513
-30.9383
-30.8294
-30.7198
-30.6172
-30.5044
-30.4151
-30.3098
-30.1825
-30.0823
-30.0061
-29.8938
-29.777
-29.6568
-29.5523
-31.5415
-31.4424
-31.3408
-31.2395
-31.1416
-31.0324
-30.9223
-30.813
-30.714
-30.6314
-30.5601
-30.4149
-30.3041
-30.1951
-30.0998
-29.9866
-29.8721
-29.748
-31.7586
-31.6421
-31.5333
-31.4302
-31.3308
-31.2314
-31.1232
-31.0155
-30.9084
-30.7979
-30.7077
-30.6463
-30.5278
-30.419
-30.317
-30.2093
-30.0936
-29.9337
-31.9397
-31.8474
-31.7359
-31.6204
-31.5201
-31.4212
-31.3208
-31.2123
-31.1055
-31.003
-30.8814
-30.7783
-30.7165
-30.6215
-30.5155
-30.4177
-30.3094
-32.2288
-32.1277
-32.0329
-31.9397
-31.8325
-31.7163
-31.6142
-31.5128
-31.4088
-31.3015
-31.1943
-31.1053
-30.9877
-30.8845
-30.7894
-30.7168
-30.6095
-30.511
-32.4074
-32.3086
-32.2162
-32.121
-32.0248
-31.9214
-31.8152
-31.7058
-31.6027
-31.4915
-31.388
-31.282
-31.1881
-31.0852
-30.9801
-30.8856
-30.8026
-30.7001
-32.5909
-32.497
-32.4005
-32.3045
-32.2109
-32.1112
-32.0072
-31.9079
-31.7985
-31.7016
-31.5762
-31.4699
-31.367
-31.2669
-31.1757
-31.0826
-30.9849
-30.8854
-32.79
-32.6886
-32.5907
-32.4944
-32.3969
-32.2984
-32.1963
-32.0951
-32.0005
-31.8821
-31.7914
-31.6745
-31.5615
-31.4575
-31.3524
-31.253
-31.1731
-31.0754
-32.9831
-32.8852
-32.7858
-32.6867
-32.5882
-32.4886
-32.3863
-32.284
-32.1828
-32.0864
-31.9933
-31.8912
-31.7816
-31.669
-31.5596
-31.4552
-31.3507
-31.2634
-33.1785
-33.0854
-32.9871
-32.8857
-32.7852
-32.6835
-32.5803
-32.4768
-32.3727
-32.2723
-32.1714
-32.0737
-31.9757
-31.8718
-31.7647
-31.6611
-31.5511
-31.452
-33.365
-33.2717
-33.1779
-33.0811
-32.9806
-32.8807
-32.7781
-32.6704
-32.5631
-32.4598
-32.3587
-32.2622
-32.1631
-32.0645
-31.9633
-31.86
-31.7541
-31.6553
-33.5483
-33.4538
-33.3538
-33.2591
-33.1626
-33.064
-32.9672
-32.8702
-32.7562
-32.645
-32.5441
-32.4453
-32.3514
-32.2545
-32.1554
-32.0594
-31.9559
-31.84
-33.8283
-33.7296
-33.6314
-33.5317
-33.4374
-33.3391
-33.2494
-33.1271
-33.0302
-32.9501
-32.8692
-32.7456
-32.6423
-32.5363
-32.4438
-32.3415
-32.2421
-32.1438
-32.0414
-34.0119
-33.9099
-33.8096
-33.7074
-33.608
-33.5177
-33.4185
-33.3342
-33.2324
-33.1211
-33.0124
-32.9421
-32.8454
-32.7353
-32.6267
-32.5345
-32.4286
-32.3341
-34.1048
-34.0078
-33.9037
-33.8001
-33.6961
-33.6021
-33.5262
-33.459
-33.328
-33.2109
-33.1178
-33.0036
-32.9252
-32.8279
-32.7295
-32.629
-32.5213
-34.3986
-34.2995
-34.1989
-34.0991
-33.996
-33.8904
-33.7874
-33.6926
-33.6186
-33.5412
-33.4183
-33.3089
-33.2021
-33.0942
-33.0028
-32.9095
-32.8158
-32.7126
-34.5908
-34.4945
-34.3935
-34.2937
-34.1947
-34.0927
-33.9852
-33.8744
-33.7762
-33.7051
-33.6335
-33.5074
-33.3995
-33.2862
-33.1907
-33.0912
-32.9956
-32.9129
-34.8367
-34.707
-34.5984
-34.493
-34.3906
-34.2895
-34.1909
-34.086
-33.9598
-33.8501
-33.7795
-33.7134
-33.5943
-33.4883
-33.382
-33.2854
-33.1816
-33.0845
-34.9151
-34.8089
-34.7011
-34.5911
-34.4849
-34.3806
-34.288
-34.2034
-34.0688
-33.9468
-33.8451
-33.774
-33.6782
-33.5748
-33.4777
-33.3771
-33.273
-35.1131
-35.0112
-34.8864
-34.7923
-34.684
-34.575
-34.4673
-34.3743
-34.3041
-34.1674
-34.0435
-33.9368
-33.8476
-33.7543
-33.6566
-33.5656
-33.4671
-35.3434
-35.2611
-35.1821
-35.0911
-34.9731
-34.8808
-34.7755
-34.6691
-34.5485
-34.448
-34.3807
-34.2609
-34.1267
-34.0337
-33.9391
-33.8359
-33.7311
-33.6465
-35.5394
-35.4512
-35.3525
-35.272
-35.1792
-35.0708
-34.9694
-34.8676
-34.7625
-34.6405
-34.5247
-34.4433
-34.3462
-34.2237
-34.1226
-34.028
-33.9172
-35.7666
-35.6566
-35.5429
-35.4482
-35.3679
-35.2586
-35.1523
-35.0508
-34.9627
-34.8703
-34.7503
-34.6318
-34.5176
-34.4215
-34.313
-34.2088
-34.1113
-36.0708
-35.9729
-35.8634
-35.753
-35.6508
-35.5431
-35.4466
-35.3533
-35.2217
-35.1223
-35.0212
-34.9361
-34.8523
-34.7422
-34.6257
-34.5176
-34.4056
-34.3235
-36.2598
-36.161
-36.0652
-35.9561
-35.8531
-35.7474
-35.6427
-35.5299
-35.4218
-35.289
-35.2161
-35.1058
-34.9839
-34.913
-34.8289
-34.7173
-34.6067
-34.4973
-36.4523
-36.3411
-36.2399
-36.1613
-36.0424
-35.9416
-35.8359
-35.7289
-35.6255
-35.5125
-35.4016
-35.2981
-35.1898
-35.089
-34.9965
-34.9148
-34.8089
-34.6971
-36.6428
-36.5545
-36.4345
-36.3384
-36.237
-36.1305
-36.0297
-35.9261
-35.8204
-35.7134
-35.6031
-35.489
-35.3765
-35.2692
-35.1685
-35.0937
-34.9974
-34.8928
-36.9179
-36.8298
-36.732
-36.6372
-36.5277
-36.4206
-36.3146
-36.2102
-36.1176
-36.012
-35.9018
-35.8006
-35.6876
-35.5686
-35.4663
-35.3502
-35.2498
-35.1681
-35.0733
-37.1005
-37.0264
-36.9255
-36.8316
-36.7252
-36.6201
-36.5089
-36.4003
-36.304
-36.2079
-36.1035
-35.9955
-35.8951
-35.792
-35.671
-35.5553
-35.4436
-35.3482
-35.2588
-37.2524
-37.1355
-37.0277
-36.9315
-36.8302
-36.7206
-36.6217
-36.5043
-36.3973
-36.3045
-36.1983
-36.0901
-35.9869
-35.8805
-35.7721
-35.6622
-35.5438
-35.3974
-37.4812
-37.3583
-37.2474
-37.1438
-37.044
-36.943
-36.8329
-36.7281
-36.632
-36.5087
-36.4058
-36.2899
-36.1895
-36.0852
-35.9812
-35.8805
-35.7742
-37.7573
-37.6197
-37.489
-37.3746
-37.2615
-37.1598
-37.0505
-36.9444
-36.8374
-36.7306
-36.6169
-36.5162
-36.3989
-36.2875
-36.1815
-36.0812
-35.9864
-38.0484
-37.873
-37.7605
-37.6312
-37.5108
-37.4036
-37.2895
-37.1677
-37.0598
-36.9321
-36.8342
-36.7225
-36.62
-36.5046
-36.3986
-36.2908
-36.1948
-38.4451
-38.326
-38.1895
-38.0496
-37.9077
-37.7798
-37.6549
-37.5359
-37.4097
-37.2841
-37.1743
-37.0573
-36.9403
-36.8206
-36.7251
-36.609
-36.4951
-36.379
-38.6647
-38.5577
-38.4441
-38.3096
-38.183
-38.0598
-37.9343
-37.8022
-37.664
-37.5347
-37.4047
-37.287
-37.1652
-37.0585
-36.9428
-36.8335
-36.7164
-38.8894
-38.7799
-38.6655
-38.5442
-38.428
-38.3081
-38.1958
-38.0765
-37.935
-37.7884
-37.6499
-37.5129
-37.3916
-37.2835
-37.1632
-37.0512
-36.9302
-39.1512
-39.0187
-38.9008
-38.7723
-38.6554
-38.5417
-38.4211
-38.3057
-38.1982
-38.0503
-37.9068
-37.7636
-37.6308
-37.4978
-37.3796
-37.2623
-37.147
-39.3932
-39.2673
-39.1426
-39.0094
-38.9037
-38.7707
-38.652
-38.5434
-38.4335
-38.2955
-38.1623
-38.0249
-37.8822
-37.7469
-37.6185
-37.4878
-37.3976
-39.6661
-39.513
-39.3843
-39.2684
-39.1471
-39.0251
-38.9004
-38.7715
-38.6384
-38.535
-38.4185
-38.2785
-38.1367
-38.0055
-37.8745
-37.7414
-37.6075
-39.9157
-39.7996
-39.6494
-39.5042
-39.3955
-39.2798
-39.1506
-39.0315
-38.9002
-38.7748
-38.6557
-38.5355
-38.3999
-38.256
-38.1161
-37.9946
-37.8528
-40.0542
-39.9182
-39.788
-39.6477
-39.5247
-39.3963
-39.2763
-39.1645
-39.0282
-38.8922
-38.7609
-38.6416
-38.5026
-38.3715
-38.2298
-38.044
-40.3208
-40.1719
-40.0234
-39.8977
-39.7642
-39.6523
-39.5227
-39.4063
-39.2787
-39.1557
-39.0133
-38.8706
-38.7475
-38.6116
-38.4706
-40.7979
-40.6346
-40.4683
-40.3207
-40.152
-40.0335
-39.8932
-39.8024
-39.6611
-39.5227
-39.3883
-39.2639
-39.1397
-38.9965
-38.8482
-38.7018
-41.1523
-40.9486
-40.7716
-40.6352
-40.4846
-40.3093
-40.1793
-40.0162
-39.8971
-39.783
-39.6517
-39.5019
-39.35
-39.2457
-39.1064
-38.9906
-41.5134
-41.3399
-41.1391
-40.9532
-40.7993
-40.6511
-40.492
-40.3275
-40.1633
-40.0302
-39.9196
-39.8103
-39.6455
-39.4943
-39.3469
-39.2226
-42.112
-41.9175
-41.7111
-41.5087
-41.336
-41.1543
-41.0001
-40.8522
-40.6916
-40.5132
-40.3308
-40.1594
-39.9993
-39.929
-39.7742
-39.6071
-42.5785
-42.3308
-42.1339
-41.9257
-41.7228
-41.5259
-41.3449
-41.1808
-41.0293
-40.8746
-40.7051
-40.511
-40.3246
-40.164
-40.0319
-39.9286
-43.0157
-42.7487
-42.5266
-42.3426
-42.1389
-41.9413
-41.7263
-41.5444
-41.3663
-41.2061
-41.0395
-40.8622
-40.6681
-40.5075
-40.3393
-40.1957
-43.4182
-43.2242
-42.9579
-42.668
-42.5016
-42.314
-42.0952
-41.8761
-41.6918
-41.5245
-41.3836
-41.1996
-41.0332
-40.8597
-40.6772
-40.5134
-43.7705
-43.6109
-43.3906
-43.1645
-42.8972
-42.6592
-42.4868
-42.2849
-42.0313
-41.8301
-41.6855
-41.5381
-41.3767
-41.205
-41.0664
-40.8533
-44.1446
-43.9634
-43.7346
-43.5341
-43.3023
-43.0801
-42.8573
-42.6627
-42.466
-42.2394
-42.0057
-41.8359
-41.6926
-41.5411
-41.3759
-44.4684
-44.3083
-44.0886
-43.8922
-43.7029
-43.4873
-43.2629
-43.0572
-42.8407
-42.6396
-42.4286
-42.2247
-41.9962
-41.857
-41.6909
-41.5411
-44.8223
-44.6368
-44.4609
-44.2515
-44.0616
-43.8451
-43.6383
-43.4361
-43.2518
-43.0301
-42.8136
-42.5996
-42.3981
-42.1781
-42.0267
-41.8107
-45.1252
-44.966
-44.7928
-44.6077
-44.4201
-44.2024
-44.0023
-43.7999
-43.6069
-43.4078
-43.2079
-42.9958
-42.8093
-42.5906
-42.3452
-45.269
-45.1171
-44.9454
-44.7533
-44.5575
-44.3488
-44.1511
-43.9563
-43.7679
-43.5744
-43.3855
-43.1761
-42.9717
-42.7944
-45.5503
-45.4082
-45.2488
-45.0796
-44.8837
-44.6964
-44.4956
-44.3162
-44.1206
-43.9252
-43.7729
-43.564
-43.3661
-46.1111
-45.9252
-45.7367
-45.57
-45.3886
-45.2305
-45.0367
-44.8467
-44.6605
-44.4685
-44.2733
-44.0833
-43.9185
-43.7359
-46.4858
-46.2775
-46.0945
-45.9111
-45.74
-45.5564
-45.3708
-45.1773
-44.9906
-44.8127
-44.6177
-44.4174
-44.2392
-44.0764
-46.8897
-46.6777
-46.474
-46.2487
-46.0754
-45.9085
-45.7259
-45.5323
-45.3421
-45.1528
-44.9637
-44.7399
-44.5687
-44.3766
-47.2983
-47.1041
-46.8939
-46.6355
-46.4199
-46.2204
-46.0685
-45.8875
-45.698
-45.5
-45.2991
-45.1233
-44.9356
-44.6514
-47.6687
-47.4354
-47.2618
-47.0426
-46.8066
-46.5956
-46.3739
-46.1964
-46.0224
-45.8492
-45.6537
-45.4728
-45.2939
-45.0526
-48.0544
-47.8676
-47.5643
-47.4222
-47.1731
-46.9597
-46.744
-46.5345
-46.339
-46.1616
-45.9942
-45.791
-45.6087
-47.5044
-47.3312
-47.0885
-46.8769
-46.6694
-46.5049
-46.2703
-46.1377
-45.9312
-47.5993
-47.4686
-47.1978
-47.0111
-46.7789
-46.6446
-46.4697
-46.1938
-48.0314
-47.7412
-47.5705
-47.3488
-47.1142
-46.9409
-46.7674
-48.4845
-48.2276
-47.9833
-47.7242
-47.5061
-47.2953
-47.1061
-48.4053
-48.1897
-47.927
-47.6856
-47.4231
-49.1513
-48.8764
-48.58
-48.4061
-48.1121
-47.8469
-50.5387
-50.3672
-49.6733
-49.3829
-48.6452
-50.6885
-50.4881
-50.3322
-50.1462
-49.9258
-49.1592
-51.2097
-50.2959
-50.1052
-49.8415
-49.5902
-51.4813
-50.9612
-50.4637
-6.03613
-5.69478
-5.34483
-7.94494
-7.61901
-7.27559
-6.90558
-6.56466
-6.21272
-5.84339
-5.46685
-4.1277
-9.28489
-9.01532
-8.74385
-8.43674
-8.11226
-7.75279
-7.39153
-7.03557
-6.66167
-6.30391
-5.97034
-5.59952
-5.21132
-4.79623
-4.29711
-10.4768
-10.1732
-9.79491
-9.53005
-9.20009
-8.85055
-8.54732
-8.23235
-7.88352
-7.52827
-7.16175
-6.79071
-6.43192
-6.08768
-5.74472
-5.35708
-4.96627
-4.44636
-3.74041
-3.12509
-2.6881
-2.17766
-11.6728
-11.2752
-10.9585
-10.6303
-10.2876
-9.97847
-9.658
-9.32998
-8.98897
-8.66177
-8.34335
-8.00982
-7.65712
-7.28332
-6.93725
-6.56954
-6.21816
-5.86789
-5.48168
-5.0962
-4.60388
-3.97362
-3.38938
-12.5789
-12.3883
-12.1285
-11.8153
-11.4703
-11.1265
-10.7622
-10.4454
-10.1397
-9.83272
-9.47684
-9.13787
-8.79109
-8.48306
-8.1624
-7.77391
-7.39906
-6.93956
-6.75643
-6.28937
-5.983
-5.6036
-5.20583
-4.72522
-4.2647
-13.2662
-13.0413
-12.7776
-12.5299
-12.3
-12.0226
-11.7344
-11.3833
-11.0404
-10.5832
-10.2892
-9.98008
-9.64055
-9.29841
-8.95282
-8.61764
-8.29963
-7.91606
-7.53638
-7.0668
-6.86474
-6.39284
-6.07028
-5.70647
-5.33439
-13.7932
-13.6144
-13.3588
-13.1471
-12.8962
-12.6259
-12.3859
-12.1116
-11.7567
-11.4598
-11.1486
-10.7443
-10.425
-10.1351
-9.78342
-9.46003
-9.25312
-8.74107
-8.42959
-8.08071
-7.71031
-7.24358
-6.97615
-6.54811
-6.21919
-14.3668
-14.1449
-13.932
-13.7404
-13.4434
-13.2389
-13.0028
-12.7437
-12.4723
-12.2607
-11.8726
-11.5518
-11.1892
-10.8922
-10.4855
-10.2375
-9.92464
-9.55654
-9.36087
-8.86353
-8.54195
-8.22773
-7.87883
-7.50077
-7.13381
-15.207
-14.9427
-14.7007
-14.4848
-14.264
-14.0677
-13.8085
-13.5704
-13.3104
-13.1064
-12.8614
-12.5753
-12.34
-12.0012
-11.6195
-11.2749
-10.9897
-10.5784
-10.3386
-10.0194
-9.67182
-9.37219
-8.99092
-8.66169
-8.35989
-7.97598
-16.0999
-15.8715
-15.6322
-15.3859
-15.0671
-14.8527
-14.6367
-14.3777
-14.1675
-13.9214
-13.7079
-13.4288
-13.1812
-12.9661
-12.705
-12.4385
-12.1239
-11.7731
-11.3964
-11.1499
-10.7746
-10.4502
-10.1425
-9.84756
-9.49757
-9.15219
-8.80648
-16.4133
-16.201
-15.9689
-15.7338
-15.4844
-15.2228
-14.9453
-14.7707
-14.5197
-14.2842
-14.022
-13.7768
-13.5432
-13.3193
-13.0473
-12.8067
-12.5447
-12.2464
-11.9152
-11.5486
-11.2396
-10.9854
-10.5927
-10.3248
-9.97573
-17.0864
-16.9272
-16.709
-16.4509
-16.2808
-16.0401
-15.8379
-15.5928
-15.3411
-15.0957
-14.8755
-14.6338
-14.3894
-14.1238
-13.8833
-13.639
-13.4141
-13.1479
-12.9098
-12.6481
-12.3548
-12.0396
-11.7105
-11.4265
-11.0284
-17.4115
-17.2182
-17.0071
-16.8038
-16.5895
-16.3677
-16.1434
-15.9328
-15.6946
-15.42
-15.1887
-14.9804
-14.7315
-14.4771
-14.2375
-13.9858
-13.7363
-13.5087
-13.2536
-13.0244
-12.7557
-12.4537
-12.1233
-11.7997
-18.1338
-17.9179
-17.7412
-17.5249
-17.3632
-17.1167
-16.9251
-16.7038
-16.4761
-16.2306
-16.0045
-15.7674
-15.5354
-15.2372
-15.0624
-14.8226
-14.573
-14.3253
-14.0749
-13.8422
-13.6186
-13.3374
-13.1143
-12.8443
-12.5605
-18.6537
-18.4871
-18.2737
-18.028
-17.8372
-17.6509
-17.4394
-17.2195
-17.0396
-16.8
-16.5595
-16.3213
-16.0752
-15.8309
-15.6178
-15.4148
-15.1569
-14.9266
-14.6745
-14.4343
-14.1862
-13.9596
-13.6715
-13.4533
-13.2487
-19.1618
-18.9806
-18.7795
-18.5922
-18.3816
-18.169
-17.9599
-17.7757
-17.5674
-17.3329
-17.1385
-16.8934
-16.6539
-16.4082
-16.134
-15.9381
-15.7018
-15.4621
-15.2465
-15.0144
-14.7631
-14.5247
-14.2852
-14.0573
-13.8032
-19.8456
-19.6436
-19.4564
-19.2697
-19.0915
-18.8881
-18.6904
-18.4767
-18.2936
-18.0841
-17.8999
-17.6986
-17.4785
-17.265
-16.9926
-16.7748
-16.5203
-16.2518
-16.0495
-15.7909
-15.4944
-15.3271
-15.1031
-14.8352
-14.6
-14.3546
-20.296
-20.1018
-19.9136
-19.7278
-19.5524
-19.3745
-19.1963
-19.0049
-18.809
-18.594
-18.3889
-18.1872
-17.9946
-17.8093
-17.5846
-17.3578
-17.1251
-16.9198
-16.6842
-16.3871
-16.1381
-15.9029
-15.6266
-15.3999
-15.1666
-14.9118
-20.7283
-20.5655
-20.3948
-20.1997
-20.0096
-19.8203
-19.6396
-19.4755
-19.3051
-19.1215
-18.9402
-18.7385
-18.4866
-18.2981
-18.1042
-17.8974
-17.6807
-17.4327
-17.2231
-17.0043
-16.7419
-16.5123
-16.2392
-15.9948
-15.7204
-15.4809
-15.2506
-21.2694
-21.0519
-20.8624
-20.6796
-20.5033
-20.3142
-20.1051
-19.9062
-19.7272
-19.5606
-19.3939
-19.2194
-19.0398
-18.8506
-18.6249
-18.4223
-18.2236
-18.0049
-17.8019
-17.5708
-17.3104
-17.1129
-16.8774
-16.6162
-16.363
-16.0894
-15.816
-21.5323
-21.3492
-21.1571
-20.9805
-20.7953
-20.6044
-20.4136
-20.2048
-20.002
-19.8081
-19.6375
-19.4756
-19.3073
-19.1307
-18.9399
-18.7384
-18.5344
-18.3296
-18.119
-17.9242
-17.6884
-17.4841
-17.2329
-17.014
-16.7404
-16.4926
-21.9909
-21.8524
-21.671
-21.478
-21.2852
-21.0906
-20.9089
-20.7118
-20.4984
-20.2853
-20.069
-19.8808
-19.7173
-19.5597
-19.3955
-19.2254
-19.0381
-18.8426
-18.6416
-18.427
-18.195
-17.9973
-17.7938
-17.5913
-17.3655
-17.1306
-22.4697
-22.2935
-22.1131
-21.9466
-21.7724
-21.5735
-21.3861
-21.2018
-21.0178
-20.8188
-20.6098
-20.3973
-20.1705
-19.96
-19.8071
-19.6512
-19.4867
-19.3178
-19.1371
-18.9473
-18.7482
-18.5307
-18.3167
-18.0971
-17.8876
-17.6971
-22.8092
-22.5943
-22.4038
-22.2269
-22.0444
-21.8885
-21.6822
-21.4891
-21.2993
-21.123
-20.9317
-20.7309
-20.5183
-20.2809
-20.0892
-19.9184
-19.7528
-19.5853
-19.4166
-19.2425
-19.0545
-18.8694
-18.6505
-18.4485
-18.2336
-23.318
-23.1346
-22.9241
-22.7243
-22.5146
-22.3381
-22.1589
-21.986
-21.7868
-21.5908
-21.4119
-21.2256
-21.0462
-20.8442
-20.6313
-20.3777
-20.2
-20.032
-19.8623
-19.69
-19.5183
-19.3435
-19.1667
-18.9895
-18.7838
-18.5895
-23.7988
-23.6374
-23.4528
-23.2556
-23.0579
-22.8478
-22.6627
-22.4972
-22.2975
-22.0982
-21.9061
-21.6986
-21.5177
-21.3324
-21.1554
-20.9579
-20.7773
-20.5478
-20.3263
-20.1591
-19.9796
-19.7993
-19.627
-19.4561
-19.2818
-19.086
-24.2095
-24.0613
-23.9196
-23.7508
-23.5726
-23.3826
-23.1841
-22.9812
-22.8002
-22.6379
-22.4345
-22.2408
-22.0473
-21.8451
-21.6477
-21.4594
-21.2743
-21.0758
-20.8957
-20.713
-20.4818
-20.2911
-20.0943
-19.912
-19.7413
-19.5521
-19.3274
-24.4826
-24.3395
-24.1782
-24.0338
-23.8719
-23.6937
-23.5063
-23.3183
-23.1203
-22.928
-22.747
-22.5596
-22.3646
-22.1773
-21.976
-21.7812
-21.6033
-21.4059
-21.2092
-21.0149
-20.838
-20.6198
-20.4088
-20.2175
-20.0322
-19.7695
-24.8892
-24.7549
-24.5935
-24.4434
-24.2909
-24.1403
-23.9799
-23.8042
-23.6276
-23.4516
-23.2505
-23.0556
-22.8822
-22.6982
-22.508
-22.2943
-22.0868
-21.8984
-21.732
-21.529
-21.3432
-21.1489
-20.9362
-20.7624
-20.5601
-20.2738
-25.1373
-24.9872
-24.844
-24.6875
-24.5354
-24.3803
-24.194
-24.0471
-23.9198
-23.7656
-23.5675
-23.3549
-23.1596
-23.0304
-22.8396
-22.6286
-22.4157
-22.2042
-22.0085
-21.8367
-21.6489
-21.465
-21.2884
-21.1113
-20.8359
-25.5694
-25.4002
-25.2421
-25.0937
-24.9365
-24.7825
-24.6555
-24.5023
-24.2593
-24.0981
-24.0034
-23.8825
-23.6646
-23.4444
-23.2567
-23.1357
-22.9868
-22.7237
-22.5309
-22.3494
-22.1559
-21.9613
-21.7753
-21.6026
-21.4202
-25.828
-25.6858
-25.5264
-25.3575
-25.1912
-25.0372
-24.8825
-24.7623
-24.6331
-24.3793
-24.1941
-24.0666
-23.9488
-23.7339
-23.5046
-23.3459
-23.2095
-23.0582
-22.8192
-22.6424
-22.4687
-22.2771
-22.0984
-21.9128
-21.5772
-26.2667
-26.113
-25.9644
-25.8115
-25.6419
-25.4783
-25.3064
-25.1361
-24.9787
-24.8348
-24.7096
-24.5319
-24.3408
-24.1608
-24.0215
-23.8186
-23.5607
-23.4182
-23.2746
-23.1087
-22.941
-22.7532
-22.5871
-22.4117
-22.2859
-26.5143
-26.372
-26.221
-26.0769
-25.9173
-25.753
-25.5892
-25.4008
-25.2116
-25.0643
-24.8725
-24.7354
-24.6125
-24.4749
-24.3258
-24.1471
-23.9238
-23.7033
-23.5329
-23.3596
-23.1864
-23.0423
-22.8662
-22.678
-22.4957
-26.8849
-26.7411
-26.6022
-26.4618
-26.3211
-26.1797
-25.9923
-25.8363
-25.6951
-25.5085
-25.2954
-25.1392
-24.939
-24.7848
-24.679
-24.5482
-24.4049
-24.2364
-24.0419
-23.8434
-23.6512
-23.4824
-23.3104
-23.1644
-22.8874
-27.0899
-26.9634
-26.8353
-26.6974
-26.5517
-26.4397
-26.3172
-26.1192
-25.9455
-25.7931
-25.6335
-25.44
-25.2484
-25.0393
-24.8873
-24.7697
-24.6312
-24.4806
-24.3233
-24.1393
-23.9471
-23.7724
-23.6023
-23.4237
-27.4375
-27.3095
-27.1804
-27.0536
-26.9243
-26.7932
-26.657
-26.5471
-26.4474
-26.2796
-26.1098
-25.9398
-25.746
-25.5563
-25.3566
-25.1634
-25.0104
-24.8799
-24.727
-24.575
-24.4292
-24.2456
-24.0605
-23.8803
-23.6924
-27.6584
-27.5335
-27.4053
-27.2725
-27.1419
-27.0125
-26.8851
-26.7554
-26.6544
-26.553
-26.4155
-26.2767
-26.1226
-25.9062
-25.7185
-25.4861
-25.2767
-25.1353
-24.993
-24.8332
-24.6769
-24.5227
-24.3566
-24.1786
-27.9938
-27.8759
-27.7518
-27.6262
-27.4938
-27.3634
-27.2349
-27.1054
-26.9815
-26.8387
-26.73
-26.6335
-26.5102
-26.3954
-26.2751
-26.0805
-25.8591
-25.6353
-25.4305
-25.2493
-25.0948
-24.9341
-24.7856
-24.6234
-24.4595
-28.1917
-28.0846
-27.9696
-27.8443
-27.7173
-27.5896
-27.4567
-27.3273
-27.2111
-27.0979
-26.9405
-26.7927
-26.6795
-26.565
-26.4616
-26.3364
-26.1759
-25.9714
-25.7687
-25.5709
-25.3867
-25.2194
-25.0529
-24.8825
-28.502
-28.3912
-28.2819
-28.174
-28.0543
-27.9342
-27.8108
-27.6816
-27.5498
-27.4219
-27.3019
-27.1992
-27.0634
-26.9118
-26.7687
-26.6564
-26.5499
-26.4194
-26.2613
-26.0794
-25.9014
-25.6958
-25.5287
-25.329
-25.1719
-28.69
-28.5959
-28.4881
-28.3739
-28.256
-28.142
-28.0236
-27.9027
-27.7769
-27.6476
-27.5297
-27.3909
-27.256
-27.1376
-27.0165
-26.8848
-26.7685
-26.6556
-26.515
-26.3654
-26.1948
-26.0264
-25.8204
-25.6376
-28.8846
-28.7802
-28.6855
-28.5796
-28.4666
-28.3486
-28.2299
-28.1115
-27.991
-27.8677
-27.7477
-27.6468
-27.5255
-27.3801
-27.237
-27.1019
-26.9843
-26.8756
-26.7591
-26.6104
-26.4616
-26.3093
-26.141
-25.9875
-29.1675
-29.0597
-28.9711
-28.8784
-28.7804
-28.6744
-28.5581
-28.4378
-28.3173
-28.1973
-28.0771
-27.9561
-27.8378
-27.7322
-27.6157
-27.484
-27.3413
-27.197
-27.0637
-26.9576
-26.8428
-26.7009
-26.5528
-26.4133
-26.1615
-29.3721
-29.2568
-29.1495
-29.0577
-28.9718
-28.8755
-28.7649
-28.6482
-28.5264
-28.4013
-28.281
-28.1621
-28.0427
-27.9232
-27.8039
-27.6806
-27.553
-27.4227
-27.2941
-27.1673
-27.0423
-26.9333
-26.7987
-26.6715
-29.5684
-29.4696
-29.3435
-29.2299
-29.1343
-29.0429
-28.9485
-28.8475
-28.7365
-28.6127
-28.4723
-28.3587
-28.2472
-28.1304
-28.013
-27.8921
-27.7676
-27.6371
-27.5133
-27.3883
-27.2621
-27.1378
-27.0136
-26.8738
-29.7848
-29.6634
-29.5543
-29.4323
-29.3115
-29.2183
-29.1316
-29.0262
-28.9318
-28.835
-28.7118
-28.549
-28.4391
-28.3354
-28.2207
-28.106
-27.9885
-27.8621
-27.7316
-27.6041
-27.4902
-27.3553
-27.2213
-30.0859
-29.9796
-29.8686
-29.7576
-29.6417
-29.525
-29.4054
-29.3037
-29.2159
-29.1152
-29.0193
-28.9349
-28.8289
-28.6728
-28.5447
-28.4308
-28.3134
-28.2003
-28.0844
-27.9654
-27.8357
-27.7085
-27.5976
-27.4828
-30.2973
-30.189
-30.0693
-29.9609
-29.8538
-29.7387
-29.6235
-29.5038
-29.3851
-29.2846
-29.1928
-29.0997
-29.0062
-28.9037
-28.776
-28.6489
-28.5274
-28.4081
-28.2953
-28.1796
-28.0609
-27.9391
-27.8154
-27.6505
-30.4988
-30.3867
-30.2764
-30.1611
-30.0508
-29.9442
-29.8335
-29.7262
-29.6111
-29.464
-29.3514
-29.2708
-29.1806
-29.0827
-28.9773
-28.8617
-28.7394
-28.6199
-28.5041
-28.3923
-28.2749
-28.1608
-28.0373
-30.7904
-30.69
-30.5852
-30.48
-30.3716
-30.2544
-30.143
-30.0325
-29.923
-29.8278
-29.7376
-29.5812
-29.4388
-29.3552
-29.2659
-29.1676
-29.0636
-28.9536
-28.834
-28.7137
-28.5969
-28.4923
-28.3664
-28.2593
-30.9824
-30.8847
-30.7823
-30.6749
-30.5643
-30.4553
-30.3465
-30.2359
-30.121
-30.0001
-29.9042
-29.8384
-29.7087
-29.5358
-29.4389
-29.3553
-29.2567
-29.1515
-29.0403
-28.9319
-28.8098
-28.693
-28.5917
-28.4586
-31.1756
-31.0746
-30.9693
-30.8659
-30.7645
-30.6584
-30.5483
-30.4417
-30.3351
-30.2144
-30.0822
-29.9705
-29.914
-29.8287
-29.6682
-29.5424
-29.4511
-29.348
-29.2379
-29.1239
-29.0244
-28.9048
-28.795
-28.6401
-31.367
-31.2582
-31.1613
-31.0618
-30.9562
-30.8518
-30.7456
-30.6402
-30.5429
-30.4515
-30.3309
-30.1927
-30.0634
-29.9907
-29.9269
-29.7985
-29.6669
-29.5528
-29.4413
-29.3299
-29.2093
-29.117
-28.9985
-31.6631
-31.557
-31.4562
-31.3514
-31.2488
-31.1498
-31.048
-30.942
-30.8347
-30.732
-30.6444
-30.5741
-30.4592
-30.3105
-30.1652
-30.0698
-30
-29.8893
-29.7699
-29.6497
-29.5328
-29.4287
-29.3008
-29.1908
-31.8522
-31.7535
-31.6525
-31.548
-31.4412
-31.3386
-31.238
-31.1378
-31.0333
-30.926
-30.8231
-30.7346
-30.6692
-30.5844
-30.438
-30.2901
-30.1843
-30.0954
-29.9838
-29.8703
-29.7504
-29.6258
-29.5176
-29.397
-32.0582
-31.9563
-31.8521
-31.7497
-31.641
-31.5337
-31.4287
-31.3269
-31.2274
-31.1237
-31.0175
-30.9138
-30.8131
-30.7297
-30.6627
-30.5453
-30.4133
-30.3088
-30.2016
-30.0811
-29.9676
-29.8586
-29.7248
-32.2283
-32.1411
-32.0444
-31.9421
-31.844
-31.7346
-31.6251
-31.5196
-31.4168
-31.3165
-31.2135
-31.1086
-31.0074
-30.8924
-30.7881
-30.72
-30.6287
-30.5162
-30.412
-30.3005
-30.1769
-30.0604
-29.9419
-32.4121
-32.3188
-32.2245
-32.1285
-32.0313
-31.9339
-31.8278
-31.7194
-31.6119
-31.5057
-31.4036
-31.3022
-31.2041
-31.1208
-31.0156
-30.8923
-30.8003
-30.7127
-30.6108
-30.5094
-30.401
-30.2791