/*--------------------------------*- C++ -*----------------------------------*\
| =========                 |                                                 |
| \\      /  F ield         | OpenFOAM: The Open Source CFD Toolbox           |
|  \\    /   O peration     | Version:  5.x                                   |
|   \\  /    A nd           | Web:      www.OpenFOAM.org                      |
|    \\/     M anipulation  |                                                 |
\*---------------------------------------------------------------------------*/
FoamFile
{
    version     2.0;
    format      ascii;
    class       volScalarField;
    location    "300";
    object      epsilon;
}
// * * * * * * * * * * * * * * * * * * * * * * * * * * * * * * * * * * * * * //

dimensions      [0 2 -3 0 0 0 0];

internalField   nonuniform List<scalar> 
20540
(
0.241032
0.157991
0.241032
0.258854
0.241032
0.347341
0.241032
0.418254
0.241032
0.466967
0.241032
0.48976
0.241032
0.48466
0.241032
0.452105
0.241032
0.395594
0.241032
0.322036
0.241032
0.241362
0.241032
0.164953
0.241032
0.102662
0.241032
0.0590881
0.241032
0.032658
0.241032
0.0204283
0.241032
0.0171302
0.241032
0.0165625
0.241032
0.0164748
0.241032
0.0164606
0.241032
0.0164586
0.241032
0.0164589
0.241032
0.0164597
0.241032
0.0164609
0.241032
0.0164623
0.241032
0.016464
0.241032
0.016466
0.241032
0.0164681
0.241032
0.0164703
0.241032
0.0164724
0.241032
0.0164739
0.241032
0.0164746
0.241032
0.0164746
0.241032
0.0164739
0.241032
0.0164724
0.241032
0.0164704
0.241032
0.0164683
0.241032
0.0164662
0.241032
0.0164643
0.241032
0.0164626
0.241032
0.0164612
0.241032
0.01646
0.241032
0.0164591
0.241032
0.0164586
0.241032
0.0164594
0.241032
0.0164662
0.241032
0.0165062
0.241032
0.0167494
0.241032
0.0182237
0.241032
0.0249992
0.241032
0.0432108
0.241032
0.075943
0.241032
0.125869
0.241032
0.192414
0.241032
0.269204
0.241032
0.346408
0.241032
0.413865
0.241032
0.463232
0.241032
0.488997
0.241032
0.488611
0.241032
0.46211
0.241032
0.411561
0.241032
0.340581
0.241032
0.253872
0.241032
0.158327
654928
642187
597647
565121
541381
523454
509429
498141
488877
481166
474649
469067
464231
460010
456311
453052
450161
447575
445244
443133
441219
439487
437920
436499
435207
434025
432940
431940
431017
430165
429377
428649
427976
427351
426772
426234
425735
425273
424845
424451
424089
423759
423459
423191
422953
422748
422575
422437
422336
422274
422256
422285
422366
422503
422699
422959
423290
423696
424186
424768
425450
426240
427197
427943
428694
429454
430258
431107
431989
432910
433860
434848
435861
436910
437979
439078
440190
441326
442475
443647
444841
446077
447368
448788
450395
452751
457068
478817
696556
545032
483054
448102
424793
407945
395084
384895
376626
369801
364067
359174
354946
351265
348043
345208
342692
340440
338409
336573
334915
333419
332069
330849
329740
328726
327794
326934
326141
325408
324732
324107
323528
322992
322495
322034
321607
321213
320850
320517
320213
319939
319692
319473
319284
319124
318995
318900
318840
318819
318842
318912
319034
319210
319445
319745
320117
320568
321107
321745
322497
323350
324444
325352
326211
327049
327959
328927
329937
330989
332078
333209
334375
335581
336820
338096
339404
340754
342148
343609
345160
346843
348718
350889
353595
357155
363156
364571
470786
381945
337144
312318
296018
284342
275477
268478
262811
258141
254223
250883
247998
245488
243292
241360
239645
238110
236726
235475
234343
233323
232402
231570
230814
230122
229486
228900
228359
227860
227398
226972
226577
226211
225871
225557
225265
224995
224747
224520
224312
224124
223956
223807
223677
223568
223480
223415
223375
223361
223377
223426
223509
223630
223792
223997
224251
224559
224926
225360
225870
226450
227182
227779
228366
228940
229550
230199
230878
231586
232318
233079
233862
234672
235502
236355
237225
238117
239031
239976
240961
242008
243144
244422
245934
247861
250209
246581
326179
281117
248033
229470
217381
208777
202275
197157
193022
189619
186767
184339
182245
180422
178829
177427
176185
175073
174070
173163
172343
171603
170935
170331
169783
169281
168820
168396
168004
167641
167307
166998
166711
166446
166200
165971
165760
165564
165384
165218
165067
164930
164806
164697
164602
164521
164456
164407
164375
164363
164371
164403
164459
164542
164653
164796
164973
165187
165443
165745
166099
166504
167003
167401
167811
168215
168635
169080
169546
170031
170534
171055
171591
172145
172712
173294
173887
174492
175108
175738
176386
177061
177771
178541
179383
180375
180973
176972
229547
213850
189269
174905
165566
158951
153973
150068
146919
144331
142166
140325
138738
137358
136153
135092
134153
133313
132556
131871
131252
130693
130188
129732
129317
128938
128590
128269
127973
127700
127447
127214
126998
126797
126612
126439
126279
126131
125995
125869
125755
125650
125556
125473
125400
125337
125286
125247
125220
125208
125210
125229
125266
125323
125400
125499
125624
125775
125955
126168
126418
126706
127050
127319
127608
127898
128193
128505
128830
129168
129518
129881
130254
130638
131031
131433
131843
132260
132684
133114
133552
134000
134460
134940
135419
135914
135811
132655
161938
165842
147912
136601
129195
123961
120037
116969
114500
112475
110783
109346
108110
107035
106096
105271
104540
103887
103300
102768
102288
101853
101461
101106
100784
100490
100220
99971
99741.4
99529.4
99333.5
99152.3
98984.7
98829.3
98685.2
98551.4
98427.4
98312.5
98206.4
98108.8
98019.4
97938
97864.4
97798.7
97740.8
97691
97649.6
97617.1
97593.8
97580.6
97578.6
97588.7
97612
97649.3
97701.8
97770.7
97857.3
97963.2
98090.3
98240.8
98416.8
98620.9
98859.6
99040.5
99244
99452.3
99662
99881
100109
100346
100590
100843
101102
101369
101641
101920
102203
102491
102782
103077
103375
103676
103978
104284
104560
104791
104464
102246
113253
129831
117412
108479
102515
98293.9
95136.9
92675.5
90700
89081.8
87732
86587.4
85603.4
84749.5
84003.6
83348.1
82768
82250
81784.3
81363.5
80982.9
80639
80328.3
80047.1
79791.8
79558.7
79344.9
79148.1
78966.5
78798.9
78643.9
78500.7
78368.1
78245.3
78131.3
78025.5
77927.4
77836.5
77752.5
77675.1
77604.1
77539.2
77480.4
77427.6
77380.8
77340.1
77305.7
77277.9
77257.1
77243.5
77238.2
77241.8
77254.9
77278.2
77312.6
77358.8
77417.7
77490.6
77578.5
77683.1
77805.5
77948.5
78111.8
78231.9
78372.3
78520.4
78668.2
78821.3
78979.7
79144.1
79312.9
79487.2
79665.2
79848
80034
80224.3
80417
80612.8
80810.2
81009.2
81209
81409.2
81606.5
81798.8
81953.5
82042
81685.2
80189.4
77713.8
101786
94109.4
87150.3
82320.5
78874.9
76298.4
74293.9
72688.5
71375.5
70281.8
69355.9
68561.1
67872
67270.3
66741.7
66274
65856.8
65482
65143.7
64837.9
64561.4
64311.6
64085.6
63880.2
63692.9
63521.2
63363.2
63217.5
63083
62958.7
62843.7
62737.4
62638.8
62547.3
62462.4
62383.7
62310.7
62243.2
62180.9
62123.6
62071.2
62023.4
61980.3
61941.8
61907.9
61878.8
61854.7
61835.6
61821.9
61814.2
61812.9
61818.5
61831.5
61852.3
61881.6
61920
61968.1
62026.8
62097.3
62180.1
62277.6
62386.3
62463.5
62557.2
62659.4
62761.4
62866.4
62974.1
63085.6
63199.5
63316.7
63435.8
63557.8
63681.3
63807.4
63934.6
64063.5
64192.9
64322.7
64452
64580.2
64703.6
64818.9
64896.3
64905.6
64580.8
63569.1
51762.7
79305.9
75787.9
70559.9
66669.8
63844.5
61723.6
60074.2
58755
57677.3
56780.8
56022.9
55373.3
54810.7
54319.6
53888.3
53506.7
53166.6
52861.3
52586.1
52337.4
52112.7
51909.6
51725.7
51558.7
51406.4
51266.9
51138.6
51020.4
50911.2
50810.3
50717
50630.7
50550.6
50476.4
50407.5
50343.6
50284.3
50229.4
50178.6
50131.9
50088.9
50049.6
50014
49981.8
49953.3
49928.3
49907
49889.4
49875.7
49866.3
49861.4
49861.5
49866.8
49877.7
49894.3
49917.3
49947
49984
50029
50082.2
50145.6
50214.6
50261.6
50320.7
50387.9
50455.4
50524.6
50595.1
50667.8
50741.5
50817.1
50893.2
50971
51049.1
51128.5
51208.2
51288.5
51368.5
51448.1
51526.4
51602.6
51673.3
51734.5
51760.8
51725.3
51444
50738.7
33053.6
60900.3
61015.4
57379.9
54310.9
52004.3
50254
48889.2
47797.3
46905.5
46164.3
45538.5
45002.8
44539.2
44134.8
43779.5
43465.4
43185.5
42934.5
42708.4
42504.4
42320
42153.3
42002.4
41865.4
41740.4
41626
41520.8
41424
41334.6
41251.9
41175.5
41104.8
41039.2
40978.4
40921.9
40869.5
40820.9
40775.8
40734.1
40695.5
40660
40627.3
40597.5
40570.4
40546
40524.3
40505.4
40489.1
40475.6
40465.1
40457.8
40453.9
40453.6
40457
40464.4
40476
40492.1
40512.9
40539.1
40570.4
40608.5
40648.8
40674.4
40708.3
40749.2
40790.6
40833.3
40876.5
40920.8
40965.2
41010.5
41055.6
41101.4
41146.9
41192.8
41238.3
41283.8
41328.5
41372.2
41414
41453.1
41486.4
41509.7
41502.3
41442.1
41201.5
40691.5
19925.7
45634.3
48822.9
46703.5
44391.5
42540.2
41103.9
39974.8
39068.7
38327.7
37711.6
37191.7
36747
36362.6
36027.3
35732.7
35472.2
35240.2
35032.3
34845.3
34676.6
34524.2
34386.4
34261.6
34148.4
34045.1
33950.6
33863.7
33783.8
33710
33641.8
33578.8
33520.4
33466.2
33416
33369.4
33326.1
33285.9
33248.6
33214
33181.9
33152.3
33124.9
33099.8
33076.7
33055.7
33036.8
33019.8
33004.8
32991.7
32980.6
32971.6
32965
32960.8
32959
32959.7
32963.1
32969.2
32978.3
32990.7
33006.1
33025.6
33045.5
33056.3
33072.4
33093.8
33116
33139.2
33162.5
33186.3
33209.7
33233.4
33256.5
33279.6
33302.1
33324.5
33346.1
33367.3
33387.3
33405.9
33422.4
33435.8
33443.4
33441.2
33412.6
33340.8
33136.4
32758.7
11112.7
32941.3
38538.2
37884
36304.6
34875.1
33717.8
32791.7
32042.4
31427.1
30914.4
30481.4
30111.2
29791.1
29511.9
29266.6
29049.6
28856.3
28683.3
28527.7
28387.4
28260.8
28146.3
28042.6
27948.4
27862.5
27784
27711.9
27645.5
27584.3
27527.7
27475.4
27426.9
27381.9
27340.2
27301.5
27265.5
27232
27201
27172.1
27145.3
27120.4
27097.3
27076
27056.2
27038.1
27021.4
27006.2
26992.4
26979.8
26968.6
26958.8
26950.4
26943.5
26938.1
26934.3
26931.9
26931.1
26932
26934.6
26938.7
26945.2
26950.9
26951.7
26955.6
26963.3
26971.7
26980.9
26990
26999.3
27008.1
27016.8
27024.7
27032.3
27039.1
27045.5
27051
27055.7
27059.3
27061.2
27060.9
27057.4
27048.4
27030.1
26989.8
26915
26744.1
26462.6
5576.72
22511.4
29699.4
30444.6
29601
28583.7
27687.8
26945.2
26333.9
25827.1
25402.6
25042.9
24734.9
24468.3
24235.7
24031.1
23850
23688.7
23544.3
23414.5
23297.5
23191.9
23096.4
23009.9
22931.3
22859.7
22794.2
22734
22678.7
22627.7
22580.5
22536.9
22496.5
22459
22424.2
22391.9
22361.9
22333.9
22307.9
22283.7
22261.2
22240.2
22220.6
22202.4
22185.5
22169.7
22155.1
22141.5
22128.9
22117.1
22106.1
22095.9
22086.6
22078.1
22070.5
22063.6
22057.5
22052.2
22047.5
22043.5
22040.1
22037.6
22033.8
22028.3
22024.3
22022.8
22021.8
22021.4
22020.9
22020.5
22019.4
22018.1
22016
22013.5
22010.1
22006.2
22001.4
21995.7
21988.8
21980.4
21969.7
21956
21937.1
21909.9
21864.9
21793.1
21653.6
21445.1
2421.17
14208.5
22015.4
24029.6
23936.9
23341.5
22704.8
22137.4
21653.7
21244.8
20898.3
20602.7
20348.4
20127.8
19934.8
19764.7
19613.9
19479.5
19359.1
19250.9
19153.4
19065.3
18985.6
18913.4
18847.8
18787.9
18733.2
18683
18636.8
18594.1
18554.8
18518.4
18484.6
18453.3
18424.2
18397.2
18372.1
18348.6
18326.8
18306.5
18287.5
18269.8
18253.2
18237.7
18223.1
18209.4
18196.6
18184.5
18173
18162.2
18151.7
18141.6
18132
18122.8
18114
18105.5
18097.1
18089
18080.8
18072.8
18064.6
18056.5
18047
18037.6
18028.9
18021.8
18014.9
18008.4
18001.8
17995.1
17987.9
17980.4
17972.1
17963.4
17954
17943.9
17933.1
17921.4
17908.6
17894.3
17878
17858.8
17835.1
17804.1
17759.2
17694.3
17583.5
17430.7
861.762
7985.85
15353.5
18383.2
19043.9
18893.1
18526.6
18136.4
17777.7
17462.2
17188.3
16951.2
16745.3
16565.4
16407.3
16267.4
16143
16031.9
15932.2
15842.5
15761.5
15688.4
15622.2
15562.1
15507.4
15457.6
15411.9
15370.1
15331.6
15296
15263.2
15232.8
15204.7
15178.6
15154.3
15131.7
15110.7
15091.1
15072.8
15055.8
15039.8
15024.8
15010.7
14997.5
14985
14973.2
14962
14951.3
14941.1
14931.2
14921.5
14912
14902.6
14893.3
14884
14874.8
14865.4
14855.8
14846
14835.8
14824.9
14813.7
14801
14789.7
14778.7
14768.6
14758.4
14748.4
14738.3
14728.2
14717.6
14706.6
14695.1
14683.1
14670.5
14657.3
14643.5
14628.9
14613.3
14596.3
14577.6
14556.4
14531.2
14500.1
14458.5
14402.3
14316.9
14206.2
238.977
3781.06
9735.26
13350.2
14715.9
15032.9
14957.8
14756.4
14527.6
14306.3
14104.2
13923.5
13763.4
13621.5
13495.5
13383.2
13282.7
13192.5
13111.3
13037.9
12971.7
12911.6
12857.2
12807.7
12762.6
12721.4
12683.7
12649.1
12617.2
12587.8
12560.6
12535.4
12512.1
12490.4
12470.3
12451.5
12434.1
12417.8
12402.5
12388.3
12374.9
12362.3
12350.4
12339.2
12328.6
12318.5
12308.8
12299.5
12290.5
12281.7
12272.9
12264.1
12255.3
12246.4
12237.4
12228.2
12218.6
12208.7
12198.2
12187.2
12175.4
12162.8
12148.9
12137.1
12125.3
12114
12102.5
12091.1
12079.5
12067.8
12055.7
12043.4
12030.6
12017.3
12003.6
11989.3
11974.6
11959.1
11942.8
11925.4
11906.4
11885.3
11861
11831.9
11795.2
11748.6
11684.3
11604.8
52.0902
1384.64
5311.87
8896.28
10812.7
11597.5
11837.5
11843.8
11756.8
11636.6
11509.6
11386.9
11272.8
11168.5
11073.7
10987.8
10910.1
10839.6
10775.6
10717.5
10664.7
10616.7
10573
10533.1
10496.7
10463.3
10432.7
10404.5
10378.6
10354.6
10332.4
10311.9
10292.8
10275.1
10258.6
10243.3
10228.9
10215.5
10203
10191.2
10180.2
10169.7
10159.8
10150.5
10141.5
10133
10124.7
10116.8
10109
10101.3
10093.6
10085.8
10077.8
10069.7
10061.3
10052.6
10043.5
10033.9
10023.7
10012.9
10001.2
9988.66
9974.92
9963.48
9951.96
9940.65
9929.13
9917.58
9905.86
9894.02
9881.89
9869.49
9856.7
9843.56
9830.01
9816.06
9801.65
9786.69
9771.04
9754.45
9736.58
9716.91
9694.7
9668.89
9637.92
9600.53
9553.18
9496.35
9.61473
349.251
2274.01
5133.49
7283.4
8471.23
9035.58
9270.39
9342.15
9335.02
9291.18
9231.57
9166.75
9101.85
9039.43
8980.57
8925.68
8874.81
8827.84
8784.6
8744.89
8708.44
8675
8644.28
8616.05
8590.07
8566.12
8544.02
8523.6
8504.69
8487.17
8470.91
8455.79
8441.73
8428.62
8416.38
8404.94
8394.22
8384.16
8374.69
8365.76
8357.3
8349.28
8341.63
8334.3
8327.24
8320.41
8313.74
8307.19
8300.68
8294.17
8287.47
8280.56
8273.4
8265.95
8258.15
8249.92
8241.19
8231.85
8221.84
8210.97
8199.29
8186.56
8176.11
8165.52
8155
8144.27
8133.43
8122.45
8111.32
8099.96
8088.37
8076.47
8064.25
8051.71
8038.83
8025.58
8011.88
7997.61
7982.57
7966.49
7948.98
7929.56
7907.56
7882.25
7853.14
7818.81
7778.17
1.5745
57.4046
658.822
2310.22
4208.81
5611.63
6461.36
6932.28
7179.59
7300.77
7351.89
7364.06
7354.75
7333.81
7306.94
7277.39
7247.01
7216.92
7187.78
7159.98
7133.74
7109.11
7086.09
7064.61
7044.62
7026
7008.69
6992.59
6977.61
6963.68
6950.71
6938.62
6927.35
6916.82
6906.97
6897.75
6889.09
6880.95
6873.28
6866.03
6859.16
6852.62
6846.39
6840.42
6834.67
6829.1
6823.67
6818.34
6813.05
6807.76
6802.44
6796.98
6791.25
6785.25
6778.94
6772.27
6765.18
6757.62
6749.46
6740.68
6731.11
6720.79
6709.57
6700.44
6691.15
6681.84
6672.33
6662.69
6652.91
6642.98
6632.87
6622.55
6611.98
6601.15
6590.03
6578.64
6566.93
6554.85
6542.31
6529.15
6515.18
6500.12
6483.68
6465.54
6445.42
6423.28
6398.61
6369.38
0.232762
7.08256
110.583
676.013
1832.69
3100
4093.46
4763.84
5187.98
5449.31
5608.27
5703.29
5758.41
5788.42
5802.53
5806.45
5803.82
5797.03
5787.71
5776.94
5765.44
5753.65
5741.88
5730.31
5719.09
5708.29
5697.99
5688.19
5678.93
5670.18
5661.94
5654.17
5646.86
5639.97
5633.47
5627.33
5621.52
5616.01
5610.77
5605.78
5601.01
5596.44
5592.05
5587.8
5583.67
5579.63
5575.66
5571.72
5567.77
5563.77
5559.7
5555.55
5551.11
5546.39
5541.35
5535.97
5530.18
5523.95
5517.19
5509.85
5501.81
5493.11
5483.65
5476
5468.15
5460.24
5452.15
5443.91
5435.53
5427.01
5418.33
5409.48
5400.42
5391.13
5381.6
5371.83
5361.79
5351.44
5340.73
5329.52
5317.7
5305.1
5291.57
5277.01
5261.39
5244.83
5227.14
5205.88
0.0345565
0.74398
11.4977
105.102
478.222
1195.17
2040.12
2776
3329.65
3722.19
3993.98
4180.86
4309.81
4399.25
4461.49
4504.75
4534.66
4555.13
4568.91
4577.88
4583.37
4586.3
4587.35
4587.01
4585.71
4583.71
4581.27
4578.53
4575.63
4572.63
4569.62
4566.61
4563.64
4560.72
4557.87
4555.08
4552.35
4549.68
4547.08
4544.53
4542.04
4539.59
4537.18
4534.79
4532.42
4530.05
4527.66
4525.23
4522.73
4520.14
4517.43
4514.6
4511.59
4508.26
4504.61
4500.62
4496.25
4491.45
4486.18
4480.39
4473.99
4467
4459.38
4453.21
4446.84
4440.36
4433.73
4426.93
4419.99
4412.91
4405.69
4398.31
4390.75
4383
4375.03
4366.86
4358.45
4349.79
4340.83
4331.5
4321.73
4311.43
4300.58
4289.15
4277.23
4264.97
4252.21
4236.52
0.00737855
0.0689014
0.941558
9.11812
59.6269
242.31
618.07
1132.46
1663.57
2120.06
2478.42
2751.02
2956.69
3111.55
3228.42
3317.21
3385.34
3438.14
3479.43
3511.91
3537.6
3557.96
3574.18
3587.13
3597.55
3605.94
3612.77
3618.34
3622.9
3626.64
3629.72
3632.23
3634.28
3635.95
3637.28
3638.32
3639.13
3639.72
3640.13
3640.38
3640.49
3640.47
3640.33
3640.08
3639.72
3639.25
3638.66
3637.95
3637.09
3636.08
3634.91
3633.54
3632.02
3630.22
3628.08
3625.59
3622.72
3619.45
3615.73
3611.54
3606.8
3601.54
3595.74
3591.01
3586.07
3580.99
3575.75
3570.35
3564.79
3559.09
3553.25
3547.26
3541.12
3534.8
3528.3
3521.61
3514.72
3507.62
3500.28
3492.67
3484.77
3476.54
3468.01
3459.21
3450.23
3441.18
3431.86
3420.09
0.0024212
0.00609848
0.0655328
0.599566
4.08639
21.3084
82.8086
229.805
473.875
786.381
1118.31
1425.42
1685.41
1896.23
2065.35
2201.48
2311.71
2401.35
2474.51
2534.46
2583.9
2624.93
2659.26
2688.19
2712.78
2733.8
2751.9
2767.56
2781.16
2793.03
2803.44
2812.58
2820.65
2827.79
2834.14
2839.78
2844.82
2849.32
2853.35
2856.96
2860.2
2863.1
2865.69
2868
2870.05
2871.85
2873.4
2874.72
2875.8
2876.63
2877.23
2877.57
2877.67
2877.56
2877.09
2876.23
2874.99
2873.34
2871.26
2868.72
2865.67
2862.14
2858.11
2854.77
2851.18
2847.44
2843.52
2839.43
2835.18
2830.77
2826.22
2821.51
2816.66
2811.65
2806.48
2801.14
2795.63
2789.95
2784.08
2778.02
2771.78
2765.36
2758.78
2752.1
2745.38
2738.68
2731.78
2722.82
0.00184222
0.000883998
0.00403832
0.0328828
0.21527
1.1274
4.89422
17.7611
52.9001
126.627
246.909
408.109
595.557
791.42
979.587
1149.26
1295.94
1419.93
1524.11
1611.96
1686.64
1750.63
1805.81
1853.59
1895.12
1931.32
1962.97
1990.73
2015.18
2036.8
2056.01
2073.15
2088.5
2102.31
2114.78
2126.08
2136.33
2145.67
2154.2
2161.98
2169.11
2175.63
2181.61
2187.09
2192.1
2196.68
2200.85
2204.63
2208.05
2211.1
2213.81
2216.17
2218.19
2219.89
2221.31
2222.3
2222.87
2222.99
2222.67
2221.87
2220.59
2218.82
2216.58
2214.57
2212.3
2209.84
2207.19
2204.36
2201.34
2198.16
2194.82
2191.32
2187.67
2183.87
2179.92
2175.82
2171.58
2167.19
2162.67
2158.01
2153.24
2148.36
2143.41
2138.42
2133.43
2128.45
2123.29
2116.42
0.00181818
0.000333639
0.000314977
0.00154511
0.00934127
0.047273
0.202139
0.74781
2.4358
7.05917
18.1671
41.074
81.1241
141.094
219.992
313.935
417.704
525.837
633.328
736.103
831.351
917.526
994.203
1061.73
1120.97
1172.95
1218.73
1259.28
1295.43
1327.83
1357.05
1383.5
1407.54
1429.44
1449.45
1467.75
1484.52
1499.9
1514.02
1527
1538.95
1549.95
1560.08
1569.43
1578.05
1586
1593.33
1600.08
1606.29
1611.99
1617.2
1621.94
1626.23
1630.09
1633.56
1636.66
1639.27
1641.39
1643.03
1644.16
1644.78
1644.9
1644.54
1643.88
1642.94
1641.77
1640.39
1638.8
1637.02
1635.05
1632.9
1630.58
1628.1
1625.48
1622.71
1619.81
1616.77
1613.61
1610.33
1606.96
1603.49
1599.96
1596.37
1592.75
1589.11
1585.46
1581.63
1576.44
0.00181784
0.00029878
8.23483e-05
8.99684e-05
0.000345126
0.0016105
0.00667896
0.0242606
0.078316
0.228439
0.609595
1.50253
3.44013
7.32806
14.4812
26.4698
44.7591
70.2933
103.239
142.999
188.435
238.146
290.691
344.706
398.983
452.477
504.349
553.95
600.83
644.71
685.468
723.096
757.681
789.374
818.364
844.862
869.087
891.252
911.561
930.204
947.351
963.156
977.754
991.265
1003.79
1015.42
1026.23
1036.28
1045.63
1054.32
1062.4
1069.9
1076.84
1083.25
1089.15
1094.6
1099.6
1104.05
1107.97
1111.34
1114.17
1116.45
1118.22
1119.06
1119.57
1119.82
1119.82
1119.58
1119.12
1118.45
1117.58
1116.53
1115.31
1113.92
1112.39
1110.72
1108.92
1107
1104.97
1102.85
1100.64
1098.36
1096.02
1093.62
1091.19
1088.7
1086.06
1082.41
0.00181815
0.000297919
6.85519e-05
2.34794e-05
1.99337e-05
4.91135e-05
0.000177426
0.000620964
0.00196792
0.00567011
0.0150126
0.0369308
0.0850569
0.184617
0.379347
0.741307
1.3837
2.4742
4.24244
6.97411
10.9895
16.6076
24.1056
33.6801
45.422
59.3076
75.2088
92.9137
112.158
132.647
154.089
176.199
198.719
221.418
244.092
266.57
288.703
310.371
331.476
351.939
371.702
390.721
408.968
426.423
443.079
458.937
474.001
488.284
501.8
514.566
526.602
537.926
548.561
558.524
567.835
576.514
584.637
592.191
599.115
605.409
611.074
616.112
620.536
623.15
625.389
627.306
628.92
630.251
631.315
632.13
632.714
633.084
633.256
633.244
633.064
632.728
632.249
631.639
630.908
630.068
629.127
628.093
626.975
625.778
624.507
623.162
621.702
619.646
0.0018185
0.000297949
6.82418e-05
2.06273e-05
8.05665e-06
4.75287e-06
5.80812e-06
1.35567e-05
3.85882e-05
0.000107572
0.00028057
0.000684197
0.00156707
0.00339091
0.00696347
0.0136358
0.025581
0.0461541
0.080322
0.135101
0.220106
0.348149
0.536086
0.805488
1.18326
1.70132
2.39603
3.3063
4.47198
5.93119
7.71867
9.86328
12.387
15.3031
18.6166
22.3231
26.4104
30.8585
35.6415
40.7286
46.0854
51.6753
57.4605
63.4028
69.4646
75.6092
81.8014
88.0078
94.1971
100.34
106.409
112.379
118.226
123.929
129.467
134.821
139.973
144.95
149.773
154.422
158.881
163.134
167.163
169.696
172.053
174.246
176.281
178.161
179.894
181.486
182.944
184.273
185.48
186.573
187.557
188.439
189.226
189.923
190.536
191.071
191.532
191.926
192.256
192.528
192.744
192.91
193.027
193.088
0.00181886
0.000297994
6.82475e-05
2.05776e-05
7.73515e-06
3.47442e-06
1.84175e-06
1.23246e-06
1.23006e-06
1.96453e-06
4.14941e-06
9.42025e-06
2.10207e-05
4.49866e-05
9.19049e-05
0.000179534
0.000336533
0.000607211
0.00105767
0.00178153
0.00290857
0.00461134
0.00712039
0.0107326
0.0158336
0.0228993
0.0325188
0.0453793
0.0622919
0.0841637
0.112035
0.147041
0.190459
0.243651
0.308093
0.385307
0.476865
0.58431
0.709141
0.85274
1.01633
1.20092
1.40724
1.63569
1.88629
2.15865
2.45195
2.76486
3.09562
3.44199
3.80126
4.17027
4.5454
4.92256
5.29719
5.66372
6.01587
6.37069
6.73736
7.11389
7.49813
7.88787
8.28075
8.53502
8.78208
9.02144
9.25268
9.47544
9.68946
9.89455
10.0906
10.2775
10.4553
10.6241
10.7839
10.9348
11.0772
11.2111
11.3368
11.4546
11.5648
11.6675
11.7633
11.8522
11.9348
12.0111
12.0817
12.1498
0.0018192
0.000298037
6.8257e-05
2.05798e-05
7.73189e-06
3.45471e-06
1.76858e-06
1.00863e-06
6.29644e-07
4.294e-07
3.28678e-07
3.01522e-07
3.55063e-07
5.30402e-07
9.13784e-07
1.65626e-06
3.00535e-06
5.34423e-06
9.25059e-06
1.55371e-05
2.535e-05
4.0183e-05
6.20767e-05
9.35786e-05
0.000138101
0.000199732
0.00028374
0.000396109
0.000544207
0.00073603
0.00098111
0.00128951
0.00167294
0.00214346
0.00271461
0.00339984
0.00421343
0.0051688
0.0062791
0.0075555
0.00900726
0.01064
0.0124552
0.014448
0.0166064
0.0189094
0.0213248
0.0238084
0.0263015
0.0287305
0.0310049
0.0330167
0.0346386
0.0357197
0.0360941
0.0360518
0.036094
0.0362196
0.0364293
0.0367232
0.0371006
0.0375601
0.0380996
0.0384233
0.0387661
0.0391257
0.0394999
0.0398863
0.0402823
0.0406853
0.0410926
0.0415014
0.0419091
0.0423129
0.0427106
0.0430998
0.0434786
0.0438452
0.0441983
0.0445365
0.0448591
0.0451652
0.0454545
0.0457267
0.0459817
0.0462197
0.046441
0.0466645
0.00181944
0.000298068
6.8264e-05
2.05818e-05
7.73256e-06
3.45484e-06
1.76805e-06
1.00647e-06
6.23264e-07
4.12799e-07
2.88756e-07
2.11388e-07
1.6105e-07
1.2752e-07
1.05445e-07
9.22704e-08
8.73687e-08
9.16859e-08
1.07905e-07
1.40353e-07
1.95921e-07
2.8332e-07
4.15511e-07
6.0745e-07
8.81089e-07
1.26041e-06
1.77959e-06
2.47395e-06
3.39181e-06
4.58065e-06
6.1033e-06
8.01938e-06
1.04053e-05
1.33315e-05
1.6884e-05
2.11389e-05
2.61818e-05
3.20818e-05
3.89067e-05
4.66974e-05
5.54764e-05
6.5223e-05
7.5874e-05
8.72991e-05
9.92951e-05
0.000111564
0.000123707
0.000135208
0.000145438
0.000153651
0.000159017
0.000160661
0.000158302
0.000156061
0.000153892
0.000151769
0.000149691
0.000147661
0.000145678
0.000143744
0.000141862
0.000140036
0.000138269
0.000136874
0.000135532
0.000134247
0.000133021
0.000131854
0.000130745
0.000129693
0.000128695
0.000127746
0.000126844
0.000125983
0.000125161
0.000124372
0.000123613
0.00012288
0.000122172
0.000121484
0.000120816
0.000120165
0.00011953
0.00011891
0.000118304
0.000117712
0.000117132
0.000116615
0.00181955
0.000298083
6.82673e-05
2.05827e-05
7.73289e-06
3.45498e-06
1.76812e-06
1.00649e-06
6.23247e-07
4.12703e-07
2.88492e-07
2.10769e-07
1.59707e-07
1.24756e-07
9.99933e-08
8.19254e-08
6.84112e-08
5.80903e-08
5.00771e-08
4.37791e-08
3.88026e-08
3.48763e-08
3.18341e-08
2.95617e-08
2.80235e-08
2.71994e-08
2.71495e-08
2.79228e-08
2.96616e-08
3.24696e-08
3.65612e-08
4.20841e-08
4.93099e-08
5.84174e-08
6.97067e-08
8.33579e-08
9.96421e-08
1.18674e-07
1.40596e-07
1.65337e-07
1.92753e-07
2.22403e-07
2.53633e-07
2.85388e-07
3.16254e-07
3.44336e-07
3.67317e-07
3.82465e-07
3.86799e-07
3.87654e-07
3.88757e-07
3.8999e-07
3.91297e-07
3.9298e-07
3.95477e-07
3.99442e-07
4.05868e-07
4.16263e-07
4.3291e-07
4.59248e-07
5.0041e-07
5.64e-07
6.61159e-07
7.43101e-07
8.46639e-07
9.76098e-07
1.13628e-06
1.33248e-06
1.57045e-06
1.85636e-06
2.19672e-06
2.59825e-06
3.06785e-06
3.61243e-06
4.23881e-06
4.95362e-06
5.76317e-06
6.67333e-06
7.68948e-06
8.81637e-06
1.00581e-05
1.14181e-05
1.2899e-05
1.45027e-05
1.62304e-05
1.80824e-05
2.00585e-05
2.21614e-05
0.00181955
0.000298083
6.82673e-05
2.05827e-05
7.73289e-06
3.45498e-06
1.76812e-06
1.00649e-06
6.23247e-07
4.12703e-07
2.88492e-07
2.10768e-07
1.59704e-07
1.24752e-07
9.99851e-08
8.19103e-08
6.83843e-08
5.8044e-08
4.99988e-08
4.36525e-08
3.85984e-08
3.45634e-08
3.13546e-08
2.88617e-08
2.70003e-08
2.57632e-08
2.513e-08
2.51749e-08
2.59199e-08
2.75153e-08
3.00166e-08
3.36512e-08
3.85107e-08
4.49024e-08
5.29664e-08
6.30961e-08
7.55076e-08
9.07062e-08
1.09047e-07
1.31221e-07
1.57854e-07
1.89985e-07
2.28761e-07
2.75901e-07
3.33537e-07
4.04709e-07
4.93427e-07
6.05293e-07
7.47924e-07
9.3191e-07
1.17188e-06
1.4882e-06
1.90927e-06
2.4747e-06
3.23986e-06
4.28195e-06
5.70837e-06
7.66787e-06
1.0365e-05
1.40789e-05
1.91869e-05
2.61945e-05
3.5773e-05
4.34039e-05
5.24421e-05
6.30728e-05
7.54853e-05
8.98723e-05
0.000106428
0.000125345
0.00014681
0.000170999
0.000198075
0.000228185
0.000261458
0.000297998
0.00033789
0.000381192
0.000427939
0.00047814
0.000531781
0.000588824
0.000649211
0.000712863
0.000779683
0.000849561
0.00092237
0.00099806
0.00181943
0.000298068
6.82638e-05
2.05817e-05
7.73255e-06
3.45483e-06
1.76805e-06
1.00646e-06
6.23243e-07
4.12745e-07
2.88628e-07
2.11104e-07
1.60453e-07
1.26323e-07
1.03133e-07
8.79825e-08
7.96627e-08
7.83528e-08
8.52661e-08
1.03396e-07
1.36343e-07
1.91243e-07
2.74643e-07
4.00222e-07
5.78585e-07
8.33114e-07
1.17952e-06
1.65407e-06
2.27772e-06
3.10251e-06
4.15474e-06
5.50487e-06
7.18589e-06
9.2883e-06
1.18542e-05
1.49947e-05
1.87651e-05
2.32993e-05
2.86749e-05
3.50573e-05
4.25663e-05
5.14191e-05
6.18122e-05
7.40551e-05
8.84802e-05
0.000105563
0.000125871
0.000150176
0.000179447
0.00021497
0.000258395
0.000311877
0.000378202
0.000460971
0.000564816
0.000695665
0.000861055
0.00107048
0.0013358
0.00167165
0.00209595
0.0026304
0.00330113
0.00380771
0.00437741
0.00501468
0.00572328
0.00650658
0.00736747
0.00830838
0.00933115
0.010437
0.0116264
0.0128993
0.0142549
0.0156917
0.0172078
0.0188007
0.0204672
0.0222038
0.0240068
0.025872
0.027795
0.0297714
0.0317965
0.0338658
0.0359746
0.0381202
0.00181919
0.000298037
6.82569e-05
2.05797e-05
7.73187e-06
3.45462e-06
1.76823e-06
1.00753e-06
6.26546e-07
4.21608e-07
3.10306e-07
2.61164e-07
2.69838e-07
3.56283e-07
5.69847e-07
1.00376e-06
1.81e-06
3.24193e-06
5.64857e-06
9.61442e-06
1.57987e-05
2.53939e-05
3.95048e-05
6.03553e-05
8.96974e-05
0.000131333
0.000187823
0.000265089
0.000366466
0.000500492
0.000671177
0.000890135
0.00116213
0.00150212
0.00191581
0.00242148
0.00302607
0.00375106
0.00460543
0.00561414
0.00678989
0.00816211
0.00974998
0.0115895
0.0137103
0.0161591
0.0189817
0.0222422
0.0260109
0.0303786
0.0354509
0.0413577
0.0482525
0.0563186
0.0657714
0.0768618
0.0898786
0.10515
0.123043
0.143965
0.168355
0.196688
0.229459
0.252998
0.278197
0.305063
0.333568
0.363672
0.39533
0.428484
0.463069
0.499008
0.536214
0.574595
0.614054
0.654487
0.695789
0.737852
0.78057
0.823834
0.867542
0.911593
0.955891
1.00034
1.04487
1.08938
1.13381
1.17815
0.00181887
0.000297995
6.82476e-05
2.05774e-05
7.73285e-06
3.46381e-06
1.80414e-06
1.1225e-06
9.42399e-07
1.23568e-06
2.33533e-06
5.15516e-06
1.15211e-05
2.49797e-05
5.18146e-05
0.000102939
0.000195791
0.000359079
0.00063266
0.00108216
0.00178325
0.00286879
0.00446654
0.00682373
0.0101447
0.0148515
0.0212434
0.0299742
0.0414306
0.0565466
0.0757808
0.10039
0.130905
0.168921
0.21505
0.271187
0.338028
0.417691
0.510955
0.620051
0.745849
0.890571
1.05518
1.24177
1.45139
1.68597
1.94665
2.23522
2.55297
2.90162
3.28268
3.69792
4.14909
4.63812
5.16703
5.73791
6.35297
7.01438
7.7243
8.48478
9.29764
10.1643
11.0851
11.7128
12.3504
12.9962
13.6485
14.3057
14.9665
15.6294
16.2932
16.9565
17.6179
18.2764
18.9307
19.5798
20.2226
20.8581
21.4855
22.1041
22.713
23.3118
23.8998
24.4767
25.0421
25.5957
26.1374
26.6729
0.00181852
0.000297951
6.82395e-05
2.0597e-05
7.8798e-06
4.09998e-06
3.8346e-06
7.33664e-06
1.96586e-05
5.51033e-05
0.000145528
0.00036202
0.000844045
0.00186078
0.00388928
0.00775406
0.0147735
0.0270976
0.0477552
0.0815954
0.134424
0.215828
0.335736
0.511409
0.758712
1.10529
1.57331
2.2005
3.01206
4.05135
5.34064
6.92174
8.80776
11.0316
13.5929
16.5109
19.771
23.3777
27.3049
31.5448
36.0643
40.8468
45.8571
51.074
56.4639
62.0046
67.6666
73.4296
79.2697
85.1701
91.113
97.0857
103.076
109.076
115.079
121.08
127.075
133.064
139.043
145.014
150.975
156.927
162.857
166.754
170.549
174.247
177.848
181.353
184.764
188.081
191.306
194.439
197.482
200.436
203.302
206.081
208.776
211.387
213.915
216.363
218.732
221.023
223.238
225.38
227.449
229.449
231.382
233.316
0.00181818
0.000297914
6.83582e-05
2.1875e-05
1.39304e-05
2.57611e-05
8.59213e-05
0.000303414
0.000973917
0.00287223
0.00774533
0.0194698
0.0457037
0.101161
0.211856
0.422092
0.801977
1.46162
2.55318
4.29238
6.91943
10.7328
15.9801
22.9309
31.7111
42.4409
55.0495
69.4787
85.4934
102.922
121.457
140.898
160.945
181.42
202.071
222.762
243.298
263.585
283.483
302.934
321.845
340.186
357.903
374.987
391.416
407.194
422.321
436.814
450.688