/*--------------------------------*- C++ -*----------------------------------*\
| =========                 |                                                 |
| \\      /  F ield         | OpenFOAM: The Open Source CFD Toolbox           |
|  \\    /   O peration     | Version:  5.x                                   |
|   \\  /    A nd           | Web:      www.OpenFOAM.org                      |
|    \\/     M anipulation  |                                                 |
\*---------------------------------------------------------------------------*/
FoamFile
{
    version     2.0;
    format      ascii;
    class       volScalarField;
    location    "300";
    object      k;
}
// * * * * * * * * * * * * * * * * * * * * * * * * * * * * * * * * * * * * * //

dimensions      [0 2 -2 0 0 0 0];

internalField   nonuniform List<scalar> 
20540
(
2.45293e-05
7.72688e-06
2.45293e-05
1.40234e-05
2.45293e-05
2.49936e-05
2.45293e-05
3.98322e-05
2.45293e-05
5.74944e-05
2.45293e-05
7.64416e-05
2.45293e-05
9.45199e-05
2.45293e-05
0.000108999
2.45293e-05
0.000116851
2.45293e-05
0.000115342
2.45293e-05
0.000102959
2.45293e-05
8.05519e-05
2.45293e-05
5.23634e-05
2.45293e-05
2.60895e-05
2.45293e-05
9.74975e-06
2.45293e-05
4.04981e-06
2.45293e-05
2.89935e-06
2.45293e-05
2.72152e-06
2.45293e-05
2.69429e-06
2.45293e-05
2.68982e-06
2.45293e-05
2.68913e-06
2.45293e-05
2.68911e-06
2.45293e-05
2.68924e-06
2.45293e-05
2.68942e-06
2.45293e-05
2.68964e-06
2.45293e-05
2.68991e-06
2.45293e-05
2.69022e-06
2.45293e-05
2.69056e-06
2.45293e-05
2.6909e-06
2.45293e-05
2.69122e-06
2.45293e-05
2.69145e-06
2.45293e-05
2.69156e-06
2.45293e-05
2.69156e-06
2.45293e-05
2.69145e-06
2.45293e-05
2.69122e-06
2.45293e-05
2.69091e-06
2.45293e-05
2.69058e-06
2.45293e-05
2.69026e-06
2.45293e-05
2.68996e-06
2.45293e-05
2.68969e-06
2.45293e-05
2.68947e-06
2.45293e-05
2.68928e-06
2.45293e-05
2.68915e-06
2.45293e-05
2.6891e-06
2.45293e-05
2.68941e-06
2.45293e-05
2.69157e-06
2.45293e-05
2.70408e-06
2.45293e-05
2.77955e-06
2.45293e-05
3.25942e-06
2.45293e-05
5.94312e-06
2.45293e-05
1.59482e-05
2.45293e-05
3.69346e-05
2.45293e-05
6.4343e-05
2.45293e-05
9.02999e-05
2.45293e-05
0.000108916
2.45293e-05
0.00011751
2.45293e-05
0.000116121
2.45293e-05
0.000106548
2.45293e-05
9.14165e-05
2.45293e-05
7.34584e-05
2.45293e-05
5.50729e-05
2.45293e-05
3.81343e-05
2.45293e-05
2.3985e-05
2.45293e-05
1.3557e-05
2.45293e-05
7.61351e-06
3.68769
3.61589
3.36504
3.18184
3.04813
2.94717
2.86819
2.80466
2.75253
2.70915
2.67249
2.64109
2.61389
2.59014
2.56933
2.55098
2.53471
2.52014
2.507
2.49511
2.48433
2.47459
2.46577
2.45778
2.45051
2.44387
2.43776
2.43214
2.42695
2.42215
2.41772
2.41363
2.40984
2.40632
2.40306
2.40004
2.39723
2.39463
2.39223
2.39001
2.38798
2.38613
2.38445
2.38294
2.38161
2.38045
2.37949
2.37871
2.37814
2.37779
2.37769
2.37786
2.37831
2.37907
2.38016
2.38161
2.38345
2.38572
2.38845
2.39171
2.39553
2.39996
2.40534
2.40955
2.4138
2.41812
2.42269
2.4275
2.43249
2.43771
2.44308
2.44867
2.4544
2.46032
2.46636
2.47257
2.47886
2.48531
2.49184
2.49855
2.50546
2.5127
2.52039
2.52902
2.53903
2.55368
2.57988
2.70353
16.8736
15.7478
14.7489
14.0779
13.5971
13.2357
12.953
12.7252
12.5379
12.3817
12.2495
12.136
12.0374
11.9512
11.8754
11.8086
11.7491
11.6958
11.6476
11.604
11.5644
11.5287
11.4963
11.467
11.4403
11.4159
11.3935
11.3728
11.3536
11.336
11.3196
11.3045
11.2905
11.2776
11.2655
11.2544
11.244
11.2344
11.2256
11.2174
11.21
11.2032
11.197
11.1916
11.1867
11.1826
11.1792
11.1765
11.1746
11.1736
11.1735
11.1745
11.1766
11.1799
11.1845
11.1904
11.1979
11.2071
11.2182
11.2313
11.2468
11.2645
11.2866
11.3043
11.3218
11.3392
11.3578
11.3774
11.3978
11.4191
11.4411
11.4639
11.4873
11.5114
11.5361
11.5615
11.5873
11.6139
11.641
11.6691
11.6984
11.7297
11.7638
11.8026
11.8491
11.9125
12.01
12.0637
18.564
18.4997
17.5443
16.8441
16.3304
15.94
15.6329
15.3846
15.18
15.009
14.864
14.7394
14.6311
14.5364
14.4532
14.3796
14.3141
14.2554
14.2024
14.1543
14.1107
14.0713
14.0356
14.0032
13.9737
13.9467
13.9219
13.8991
13.8779
13.8584
13.8404
13.8237
13.8082
13.7939
13.7806
13.7682
13.7568
13.7461
13.7363
13.7273
13.719
13.7114
13.7046
13.6984
13.693
13.6883
13.6843
13.6812
13.6789
13.6774
13.677
13.6777
13.6795
13.6826
13.687
13.6929
13.7003
13.7095
13.7205
13.7337
13.7491
13.7671
13.7887
13.8055
13.823
13.8408
13.8594
13.8789
13.8992
13.9204
13.9421
13.9647
13.9878
14.0117
14.036
14.0609
14.0862
14.1119
14.138
14.1646
14.192
14.2205
14.2506
14.2839
14.321
14.3716
14.4213
14.3727
18.421
19.57
18.7678
18.0916
17.5787
17.1835
16.8705
16.6164
16.4065
16.2307
16.0814
15.9531
15.8415
15.7438
15.6579
15.582
15.5144
15.4537
15.399
15.3493
15.3043
15.2635
15.2265
15.193
15.1625
15.1346
15.1089
15.0853
15.0634
15.0432
15.0246
15.0073
14.9913
14.9765
14.9627
14.9499
14.938
14.927
14.9168
14.9074
14.8988
14.8909
14.8837
14.8772
14.8715
14.8665
14.8622
14.8587
14.8561
14.8543
14.8534
14.8536
14.855
14.8575
14.8613
14.8666
14.8733
14.8816
14.8917
14.9038
14.918
14.9347
14.9542
14.9689
14.9851
15.0018
15.019
15.037
15.0556
15.075
15.0949
15.1155
15.1366
15.1583
15.1803
15.2029
15.2257
15.2489
15.2723
15.296
15.3201
15.3448
15.3704
15.3979
15.4261
15.4636
15.4775
15.3885
17.5103
19.9445
19.3808
18.7623
18.2681
17.8797
17.5691
17.3157
17.1057
16.9293
16.7793
16.6502
16.5378
16.4394
16.3528
16.2761
16.2079
16.1467
16.0914
16.0412
15.9957
15.9545
15.9172
15.8833
15.8524
15.8242
15.7982
15.7743
15.7523
15.7319
15.713
15.6955
15.6793
15.6643
15.6504
15.6375
15.6254
15.6143
15.604
15.5944
15.5857
15.5776
15.5703
15.5636
15.5577
15.5525
15.548
15.5442
15.5412
15.539
15.5377
15.5374
15.5382
15.54
15.5431
15.5473
15.553
15.5602
15.5689
15.5795
15.5919
15.6066
15.6234
15.6356
15.6497
15.6648
15.68
15.6958
15.7122
15.7292
15.7466
15.7645
15.7828
15.8016
15.8207
15.8401
15.8598
15.8797
15.8997
15.9199
15.9403
15.961
15.982
16.0043
16.0253
16.0517
16.0444
15.9533
16.1557
19.8925
19.653
19.1249
18.6651
18.2928
17.9908
17.7426
17.5358
17.3617
17.2132
17.0851
16.9736
16.8759
16.7897
16.7134
16.6454
16.5844
16.5293
16.4793
16.4339
16.3928
16.3555
16.3217
16.2909
16.2627
16.2368
16.213
16.191
16.1706
16.1518
16.1344
16.1182
16.1032
16.0893
16.0764
16.0644
16.0533
16.043
16.0334
16.0246
16.0165
16.0091
16.0024
15.9963
15.991
15.9863
15.9822
15.9789
15.9764
15.9746
15.9738
15.9738
15.9749
15.977
15.9802
15.9847
15.9904
15.9976
16.0063
16.0165
16.029
16.0427
16.0522
16.0639
16.0768
16.0898
16.1032
16.1169
16.1312
16.1457
16.1607
16.1758
16.1914
16.207
16.223
16.239
16.2553
16.2715
16.2879
16.3043
16.3209
16.3374
16.3547
16.3695
16.3868
16.3681
16.2895
14.5033
19.5057
19.6826
19.2825
18.8744
18.5277
18.2404
18.0016
17.8013
17.6317
17.4867
17.3613
17.252
17.156
17.0713
16.9962
16.9292
16.869
16.8146
16.7653
16.7205
16.6799
16.6431
16.6097
16.5793
16.5514
16.5258
16.5023
16.4805
16.4604
16.4418
16.4246
16.4087
16.3939
16.3801
16.3674
16.3555
16.3445
16.3343
16.3248
16.3161
16.308
16.3006
16.2939
16.2878
16.2823
16.2774
16.2732
16.2696
16.2667
16.2645
16.263
16.2624
16.2626
16.2638
16.2658
16.2689
16.2731
16.2785
16.2852
16.2931
16.303
16.3134
16.3203
16.3292
16.3397
16.3501
16.361
16.3719
16.3833
16.3948
16.4065
16.4183
16.4304
16.4425
16.4548
16.4671
16.4794
16.4917
16.504
16.5162
16.5285
16.5406
16.5529
16.5621
16.5715
16.5465
16.4811
12.6442
18.8119
19.5038
19.277
18.9418
18.632
18.3663
18.1417
17.9512
17.7889
17.6493
17.5283
17.4225
17.3294
17.2471
17.1739
17.1086
17.0498
16.9967
16.9486
16.9048
16.8652
16.8292
16.7965
16.7667
16.7395
16.7145
16.6914
16.6702
16.6505
16.6323
16.6155
16.5999
16.5854
16.5719
16.5594
16.5478
16.537
16.527
16.5178
16.5092
16.5012
16.4939
16.4872
16.4811
16.4756
16.4706
16.4662
16.4624
16.4591
16.4564
16.4544
16.4531
16.4524
16.4526
16.4534
16.4551
16.4577
16.4612
16.4658
16.4713
16.4784
16.4856
16.4898
16.4959
16.5036
16.5115
16.5195
16.5276
16.536
16.5443
16.5529
16.5613
16.5699
16.5783
16.5869
16.5953
16.6038
16.612
16.6202
16.6282
16.6361
16.6436
16.651
16.6548
16.6571
16.6276
16.5708
10.6544
17.811
19.1187
19.121
18.8852
18.6266
18.3913
18.1865
18.01
17.8579
17.7261
17.6113
17.5106
17.4217
17.3428
17.2726
17.2097
17.1531
17.1018
17.0554
17.0131
16.9748
16.94
16.9084
16.8796
16.8533
16.8291
16.8068
16.7862
16.7672
16.7496
16.7333
16.7182
16.7042
16.6912
16.6791
16.6679
16.6574
16.6477
16.6387
16.6304
16.6227
16.6155
16.6089
16.6029
16.5974
16.5923
16.5878
16.5838
16.5802
16.5771
16.5746
16.5725
16.5711
16.5702
16.5699
16.5702
16.5711
16.5727
16.5752
16.5782
16.5826
16.5865
16.5883
16.5916
16.5964
16.6015
16.6068
16.612
16.6173
16.6225
16.6279
16.6329
16.6381
16.643
16.648
16.6526
16.6573
16.6616
16.6657
16.6696
16.6732
16.6762
16.6788
16.6773
16.673
16.6394
16.5863
8.61092
16.4925
18.51
18.8087
18.7063
18.5176
18.3238
18.1462
17.9887
17.8506
17.7296
17.6232
17.5294
17.4462
17.3721
17.3059
17.2465
17.1928
17.1441
17.0999
17.0597
17.0233
16.9901
16.96
16.9326
16.9074
16.8844
16.8631
16.8435
16.8254
16.8086
16.7931
16.7787
16.7653
16.7529
16.7413
16.7306
16.7206
16.7114
16.7027
16.6948
16.6873
16.6804
16.6741
16.6682
16.6627
16.6578
16.6532
16.649
16.6452
16.6418
16.6387
16.6361
16.6338
16.632
16.6306
16.6295
16.6289
16.6287
16.629
16.6297
16.6313
16.6322
16.6316
16.6322
16.6342
16.6365
16.639
16.6414
16.6439
16.6461
16.6484
16.6503
16.6522
16.6537
16.6552
16.6564
16.6574
16.6581
16.6584
16.6583
16.6579
16.6566
16.6545
16.648
16.6377
16.6001
16.5478
6.59971
14.8479
17.6458
18.3199
18.3946
18.3001
18.1624
18.0215
17.8899
17.7707
17.6641
17.5691
17.4845
17.4089
17.3412
17.2804
17.2255
17.1757
17.1305
17.0894
17.052
17.018
16.9871
16.9589
16.9333
16.9098
16.8882
16.8683
16.85
16.833
16.8173
16.8028
16.7893
16.7767
16.7651
16.7543
16.7443
16.7349
16.7263
16.7182
16.7107
16.7037
16.6972
16.6911
16.6855
16.6803
16.6754
16.6709
16.6667
16.6627
16.659
16.6556
16.6524
16.6495
16.6468
16.6444
16.6421
16.64
16.6381
16.6365
16.6349
16.634
16.6321
16.6294
16.6275
16.6269
16.6264
16.6263
16.626
16.6257
16.6251
16.6245
16.6235
16.6225
16.621
16.6194
16.6174
16.6151
16.6125
16.6094
16.6057
16.6016
16.5964
16.59
16.579
16.5633
16.5224
16.4705
4.71631
12.8839
16.4851
17.6216
17.9283
17.9599
17.8978
17.8064
17.7092
17.6153
17.528
17.4482
17.3758
17.3103
17.2511
17.1973
17.1485
17.104
17.0634
17.0263
16.9925
16.9617
16.9337
16.9082
16.8849
16.8635
16.8439
16.8258
16.8091
16.7937
16.7794
16.7662
16.7539
16.7425
16.7319
16.722
16.7129
16.7044
16.6965
16.6891
16.6823
16.6759
16.6699
16.6643
16.6591
16.6542
16.6496
16.6452
16.6411
16.6372
16.6334
16.6297
16.6261
16.6227
16.6193
16.616
16.6126
16.6093
16.6059
16.6026
16.599
16.5957
16.5913
16.5868
16.5827
16.5797
16.5768
16.5742
16.5714
16.5687
16.5656
16.5625
16.5589
16.5552
16.551
16.5467
16.542
16.5369
16.5314
16.5253
16.5187
16.5113
16.5027
16.4925
16.4776
16.4576
16.4146
16.3641
3.0616
10.6382
14.9831
16.6685
17.2741
17.473
17.5124
17.4873
17.4364
17.3763
17.3147
17.255
17.1988
17.1467
17.0985
17.0542
17.0134
16.9758
16.9412
16.9095
16.8804
16.8538
16.8296
16.8075
16.7872
16.7686
16.7516
16.7358
16.7213
16.7078
16.6954
16.6838
16.6731
16.6631
16.6539
16.6453
16.6374
16.63
16.6231
16.6166
16.6106
16.605
16.5998
16.5949
16.5902
16.5858
16.5816
16.5776
16.5738
16.57
16.5662
16.5624
16.5587
16.5549
16.551
16.547
16.5429
16.5386
16.5339
16.5291
16.5239
16.5186
16.5121
16.5061
16.5003
16.4952
16.4902
16.4854
16.4805
16.4756
16.4704
16.4651
16.4593
16.4534
16.447
16.4404
16.4334
16.426
16.4182
16.4097
16.4005
16.3905
16.3791
16.3659
16.3479
16.3245
16.2812
16.2334
1.7308
8.19777
13.1043
15.4042
16.3855
16.8042
16.9791
17.043
17.0542
17.0393
17.012
16.9791
16.9444
16.9098
16.8763
16.8444
16.8141
16.7857
16.759
16.7343
16.7114
16.6903
16.671
16.6533
16.6371
16.6222
16.6084
16.5957
16.5839
16.573
16.5629
16.5535
16.5449
16.5368
16.5293
16.5224
16.5159
16.51
16.5044
16.4992
16.4943
16.4898
16.4855
16.4814
16.4776
16.4739
16.4703
16.4669
16.4635
16.4601
16.4566
16.453
16.4492
16.4453
16.4412
16.4368
16.4322
16.4271
16.4216
16.4158
16.4092
16.4024
16.3943
16.3871
16.3798
16.3732
16.3665
16.36
16.3533
16.3467
16.3397
16.3326
16.3251
16.3174
16.3093
16.3009
16.2922
16.283
16.2733
16.263
16.2519
16.2399
16.2263
16.2107
16.1906
16.165
16.1231
16.0793
0.796273
5.71746
10.843
13.768
15.203
15.9052
16.2596
16.4427
16.5371
16.5829
16.6015
16.6043
16.5983
16.587
16.5729
16.5573
16.541
16.5245
16.5084
16.4928
16.478
16.4642
16.4513
16.4394
16.4284
16.4182
16.4087
16.3999
16.3917
16.3842
16.3771
16.3706
16.3646
16.359
16.3538
16.3489
16.3445
16.3403
16.3364
16.3328
16.3295
16.3263
16.3233
16.3204
16.3176
16.3149
16.3123
16.3096
16.307
16.3042
16.3012
16.298
16.2946
16.2909
16.2868
16.2824
16.2775
16.2722
16.2662
16.2597
16.2523
16.2444
16.2352
16.2271
16.219
16.2112
16.2033
16.1955
16.1875
16.1796
16.1713
16.1629
16.1541
16.1452
16.1358
16.1261
16.1161
16.1056
16.0947
16.0831
16.0706
16.0572
16.0421
16.0248
16.0035
15.9769
15.9379
15.8986
0.277592
3.42848
8.25916
11.7099
13.6564
14.7129
15.3016
15.6433
15.8492
15.9765
16.0567
16.1075
16.1396
16.1595
16.1711
16.1772
16.1793
16.1788
16.1765
16.173
16.1689
16.1646
16.1602
16.1559
16.1517
16.1476
16.1438
16.1401
16.1366
16.1334
16.1303
16.1275
16.1249
16.1224
16.1202
16.1181
16.1162
16.1144
16.1128
16.1112
16.1098
16.1084
16.1071
16.1057
16.1044
16.1031
16.1017
16.1002
16.0986
16.0968
16.0947
16.0922
16.0894
16.0862
16.0826
16.0785
16.0738
16.0685
16.0625
16.0557
16.048
16.0397
16.0299
16.0214
16.0127
16.0043
15.9957
15.9871
15.9783
15.9695
15.9604
15.9512
15.9416
15.9318
15.9216
15.9111
15.9003
15.889
15.8773
15.8649
15.8516
15.8372
15.8213
15.8031
15.7813
15.7549
15.7196
15.685
0.0744082
1.61098
5.52553
9.22432
11.6768
13.1511
14.0371
14.5868
14.9413
15.1779
15.3408
15.4561
15.5395
15.6011
15.6472
15.6822
15.7089
15.7295
15.7455
15.7581
15.7682
15.7764
15.7831
15.7888
15.7936
15.7976
15.8011
15.8042
15.8069
15.8093
15.8114
15.8134
15.8152
15.8169
15.8185
15.82
15.8214
15.8227
15.824
15.8252
15.8262
15.8272
15.828
15.8288
15.8294
15.8298
15.8301
15.8301
15.83
15.8295
15.8287
15.8275
15.8257
15.8235
15.8207
15.8173
15.8132
15.8085
15.8028
15.7964
15.7889
15.7806
15.7709
15.7624
15.7536
15.745
15.7361
15.7272
15.718
15.7089
15.6994
15.6898
15.6798
15.6696
15.659
15.6482
15.6369
15.6253
15.6132
15.6004
15.5867
15.5719
15.5556
15.5371
15.5156
15.4904
15.4593
15.4291
0.016677
0.509916
2.97394
6.41202
9.22784
11.1412
12.3836
13.1982
13.7475
14.1296
14.4036
14.6055
14.758
14.8756
14.968
15.0418
15.1015
15.1504
15.1909
15.2249
15.2537
15.2785
15.3001
15.319
15.3357
15.3505
15.3637
15.3756
15.3864
15.3962
15.4052
15.4135
15.4211
15.4282
15.4348
15.441
15.4468
15.4521
15.4572
15.4619
15.4662
15.4703
15.474
15.4774
15.4806
15.4834
15.4859
15.488
15.4898
15.4913
15.4922
15.4926
15.4924
15.4916
15.4901
15.488
15.485
15.4813
15.4766
15.471
15.4642
15.4565
15.4475
15.4393
15.4309
15.4225
15.4138
15.405
15.396
15.3868
15.3774
15.3678
15.3579
15.3476
15.337
15.3261
15.3148
15.3031
15.2909
15.2781
15.2644
15.2495
15.2332
15.215
15.1944
15.1711
15.1442
15.1178
0.00326574
0.102501
1.08457
3.57391
6.37561
8.63575
10.2569
11.3881
12.184
12.756
13.1772
13.4951
13.7405
13.9336
14.0884
14.2145
14.3185
14.4054
14.4788
14.5414
14.5954
14.6425
14.6838
14.7204
14.7529
14.7819
14.8081
14.8317
14.8532
14.8729
14.8909
14.9075
14.9229
14.9371
14.9504
14.9627
14.9741
14.9848
14.9948
15.0041
15.0128
15.0209
15.0285
15.0355
15.0419
15.0479
15.0534
15.0583
15.0627
15.0667
15.07
15.0727
15.0746
15.0758
15.0763
15.0759
15.0746
15.0725
15.0693
15.065
15.0596
15.0531
15.0453
15.038
15.0303
15.0225
15.0144
15.0061
14.9975
14.9888
14.9798
14.9705
14.9609
14.9509
14.9406
14.9299
14.9188
14.9073
14.8953
14.8827
14.8691
14.8545
14.8386
14.8211
14.8018
14.7807
14.7577
14.7341
0.000556951
0.0152833
0.22127
1.30557
3.4199
5.70277
7.61387
9.07189
10.1559
10.9639
11.5749
12.0451
12.4139
12.7083
12.947
13.1435
13.3073
13.4453
13.563
13.6642
13.7522
13.8291
13.897
13.9572
14.011
14.0592
14.1026
14.142
14.1778
14.2106
14.2407
14.2684
14.294
14.3177
14.3397
14.3601
14.3792
14.3969
14.4135
14.4289
14.4433
14.4568
14.4693
14.4811
14.492
14.5021
14.5115
14.5202
14.5281
14.5354
14.5419
14.5477
14.5525
14.5565
14.5595
14.5616
14.5627
14.5627
14.5617
14.5594
14.5559
14.5512
14.5451
14.5391
14.5326
14.5258
14.5187
14.5112
14.5034
14.4954
14.487
14.4783
14.4693
14.4598
14.45
14.4397
14.4291
14.4179
14.4063
14.3939
14.3808
14.3666
14.3513
14.3348
14.3171
14.2984
14.2786
14.257
7.89684e-05
0.00190678
0.0276128
0.243879
1.09838
2.71046
4.56693
6.23194
7.58803
8.65746
9.4957
10.1571
10.6852
11.1123
11.4623
11.7528
11.9968
12.2037
12.3811
12.5344
12.668
12.7853
12.889
12.9811
13.0635
13.1374
13.2042
13.2647
13.3198
13.3702
13.4165
13.459
13.4984
13.5347
13.5685
13.5998
13.629
13.6561
13.6814
13.705
13.7271
13.7477
13.767
13.785
13.8018
13.8175
13.8322
13.8458
13.8585
13.8702
13.8809
13.8908
13.8996
13.9072
13.9138
13.9192
13.9234
13.9264
13.9282
13.9287
13.9278
13.9255
13.9218
13.9175
13.9125
13.9071
13.9012
13.8949
13.8882
13.8811
13.8736
13.8658
13.8575
13.8487
13.8395
13.8298
13.8197
13.809
13.7978
13.7859
13.7732
13.7597
13.7453
13.73
13.7139
13.6973
13.6801
13.6598
7.7561e-06
0.000200283
0.00267706
0.0251138
0.162214
0.660406
1.69629
3.09745
4.53087
5.7979
6.85767
7.73103
8.44899
9.04096
9.53275
9.94525
10.2945
10.5929
10.8498
11.0728
11.2677
11.4392
11.5911
11.7263
11.8473
11.9561
12.0543
12.1434
12.2246
12.2988
12.3669
12.4296
12.4874
12.5408
12.5903
12.6363
12.679
12.7188
12.7558
12.7905
12.8228
12.853
12.8813
12.9078
12.9326
12.9559
12.9776
12.9979
13.0169
13.0346
13.051
13.0662
13.0801
13.0928
13.104
13.1139
13.1223
13.1294
13.1349
13.139
13.1415
13.1424
13.1418
13.1396
13.1366
13.133
13.1287
13.1239
13.1185
13.1127
13.1063
13.0994
13.0921
13.0841
13.0757
13.0667
13.0572
13.0471
13.0364
13.025
13.013
13.0003
12.9868
12.9728
12.9583
12.9436
12.9283
12.9086
8.14168e-07
1.69807e-05
0.000215737
0.00193586
0.0130402
0.0679272
0.265999
0.748027
1.56464
2.61217
3.71504
4.74021
5.63475
6.39899
7.05129
7.61015
8.09061
8.50515
8.8646
9.17814
9.45345
9.69662
9.91265
10.1054
10.2783
10.4339
10.5746
10.7023
10.8187
10.925
11.0225
11.1123
11.195
11.2714
11.3423
11.408
11.469
11.5259
11.5789
11.6284
11.6746
11.7179
11.7584
11.7964
11.832
11.8654
11.8967
11.9261
11.9536
11.9793
12.0033
12.0257
12.0465
12.0658
12.0834
12.0992
12.1133
12.1256
12.1362
12.145
12.1519
12.1571
12.1604
12.1609
12.1603
12.1589
12.1568
12.1538
12.1502
12.1459
12.1409
12.1353
12.129
12.1221
12.1146
12.1065
12.0977
12.0884
12.0784
12.0678
12.0566
12.0447
12.0324
12.0197
12.0067
11.9935
11.9797
11.9602
4.75286e-07
1.03951e-06
1.40363e-05
0.000122148
0.000795974
0.00416511
0.0181835
0.0666599
0.201317
0.489597
0.971582
1.63091
2.40278
3.20641
3.97643
4.67635
5.29528
5.83772
6.31408
6.73489
7.10883
7.44247
7.74107
8.00889
8.24978
8.46703
8.66369
8.84231
9.00518
9.15417
9.29092
9.41679
9.53295
9.64036
9.73991
9.83231
9.91822
9.99823
10.0728
10.1425
10.2076
10.2685
10.3256
10.3792
10.4294
10.4765
10.5208
10.5624
10.6014
10.638
10.6723
10.7043
10.7343
10.7623
10.7884
10.8122
10.8339
10.8533
10.8706
10.8856
10.8985
10.9092
10.9176
10.9216
10.9242
10.9257
10.9262
10.9258
10.9243
10.922
10.9189
10.9149
10.9101
10.9046
10.8984
10.8914
10.8838
10.8755
10.8665
10.8569
10.8468
10.8361
10.825
10.8136
10.802
10.7902
10.7774
10.758
4.64317e-07
1.43506e-07
6.92626e-07
6.17055e-06
3.93128e-05
0.000199995
0.00085993
0.00320962
0.0105789
0.0310721
0.0811824
0.186513
0.374403
0.662047
1.04923
1.51902
2.04354
2.59157
3.13525
3.65395
4.13536
4.57421
4.97043
5.32692
5.64804
5.93836
6.20214
6.44296
6.66377
6.86693
7.05434
7.22758
7.38796
7.53663
7.67462
7.80282
7.92206
8.03311
8.13666
8.23331
8.32366
8.4082
8.4874
8.56167
8.63138
8.69685
8.75838
8.81621
8.87058
8.92168
8.96969
9.01476
9.05701
9.09658
9.13365
9.16829
9.2001
9.22913
9.25542
9.27896
9.29977
9.31788
9.3333
9.3418
9.34859
9.354
9.35808
9.36089
9.36251
9.36298
9.36236
9.36073
9.35814
9.35463
9.35025
9.34504
9.33905
9.33231
9.32488
9.3168
9.30815
9.29899
9.2894
9.27945
9.26921
9.25866
9.24703
9.22818
4.64117e-07
1.1557e-07
5.6058e-08
2.39641e-07
1.52448e-06
7.64002e-06
3.21477e-05
0.000117883
0.000384662
0.0011356
0.00307102
0.00767691
0.0178299
0.0385385
0.0773024
0.14342
0.246062
0.391911
0.583556
0.819145
1.0931
1.3973
1.72238
2.05882
2.39789
2.73219
3.05597
3.36511
3.65706
3.93049
4.18511
4.42128
4.63989
4.84207
5.0291
5.20229
5.36291
5.51217
5.65114
5.78081
5.90204
6.01561
6.12217
6.22231
6.31653
6.40526
6.48888
6.56773
6.64209
6.71222
6.77834
6.84065
6.89931
6.95449
7.00632
7.05508
7.10075
7.1429
7.18157
7.21681
7.24862
7.27706
7.30214
7.31692
7.32955
7.34038
7.34951
7.35702
7.36301
7.36755
7.37073
7.37264
7.37336
7.37296
7.37152
7.3691
7.36577
7.36158
7.35661
7.35092
7.34458
7.33764
7.33017
7.32223
7.31386
7.30503
7.29507
7.27812
4.6419e-07
1.14977e-07
3.8601e-08
2.10597e-08
4.87253e-08
2.23915e-07
9.30895e-07
3.36506e-06
1.08206e-05
3.1552e-05
8.45633e-05
0.000210674
0.000491505
0.00108087
0.00225078
0.00445767
0.00843054
0.0152685
0.0265099
0.0441205
0.0703725
0.107616
0.157997
0.223178
0.304143
0.40111
0.513561
0.64034
0.779825
0.930075
1.089
1.25445
1.42437
1.5968
1.76998
1.94234
2.11255
2.27948
2.44224
2.6001
2.75255
2.89921
3.03985
3.17434
3.30265
3.42481
3.5409
3.65106
3.75545
3.85424
3.94763
4.03581
4.11896
4.19729
4.27096
4.34015
4.40533
4.46634
4.52279
4.57474
4.62225
4.66535
4.70409
4.72761
4.74843
4.76691
4.78319
4.79738
4.80964
4.82007
4.82881
4.83596
4.84164
4.84595
4.849
4.85087
4.85165
4.85143
4.85027
4.84826
4.84545
4.8419
4.83767
4.8328
4.82732
4.82124
4.8142
4.80189
4.64275e-07
1.14984e-07
3.82839e-08
1.61654e-08
8.78156e-09
8.80811e-09
2.19232e-08
7.26241e-08
2.28909e-07
6.59578e-07
1.74962e-06
4.32271e-06
1.00214e-05
2.19452e-05
4.56112e-05
9.03992e-05
0.000171624
0.000313284
0.000551477
0.00093809
0.00154541
0.00247116
0.00384548
0.00583684
0.00865779
0.0125645
0.0178537
0.0248499
0.0338935
0.0453197
0.0594442
0.0765418
0.0968352
0.12048
0.147563
0.178092
0.21201
0.24919
0.289451
0.332566
0.378272
0.426281
0.476288
0.527979
0.581037
0.63515
0.690012
0.745327
0.800815
0.85621
0.911259
0.965731
1.0194
1.07208
1.12355
1.17365
1.22221
1.26935
1.31513
1.35941
1.40202
1.44281
1.48162
1.5061
1.52897
1.55033
1.57022
1.58869
1.60581
1.62161
1.63616
1.64952
1.66175
1.67291
1.68305
1.69223
1.70051
1.70794
1.71457
1.72046
1.72566
1.7302
1.73413
1.73749
1.74031
1.74264
1.74449
1.74556
4.64361e-07
1.15001e-07
3.82852e-08
1.60939e-08
8.09856e-09
4.70877e-09
3.2192e-09
3.02141e-09
4.75107e-09
1.07409e-08
2.65195e-08
6.39356e-08
1.46561e-07
3.18796e-07
6.59661e-07
1.30366e-06
2.47086e-06
4.50626e-06
7.93175e-06
1.34986e-05
2.22634e-05
3.56523e-05
5.55906e-05
8.45866e-05
0.000125923
0.0001837
0.000263041
0.00037001
0.00051184
0.000696739
0.0009342
0.00123473
0.00161019
0.00207338
0.00263829
0.00331947
0.00413214
0.00509141
0.00621224
0.00750867
0.00899352
0.0106777
0.0125699
0.0146758
0.0169977
0.019534
0.0222792
0.0252232
0.0283516
0.0316453
0.0350809
0.0386304
0.0422612
0.0459363
0.0496138
0.0532421
0.0567625
0.0603212
0.0639976
0.0677733
0.0716287
0.0755426
0.0794932
0.0820539
0.0845444
0.0869601
0.0892966
0.0915502
0.0937183
0.0957988
0.0977903
0.099692
0.101504
0.103226
0.10486
0.106406
0.107866
0.109243
0.110538
0.111754
0.112893
0.113959
0.114954
0.115881
0.116744
0.117545
0.118287
0.119
4.64443e-07
1.15017e-07
3.82903e-08
1.60952e-08
8.09179e-09
4.65885e-09
2.97322e-09
2.05681e-09
1.52835e-09
1.23725e-09
1.15203e-09
1.34119e-09
2.00458e-09
3.54777e-09
6.70743e-09
1.27435e-08
2.37263e-08
4.2894e-08
7.51821e-08
1.27642e-07
2.10333e-07
3.36588e-07
5.24753e-07
7.98077e-07
1.1878e-06
1.7319e-06
2.47949e-06
3.48731e-06
4.82554e-06
6.57173e-06
8.81865e-06
1.1666e-05
1.52297e-05
1.96316e-05
2.50081e-05
3.14975e-05
3.92473e-05
4.83991e-05
5.90935e-05
7.14545e-05
8.5589e-05
0.000101571
0.000119435
0.000139158
0.000160647
0.000183719
0.000208087
0.00023334
0.000258929
0.000284147
0.000308123
0.000329802
0.000347931
0.00036101
0.000367381
0.000369686
0.000372643
0.000376261
0.000380564
0.000385571
0.000391287
0.000397715
0.000404845
0.000409156
0.000413593
0.000418139
0.000422777
0.000427486
0.000432245
0.00043703
0.000441816
0.000446578
0.000451292
0.000455932
0.000460475
0.000464902
0.000469193
0.000473332
0.000477307
0.000481106
0.000484721
0.000488148
0.000491382
0.000494423
0.00049727
0.000499927
0.000502397
0.000504869
4.64502e-07
1.15028e-07
3.82941e-08
1.60968e-08
8.09247e-09
4.65887e-09
2.97147e-09
2.04876e-09
1.49996e-09
1.15099e-09
9.17268e-10
7.54736e-10
6.39795e-10
5.6036e-10
5.12201e-10
4.97798e-10
5.27064e-10
6.18752e-10
8.04229e-10
1.12843e-09
1.65901e-09
2.48169e-09
3.72226e-09
5.52897e-09
8.11704e-09
1.17275e-08
1.67e-08
2.33958e-08
3.23036e-08
4.39188e-08
5.88893e-08
7.78497e-08
1.01603e-07
1.30913e-07
1.66703e-07
2.09815e-07
2.61196e-07
3.21643e-07
3.91948e-07
4.72648e-07
5.64099e-07
6.66231e-07
7.78539e-07
8.99843e-07
1.0282e-06
1.1607e-06
1.29335e-06
1.42091e-06
1.53694e-06
1.63363e-06
1.70222e-06
1.73332e-06
1.72333e-06
1.7135e-06
1.70349e-06
1.69308e-06
1.68234e-06
1.6713e-06
1.66003e-06
1.64859e-06
1.63704e-06
1.62547e-06
1.61394e-06
1.60347e-06
1.59323e-06
1.58326e-06
1.57363e-06
1.56435e-06
1.55543e-06
1.54688e-06
1.53867e-06
1.53079e-06
1.5232e-06
1.51587e-06
1.50877e-06
1.50187e-06
1.49513e-06
1.48855e-06
1.48208e-06
1.47572e-06
1.46944e-06
1.46325e-06
1.45713e-06
1.45108e-06
1.44509e-06
1.43917e-06
1.43332e-06
1.42809e-06
4.64529e-07
1.15034e-07
3.82959e-08
1.60975e-08
8.09281e-09
4.65905e-09
2.97158e-09
2.04879e-09
1.49985e-09
1.1505e-09
9.15823e-10
7.51004e-10
6.30957e-10
5.40817e-10
4.71399e-10
4.16799e-10
3.7312e-10
3.37722e-10
3.08825e-10
2.85209e-10
2.6613e-10
2.51117e-10
2.40091e-10
2.33086e-10
2.30608e-10
2.33147e-10
2.41839e-10
2.57649e-10
2.82396e-10
3.17517e-10
3.65524e-10
4.28297e-10
5.08955e-10
6.09734e-10
7.34103e-10
8.84365e-10
1.06376e-09
1.27395e-09
1.51688e-09
1.7923e-09
2.09912e-09
2.43314e-09
2.78777e-09
3.15206e-09
3.51103e-09
3.84431e-09
4.12659e-09
4.32758e-09
4.41365e-09
4.46111e-09
4.50962e-09
4.55817e-09
4.60631e-09
4.6573e-09
4.71592e-09
4.7893e-09
4.88828e-09
5.0293e-09
5.23714e-09
5.54899e-09
6.02023e-09
6.73264e-09
7.80572e-09
8.70446e-09
9.83421e-09
1.1241e-08
1.29758e-08
1.50948e-08
1.7659e-08
2.07334e-08
2.43867e-08
2.86898e-08
3.37151e-08
3.95352e-08
4.62216e-08
5.38437e-08
6.24671e-08
7.21533e-08
8.2958e-08
9.49305e-08
1.08113e-07
1.22541e-07
1.38241e-07
1.55232e-07
1.73526e-07
1.93126e-07
2.14028e-07
2.3626e-07
4.64529e-07
1.15034e-07
3.82959e-08
1.60975e-08
8.09281e-09
4.65905e-09
2.97158e-09
2.04879e-09
1.49985e-09
1.1505e-09
9.1582e-10
7.50998e-10
6.30944e-10
5.40788e-10
4.7134e-10
4.16684e-10
3.72903e-10
3.37335e-10
3.08147e-10
2.84083e-10
2.64273e-10
2.48217e-10
2.35575e-10
2.26396e-10
2.20707e-10
2.19088e-10
2.21873e-10
2.30221e-10
2.44745e-10
2.67267e-10
2.98686e-10
3.4158e-10
3.97216e-10
4.69009e-10
5.5876e-10
6.70824e-10
8.07841e-10
9.75408e-10
1.17768e-09
1.42228e-09
1.71629e-09
2.07113e-09
2.49948e-09
3.0201e-09
3.65631e-09
4.44107e-09
5.4179e-09
6.6473e-09
8.21143e-09
1.02241e-08
1.28424e-08
1.62842e-08
2.08525e-08
2.69694e-08
3.52224e-08
4.64295e-08
6.17258e-08
8.26795e-08
1.11443e-07
1.50948e-07
2.05148e-07
2.79337e-07
3.80526e-07
4.61059e-07
5.56312e-07
6.68206e-07
7.98694e-07
9.49769e-07
1.12343e-06
1.32167e-06
1.54638e-06
1.79939e-06
2.08235e-06
2.39677e-06
2.74395e-06
3.12495e-06
3.54061e-06
3.99151e-06
4.47798e-06
5.00009e-06
5.55767e-06
6.15029e-06
6.77734e-06
7.43798e-06
8.13118e-06
8.85579e-06
9.61048e-06
1.03947e-05
4.64501e-07
1.15028e-07
3.8294e-08
1.60967e-08
8.09246e-09
4.65886e-09
2.97147e-09
2.04873e-09
1.49987e-09
1.15073e-09
9.16575e-10
7.53029e-10
6.35865e-10
5.51897e-10
4.94949e-10
4.64385e-10
4.64838e-10
5.07913e-10
6.11722e-10
8.08545e-10
1.1363e-09
1.66422e-09
2.45926e-09
3.65311e-09
5.35581e-09
7.7943e-09
1.11355e-08
1.57356e-08
2.18243e-08
2.99195e-08
4.03185e-08
5.37311e-08
7.05385e-08
9.16629e-08
1.17595e-07
1.49479e-07
1.87954e-07
2.34415e-07
2.8974e-07
3.55658e-07
4.33485e-07
5.25491e-07
6.3378e-07
7.61574e-07
9.12366e-07
1.09109e-06
1.30364e-06
1.55799e-06
1.86416e-06
2.23538e-06
2.68863e-06
3.24606e-06
3.93625e-06
4.79609e-06
5.87302e-06
7.22765e-06
8.93696e-06
1.10979e-05
1.38313e-05
1.72864e-05
2.16455e-05
2.71296e-05
3.40042e-05
3.91935e-05
4.50243e-05
5.15413e-05
5.87822e-05
6.67805e-05
7.55651e-05
8.516e-05
9.55832e-05
0.000106846
0.000118954
0.000131904
0.000145688
0.000160292
0.000175693
0.000191867
0.00020878
0.000226398
0.000244681
0.000263587
0.000283072
0.000303089
0.000323593
0.000344535
0.000365871
0.000387571
4.64442e-07
1.15017e-07
3.82902e-08
1.60952e-08
8.09177e-09
4.65864e-09
2.97219e-09
2.05272e-09
1.51438e-09
1.1963e-09
1.04293e-09
1.07594e-09
1.40098e-09
2.25811e-09
4.09364e-09
7.70009e-09
1.43676e-08
2.6247e-08
4.63707e-08
7.97883e-08
1.32435e-07
2.14794e-07
3.37187e-07
5.19451e-07
7.78461e-07
1.14858e-06
1.65524e-06
2.35273e-06
3.27548e-06
4.50289e-06
6.07823e-06
8.11089e-06
1.06541e-05
1.38505e-05
1.77652e-05
2.25744e-05
2.8358e-05
3.53253e-05
4.35778e-05
5.33611e-05
6.4814e-05
7.82276e-05
9.38043e-05
0.000111901
0.000132823
0.000157032
0.000184992
0.000217336
0.000254766
0.000298182
0.000348628
0.00040739
0.000475983
0.00055622
0.000650227
0.000760479
0.000889831
0.00104152
0.00121917
0.0014268
0.00166876
0.00194972
0.00227457
0.00250785
0.00275743
0.00302339
0.00330544
0.00360317
0.00391612
0.00424373
0.00458532
0.00494013
0.0053073
0.00568592
0.00607499
0.00647351
0.00688042
0.00729466
0.00771516
0.00814088
0.00857078
0.00900387
0.00943922
0.00987592
0.0103131
0.0107501
0.011186
0.0116209
4.64363e-07
1.15001e-07
3.82853e-08
1.60935e-08
8.09426e-09
4.68165e-09
3.08971e-09
2.53278e-09
3.14647e-09
6.15106e-09
1.45212e-08
3.50693e-08
8.1308e-08
1.7965e-07
3.77586e-07
7.58521e-07
1.45809e-06
2.70111e-06
4.80754e-06
8.30289e-06
1.3818e-05
2.24388e-05
3.52714e-05
5.43685e-05
8.15529e-05
0.000120382
0.000173609
0.000246835
0.000343772
0.000472554
0.000637797
0.0008506
0.00111654
0.00144987
0.0018572
0.00235573
0.00295308
0.00366872
0.00451128
0.00550158
0.00664923
0.0079753
0.00949034
0.0112146
0.0131593
0.0153435
0.0177793
0.0204842
0.0234717
0.0267588
0.0303603
0.0342938