/*--------------------------------*- C++ -*----------------------------------*\
| =========                 |                                                 |
| \\      /  F ield         | OpenFOAM: The Open Source CFD Toolbox           |
|  \\    /   O peration     | Version:  5.x                                   |
|   \\  /    A nd           | Web:      www.OpenFOAM.org                      |
|    \\/     M anipulation  |                                                 |
\*---------------------------------------------------------------------------*/
FoamFile
{
    version     2.0;
    format      ascii;
    class       volScalarField;
    location    "300";
    object      nut;
}
// * * * * * * * * * * * * * * * * * * * * * * * * * * * * * * * * * * * * * //

dimensions      [0 2 -1 0 0 0 0];

internalField   nonuniform List<scalar> 
20540
(
2.10937e-10
3.19325e-11
2.10937e-10
6.41958e-11
2.10937e-10
1.51971e-10
2.10937e-10
3.20543e-10
2.10937e-10
5.98164e-10
2.10937e-10
1.00817e-09
2.10937e-10
1.55763e-09
2.10937e-10
2.22056e-09
2.10937e-10
2.91656e-09
2.10937e-10
3.49083e-09
2.10937e-10
3.7112e-09
2.10937e-10
3.3239e-09
2.10937e-10
2.25685e-09
2.10937e-10
9.73395e-10
2.10937e-10
2.45954e-10
2.10937e-10
6.78412e-11
2.10937e-10
4.14663e-11
2.10937e-10
3.7788e-11
2.10937e-10
3.72328e-11
2.10937e-10
3.71412e-11
2.10937e-10
3.71267e-11
2.10937e-10
3.71257e-11
2.10937e-10
3.71273e-11
2.10937e-10
3.71296e-11
2.10937e-10
3.71326e-11
2.10937e-10
3.71362e-11
2.10937e-10
3.71402e-11
2.10937e-10
3.71446e-11
2.10937e-10
3.71491e-11
2.10937e-10
3.71534e-11
2.10937e-10
3.71564e-11
2.10937e-10
3.71578e-11
2.10937e-10
3.71578e-11
2.10937e-10
3.71564e-11
2.10937e-10
3.71534e-11
2.10937e-10
3.71493e-11
2.10937e-10
3.7145e-11
2.10937e-10
3.71407e-11
2.10937e-10
3.71368e-11
2.10937e-10
3.71333e-11
2.10937e-10
3.71303e-11
2.10937e-10
3.71279e-11
2.10937e-10
3.71261e-11
2.10937e-10
3.71259e-11
2.10937e-10
3.71326e-11
2.10937e-10
3.7177e-11
2.10937e-10
3.74323e-11
2.10937e-10
3.89767e-11
2.10937e-10
4.92606e-11
2.10937e-10
1.19388e-10
2.10937e-10
4.97383e-10
2.10937e-10
1.51787e-09
2.10937e-10
2.77934e-09
2.10937e-10
3.58092e-09
2.10937e-10
3.72356e-09
2.10937e-10
3.36838e-09
2.10937e-10
2.75308e-09
2.10937e-10
2.07085e-09
2.10937e-10
1.44411e-09
2.10937e-10
9.33203e-10
2.10937e-10
5.54609e-10
2.10937e-10
2.98576e-10
2.10937e-10
1.4273e-10
2.10937e-10
6.11744e-11
2.10937e-10
3.09366e-11
1.75458e-06
1.72038e-06
1.601e-06
1.51381e-06
1.45018e-06
1.40213e-06
1.36455e-06
1.33434e-06
1.30955e-06
1.28893e-06
1.2715e-06
1.25658e-06
1.24365e-06
1.23236e-06
1.22246e-06
1.21374e-06
1.20599e-06
1.19905e-06
1.1928e-06
1.18714e-06
1.18201e-06
1.17738e-06
1.17319e-06
1.16939e-06
1.16594e-06
1.16278e-06
1.15988e-06
1.1572e-06
1.15474e-06
1.15246e-06
1.15035e-06
1.14841e-06
1.1466e-06
1.14493e-06
1.14338e-06
1.14194e-06
1.14061e-06
1.13937e-06
1.13823e-06
1.13718e-06
1.13622e-06
1.13534e-06
1.13454e-06
1.13383e-06
1.1332e-06
1.13265e-06
1.13219e-06
1.13182e-06
1.13155e-06
1.13139e-06
1.13134e-06
1.13142e-06
1.13163e-06
1.13198e-06
1.1325e-06
1.13318e-06
1.13405e-06
1.13511e-06
1.13641e-06
1.13794e-06
1.13975e-06
1.14185e-06
1.14441e-06
1.14641e-06
1.14845e-06
1.15053e-06
1.15271e-06
1.15502e-06
1.15741e-06
1.15991e-06
1.16247e-06
1.16514e-06
1.16788e-06
1.17071e-06
1.17359e-06
1.17655e-06
1.17956e-06
1.18265e-06
1.1858e-06
1.18904e-06
1.19241e-06
1.19599e-06
1.19985e-06
1.20426e-06
1.20948e-06
1.21711e-06
1.23048e-06
1.28988e-06
3.45393e-05
3.84482e-05
3.80522e-05
3.73726e-05
3.67766e-05
3.62868e-05
3.58844e-05
3.55501e-05
3.52692e-05
3.50309e-05
3.48266e-05
3.46497e-05
3.44952e-05
3.43592e-05
3.42392e-05
3.41328e-05
3.40379e-05
3.39528e-05
3.38758e-05
3.38058e-05
3.37421e-05
3.36842e-05
3.36315e-05
3.35836e-05
3.354e-05
3.35e-05
3.34633e-05
3.34294e-05
3.33981e-05
3.33692e-05
3.33424e-05
3.33176e-05
3.32946e-05
3.32733e-05
3.32535e-05
3.32351e-05
3.32179e-05
3.3202e-05
3.31872e-05
3.31735e-05
3.31608e-05
3.31491e-05
3.31384e-05
3.31286e-05
3.31198e-05
3.31119e-05
3.3105e-05
3.3099e-05
3.30941e-05
3.30901e-05
3.30874e-05
3.30858e-05
3.30856e-05
3.30868e-05
3.30895e-05
3.30938e-05
3.30998e-05
3.31076e-05
3.31172e-05
3.3129e-05
3.31427e-05
3.31597e-05
3.31774e-05
3.31887e-05
3.32036e-05
3.32205e-05
3.3237e-05
3.3254e-05
3.32715e-05
3.32897e-05
3.33083e-05
3.33275e-05
3.3347e-05
3.3367e-05
3.33871e-05
3.34075e-05
3.34277e-05
3.34479e-05
3.34673e-05
3.34861e-05
3.35035e-05
3.35196e-05
3.35333e-05
3.35461e-05
3.35521e-05
3.3574e-05
3.35622e-05
3.37316e-05
6.18552e-05
7.57157e-05
7.71456e-05
7.67639e-05
7.61259e-05
7.55084e-05
7.4964e-05
7.44941e-05
7.40894e-05
7.374e-05
7.34368e-05
7.31722e-05
7.29399e-05
7.27347e-05
7.25528e-05
7.2391e-05
7.22467e-05
7.21171e-05
7.20001e-05
7.18936e-05
7.17965e-05
7.17078e-05
7.16268e-05
7.15529e-05
7.14855e-05
7.14238e-05
7.13673e-05
7.13152e-05
7.1267e-05
7.12225e-05
7.11813e-05
7.11431e-05
7.11078e-05
7.10749e-05
7.10445e-05
7.10161e-05
7.09896e-05
7.09649e-05
7.09418e-05
7.09203e-05
7.09001e-05
7.08813e-05
7.08637e-05
7.08474e-05
7.08322e-05
7.08181e-05
7.08051e-05
7.0793e-05
7.07819e-05
7.07716e-05
7.07621e-05
7.07537e-05
7.07462e-05
7.07398e-05
7.07344e-05
7.073e-05
7.07267e-05
7.07242e-05
7.07225e-05
7.07219e-05
7.0721e-05
7.0724e-05
7.07178e-05
7.07045e-05
7.07019e-05
7.07064e-05
7.07075e-05
7.07071e-05
7.07057e-05
7.07043e-05
7.07021e-05
7.06999e-05
7.06966e-05
7.06932e-05
7.06887e-05
7.06839e-05
7.06776e-05
7.06703e-05
7.06606e-05
7.06481e-05
7.0631e-05
7.06083e-05
7.05763e-05
7.05358e-05
7.04666e-05
7.04145e-05
7.0237e-05
7.07907e-05
8.79079e-05
0.000115121
0.000119998
0.000120528
0.000120118
0.000119508
0.000118896
0.000118336
0.000117837
0.000117395
0.000117005
0.000116662
0.000116358
0.000116088
0.000115848
0.000115633
0.00011544
0.000115267
0.000115111
0.000114969
0.000114839
0.00011472
0.000114611
0.000114512
0.000114421
0.000114338
0.000114261
0.000114191
0.000114126
0.000114067
0.000114011
0.00011396
0.000113912
0.000113868
0.000113827
0.000113789
0.000113753
0.00011372
0.000113688
0.000113659
0.000113631
0.000113605
0.000113581
0.000113557
0.000113535
0.000113514
0.000113494
0.000113475
0.000113456
0.000113437
0.000113419
0.0001134
0.000113382
0.000113364
0.000113345
0.000113326
0.000113307
0.000113287
0.000113265
0.000113243
0.000113217
0.000113194
0.000113151
0.000113104
0.000113072
0.000113053
0.000113029
0.000113002
0.000112971
0.000112938
0.000112903
0.000112867
0.000112828
0.000112788
0.000112744
0.0001127
0.000112653
0.000112605
0.000112553
0.000112498
0.000112438
0.000112372
0.000112296
0.000112213
0.000112096
0.000112022
0.000111852
0.000113069
0.000112868
0.000157179
0.000167695
0.00017007
0.000170322
0.000169947
0.000169399
0.000168831
0.00016829
0.000167793
0.000167343
0.00016694
0.000166579
0.000166255
0.000165964
0.000165702
0.000165467
0.000165254
0.000165061
0.000164885
0.000164725
0.000164578
0.000164444
0.00016432
0.000164207
0.000164104
0.000164009
0.000163922
0.000163841
0.000163767
0.000163698
0.000163634
0.000163575
0.00016352
0.000163468
0.000163421
0.000163376
0.000163335
0.000163296
0.000163259
0.000163224
0.00016319
0.000163159
0.000163128
0.000163099
0.00016307
0.000163042
0.000163014
0.000162986
0.000162957
0.000162927
0.000162896
0.000162863
0.000162829
0.000162792
0.000162752
0.00016271
0.000162664
0.000162614
0.000162559
0.000162496
0.000162435
0.000162342
0.000162252
0.000162177
0.000162122
0.000162062
0.000161997
0.000161925
0.00016185
0.00016177
0.000161687
0.000161598
0.000161507
0.000161411
0.000161313
0.00016121
0.000161106
0.000160996
0.000160884
0.000160768
0.000160647
0.00016052
0.000160394
0.000160246
0.00016019
0.000160166
0.000162119
0.000136194
0.000201623
0.000220653
0.000226257
0.000227863
0.000228103
0.000227846
0.000227416
0.000226936
0.000226455
0.000225998
0.000225574
0.000225187
0.000224834
0.000224513
0.000224221
0.000223955
0.000223713
0.000223493
0.000223292
0.000223109
0.00022294
0.000222785
0.000222643
0.000222513
0.000222393
0.000222283
0.000222182
0.000222089
0.000222003
0.000221923
0.000221849
0.00022178
0.000221716
0.000221656
0.000221601
0.000221549
0.000221501
0.000221455
0.000221412
0.00022137
0.000221331
0.000221293
0.000221255
0.000221219
0.000221183
0.000221146
0.000221109
0.000221071
0.00022103
0.000220986
0.000220939
0.000220888
0.000220833
0.000220773
0.000220706
0.000220634
0.000220553
0.000220464
0.000220366
0.000220255
0.000220141
0.000219985
0.000219843
0.000219711
0.000219604
0.000219496
0.00021938
0.000219255
0.000219125
0.000218986
0.000218843
0.000218691
0.000218535
0.000218371
0.000218204
0.000218029
0.000217852
0.000217669
0.000217483
0.000217293
0.000217103
0.000216911
0.000216733
0.000216552
0.000216532
0.000216714
0.000219293
0.000156942
0.000247628
0.000278812
0.000289624
0.00029364
0.000295102
0.000295513
0.000295471
0.000295225
0.000294889
0.00029452
0.00029415
0.000293796
0.000293463
0.000293152
0.000292862
0.000292594
0.000292346
0.000292118
0.000291909
0.000291717
0.000291541
0.000291379
0.000291229
0.000291091
0.000290964
0.000290847
0.00029074
0.000290641
0.000290549
0.000290464
0.000290385
0.000290311
0.000290243
0.000290179
0.00029012
0.000290064
0.000290012
0.000289963
0.000289916
0.00028987
0.000289827
0.000289784
0.000289742
0.000289699
0.000289656
0.000289612
0.000289566
0.000289517
0.000289463
0.000289404
0.00028934
0.000289268
0.000289188
0.0002891
0.000289001
0.000288891
0.000288768
0.000288631
0.000288479
0.000288306
0.000288127
0.000287894
0.000287692
0.000287492
0.000287316
0.000287145
0.000286966
0.000286775
0.000286577
0.000286367
0.00028615
0.000285921
0.000285687
0.000285442
0.000285192
0.000284932
0.000284668
0.000284395
0.000284119
0.00028384
0.000283563
0.00028329
0.000283046
0.000282826
0.000282843
0.000283222
0.000286229
0.000173838
0.000293788
0.000341556
0.000360303
0.00036829
0.000371907
0.000373582
0.000374333
0.000374611
0.000374632
0.000374514
0.000374327
0.000374109
0.00037388
0.000373649
0.000373421
0.0003732
0.000372989
0.000372791
0.000372606
0.000372434
0.000372276
0.000372129
0.000371992
0.000371866
0.000371749
0.000371641
0.000371541
0.000371449
0.000371363
0.000371284
0.00037121
0.000371141
0.000371077
0.000371017
0.000370961
0.000370909
0.000370859
0.000370813
0.000370767
0.000370724
0.000370681
0.000370638
0.000370594
0.000370549
0.000370503
0.000370454
0.000370401
0.000370342
0.000370277
0.000370203
0.00037012
0.000370026
0.00036992
0.0003698
0.000369665
0.000369512
0.000369341
0.000369148
0.000368933
0.000368689
0.000368431
0.00036811
0.000367843
0.000367564
0.000367307
0.000367058
0.000366804
0.000366536
0.000366259
0.000365966
0.000365666
0.00036535
0.000365028
0.000364691
0.000364348
0.000363992
0.00036363
0.000363258
0.000362881
0.000362501
0.000362126
0.000361761
0.00036144
0.000361172
0.000361221
0.000361755
0.000365005
0.000185308
0.000338008
0.000407544
0.000437847
0.000452032
0.000459199
0.000463054
0.00046523
0.000466488
0.000467211
0.00046761
0.000467815
0.000467903
0.000467919
0.000467886
0.00046782
0.000467732
0.000467631
0.000467525
0.00046742
0.000467318
0.000467222
0.00046713
0.000467043
0.000466961
0.000466883
0.000466811
0.000466744
0.000466681
0.000466623
0.000466569
0.000466518
0.00046647
0.000466426
0.000466384
0.000466345
0.000466308
0.000466273
0.00046624
0.000466206
0.000466173
0.00046614
0.000466105
0.000466068
0.000466028
0.000465984
0.000465935
0.00046588
0.000465818
0.000465745
0.000465659
0.00046556
0.000465446
0.000465314
0.000465163
0.000464991
0.000464793
0.00046457
0.000464317
0.000464035
0.000463712
0.00046337
0.000462954
0.000462619
0.000462258
0.000461911
0.000461574
0.000461236
0.000460882
0.000460519
0.000460138
0.000459749
0.000459341
0.000458926
0.000458492
0.000458053
0.000457597
0.000457135
0.00045666
0.00045618
0.000455696
0.00045522
0.000454761
0.000454364
0.000454051
0.000454129
0.000454775
0.000458157
0.000189556
0.000377406
0.000474492
0.000520971
0.000544433
0.000557169
0.000564568
0.000569132
0.000572078
0.000574038
0.000575372
0.000576302
0.000576968
0.000577452
0.000577807
0.000578064
0.000578247
0.000578377
0.000578469
0.000578536
0.000578586
0.000578625
0.000578654
0.000578676
0.000578692
0.000578703
0.000578712
0.000578718
0.000578723
0.000578727
0.00057873
0.000578732
0.000578734
0.000578734
0.000578735
0.000578735
0.000578735
0.000578734
0.000578732
0.000578729
0.000578723
0.000578713
0.000578701
0.000578683
0.000578661
0.000578631
0.000578594
0.000578548
0.000578491
0.000578419
0.00057833
0.000578222
0.000578094
0.000577943
0.000577766
0.00057756
0.000577322
0.00057705
0.000576739
0.00057639
0.000575991
0.000575563
0.000575055
0.000574654
0.000574214
0.000573779
0.000573351
0.000572926
0.000572484
0.000572035
0.000571566
0.000571089
0.000570592
0.000570087
0.000569563
0.000569032
0.000568483
0.000567927
0.000567358
0.000566782
0.000566204
0.000565638
0.000565097
0.000564637
0.000564298
0.000564417
0.000565154
0.000568637
0.00018471
0.000408221
0.000538912
0.000607229
0.000644076
0.000665216
0.000678143
0.000686522
0.000692217
0.000696228
0.000699138
0.000701308
0.000702973
0.000704278
0.000705317
0.00070615
0.000706824
0.000707375
0.000707831
0.000708217
0.00070855
0.000708841
0.000709098
0.000709324
0.000709525
0.000709704
0.000709865
0.000710011
0.000710144
0.000710266
0.000710378
0.000710481
0.000710577
0.000710665
0.000710747
0.000710823
0.000710894
0.000710959
0.000711019
0.000711072
0.00071112
0.00071116
0.000711193
0.000711218
0.000711233
0.000711239
0.000711232
0.000711212
0.000711178
0.000711123
0.000711047
0.000710946
0.000710819
0.000710661
0.000710471
0.000710245
0.000709978
0.000709669
0.000709312
0.000708907
0.000708442
0.000707941
0.000707352
0.000706895
0.00070639
0.000705878
0.000705368
0.000704863
0.000704342
0.000703817
0.00070327
0.000702718
0.000702145
0.000701566
0.000700966
0.000700361
0.000699738
0.000699107
0.000698464
0.000697815
0.000697166
0.000696535
0.000695942
0.000695451
0.000695123
0.000695307
0.000696145
0.000699751
0.000169138
0.000425808
0.000595863
0.000692618
0.000748127
0.000781533
0.000802784
0.000817042
0.000827048
0.000834322
0.000839769
0.000843958
0.000847263
0.000849924
0.0008521
0.0008539
0.000855402
0.000856668
0.000857748
0.000858682
0.000859501
0.000860227
0.000860875
0.000861456
0.000861977
0.000862447
0.000862873
0.000863262
0.000863619
0.000863947
0.00086425
0.00086453
0.00086479
0.000865031
0.000865256
0.000865465
0.00086566
0.000865842
0.000866011
0.000866167
0.00086631
0.00086644
0.000866556
0.000866658
0.000866746
0.000866817
0.000866872
0.000866909
0.000866925
0.000866915
0.000866878
0.00086681
0.000866708
0.00086657
0.000866391
0.000866169
0.000865897
0.000865576
0.000865196
0.000864761
0.000864256
0.000863708
0.000863067
0.000862574
0.000862027
0.000861464
0.000860896
0.000860333
0.000859754
0.000859174
0.000858574
0.000857972
0.00085735
0.000856724
0.000856079
0.00085543
0.000854765
0.000854095
0.000853413
0.000852728
0.000852048
0.000851394
0.000850794
0.000850321
0.000850056
0.000850342
0.000851316
0.000855079
0.000142028
0.000424806
0.000638726
0.00077115
0.000851807
0.000902551
0.000935962
0.000959005
0.000975562
0.000987863
0.00099726
0.00100462
0.00101052
0.00101534
0.00101934
0.00102269
0.00102553
0.00102796
0.00103006
0.00103189
0.0010335
0.00103495
0.00103624
0.0010374
0.00103845
0.0010394
0.00104026
0.00104106
0.00104178
0.00104245
0.00104307
0.00104364
0.00104418
0.00104467
0.00104513
0.00104556
0.00104597
0.00104634
0.0010467
0.00104702
0.00104733
0.00104761
0.00104786
0.0010481
0.00104831
0.0010485
0.00104866
0.0010488
0.00104891
0.00104899
0.00104904
0.00104904
0.00104901
0.00104893
0.0010488
0.00104862
0.00104839
0.00104809
0.00104773
0.00104731
0.00104681
0.00104626
0.00104562
0.00104512
0.00104457
0.001044
0.00104341
0.00104283
0.00104223
0.00104163
0.00104102
0.00104041
0.00103978
0.00103915
0.0010385
0.00103786
0.0010372
0.00103654
0.00103587
0.0010352
0.00103454
0.00103392
0.00103338
0.00103298
0.00103285
0.00103328
0.00103443
0.00103837
0.000104551
0.000399669
0.000659108
0.000834429
0.000947787
0.00102227
0.00107292
0.00110873
0.00113497
0.0011548
0.00117019
0.00118239
0.00119228
0.00120044
0.00120726
0.00121304
0.00121798
0.00122224
0.00122594
0.00122919
0.00123207
0.00123465
0.00123697
0.00123905
0.00124094
0.00124266
0.00124423
0.00124566
0.00124698
0.00124819
0.00124932
0.00125036
0.00125133
0.00125224
0.00125308
0.00125387
0.0012546
0.00125529
0.00125594
0.00125654
0.0012571
0.00125763
0.00125812
0.00125857
0.00125898
0.00125937
0.00125971
0.00126002
0.0012603
0.00126053
0.00126072
0.00126086
0.00126096
0.001261
0.00126098
0.00126091
0.00126077
0.00126057
0.00126029
0.00125995
0.00125952
0.00125904
0.00125846
0.001258
0.0012575
0.00125697
0.00125642
0.00125588
0.00125532
0.00125476
0.00125419
0.00125363
0.00125305
0.00125248
0.00125189
0.00125131
0.00125072
0.00125013
0.00124953
0.00124895
0.00124838
0.00124787
0.00124745
0.00124721
0.00124726
0.00124789
0.00124925
0.00125335
6.21718e-05
0.000345894
0.00064707
0.000871322
0.00102556
0.00113144
0.00120581
0.00125966
0.00129986
0.0013307
0.00135492
0.00137435
0.00139024
0.00140343
0.00141455
0.00142402
0.00143216
0.00143923
0.0014454
0.00145084
0.00145568
0.00146002
0.00146392
0.00146744
0.00147064
0.00147355
0.00147621
0.00147864
0.00148088
0.00148295
0.00148486
0.00148664
0.00148829
0.00148983
0.00149127
0.00149261
0.00149387
0.00149505
0.00149615
0.00149719
0.00149816
0.00149907
0.00149992
0.00150071
0.00150145
0.00150214
0.00150278
0.00150337
0.00150391
0.00150439
0.00150482
0.0015052
0.00150551
0.00150576
0.00150595
0.00150607
0.00150611
0.00150609
0.00150598
0.00150581
0.00150554
0.00150523
0.00150481
0.00150446
0.00150407
0.00150366
0.00150322
0.00150279
0.00150234
0.0015019
0.00150145
0.00150101
0.00150055
0.00150011
0.00149966
0.00149921
0.00149876
0.00149831
0.00149787
0.00149744
0.00149705
0.00149672
0.0014965
0.00149649
0.0014968
0.00149765
0.00149923
0.00150347
2.72468e-05
0.000262692
0.000592081
0.00086791
0.00107088
0.00121678
0.00132271
0.00140131
0.0014611
0.00150763
0.00154461
0.00157457
0.00159926
0.0016199
0.00163738
0.00165236
0.0016653
0.00167658
0.00168648
0.00169523
0.00170304
0.00171003
0.00171634
0.00172205
0.00172723
0.00173196
0.00173628
0.00174024
0.00174389
0.00174726
0.00175038
0.00175328
0.00175598
0.00175849
0.00176084
0.00176304
0.00176509
0.00176702
0.00176883
0.00177053
0.00177213
0.00177363
0.00177503
0.00177636
0.0017776
0.00177876
0.00177985
0.00178086
0.00178181
0.00178269
0.0017835
0.00178423
0.0017849
0.00178549
0.001786
0.00178644
0.00178679
0.00178706
0.00178725
0.00178737
0.00178739
0.00178736
0.00178724
0.00178708
0.00178688
0.00178666
0.00178643
0.0017862
0.00178595
0.00178571
0.00178547
0.00178523
0.00178499
0.00178475
0.00178451
0.00178428
0.00178405
0.00178383
0.00178362
0.00178343
0.00178329
0.00178322
0.00178328
0.00178355
0.00178416
0.00178526
0.00178705
0.00179138
8.98136e-06
0.000158379
0.000485688
0.000808197
0.00106554
0.00126013
0.00140655
0.00151805
0.00160452
0.00167284
0.00172781
0.00177276
0.00181009
0.0018415
0.00186826
0.00189128
0.00191127
0.00192875
0.00194416
0.00195782
0.00197003
0.00198099
0.00199088
0.00199985
0.00200801
0.00201545
0.00202227
0.00202852
0.00203429
0.00203961
0.00204455
0.00204913
0.0020534
0.00205738
0.0020611
0.00206458
0.00206784
0.0020709
0.00207377
0.00207647
0.00207901
0.0020814
0.00208365
0.00208576
0.00208776
0.00208964
0.00209141
0.00209307
0.00209464
0.00209612
0.0020975
0.00209879
0.00209998
0.00210108
0.0021021
0.00210301
0.00210384
0.00210458
0.00210522
0.00210578
0.00210625
0.00210667
0.00210698
0.00210711
0.00210721
0.00210729
0.00210735
0.00210742
0.00210747
0.00210753
0.00210758
0.00210764
0.00210769
0.00210776
0.00210782
0.00210788
0.00210795
0.00210803
0.00210813
0.00210825
0.00210843
0.00210869
0.00210909
0.0021097
0.00211061
0.00211196
0.00211392
0.00211827
2.44431e-06
6.29095e-05
0.000328646
0.000676758
0.000987922
0.00123815
0.00143415
0.00158777
0.00170945
0.00180717
0.0018868
0.0019526
0.00200769
0.00205436
0.00209433
0.00212889
0.00215902
0.00218548
0.00220887
0.00222968
0.0022483
0.00226506
0.00228022
0.00229398
0.00230651
0.00231795
0.00232844
0.00233808
0.00234696
0.00235518
0.0023628
0.00236989
0.00237648
0.00238264
0.00238839
0.00239377
0.00239882
0.00240355
0.002408
0.00241219
0.00241613
0.00241984
0.00242333
0.00242663
0.00242975
0.00243269
0.00243547
0.0024381
0.0024406
0.00244296
0.00244518
0.00244728
0.00244926
0.00245112
0.00245287
0.00245449
0.00245601
0.00245742
0.00245872
0.00245993
0.00246104
0.00246209
0.00246303
0.00246358
0.00246409
0.00246458
0.00246504
0.00246551
0.00246595
0.0024664
0.00246684
0.00246729
0.00246773
0.00246817
0.0024686
0.00246904
0.00246948
0.00246992
0.00247039
0.00247088
0.00247143
0.00247206
0.00247282
0.00247377
0.00247499
0.00247655
0.00247861
0.00248287
5.72369e-07
1.54655e-05
0.000150869
0.000467186
0.000816096
0.00112297
0.00137584
0.00158082
0.00174719
0.00188328
0.00199575
0.00208974
0.00216916
0.00223694
0.00229533
0.00234608
0.00239052
0.00242971
0.00246448
0.00249549
0.00252333
0.00254842
0.00257116
0.00259182
0.00261067
0.00262792
0.00264374
0.00265829
0.00267173
0.00268416
0.0026957
0.00270642
0.00271642
0.00272574
0.00273447
0.00274263
0.00275029
0.00275748
0.00276424
0.0027706
0.00277659
0.00278223
0.00278756
0.00279259
0.00279735
0.00280185
0.00280611
0.00281016
0.00281399
0.00281764
0.0028211
0.00282438
0.00282749
0.00283044
0.00283324
0.00283588
0.00283838
0.00284074
0.00284296
0.00284507
0.00284706
0.00284898
0.00285076
0.00285188
0.00285293
0.00285395
0.00285493
0.0028559
0.00285684
0.00285777
0.00285868
0.00285959
0.00286048
0.00286136
0.00286223
0.00286309
0.00286394
0.0028648
0.00286567
0.00286656
0.00286749
0.00286849
0.0028696
0.00287086
0.00287232
0.00287403
0.00287612
0.00288011
1.1261e-07
2.78675e-06
3.74122e-05
0.000213059
0.000539254
0.000886475
0.00119668
0.00145981
0.00167994
0.00186399
0.00201864
0.00214958
0.00226138
0.00235759
0.00244105
0.002514
0.00257822
0.00263509
0.00268572
0.00273104
0.00277183
0.00280869
0.00284214
0.00287262
0.00290046
0.00292597
0.0029494
0.002971
0.00299094
0.00300942
0.00302657
0.00304254
0.00305742
0.00307132
0.00308432
0.0030965
0.00310792
0.00311866
0.00312875
0.00313825
0.0031472
0.00315564
0.00316361
0.00317115
0.00317828
0.00318503
0.00319143
0.00319751
0.00320328
0.00320878
0.00321401
0.00321897
0.0032237
0.0032282
0.00323247
0.00323654
0.00324041
0.00324409
0.00324758
0.00325092
0.00325409
0.00325715
0.00326004
0.00326189
0.00326364
0.00326533
0.00326695
0.00326853
0.00327006
0.00327155
0.00327301
0.00327444
0.00327584
0.00327721
0.00327854
0.00327984
0.00328113
0.0032824
0.00328366
0.00328493
0.00328622
0.00328755
0.00328895
0.00329044
0.00329205
0.0032938
0.00329581
0.00329929
1.52487e-08
4.12948e-07
5.60357e-06
4.78184e-05
0.000213172
0.000519416
0.000863871
0.00118218
0.00146122
0.00170152
0.00190768
0.00208512
0.00223853
0.00237184
0.00248841
0.00259103
0.00268189
0.00276275
0.00283505
0.00289999
0.0029586
0.00301173
0.00306008
0.00310421
0.00314462
0.0031817
0.00321583
0.00324731
0.00327644
0.00330344
0.00332853
0.0033519
0.00337371
0.00339409
0.00341317
0.00343105
0.00344783
0.00346361
0.00347845
0.00349242
0.0035056
0.00351803
0.00352978
0.00354088
0.00355139
0.00356135
0.0035708
0.00357977
0.0035883
0.00359641
0.00360415
0.00361151
0.00361851
0.00362517
0.00363152
0.00363756
0.00364332
0.0036488
0.00365402
0.003659
0.00366375
0.0036683
0.00367262
0.0036754
0.00367803
0.00368054
0.00368295
0.00368525
0.00368747
0.00368962
0.00369168
0.00369368
0.00369561
0.00369748
0.00369928
0.00370102
0.00370271
0.00370436
0.00370597
0.00370755
0.00370912
0.00371068
0.00371225
0.00371384
0.00371547
0.00371715
0.00371895
0.00372164
6.88926e-10
4.91944e-08
6.43169e-07
5.84487e-06
3.729e-05
0.000152092
0.000393388
0.000715881
0.00104274
0.00133983
0.00160337
0.00183586
0.00204014
0.00221977
0.0023785
0.0025195
0.00264526
0.00275779
0.00285886
0.00295003
0.00303263
0.00310778
0.00317638
0.00323916
0.00329678
0.00334976
0.00339861
0.00344374
0.00348554
0.00352435
0.00356047
0.00359414
0.0036256
0.00365503
0.0036826
0.00370846
0.00373276
0.0037556
0.0037771
0.00379736
0.00381647
0.00383451
0.00385156
0.00386768
0.00388295
0.00389742
0.00391115
0.00392418
0.00393657
0.00394836
0.00395958
0.00397029
0.00398046
0.00399014
0.00399936
0.00400813
0.00401647
0.00402441
0.00403196
0.00403914
0.00404596
0.00405247
0.00405863
0.0040626
0.00406632
0.00406985
0.00407319
0.00407636
0.00407938
0.00408225
0.00408499
0.0040876
0.00409008
0.00409244
0.00409469
0.00409682
0.00409887
0.00410082
0.00410268
0.00410447
0.00410618
0.00410784
0.00410943
0.00411098
0.00411249
0.00411397
0.00411541
0.00411697
2.31342e-11
3.9953e-09
6.00135e-08
5.28165e-07
3.51629e-06
1.82976e-05
7.22006e-05
0.000205746
0.000436539
0.000733205
0.00104285
0.00133201
0.00159184
0.00182469
0.00203424
0.00222294
0.00239269
0.00254546
0.00268341
0.00280853
0.00292255
0.00302678
0.00312231
0.00321001
0.00329067
0.003365
0.00343363
0.00349717
0.00355613
0.00361097
0.0036621
0.00370985
0.00375452
0.00379636
0.00383562
0.00387248
0.00390712
0.00393972
0.00397042
0.00399937
0.00402668
0.00405247
0.00407685
0.00409992
0.00412176
0.00414247
0.00416211
0.00418077
0.00419849
0.00421535
0.0042314
0.00424669
0.00426126
0.0042751
0.00428826
0.00430077
0.00431264
0.00432391
0.00433459
0.00434471
0.0043543
0.00436338
0.00437191
0.00437738
0.00438248
0.00438726
0.00439174
0.00439595
0.0043999
0.00440361
0.00440709
0.00441035
0.0044134
0.00441625
0.00441891
0.00442139
0.00442371
0.00442586
0.00442786
0.00442972
0.00443144
0.00443302
0.00443449
0.00443584
0.00443709
0.00443824
0.00443919
0.00443927
1.03616e-11
1.03291e-10
4.1225e-09
3.83405e-08
2.48697e-07
1.30027e-06
5.70861e-06
2.11405e-05
6.47384e-05
0.000159958
0.000323056
0.00055073
0.000819145
0.00109771
0.00136396
0.00160787
0.00182831
0.00202804
0.00221036
0.00237774
0.0025318
0.0026736
0.00280405
0.00292407
0.00303462
0.00313665
0.0032311
0.00331877
0.00340038
0.00347653
0.00354772
0.00361437
0.00367686
0.00373548
0.00379054
0.00384228
0.00389095
0.00393676
0.00397992
0.00402062
0.00405903
0.00409533
0.00412965
0.00416213
0.0041929
0.00422208
0.00424976
0.00427605
0.00430103
0.00432479
0.0043474
0.00436893
0.00438943
0.00440896
0.00442752
0.00444512
0.00446179
0.00447757
0.00449248
0.00450655
0.00451981
0.00453228
0.00454392
0.00455133
0.00455817
0.00456453
0.00457043
0.00457591
0.00458098
0.00458567
0.00459
0.00459399
0.00459765
0.004601
0.00460406
0.00460684
0.00460936
0.00461163
0.00461366
0.00461546
0.00461705
0.00461843
0.00461963
0.00462065
0.00462151
0.0046222
0.00462252
0.00462081
1.00195e-11
5.21576e-12
1.28699e-10
2.08231e-09
1.39804e-08
7.14963e-08
3.09124e-07
1.16406e-06
3.88236e-06
1.1557e-05
3.06546e-05
7.15662e-05
0.000146011
0.000262498
0.000422858
0.000621077
0.000844805
0.00107928
0.00131151
0.00153265
0.0017382
0.00192695
0.00209976
0.00225836
0.00240469
0.00254046
0.00266706
0.00278551
0.00289658
0.00300081
0.00309867
0.00319054
0.00327677
0.00335772
0.00343374
0.00350515
0.0035723
0.00363549
0.00369502
0.00375116
0.00380418
0.00385431
0.00390174
0.00394668
0.0039893
0.00402975
0.00406817
0.00410468
0.00413939
0.00417243
0.00420386
0.0042338
0.0042623
0.00428944
0.00431529
0.00433985
0.00436306
0.00438496
0.00440559
0.00442499
0.00444317
0.00446016
0.00447593
0.00448588
0.00449499
0.00450339
0.00451111
0.00451819
0.00452468
0.00453059
0.00453596
0.00454083
0.00454521
0.00454913
0.00455263
0.00455572
0.00455842
0.00456076
0.00456276
0.00456443
0.0045658
0.00456689
0.00456771
0.00456829
0.00456865
0.00456875
0.00456831
0.00456468
1.00128e-11
3.77744e-12
3.22462e-12
5.39372e-11
5.69012e-10
3.06257e-09
1.30752e-08
4.84013e-08
1.59649e-07
4.77021e-07
1.30732e-06
3.31442e-06
7.80875e-06
1.71261e-05
3.48688e-05
6.56642e-05
0.000114305
0.000184636
0.000278725
0.000396502
0.000535816
0.000692776
0.000862347
0.00103907
0.00121776
0.00139406
0.00156467
0.00172737
0.00188091
0.00202482
0.00215915
0.00228433
0.00240097
0.00250978
0.0026115
0.00270682
0.00279637
0.00288072
0.00296035
0.00303568
0.00310707
0.00317482
0.0032392
0.00330043
0.00335869
0.00341417
0.00346699
0.00351731
0.00356525
0.0036109
0.00365439
0.0036958
0.00373522
0.00377275
0.00380845
0.00384242
0.00387464
0.00390496
0.00393341
0.00396005
0.0039849
0.004008
0.00402929
0.0040426
0.00405472
0.00406582
0.00407593
0.00408513
0.00409345
0.00410096
0.00410769
0.00411369
0.00411901
0.00412368
0.00412775
0.00413125
0.00413422
0.00413668
0.00413868
0.00414023
0.00414138
0.00414214
0.00414255
0.00414263
0.00414239
0.00414183
0.00414057
0.00413528
1.00143e-11
3.74958e-12
1.83669e-12
1.59616e-12
1.00642e-11
8.62621e-11
4.12705e-10
1.54091e-09
5.02749e-09
1.48361e-08
4.02499e-08
1.01552e-07
2.39996e-07
5.34729e-07
1.12846e-06
2.26503e-06
4.34035e-06
7.96185e-06
1.39978e-05
2.35857e-05
3.8079e-05
5.89259e-05
8.75058e-05
0.000124964
0.000172086
0.000229232
0.000296327
0.000372904
0.000458166
0.000551054
0.000650337
0.000754676
0.000862702
0.000973072
0.00108452
0.00119591
0.00130623
0.00141465
0.00152048
0.00162319
0.00172239
0.00181781
0.0019093
0.00199675
0.00208018
0.00215961
0.00223514
0.00230687
0.00237492
0.00243946
0.00250062
0.00255855
0.00261341
0.00266534
0.00271447
0.00276094
0.00280497
0.00284642
0.00288509
0.00292106
0.0029544
0.00298515
0.00301329
0.00303073
0.00304654
0.00306092
0.00307394
0.00308569
0.00309625
0.00310569
0.00311408
0.00312148
0.00312797
0.00313361
0.00313844
0.00314253
0.00314592
0.00314867
0.00315082
0.0031524
0.00315345
0.00315402
0.00315412
0.0031538
0.00315306
0.00315191
0.00315009
0.0031444
1.0016e-11
3.74965e-12
1.81484e-12
1.07051e-12
8.08808e-13
1.37932e-12
6.99246e-12
3.28749e-11
1.14743e-10
3.41735e-10
9.21945e-10
2.30774e-09
5.41532e-09
1.20011e-08
2.52449e-08
5.06414e-08
9.72962e-08
1.7969e-07
3.19946e-07
5.50412e-07
9.16873e-07
1.48216e-06
2.3309e-06
3.57399e-06
5.35293e-06
7.84084e-06
1.12414e-05
1.57821e-05
2.17065e-05
2.9261e-05
3.86842e-05
5.01918e-05
6.39673e-05
8.01508e-05
9.88344e-05
0.000120058
0.000143812
0.000170037
0.000198632
0.000229463
0.000262363
0.000297143