/*--------------------------------*- C++ -*----------------------------------*\
| =========                 |                                                 |
| \\      /  F ield         | OpenFOAM: The Open Source CFD Toolbox           |
|  \\    /   O peration     | Version:  5.x                                   |
|   \\  /    A nd           | Web:      www.OpenFOAM.org                      |
|    \\/     M anipulation  |                                                 |
\*---------------------------------------------------------------------------*/
FoamFile
{
    version     2.0;
    format      ascii;
    class       volScalarField;
    location    "300";
    object      p;
}
// * * * * * * * * * * * * * * * * * * * * * * * * * * * * * * * * * * * * * //

dimensions      [0 2 -2 0 0 0 0];

internalField   nonuniform List<scalar> 
20540
(
65.5837
67.6234
65.5837
67.6236
65.5837
67.6244
65.5837
67.6252
65.5837
67.6257
65.5837
67.6257
65.5837
67.6248
65.5837
67.6225
65.5837
67.6183
65.5837
67.6114
65.5837
67.601
65.5837
67.5862
65.5837
67.5658
65.5837
67.5388
65.5837
67.5043
65.5837
67.4615
65.5837
67.4096
65.5836
67.3473
65.5836
67.2731
65.5835
67.1851
65.5833
67.0812
65.5831
66.9592
65.5827
66.8172
65.5822
66.6534
65.5814
66.4668
65.5804
66.2575
65.579
66.028
65.5772
65.7842
65.575
65.5374
65.5726
65.3073
65.5708
65.1468
65.5698
65.0691
65.5698
65.0696
65.5707
65.1484
65.5725
65.3076
65.5748
65.5301
65.5769
65.7692
65.5786
66.0065
65.58
66.2312
65.5811
66.4376
65.5819
66.623
65.5824
66.7868
65.5828
66.9299
65.583
67.0537
65.5832
67.16
65.5833
67.2507
65.5834
67.3277
65.5834
67.3928
65.5834
67.4477
65.5834
67.4934
65.5835
67.531
65.5835
67.5611
65.5835
67.5845
65.5835
67.6022
65.5835
67.615
65.5835
67.6239
65.5835
67.6298
65.5835
67.6334
65.5835
67.6353
65.5835
67.636
65.5835
67.6359
65.5835
67.6353
65.5835
67.6345
65.5835
67.6338
65.5835
67.6336
61.3716
46.7053
35.5176
26.828
19.3789
12.4584
5.91739
-0.289622
-6.191
-11.8297
-17.2179
-22.336
-27.1883
-31.7792
-36.1379
-40.2801
-44.2235
-47.9763
-51.5544
-54.9756
-58.2624
-61.4324
-64.4991
-67.4656
-70.334
-73.1014
-75.7699
-78.3405
-80.8192
-83.2095
-85.517
-87.7445
-89.8956
-91.9726
-93.9791
-95.9183
-97.7945
-99.6112
-101.372
-103.081
-104.74
-106.353
-107.921
-109.447
-110.933
-112.384
-113.801
-115.189
-116.553
-117.895
-119.222
-120.537
-121.846
-123.153
-124.465
-125.787
-127.128
-128.498
-129.906
-131.367
-132.886
-134.499
-136.131
-137.776
-139.134
-140.411
-141.736
-143.095
-144.476
-145.878
-147.297
-148.734
-150.185
-151.651
-153.13
-154.625
-156.136
-157.668
-159.23
-160.838
-162.511
-164.28
-166.179
-168.269
-170.58
-173.426
-176.247
-182.598
61.3852
46.7073
35.5182
26.8283
19.3792
12.4586
5.91754
-0.289495
-6.1909
-11.8296
-17.2178
-22.3359
-27.1883
-31.7791
-36.1378
-40.2801
-44.2234
-47.9763
-51.5543
-54.9755
-58.2623
-61.4324
-64.499
-67.4656
-70.334
-73.1014
-75.7698
-78.3405
-80.8191
-83.2095
-85.517
-87.7445
-89.8955
-91.9726
-93.9791
-95.9183
-97.7944
-99.6112
-101.372
-103.081
-104.74
-106.353
-107.921
-109.447
-110.933
-112.384
-113.801
-115.189
-116.553
-117.895
-119.222
-120.537
-121.846
-123.153
-124.465
-125.787
-127.128
-128.498
-129.906
-131.367
-132.886
-134.499
-136.131
-137.776
-139.134
-140.411
-141.736
-143.095
-144.476
-145.878
-147.297
-148.734
-150.185
-151.652
-153.131
-154.626
-156.136
-157.669
-159.231
-160.839
-162.512
-164.281
-166.179
-168.27
-170.581
-173.429
-176.254
-182.457
61.4018
46.7111
35.5194
26.829
19.3796
12.4589
5.91782
-0.289261
-6.1907
-11.8294
-17.2177
-22.3358
-27.1881
-31.779
-36.1377
-40.28
-44.2233
-47.9762
-51.5543
-54.9754
-58.2623
-61.4323
-64.499
-67.4655
-70.3339
-73.1013
-75.7698
-78.3405
-80.8191
-83.2094
-85.517
-87.7444
-89.8955
-91.9725
-93.979
-95.9183
-97.7944
-99.6111
-101.372
-103.081
-104.74
-106.353
-107.921
-109.447
-110.933
-112.384
-113.801
-115.189
-116.553
-117.895
-119.222
-120.537
-121.846
-123.153
-124.465
-125.788
-127.129
-128.498
-129.906
-131.367
-132.886
-134.499
-136.131
-137.776
-139.135
-140.412
-141.736
-143.095
-144.476
-145.879
-147.298
-148.735
-150.186
-151.652
-153.132
-154.627
-156.137
-157.67
-159.232
-160.84
-162.513
-164.283
-166.181
-168.272
-170.583
-173.433
-176.258
-182.289
61.4141
46.7166
35.5211
26.83
19.3803
12.4594
5.91822
-0.288931
-6.19042
-11.8292
-17.2174
-22.3356
-27.188
-31.7788
-36.1376
-40.2799
-44.2232
-47.9761
-51.5542
-54.9753
-58.2622
-61.4322
-64.4989
-67.4654
-70.3339
-73.1012
-75.7697
-78.3404
-80.819
-83.2094
-85.5169
-87.7444
-89.8955
-91.9725
-93.979
-95.9182
-97.7944
-99.6111
-101.372
-103.081
-104.74
-106.353
-107.921
-109.447
-110.933
-112.384
-113.801
-115.189
-116.553
-117.895
-119.222
-120.537
-121.846
-123.154
-124.465
-125.788
-127.129
-128.498
-129.907
-131.367
-132.887
-134.499
-136.132
-137.777
-139.135
-140.412
-141.737
-143.096
-144.477
-145.88
-147.299
-148.736
-150.187
-151.653
-153.133
-154.628
-156.139
-157.671
-159.234
-160.841
-162.515
-164.284
-166.183
-168.274
-170.586
-173.437
-176.257
-182.132
61.4231
46.7239
35.5236
26.8313
19.3812
12.4601
5.91875
-0.288496
-6.19005
-11.8289
-17.2172
-22.3353
-27.1877
-31.7786
-36.1374
-40.2797
-44.2231
-47.9759
-51.554
-54.9752
-58.2621
-61.4321
-64.4988
-67.4653
-70.3338
-73.1011
-75.7696
-78.3403
-80.819
-83.2093
-85.5168
-87.7443
-89.8954
-91.9724
-93.9789
-95.9182
-97.7943
-99.6111
-101.372
-103.081
-104.74
-106.353
-107.921
-109.447
-110.933
-112.384
-113.801
-115.189
-116.553
-117.895
-119.222
-120.537
-121.846
-123.154
-124.465
-125.788
-127.129
-128.498
-129.907
-131.368
-132.887
-134.5
-136.132
-137.777
-139.136
-140.413
-141.738
-143.097
-144.478
-145.881
-147.3
-148.737
-150.188
-151.655
-153.134
-154.63
-156.14
-157.673
-159.236
-160.844
-162.517
-164.287
-166.185
-168.276
-170.588
-173.437
-176.246
-182.009
61.4302
46.7332
35.5271
26.8331
19.3824
12.461
5.91945
-0.287924
-6.18957
-11.8284
-17.2168
-22.335
-27.1874
-31.7784
-36.1371
-40.2795
-44.2229
-47.9757
-51.5538
-54.975
-58.2619
-61.432
-64.4987
-67.4652
-70.3336
-73.101
-75.7695
-78.3402
-80.8188
-83.2092
-85.5167
-87.7442
-89.8953
-91.9723
-93.9788
-95.9181
-97.7942
-99.611
-101.372
-103.081
-104.74
-106.353
-107.921
-109.447
-110.933
-112.384
-113.801
-115.189
-116.553
-117.895
-119.222
-120.537
-121.846
-123.154
-124.466
-125.788
-127.129
-128.499
-129.907
-131.368
-132.888
-134.5
-136.133
-137.778
-139.137
-140.414
-141.739
-143.098
-144.479
-145.882
-147.301
-148.739
-150.19
-151.657
-153.136
-154.632
-156.143
-157.676
-159.238
-160.846
-162.52
-164.289
-166.187
-168.278
-170.589
-173.433
-176.225
-181.916
61.4353
46.7446
35.5318
26.8356
19.384
12.4622
5.92037
-0.287173
-6.18894
-11.8279
-17.2163
-22.3346
-27.1871
-31.778
-36.1368
-40.2792
-44.2226
-47.9755
-51.5536
-54.9748
-58.2617
-61.4318
-64.4985
-67.465
-70.3335
-73.1009
-75.7694
-78.3401
-80.8187
-83.2091
-85.5166
-87.7441
-89.8952
-91.9722
-93.9787
-95.918
-97.7941
-99.6109
-101.372
-103.081
-104.74
-106.353
-107.921
-109.447
-110.933
-112.384
-113.801
-115.189
-116.553
-117.895
-119.222
-120.537
-121.846
-123.154
-124.466
-125.788
-127.129
-128.499
-129.907
-131.369
-132.888
-134.501
-136.134
-137.779
-139.138
-140.415
-141.74
-143.1
-144.481
-145.884
-147.303
-148.741
-150.192
-151.659
-153.139
-154.634
-156.145
-157.679
-159.241
-160.849
-162.523
-164.292
-166.19
-168.279
-170.588
-173.423
-176.194
-181.829
61.438
46.7582
35.538
26.839
19.3862
12.4637
5.92158
-0.286187
-6.18812
-11.8272
-17.2157
-22.334
-27.1866
-31.7776
-36.1364
-40.2788
-44.2223
-47.9752
-51.5533
-54.9745
-58.2614
-61.4315
-64.4982
-67.4648
-70.3333
-73.1007
-75.7692
-78.3399
-80.8185
-83.2089
-85.5164
-87.7439
-89.895
-91.9721
-93.9786
-95.9179
-97.794
-99.6108
-101.372
-103.081
-104.74
-106.353
-107.921
-109.447
-110.933
-112.384
-113.801
-115.189
-116.553
-117.895
-119.222
-120.537
-121.846
-123.154
-124.466
-125.788
-127.13
-128.499
-129.908
-131.369
-132.889
-134.502
-136.135
-137.78
-139.139
-140.416
-141.741
-143.101
-144.483
-145.886
-147.305
-148.743
-150.195
-151.662
-153.142
-154.638
-156.149
-157.682
-159.245
-160.853
-162.527
-164.295
-166.193
-168.28
-170.586
-173.404
-176.152
-181.717
61.4377
46.7741
35.5461
26.8435
19.3891
12.4658
5.92319
-0.284894
-6.18704
-11.8263
-17.2149
-22.3333
-27.1859
-31.777
-36.1359
-40.2783
-44.2218
-47.9748
-51.5529
-54.9742
-58.2611
-61.4312
-64.4979
-67.4645
-70.333
-73.1004
-75.7689
-78.3396
-80.8183
-83.2087
-85.5162
-87.7437
-89.8948
-91.9719
-93.9784
-95.9177
-97.7938
-99.6106
-101.372
-103.081
-104.74
-106.352
-107.92
-109.446
-110.933
-112.383
-113.801
-115.189
-116.553
-117.895
-119.222
-120.537
-121.847
-123.154
-124.466
-125.789
-127.13
-128.5
-129.909
-131.37
-132.89
-134.503
-136.136
-137.782
-139.141
-140.418
-141.743
-143.103
-144.485
-145.888
-147.308
-148.746
-150.198
-151.665
-153.145
-154.641
-156.153
-157.686
-159.249
-160.857
-162.531
-164.299
-166.195
-168.279
-170.58
-173.374
-176.095
-181.549
61.4341
46.7919
35.5564
26.8494
19.3929
12.4685
5.92529
-0.283197
-6.18563
-11.8251
-17.2139
-22.3324
-27.1851
-31.7763
-36.1352
-40.2777
-44.2212
-47.9742
-51.5524
-54.9737
-58.2606
-61.4308
-64.4976
-67.4642
-70.3327
-73.1001
-75.7686
-78.3393
-80.818
-83.2084
-85.516
-87.7435
-89.8946
-91.9716
-93.9782
-95.9175
-97.7936
-99.6104
-101.372
-103.08
-104.74
-106.352
-107.92
-109.446
-110.933
-112.383
-113.801
-115.189
-116.553
-117.895
-119.222
-120.538
-121.847
-123.154
-124.467
-125.789
-127.131
-128.5
-129.909
-131.371
-132.891
-134.504
-136.137
-137.783
-139.143
-140.42
-141.745
-143.105
-144.487
-145.891
-147.311
-148.749
-150.201
-151.668
-153.149
-154.645
-156.157
-157.691
-159.254
-160.862
-162.535
-164.303
-166.197
-168.276
-170.57
-173.329
-176.022
-181.301
61.4269
46.8113
35.5691
26.857
19.398
12.4722
5.92807
-0.28097
-6.18379
-11.8235
-17.2125
-22.3312
-27.184
-31.7753
-36.1343
-40.2769
-44.2205
-47.9735
-51.5518
-54.9731
-58.2601
-61.4302
-64.4971
-67.4637
-70.3322
-73.0997
-75.7682
-78.3389
-80.8176
-83.208
-85.5156
-87.7431
-89.8943
-91.9713
-93.9779
-95.9172
-97.7934
-99.6101
-101.371
-103.08
-104.74
-106.352
-107.92
-109.446
-110.933
-112.383
-113.801
-115.189
-116.552
-117.895
-119.222
-120.538
-121.847
-123.155
-124.467
-125.79
-127.131
-128.501
-129.91
-131.372
-132.892
-134.505
-136.139
-137.785
-139.145
-140.422
-141.747
-143.107
-144.49
-145.893
-147.314
-148.752
-150.204
-151.672
-153.153
-154.649
-156.161
-157.695
-159.259
-160.867
-162.54
-164.306
-166.197
-168.269
-170.552
-173.264
-175.926
-180.952
61.4157
46.8318
35.5844
26.8669
19.4046
12.477
5.93173
-0.278045
-6.18137
-11.8215
-17.2108
-22.3297
-27.1826
-31.774
-36.1332
-40.2758
-44.2195
-47.9726
-51.5509
-54.9723
-58.2593
-61.4296
-64.4964
-67.4631
-70.3316
-73.0991
-75.7677
-78.3384
-80.8171
-83.2076
-85.5152
-87.7427
-89.8938
-91.9709
-93.9775
-95.9168
-97.793
-99.6098
-101.371
-103.08
-104.739
-106.352
-107.92
-109.446
-110.933
-112.383
-113.801
-115.189
-116.552
-117.895
-119.222
-120.538
-121.847
-123.155
-124.467
-125.79
-127.132
-128.502
-129.911
-131.372
-132.893
-134.506
-136.14
-137.786
-139.147
-140.424
-141.749
-143.11
-144.492
-145.896
-147.317
-148.755
-150.208
-151.676
-153.157
-154.653
-156.166
-157.7
-159.263
-160.871
-162.543
-164.307
-166.194
-168.256
-170.523
-173.176
-175.799
-180.491
61.4002
46.8527
35.602
26.8791
19.4132
12.4832
5.93652
-0.274208
-6.17821
-11.8188
-17.2085
-22.3276
-27.1808
-31.7724
-36.1317
-40.2744
-44.2182
-47.9714
-51.5498
-54.9713
-58.2584
-61.4287
-64.4956
-67.4623
-70.3309
-73.0984
-75.767
-78.3378
-80.8165
-83.2069
-85.5146
-87.7421
-89.8933
-91.9704
-93.977
-95.9163
-97.7925
-99.6093
-101.371
-103.079
-104.739
-106.351
-107.919
-109.445
-110.932
-112.383
-113.8
-115.189
-116.552
-117.895
-119.222
-120.538
-121.847
-123.155
-124.467
-125.791
-127.132
-128.503
-129.912
-131.373
-132.894
-134.507
-136.141
-137.788
-139.149
-140.426
-141.751
-143.112
-144.495
-145.899
-147.32
-148.758
-150.211
-151.678
-153.16
-154.656
-156.169
-157.703
-159.266
-160.874
-162.544
-164.305
-166.186
-168.233
-170.477
-173.056
-175.629
-179.917
61.3801
46.8734
35.6216
26.894
19.424
12.4913
5.94278
-0.269189
-6.17406
-11.8153
-17.2054
-22.325
-27.1785
-31.7703
-36.1297
-40.2726
-44.2165
-47.9699
-51.5484
-54.9699
-58.2571
-61.4275
-64.4945
-67.4612
-70.3299
-73.0975
-75.7661
-78.3369
-80.8157
-83.2061
-85.5138
-87.7414
-89.8926
-91.9697
-93.9763
-95.9156
-97.7918
-99.6087
-101.37
-103.079
-104.738
-106.351
-107.919
-109.445
-110.932
-112.382
-113.8
-115.188
-116.552
-117.895
-119.222
-120.538
-121.847
-123.155
-124.468
-125.791
-127.133
-128.503
-129.912
-131.374
-132.895
-134.508
-136.142
-137.788
-139.15
-140.428
-141.751
-143.113
-144.496
-145.9
-147.321
-148.759
-150.212
-151.68
-153.161
-154.657
-156.17
-157.703
-159.266
-160.872
-162.541
-164.296
-166.168
-168.196
-170.407
-172.896
-175.398
-179.24
61.3544
46.8941
35.642
26.9114
19.4374
12.5016
5.95087
-0.26266
-6.16865
-11.8107
-17.2015
-22.3216
-27.1754
-31.7675
-36.1272
-40.2703
-44.2144
-47.9678
-51.5464
-54.9681
-58.2554
-61.4259
-64.493
-67.4599
-70.3286
-73.0962
-75.7649
-78.3358
-80.8146
-83.2051
-85.5128
-87.7404
-89.8916
-91.9687
-93.9754
-95.9147
-97.791
-99.6079
-101.369
-103.078
-104.738
-106.35
-107.918
-109.444
-110.931
-112.382
-113.799
-115.188
-116.551
-117.894
-119.221
-120.537
-121.847
-123.155
-124.467
-125.791
-127.133
-128.503
-129.913
-131.374
-132.895
-134.508
-136.143
-137.788
-139.15
-140.428
-141.751
-143.112
-144.496
-145.9
-147.32
-148.758
-150.211
-151.678
-153.159
-154.655
-156.166
-157.699
-159.261
-160.865
-162.529
-164.277
-166.135
-168.137
-170.303
-172.686
-175.091
-178.47
61.3219
46.9152
35.662
26.9306
19.4535
12.5145
5.96118
-0.254241
-6.16162
-11.8048
-17.1964
-22.3171
-27.1714
-31.7639
-36.124
-40.2673
-44.2116
-47.9652
-51.5439
-54.9658
-58.2532
-61.4238
-64.4911
-67.4581
-70.3269
-73.0946
-75.7634
-78.3343
-80.8132
-83.2037
-85.5114
-87.7391
-89.8904
-91.9675
-93.9742
-95.9136
-97.7898
-99.6067
-101.368
-103.077
-104.737
-106.349
-107.917
-109.443
-110.93
-112.381
-113.799
-115.187
-116.551
-117.893
-119.221
-120.536
-121.846
-123.154
-124.467
-125.79
-127.132
-128.503
-129.912
-131.374
-132.895
-134.506
-136.142
-137.786
-139.149
-140.427
-141.748
-143.109
-144.493
-145.896
-147.316
-148.753
-150.204
-151.671
-153.151
-154.645
-156.156
-157.686
-159.246
-160.846
-162.504
-164.24
-166.079
-168.045
-170.15
-172.413
-174.69
-177.621
61.2803
46.9382
35.6806
26.9505
19.4717
12.5299
5.97402
-0.243548
-6.15261
-11.7971
-17.1897
-22.3112
-27.1663
-31.7593
-36.1197
-40.2634
-44.2079
-47.9618
-51.5407
-54.9627
-58.2503
-61.4211
-64.4885
-67.4557
-70.3247
-73.0925
-75.7614
-78.3324
-80.8113
-83.2019
-85.5097
-87.7374
-89.8887
-91.9659
-93.9726
-95.912
-97.7883
-99.6053
-101.367
-103.076
-104.735
-106.348
-107.916
-109.442
-110.929
-112.38
-113.797
-115.186
-116.549
-117.892
-119.219
-120.535
-121.845
-123.153
-124.466
-125.789
-127.131
-128.501
-129.911
-131.372
-132.893
-134.502
-136.139
-137.78
-139.144
-140.423
-141.741
-143.101
-144.484
-145.887
-147.306
-148.741
-150.19
-151.654
-153.133
-154.625
-156.133
-157.66
-159.215
-160.809
-162.457
-164.176
-165.987
-167.904
-169.932
-172.058
-174.179
-176.704
61.228
46.9641
35.6978
26.9694
19.4912
12.5477
5.98946
-0.230294
-6.14124
-11.7872
-17.1811
-22.3036
-27.1595
-31.7532
-36.1143
-40.2584
-44.2033
-47.9574
-51.5365
-54.9586
-58.2464
-61.4174
-64.4851
-67.4525
-70.3217
-73.0897
-75.7587
-78.3298
-80.8089
-83.1996
-85.5074
-87.7352
-89.8866
-91.9638
-93.9706
-95.91
-97.7863
-99.6033
-101.365
-103.074
-104.733
-106.346
-107.914
-109.44
-110.927
-112.378
-113.796
-115.184
-116.548
-117.89
-119.217
-120.533
-121.842
-123.151
-124.463
-125.786
-127.128
-128.498
-129.907
-131.367
-132.888
-134.495
-136.133
-137.77
-139.133
-140.414
-141.729
-143.086
-144.468
-145.869
-147.286
-148.718
-150.164
-151.624
-153.099
-154.587
-156.091
-157.613
-159.16
-160.743
-162.375
-164.07
-165.841
-167.696
-169.626
-171.602
-173.547
-175.723
61.1641
46.9928
35.7146
26.9859
19.5104
12.5668
6.00715
-0.214463
-6.12727
-11.775
-17.1703
-22.294
-27.1508
-31.7454
-36.1072
-40.252
-44.1974
-47.9518
-51.5312
-54.9534
-58.2414
-61.4126
-64.4805
-67.4483
-70.3178
-73.086
-75.7552
-78.3265
-80.8056
-83.1964
-85.5044
-87.7323
-89.8837
-91.9611
-93.9679
-95.9074
-97.7837
-99.6007
-101.362
-103.071
-104.731
-106.343
-107.912
-109.438
-110.925
-112.375
-113.793
-115.181
-116.545
-117.887
-119.214
-120.53
-121.839
-123.147
-124.459
-125.781
-127.123
-128.492
-129.9
-131.36
-132.879
-134.482
-136.122
-137.753
-139.114
-140.396
-141.707
-143.06
-144.44
-145.837
-147.25
-148.678
-150.119
-151.573
-153.041
-154.522
-156.018
-157.531
-159.067
-160.634
-162.242
-163.901
-165.619
-167.394
-169.208
-171.023
-172.786
-174.67
61.0882
47.0246
35.732
26.9997
19.5275
12.5858
6.02615
-0.196449
-6.11074
-11.7602
-17.1571
-22.2821
-27.14
-31.7354
-36.0981
-40.2438
-44.1899
-47.9448
-51.5245
-54.9469
-58.2349
-61.4063
-64.4745
-67.4426
-70.3125
-73.0811
-75.7506
-78.322
-80.8013
-83.1923
-85.5004
-87.7284
-89.88
-91.9575
-93.9643
-95.9039
-97.7802
-99.5972
-101.359
-103.068
-104.727
-106.34
-107.908
-109.434
-110.921
-112.372
-113.789
-115.178
-116.541
-117.883
-119.209
-120.524
-121.833
-123.14
-124.452
-125.774
-127.114
-128.482
-129.889
-131.346
-132.863
-134.462
-136.103
-137.725
-139.083
-140.365
-141.67
-143.019
-144.393
-145.785
-147.192
-148.613
-150.046
-151.49
-152.947
-154.416
-155.9
-157.398
-158.916
-160.458
-162.031
-163.641
-165.289
-166.966
-168.65
-170.3
-171.884
-173.53
60.9986
47.061
35.7508
27.0115
19.5407
12.6022
6.04466
-0.177221
-6.09196
-11.7428
-17.1414
-22.2679
-27.1269
-31.7232
-36.0867
-40.2333
-44.1804
-47.9361
-51.5162
-54.9388
-58.2269
-61.3984
-64.4667
-67.4351
-70.3055
-73.0745
-75.7444
-78.3162
-80.7957
-83.1868
-85.4951
-87.7233
-89.8751
-91.9527
-93.9597
-95.8993
-97.7757
-99.5927
-101.354
-103.063
-104.723
-106.335
-107.904
-109.43
-110.916
-112.367
-113.784
-115.172
-116.535
-117.877
-119.202
-120.516
-121.824
-123.13
-124.44
-125.761
-127.1
-128.466
-129.87
-131.325
-132.838
-134.431
-136.071
-137.681
-139.032
-140.313
-141.612
-142.952
-144.318
-145.702
-147.1
-148.51
-149.929
-151.359
-152.799
-154.25
-155.713
-157.188
-158.678
-160.183
-161.708
-163.253
-164.814
-166.378
-167.921
-169.408
-170.828
-172.282
60.8934
47.103
35.7729
27.0237
19.5515
12.6133
6.05857
-0.159436
-6.07209
-11.723
-17.123
-22.2512
-27.1115
-31.7088
-36.073
-40.2206
-44.1687
-47.9255
-51.5063
-54.9292
-58.2172
-61.3886
-64.4569
-67.4256
-70.2964
-73.066
-75.7363
-78.3085
-80.7883
-83.1797
-85.4881
-87.7165
-89.8686
-91.9464
-93.9536
-95.8934
-97.7699
-99.5868
-101.348
-103.057
-104.717
-106.329
-107.897
-109.423
-110.91
-112.36
-113.777
-115.164
-116.526
-117.867
-119.192
-120.505
-121.811
-123.115
-124.423
-125.741
-127.078
-128.441
-129.841
-131.29
-132.799
-134.382
-136.02
-137.614
-138.954
-140.231
-141.521
-142.85
-144.203
-145.572
-146.955
-148.348
-149.75
-151.157
-152.572
-153.995
-155.426
-156.866
-158.313
-159.767
-161.227
-162.69
-164.147
-165.587
-166.986
-168.32
-169.595
-170.896
60.7708
47.151
35.7992
27.0377
19.5637
12.6225
6.06583
-0.150025
-6.05737
-11.7035
-17.102
-22.2312
-27.0933
-31.6917
-36.0568
-40.2052
-44.1546
-47.9127
-51.4946
-54.9181
-58.2062
-61.3772
-64.4453
-67.4139
-70.285
-73.0551
-75.726
-78.2986
-80.7788
-83.1704
-85.4791
-87.7078
-89.8601
-91.9382
-93.9457
-95.8857
-97.7623
-99.5793
-101.341
-103.049
-104.709
-106.321
-107.889
-109.414
-110.901
-112.35
-113.767
-115.153
-116.514
-117.854
-119.177
-120.487
-121.791
-123.092
-124.397
-125.712
-127.043
-128.401
-129.796
-131.238
-132.737
-134.308
-135.939
-137.512
-138.836
-140.104
-141.381
-142.693
-144.026
-145.374
-146.733
-148.102
-149.475
-150.851
-152.229
-153.611
-154.996
-156.383
-157.77
-159.154
-160.531
-161.895
-163.238
-164.548
-165.808
-167.005
-168.156
-169.332
60.6292
47.205
35.8305
27.0537
19.5782
12.6343
6.07349
-0.144876
-6.05153
-11.6944
-17.0889
-22.2146
-27.074
-31.671
-36.0359
-40.1852
-44.1363
-47.8965
-51.4804
-54.9051
-58.1936
-61.3645
-64.4322
-67.4006
-70.2717
-73.0422
-75.7136
-78.2867
-80.7673
-83.1591
-85.468
-87.6968
-89.8493
-91.9277
-93.9355
-95.8757
-97.7525
-99.5695
-101.331
-103.039
-104.698
-106.31
-107.878
-109.403
-110.888
-112.337
-113.752
-115.138
-116.497
-117.834
-119.155
-120.462
-121.761
-123.058
-124.358
-125.667
-126.992
-128.342
-129.727
-131.157
-132.643
-134.197
-135.815
-137.36
-138.659
-139.911
-141.169
-142.456
-143.76
-145.075
-146.399
-147.73
-149.062
-150.393
-151.72
-153.043
-154.362
-155.676
-156.981
-158.273
-159.548
-160.799
-162.019
-163.198
-164.328
-165.401
-166.444
-167.516
60.4676
47.2644
35.8675
27.0718
19.5947
12.6482
6.08318
-0.137551
-6.04448
-11.6872
-17.0821
-22.2084
-27.0675
-31.6625
-36.0236
-40.1685
-44.1161
-47.8747
-51.4587
-54.8847
-58.1747
-61.3468
-64.4153
-67.3843
-70.2561
-73.0273
-75.6995
-78.2733
-80.7543
-83.1464
-85.4554
-87.6843
-89.8369
-91.9155
-93.9235
-95.8639
-97.7408
-99.5578
-101.319
-103.027
-104.686
-106.297
-107.863
-109.388
-110.872
-112.319
-113.733
-115.116
-116.472
-117.806
-119.123
-120.425
-121.718
-123.008
-124.3
-125.6
-126.914
-128.252
-129.622
-131.035
-132.501
-134.03
-135.625
-137.131
-138.396
-139.623
-140.852
-142.103
-143.366
-144.634
-145.907
-147.183
-148.457
-149.725
-150.983
-152.227
-153.459
-154.677
-155.878
-157.059
-158.215
-159.341
-160.433
-161.485
-162.493
-163.456
-164.4
-165.375
60.2863
47.3284
35.9106
27.0919
19.6131
12.664
6.09415
-0.129375
-6.03611
-11.6773
-17.0715
-22.199
-27.0609
-31.6587
-36.0213
-40.166
-44.1124
-47.8694
-51.4517
-54.8758
-58.1632
-61.3321
-64.3971
-67.3628
-70.2321
-73.0019
-75.6737
-78.2479
-80.7299
-83.1232
-85.4334
-87.6638
-89.8179
-91.898
-93.9076
-95.8495
-97.7277
-99.5456
-101.307
-103.016
-104.674
-106.285
-107.85
-109.373
-110.856
-112.301
-113.712
-115.091
-116.443
-117.772
-119.082
-120.377
-121.661
-122.94
-124.219
-125.504
-126.802
-128.121
-129.469
-130.855
-132.29
-133.782
-135.339
-136.791
-138.006
-139.19
-140.375
-141.574
-142.776
-143.976
-145.175
-146.372
-147.563
-148.743
-149.905
-151.045
-152.163
-153.256
-154.325
-155.367
-156.38
-157.359
-158.303
-159.21
-160.077
-160.909
-161.729
-162.579
60.0873
47.395
35.9598
27.1138
19.6332
12.6816
6.10642
-0.120454
-6.02716
-11.6666
-17.0598
-22.1881
-27.0519
-31.6514
-36.0147
-40.1594
-44.1058
-47.8637
-51.4481
-54.8747
-58.1645
-61.3347
-64.3997
-67.3644
-70.2319
-72.9995
-75.6689
-78.2404
-80.7195
-83.1097
-85.4168
-87.644
-89.7953
-91.873
-93.8805
-95.8209
-97.6977
-99.5146
-101.275
-102.983
-104.64
-106.249
-107.814
-109.335
-110.815
-112.258
-113.665
-115.041
-116.388
-117.71
-119.012
-120.297
-121.57
-122.834
-124.096
-125.36
-126.635
-127.926
-129.242
-130.591
-131.981
-133.421
-134.92
-136.309
-137.461
-138.585
-139.706
-140.833
-141.955
-143.067
-144.169
-145.264
-146.349
-147.417
-148.46
-149.473
-150.455
-151.405
-152.323
-153.21
-154.065
-154.887
-155.675
-156.428
-157.148
-157.836
-158.506
-159.192
59.8756
47.4618
36.0144
27.1371
19.6544
12.7007
6.11976
-0.110945
-6.01775
-11.6553
-17.0473
-22.1763
-27.0422
-31.6439
-36.0085
-40.1533
-44.0991
-47.8566
-51.4411
-54.8686
-58.1594
-61.3304
-64.396
-67.3609
-70.2286
-72.9965
-75.6666
-78.239
-80.7189
-83.1099
-85.4175
-87.6451
-89.7966
-91.8745
-93.8823
-95.8227
-97.6994
-99.5158
-101.275
-102.981
-104.636
-106.243
-107.804
-109.32
-110.795
-112.231
-113.631
-114.997
-116.333
-117.643
-118.929
-120.197
-121.449
-122.689
-123.923
-125.154
-126.389
-127.635
-128.898
-130.186
-131.505
-132.861
-134.262
-135.55
-136.621
-137.655
-138.676
-139.695
-140.702
-141.69
-142.663
-143.621
-144.563
-145.483
-146.371
-147.221
-148.03
-148.796
-149.518
-150.195
-150.824
-151.403
-151.927
-152.391
-152.79
-153.118
-153.374
-153.567
59.6612
47.5251
36.072
27.1608
19.6758
12.7205
6.13363
-0.101232
-6.00831
-11.6439
-17.0346
-22.164
-27.032
-31.6361
-36.002
-40.1469
-44.0922
-47.8493
-51.4343
-54.8632
-58.1559
-61.3286
-64.3952
-67.3603
-70.2277
-72.9949
-75.664
-78.2353
-80.714
-83.1034
-85.4094
-87.6353
-89.7854
-91.8622
-93.8691
-95.8091
-97.6857
-99.502
-101.261
-102.967
-104.621
-106.226
-107.784
-109.298
-110.769
-112.2
-113.592
-114.949
-116.274
-117.569
-118.838
-120.084
-121.311
-122.521
-123.719
-124.909
-126.095
-127.284
-128.48
-129.688
-130.912
-132.157
-133.419
-134.6
-135.587
-136.51
-137.403
-138.285
-139.15
-139.993
-140.814
-141.616
-142.399
-143.156
-143.88
-144.564
-145.207
-145.807
-146.366
-146.885
-147.366
-147.808
-148.21
-148.569
-148.884
-149.152
-149.371
-149.542
59.4612
47.5801
36.1277
27.1831
19.6956
12.7392
6.14696
-0.0920193
-5.9995
-11.6332
-17.0224
-22.1522
-27.0221
-31.6283
-35.9956
-40.1408
-44.0856
-47.8425
-51.428
-54.858
-58.1523
-61.3262
-64.3936
-67.3588
-70.2258
-72.9923
-75.6609
-78.2316
-80.7098
-83.0987
-85.4042
-87.6296
-89.7794
-91.856
-93.8631
-95.8032
-97.6799
-99.4961
-101.255
-102.959
-104.611
-106.213
-107.767
-109.275
-110.739
-112.16
-113.541
-114.883
-116.191
-117.465
-118.708
-119.924
-121.114
-122.283
-123.432
-124.565
-125.685
-126.796
-127.901
-129.003
-130.105
-131.206
-132.306
-133.327
-134.177
-134.957
-135.698
-136.421
-137.122
-137.797
-138.449
-139.081
-139.692
-140.28
-140.837
-141.359
-141.846
-142.299
-142.722
-143.12
-143.495
-143.851
-144.19
-144.51
-144.814
-145.1
-145.369
-145.624
59.3218
47.616
36.1677
27.1989
19.7095
12.7525
6.15658
-0.0854953
-5.9934
-11.6257
-17.014
-22.1437
-27.0149
-31.6226
-35.9911
-40.1365
-44.0811
-47.8377
-51.4234
-54.8542
-58.1496
-61.3246
-64.3927
-67.3581
-70.2251
-72.9912
-75.6595
-78.2296
-80.7073
-83.0953
-85.4
-87.6244
-89.7733
-91.849
-93.8553
-95.7946
-97.6706
-99.4856
-101.243
-102.945
-104.594
-106.193
-107.742
-109.243
-110.699
-112.11
-113.479
-114.806
-116.095
-117.346
-118.562
-119.745
-120.897
-122.02
-123.115
-124.185
-125.232
-126.257
-127.262
-128.248
-129.216
-130.166
-131.095
-131.947
-132.65
-133.287
-133.882
-134.452
-134.995
-135.511
-136.001
-136.471
-136.921
-137.347
-137.746
-138.112
-138.446
-138.75
-139.028
-139.285
-139.525
-139.751
-139.964
-140.164
-140.351
-140.524
-140.683
-140.829
59.2545
47.6328
36.1878
27.2069
19.7168
12.7594
6.16182
-0.0819392
-5.99017
-11.6217
-17.0095
-22.1389
-27.0109
-31.6192
-35.9885
-40.134
-44.0785
-47.8349
-51.4207
-54.8519
-58.1479
-61.3234
-64.3922
-67.3576
-70.2248
-72.9905
-75.6586
-78.2281
-80.7055
-83.0929
-85.3973
-87.621
-89.7696
-91.8447
-93.8508
-95.7896
-97.6651
-99.4791
-101.235
-102.935
-104.582
-106.176
-107.721
-109.216
-110.663
-112.064
-113.42
-114.731
-116
-117.228
-118.416
-119.565
-120.676
-121.752
-122.792
-123.797
-124.769
-125.708
-126.612
-127.483
-128.32
-129.122
-129.886
-130.57
-131.131
-131.633
-132.094
-132.525
-132.925
-133.295
-133.641
-133.967
-134.274
-134.56
-134.82
-135.052
-135.255
-135.432
-135.587
-135.725
-135.851
-135.967
-136.074
-136.17
-136.256
-136.33
-136.391
-136.439
59.255
47.6322
36.1875
27.2068
19.7171
12.7594
6.16203
-0.0819521
-5.99037
-11.6217
-17.0095
-22.1384
-27.0106
-31.6188
-35.9884
-40.134
-44.0786
-47.8349
-51.4206
-54.8517
-58.1478
-61.3235
-64.3927
-67.3581
-70.2255
-72.991
-75.6591
-78.2282
-80.7055
-83.0924
-85.3967
-87.6199
-89.7683
-91.8427
-93.8483
-95.7862
-97.6607
-99.4734
-101.228
-102.925
-104.569
-106.16
-107.699
-109.187
-110.626
-112.017
-113.359
-114.655
-115.904
-117.108
-118.267
-119.382
-120.454
-121.483
-122.468
-123.41
-124.308
-125.16
-125.967
-126.726
-127.436
-128.097
-128.704
-129.232
-129.659
-130.036
-130.373
-130.676
-130.947
-131.187
-131.403
-131.6
-131.78
-131.939
-132.075
-132.185
-132.268
-132.328
-132.37
-132.397
-132.414
-132.424
-132.427
-132.423
-132.411
-132.389
-132.357
-132.315
59.3233
47.6141
36.1669
27.1986
19.7105
12.7526
6.15727
-0.0854685
-5.99395
-11.6257
-17.014
-22.1422
-27.0139
-31.6213
-35.9908
-40.1364
-44.0813
-47.8374
-51.4228
-54.8535
-58.1494
-61.3248
-64.3942
-67.3595
-70.2273
-72.9926
-75.661
-78.2296
-80.7072
-83.0937
-85.3982
-87.6209
-89.7693
-91.843
-93.8481
-95.7848
-97.6582
-99.4689
-101.221
-102.916
-104.557
-106.143
-107.677
-109.159
-110.59
-111.97
-113.299
-114.579
-115.809
-116.989
-118.121
-119.203
-120.236
-121.219
-122.151
-123.031
-123.858
-124.629
-125.342
-125.996
-126.588
-127.117
-127.58
-127.964
-128.267
-128.528
-128.753
-128.943
-129.099
-129.225
-129.326
-129.41
-129.477
-129.526
-129.554
-129.557
-129.536
-129.495
-129.438
-129.369
-129.292
-129.211
-129.125
-129.035
-128.939
-128.836
-128.726
-128.61
59.4615
47.5774
36.1269
27.1829
19.6974
12.7396
6.14827
-0.0917781
-6.00032
-11.6329
-17.0224
-22.1496
-27.0203
-31.626
-35.9952
-40.1406
-44.0859
-47.8419
-51.4269
-54.8566
-58.1518
-61.3265
-64.396
-67.3611
-70.2295
-72.9945
-75.6634
-78.2316
-80.7097
-83.0959
-85.4011
-87.6236
-89.7725
-91.8456
-93.8507
-95.7862
-97.6589
-99.4678
-101.219
-102.911
-104.549
-106.131
-107.66
-109.135
-110.558
-111.928
-113.245
-114.509
-115.72
-116.877
-117.981
-119.031
-120.026
-120.964
-121.844
-122.664
-123.421
-124.114
-124.739
-125.293
-125.776
-126.184
-126.513
-126.754
-126.936
-127.089
-127.211
-127.298
-127.35
-127.371
-127.37
-127.352
-127.32
-127.271
-127.203
-127.113
-127.003
-126.875
-126.733
-126.583
-126.428
-126.272
-126.113
-125.953
-125.79
-125.624
-125.454
-125.28
59.6548
47.5233
36.0727
27.1613
19.6788
12.7217
6.13584
-0.100462
-6.00916
-11.6431
-17.0343
-22.1601
-27.0295
-31.6326
-36.0014
-40.1463
-44.0924
-47.8481
-51.4327
-54.8609
-58.1552
-61.3287
-64.3984
-67.3631
-70.2326
-72.9974
-75.6673
-78.2351
-80.7141
-83.0998
-85.4059
-87.6277
-89.777
-91.8488
-93.8534
-95.7867
-97.658
-99.4642
-101.213
-102.902
-104.537
-106.115
-107.64
-109.11
-110.526
-111.887
-113.194
-114.445
-115.641
-116.78
-117.862
-118.885
-119.849
-120.751
-121.589
-122.36
-123.061
-123.689
-124.243
-124.718
-125.116
-125.432
-125.663
-125.781
-125.854
-125.923
-125.973
-125.985
-125.958
-125.9
-125.821
-125.726
-125.619
-125.496
-125.356
-125.195
-125.015
-124.818
-124.608
-124.389
-124.165
-123.936
-123.704
-123.467
-123.225
-122.975
-122.719
-122.452
59.8625
47.4614
36.0166
27.1383
19.6585
12.7027
6.12275
-0.109602
-6.01857
-11.6539
-17.0469
-22.1712
-27.0391
-31.6395
-36.0079
-40.1523
-44.0994
-47.8548
-51.4391