/*--------------------------------*- C++ -*----------------------------------*\
| =========                 |                                                 |
| \\      /  F ield         | OpenFOAM: The Open Source CFD Toolbox           |
|  \\    /   O peration     | Version:  5.x                                   |
|   \\  /    A nd           | Web:      www.OpenFOAM.org                      |
|    \\/     M anipulation  |                                                 |
\*---------------------------------------------------------------------------*/
FoamFile
{
    version     2.0;
    format      ascii;
    class       surfaceScalarField;
    location    "300";
    object      phi;
}
// * * * * * * * * * * * * * * * * * * * * * * * * * * * * * * * * * * * * * //

dimensions      [0 3 -1 0 0 0 0];

internalField   nonuniform List<scalar> 
40747
(
1.48846e-05
-4.14905e-09
6.49084e-06
8.39379e-06
1.8006e-05
-8.76967e-09
1.28335e-05
1.16632e-05
2.17819e-05
-1.39893e-08
1.94338e-05
1.51816e-05
2.63496e-05
-1.97026e-08
2.63929e-05
1.93904e-05
3.18749e-05
-2.56595e-08
3.37373e-05
2.45303e-05
3.85584e-05
-3.13859e-08
4.14454e-05
3.08501e-05
4.66429e-05
-3.60829e-08
4.94499e-05
3.8638e-05
5.64219e-05
-3.85135e-08
5.76342e-05
4.8237e-05
6.82506e-05
-3.68887e-08
6.58271e-05
6.00568e-05
8.25584e-05
-2.87651e-08
7.37991e-05
7.45849e-05
9.98651e-05
-1.09552e-08
8.12654e-05
9.23968e-05
0.000120799
2.05561e-08
8.78979e-05
0.000114164
0.000146122
7.06934e-08
9.33556e-05
0.00014066
0.000176754
1.45351e-07
9.73388e-05
0.000172765
0.000213808
2.51382e-07
9.96786e-05
0.00021146
0.000258633
3.96432e-07
0.000100463
0.000257836
0.000312858
5.88488e-07
0.000100063
0.000313243
0.000378459
8.35117e-07
9.8878e-05
0.000379623
0.000457823
1.14261e-06
9.71433e-05
0.000459531
0.00055384
1.51504e-06
9.49339e-05
0.000556015
0.000670008
1.95285e-06
9.22292e-05
0.00067267
0.000810559
2.45088e-06
8.89581e-05
0.000813776
0.000980613
2.9954e-06
8.50209e-05
0.000984483
0.00118637
3.56021e-06
8.02967e-05
0.00119101
0.00143532
4.1016e-06
7.46427e-05
0.00144088
0.00173655
4.55257e-06
6.78925e-05
0.00174318
0.00210104
4.81717e-06
5.98507e-05
0.00210893
0.00254205
4.76843e-06
5.02926e-05
0.00255143
0.00307565
4.25257e-06
3.89564e-05
0.0030868
0.00372122
3.10878e-06
2.54961e-05
0.00373448
0.00356592
1.6522e-06
1.27231e-05
0.00357846
0.00356608
2.85414e-08
1.20417e-08
0.00357855
0.00356608
-1.59409e-06
-1.27002e-05
0.00357855
0.00356592
-3.04675e-06
-2.54685e-05
0.00357845
0.00360834
-4.15949e-06
-3.85257e-05
0.00362118
0.00300135
-4.68337e-06
-4.95959e-05
0.00301221
0.00249645
-4.76161e-06
-5.89843e-05
0.00250564
0.00207649
-4.53504e-06
-6.69376e-05
0.00208427
0.0017272
-4.12173e-06
-7.36629e-05
0.00173377
0.00143668
-3.612e-06
-7.93368e-05
0.00144222
0.00119505
-3.07044e-06
-8.41119e-05
0.00119971
0.000994077
-2.5404e-06
-8.81201e-05
0.000997988
0.000826917
-2.0489e-06
-9.1475e-05
0.000830191
0.00068788
-1.61103e-06
-9.42721e-05
0.00069061
0.000572231
-1.2335e-06
-9.65857e-05
0.000574489
0.000476034
-9.17349e-07
-9.84545e-05
0.000477858
0.000396016
-6.59871e-07
-9.98505e-05
0.000397376
0.000329455
-4.55996e-07
-0.000100626
0.000330202
0.000274085
-2.99187e-07
-0.000100473
0.00027391
0.000228023
-1.822e-07
-9.90041e-05
0.000226537
0.000189705
-9.78046e-08
-9.59968e-05
0.000186685
0.000157826
-3.93311e-08
-9.14956e-05
0.000153316
0.000131305
-9.23881e-10
-8.57175e-05
0.00012552
0.000109241
2.2387e-08
-7.89571e-05
0.000102476
9.08843e-05
3.4715e-08
-7.15236e-05
8.34475e-05
7.56119e-05
3.9384e-08
-6.37036e-05
6.77896e-05
6.29055e-05
3.9005e-08
-5.57412e-05
5.49415e-05
5.2334e-05
3.55549e-08
-4.78303e-05
4.4422e-05
4.35387e-05
3.04611e-08
-4.01142e-05
3.58219e-05
3.62212e-05
2.4698e-08
-3.26892e-05
2.87958e-05
3.01333e-05
1.88865e-08
-2.56091e-05
2.30529e-05
2.50684e-05
1.33871e-08
-1.88875e-05
1.83466e-05
2.08548e-05
8.37968e-09
-1.24945e-05
1.44616e-05
1.73492e-05
3.95874e-09
-6.32844e-06
1.11831e-05
1.4433e-05
8.10459e-06
2.16368e-06
6.2301e-06
1.89787e-06
2.65805e-07
1.80058e-06
9.72909e-08
1.73817e-06
6.24089e-08
1.69352e-06
4.46471e-08
1.65968e-06
3.38448e-08
1.63296e-06
2.67214e-08
1.61128e-06
2.16859e-08
1.59336e-06
1.79145e-08
1.57832e-06
1.50414e-08
1.56549e-06
1.28271e-08
1.5544e-06
1.10873e-08
1.54472e-06
9.66996e-09
1.53624e-06
8.48129e-09
1.52877e-06
7.47675e-09
1.52214e-06
6.63614e-09
1.51621e-06
5.93859e-09
1.51086e-06
5.3532e-09
1.50603e-06
4.84235e-09
1.50166e-06
4.38248e-09
1.49772e-06
3.95706e-09
1.49416e-06
3.57234e-09
1.49094e-06
3.22888e-09
1.48802e-06
2.93465e-09
1.48535e-06
2.68184e-09
1.4829e-06
2.46631e-09
1.48063e-06
2.275e-09
1.47855e-06
2.1032e-09
1.47662e-06
1.94392e-09
1.47484e-06
1.79776e-09
1.4732e-06
1.66275e-09
1.47167e-06
1.54028e-09
1.47026e-06
1.42817e-09
1.46895e-06
1.32586e-09
1.46774e-06
1.23055e-09
1.46662e-06
1.14117e-09
1.46558e-06
1.05587e-09
1.46463e-06
9.74313e-10
1.46376e-06
8.95675e-10
1.46296e-06
8.19847e-10
1.46224e-06
7.46067e-10
1.46159e-06
6.73729e-10
1.46101e-06
6.0161e-10
1.46051e-06
5.28551e-10
1.46009e-06
4.53016e-10
1.45974e-06
3.7362e-10
1.45948e-06
2.88921e-10
1.45931e-06
1.98113e-10
1.45924e-06
9.82199e-11
1.45929e-06
-1.29541e-11
1.45946e-06
-1.33667e-10
1.45975e-06
-2.62651e-10
1.46019e-06
-4.00289e-10
1.46079e-06
-5.4635e-10
1.46155e-06
-7.05821e-10
1.46251e-06
-8.78941e-10
1.46367e-06
-1.07803e-09
1.46508e-06
-1.30216e-09
1.46675e-06
-1.55632e-09
1.46872e-06
-1.85077e-09
1.471e-06
-2.14734e-09
1.47376e-06
-2.626e-09
1.47717e-06
-3.24523e-09
1.47951e-06
-2.13818e-09
1.48177e-06
-1.9789e-09
1.4843e-06
-2.26829e-09
1.48705e-06
-2.44342e-09
1.48991e-06
-2.56265e-09
1.49288e-06
-2.63065e-09
1.49595e-06
-2.74835e-09
1.49913e-06
-2.8305e-09
1.50242e-06
-2.96663e-09
1.50582e-06
-3.05326e-09
1.50933e-06
-3.17997e-09
1.51295e-06
-3.24953e-09
1.51669e-06
-3.33791e-09
1.5206e-06
-3.39772e-09
1.52471e-06
-3.48552e-09
1.52912e-06
-3.60369e-09
1.53395e-06
-3.79609e-09
1.53941e-06
-4.11306e-09
1.54573e-06
-4.65158e-09
1.55338e-06
-5.57455e-09
1.56317e-06
-7.4027e-09
1.57689e-06
-1.09844e-08
1.60136e-06
-2.16523e-08
1.68627e-06
-8.14679e-08
-8.81553e-07
2.57073e-06
5.26832e-06
1.2625e-05
4.63305e-06
9.01065e-07
4.41632e-06
3.1402e-07
4.285e-06
1.93726e-07
4.19288e-06
1.36778e-07
4.12362e-06
1.03111e-07
4.06911e-06
8.12267e-08
4.02495e-06
6.58492e-08
3.98847e-06
5.43872e-08
3.95785e-06
4.56594e-08
3.93171e-06
3.89557e-08
3.90911e-06
3.36858e-08
3.88938e-06
2.93953e-08
3.87207e-06
2.5792e-08
3.85681e-06
2.27472e-08
3.84325e-06
2.02004e-08
3.83112e-06
1.80883e-08
3.82018e-06
1.63118e-08
3.81028e-06
1.47597e-08
3.80134e-06
1.33537e-08
3.79326e-06
1.20558e-08
3.78598e-06
1.0877e-08
3.7794e-06
9.83263e-09
3.77342e-06
8.93508e-09
3.76796e-06
8.17055e-09
3.76294e-06
7.51488e-09
3.7583e-06
6.93599e-09
3.75403e-06
6.41209e-09
3.75007e-06
5.92854e-09
3.74642e-06
5.48264e-09
3.74305e-06
5.07303e-09
3.73992e-06
4.70032e-09
3.73702e-06
4.36046e-09
3.73433e-06
4.0489e-09
3.73184e-06
3.75872e-09
3.72953e-06
3.48517e-09
3.72741e-06
3.22395e-09
3.72545e-06
2.97335e-09
3.72366e-06
2.73182e-09
3.72202e-06
2.49855e-09
3.72054e-06
2.27157e-09
3.71922e-06
2.04853e-09
3.71804e-06
1.82571e-09
3.71702e-06
1.59914e-09
3.71616e-06
1.36405e-09
3.71548e-06
1.11592e-09
3.71497e-06
8.50243e-10
3.71466e-06
5.64058e-10
3.71457e-06
2.47875e-10
3.71473e-06
-1.0421e-10
3.71514e-06
-4.87257e-10
3.71585e-06
-8.98778e-10
3.71687e-06
-1.34053e-09
3.71824e-06
-1.81422e-09
3.71998e-06
-2.33221e-09
3.72215e-06
-2.90116e-09
3.72479e-06
-3.54854e-09
3.72797e-06
-4.28019e-09
3.73173e-06
-5.10111e-09
3.73618e-06
-6.05637e-09
3.74128e-06
-6.99039e-09
3.74753e-06
-8.61677e-09
3.75513e-06
-1.05092e-08
3.76046e-06
-7.08286e-09
3.76571e-06
-6.68187e-09
3.77129e-06
-7.34199e-09
3.77741e-06
-7.96138e-09
3.78376e-06
-8.3465e-09
3.79039e-06
-8.60036e-09
3.79722e-06
-8.95944e-09
3.80432e-06
-9.24833e-09
3.81162e-06
-9.65377e-09
3.8192e-06
-9.95968e-09
3.827e-06
-1.03578e-08
3.83512e-06
-1.06421e-08
3.84357e-06
-1.09899e-08
3.85247e-06
-1.12986e-08
3.86195e-06
-1.17236e-08
3.87222e-06
-1.22719e-08
3.88358e-06
-1.30892e-08
3.89643e-06
-1.43105e-08
3.91132e-06
-1.6255e-08
3.92916e-06
-1.93472e-08
3.95165e-06
-2.52553e-08
3.98126e-06
-3.53434e-08
4.03266e-06
-6.76925e-08
4.15142e-06
-1.93512e-07
-1.15574e-06
4.43125e-06
8.24126e-06
1.95653e-05
7.22674e-06
1.91558e-06
6.88504e-06
6.55717e-07
6.68556e-06
3.93205e-07
6.5479e-06
2.74433e-07
6.44528e-06
2.05739e-07
6.36491e-06
1.61603e-07
6.29997e-06
1.30785e-07
6.24645e-06
1.07903e-07
6.20159e-06
9.0519e-08
6.16333e-06
7.72018e-08
6.13026e-06
6.67494e-08
6.10141e-06
5.82486e-08
6.07609e-06
5.11109e-08
6.05376e-06
4.50827e-08
6.03393e-06
4.00462e-08
6.01616e-06
3.58736e-08
6.00013e-06
3.23632e-08
5.98562e-06
2.92906e-08
5.9725e-06
2.6498e-08
5.96067e-06
2.39154e-08
5.95e-06
2.15659e-08
5.94037e-06
1.94878e-08
5.93163e-06
1.7704e-08
5.92364e-06
1.61897e-08
5.91629e-06
1.48918e-08
5.90951e-06
1.37473e-08
5.90325e-06
1.27096e-08
5.89746e-06
1.17514e-08
5.89211e-06
1.08665e-08
5.88717e-06
1.00543e-08
5.88259e-06
9.3151e-09
5.87834e-06
8.64165e-09
5.8744e-06
8.02358e-09
5.87075e-06
7.44725e-09
5.86738e-06
6.90233e-09
5.86426e-06
6.38068e-09
5.8614e-06
5.87882e-09
5.85879e-06
5.39423e-09
5.85641e-06
4.92543e-09
5.85426e-06
4.46886e-09
5.85234e-06
4.01971e-09
5.85065e-06
3.5706e-09
5.84919e-06
3.11328e-09
5.84797e-06
2.63811e-09
5.84701e-06
2.13574e-09
5.84633e-06
1.59691e-09
5.84594e-06
1.01494e-09
5.84588e-06
3.70451e-10
5.84619e-06
-3.47143e-10
5.8469e-06
-1.12803e-09
5.84804e-06
-1.96811e-09
5.84966e-06
-2.8709e-09
5.85179e-06
-3.8408e-09
5.85449e-06
-4.90188e-09
5.85782e-06
-6.07116e-09
5.86186e-06
-7.39909e-09
5.86669e-06
-8.90373e-09
5.87242e-06
-1.05886e-08
5.87917e-06
-1.25558e-08
5.88692e-06
-1.44571e-08
5.89646e-06
-1.78708e-08
5.9079e-06
-2.15902e-08
5.916e-06
-1.47572e-08
5.92406e-06
-1.41589e-08
5.93255e-06
-1.5288e-08
5.94185e-06
-1.66154e-08
5.95156e-06
-1.74386e-08
5.96167e-06
-1.80067e-08
5.97212e-06
-1.87391e-08
5.98296e-06
-1.93576e-08
5.99412e-06
-2.01635e-08
6.00569e-06
-2.08068e-08
6.0176e-06
-2.15964e-08
6.02995e-06
-2.2202e-08
6.04274e-06
-2.29183e-08
6.05612e-06
-2.35935e-08
6.07026e-06
-2.45108e-08
6.08545e-06
-2.57143e-08
6.10211e-06
-2.74966e-08
6.12081e-06
-3.01318e-08
6.14239e-06
-3.42687e-08
6.16814e-06
-4.07052e-08
6.20074e-06
-5.28444e-08
6.24362e-06
-7.25994e-08
6.31738e-06
-1.35728e-07
6.45559e-06
-3.2445e-07
-1.22533e-06
6.53144e-06
1.17453e-05
2.72104e-05
1.02617e-05
3.39922e-06
9.75632e-06
1.16106e-06
9.46989e-06
6.79637e-07
9.27529e-06
4.69037e-07
9.13144e-06
3.496e-07
9.01933e-06
2.73705e-07
8.92906e-06
2.21062e-07
8.85482e-06
1.82135e-07
8.7927e-06
1.52639e-07
8.73978e-06
1.301e-07
8.69408e-06
1.12445e-07
8.65422e-06
9.81047e-08
8.61926e-06
8.60726e-08
8.58843e-06
7.59179e-08
8.56105e-06
6.74427e-08
8.53652e-06
6.04284e-08
8.51438e-06
5.4529e-08
8.49434e-06
4.936e-08
8.47621e-06
4.46524e-08
8.45987e-06
4.0291e-08
8.44515e-06
3.6319e-08
8.43186e-06
3.28077e-08
8.4198e-06
2.97967e-08
8.40877e-06
2.72461e-08
8.39864e-06
2.50627e-08
8.38928e-06
2.31391e-08
8.38064e-06
2.13938e-08
8.37265e-06
1.97813e-08
8.36528e-06
1.82911e-08
8.35845e-06
1.69232e-08
8.35213e-06
1.56784e-08
8.34627e-06
1.45448e-08
8.34084e-06
1.3504e-08
8.3358e-06
1.25326e-08
8.33114e-06
1.16126e-08
8.32684e-06
1.07301e-08
8.32289e-06
9.87926e-09
8.31929e-06
9.05633e-09
8.31602e-06
8.25906e-09
8.31306e-06
7.48178e-09
8.31043e-06
6.71644e-09
8.30812e-06
5.95055e-09
8.30613e-06
5.16996e-09
8.30448e-06
4.35815e-09
8.30319e-06
3.49897e-09
8.30228e-06
2.57635e-09
8.30179e-06
1.57786e-09
8.30177e-06
4.70306e-10
8.30227e-06
-7.62762e-10
8.30333e-06
-2.10496e-09
8.305e-06
-3.55019e-09
8.30734e-06
-5.10412e-09
8.31041e-06
-6.77472e-09
8.31426e-06
-8.60223e-09
8.31901e-06
-1.06182e-08
8.32474e-06
-1.2905e-08
8.3316e-06
-1.54989e-08
8.33971e-06
-1.84019e-08
8.34926e-06
-2.17959e-08
8.36021e-06
-2.50664e-08
8.37367e-06
-3.09851e-08
8.38968e-06
-3.71504e-08
8.40109e-06
-2.56605e-08
8.41258e-06
-2.49374e-08
8.42459e-06
-2.6623e-08
8.43768e-06
-2.89181e-08
8.45138e-06
-3.03862e-08
8.46566e-06
-3.14217e-08
8.48041e-06
-3.26868e-08
8.49572e-06
-3.37778e-08
8.5115e-06
-3.51435e-08
8.52783e-06
-3.62634e-08
8.54465e-06
-3.75932e-08
8.56205e-06
-3.86464e-08
8.58006e-06
-3.98635e-08
8.59882e-06
-4.10355e-08
8.61857e-06
-4.26079e-08
8.63966e-06
-4.46837e-08
8.66266e-06
-4.77476e-08
8.6883e-06
-5.22659e-08
8.71768e-06
-5.9317e-08
8.75251e-06
-7.01965e-08
8.79623e-06
-9.05051e-08
8.85337e-06
-1.22941e-07
8.9477e-06
-2.23173e-07
9.09942e-06
-4.67389e-07
-1.24801e-06
9.12996e-06
1.60744e-05
3.56662e-05
1.40056e-05
5.46808e-06
1.32816e-05
1.88502e-06
1.28807e-05
1.08054e-06
1.26124e-05
7.37381e-07
1.24157e-05
5.46256e-07
1.22633e-05
4.26124e-07
1.2141e-05
3.43379e-07
1.20406e-05
2.82466e-07
1.19568e-05
2.36447e-07
1.18855e-05
2.01368e-07
1.1824e-05
1.73947e-07
1.17704e-05
1.51713e-07
1.17234e-05
1.33075e-07
1.1682e-05
1.17358e-07
1.16452e-05
1.04252e-07
1.16122e-05
9.34158e-08
1.15825e-05
8.43059e-08
1.15556e-05
7.6321e-08
1.15312e-05
6.90401e-08
1.15093e-05
6.22864e-08
1.14895e-05
5.61302e-08
1.14717e-05
5.06884e-08
1.14555e-05
4.6025e-08
1.14407e-05
4.20801e-08
1.14271e-05
3.87073e-08
1.14145e-05
3.57382e-08
1.14029e-05
3.30443e-08
1.13922e-05
3.05546e-08
1.13823e-05
2.82523e-08
1.13732e-05
2.61389e-08
1.13647e-05
2.42156e-08
1.13568e-05
2.24644e-08
1.13495e-05
2.08565e-08
1.13428e-05
1.9355e-08
1.13365e-05
1.79313e-08
1.13307e-05
1.65638e-08
1.13254e-05
1.52434e-08
1.13206e-05
1.39645e-08
1.13162e-05
1.27239e-08
1.13123e-05
1.15133e-08
1.13087e-05
1.03203e-08
1.13057e-05
9.12568e-09
1.1303e-05
7.90735e-09
1.13008e-05
6.63949e-09
1.12991e-05
5.2967e-09
1.12979e-05
3.85359e-09
1.12973e-05
2.28937e-09
1.12973e-05
5.52372e-10
1.12981e-05
-1.38132e-09
1.12995e-05
-3.48696e-09
1.13019e-05
-5.75593e-09
1.13051e-05
-8.19663e-09
1.13093e-05
-1.08215e-08
1.13146e-05
-1.36923e-08
1.13211e-05
-1.68593e-08
1.13289e-05
-2.04482e-08
1.13383e-05
-2.45194e-08
1.13494e-05
-2.90749e-08
1.13624e-05
-3.44011e-08
1.13773e-05
-3.9542e-08
1.13956e-05
-4.88021e-08
1.14171e-05
-5.8105e-08
1.14326e-05
-4.04841e-08
1.14483e-05
-3.97789e-08
1.14647e-05
-4.21103e-08
1.14824e-05
-4.56383e-08
1.1501e-05
-4.79977e-08
1.15204e-05
-4.96876e-08
1.15404e-05
-5.16816e-08
1.15612e-05
-5.34179e-08
1.15826e-05
-5.55385e-08
1.16048e-05
-5.73033e-08
1.16276e-05
-5.93566e-08
1.16512e-05
-6.10109e-08
1.16756e-05
-6.28911e-08
1.1701e-05
-6.47132e-08
1.17276e-05
-6.71243e-08
1.17559e-05
-7.03029e-08
1.17866e-05
-7.49724e-08
1.18207e-05
-8.18469e-08
1.18594e-05
-9.25345e-08
1.1905e-05
-1.08963e-07
1.19615e-05
-1.39312e-07
1.20345e-05
-1.87383e-07
1.21493e-05
-3.29169e-07
1.23133e-05
-6.2033e-07
-1.30917e-06
1.23847e-05
2.15077e-05
4.50085e-05
1.87108e-05
8.26497e-06
1.7693e-05
2.90274e-06
1.71392e-05
1.63437e-06
1.67738e-05
1.10284e-06
1.65083e-05
8.11684e-07
1.63038e-05
6.30652e-07
1.61403e-05
5.0688e-07
1.60065e-05
4.16218e-07
1.5895e-05
3.47947e-07
1.58004e-05
2.96035e-07
1.57187e-05
2.55548e-07
1.56477e-05
2.2278e-07
1.55854e-05
1.9535e-07
1.55305e-05
1.72239e-07
1.54818e-05
1.52982e-07
1.54382e-05
1.37071e-07
1.53989e-05
1.23703e-07
1.53632e-05
1.11987e-07
1.5331e-05
1.01299e-07
1.5302e-05
9.13783e-08
1.52759e-05
8.23297e-08
1.52523e-05
7.43293e-08
1.52309e-05
6.74754e-08
1.52113e-05
6.16822e-08
1.51934e-05
5.67341e-08
1.51768e-05
5.2382e-08
1.51615e-05
4.84346e-08
1.51473e-05
4.47863e-08
1.51342e-05
4.14116e-08
1.51221e-05
3.8313e-08
1.51109e-05
3.54931e-08
1.51005e-05
3.29257e-08
1.50909e-05
3.05682e-08
1.5082e-05
2.83664e-08
1.50737e-05
2.62772e-08
1.50661e-05
2.42687e-08
1.50591e-05
2.23272e-08
1.50527e-05
2.04448e-08
1.50469e-05
1.8617e-08
1.50417e-05
1.6832e-08
1.50371e-05
1.50718e-08
1.5033e-05
1.33085e-08
1.50295e-05
1.15094e-08
1.50267e-05
9.63639e-09
1.50244e-05
7.6519e-09
1.50229e-05
5.51802e-09
1.50221e-05
3.2023e-09
1.50222e-05
6.29106e-10
1.50232e-05
-2.23522e-09
1.50252e-05
-5.35568e-09
1.50283e-05
-8.72029e-09
1.50326e-05
-1.2341e-08
1.50383e-05
-1.62359e-08
1.50453e-05
-2.04944e-08
1.5054e-05
-2.5191e-08
1.50645e-05
-3.05076e-08
1.50769e-05
-3.65362e-08
1.50917e-05
-4.32814e-08
1.5109e-05
-5.11608e-08
1.51288e-05
-5.87997e-08
1.5153e-05
-7.23874e-08
1.51813e-05
-8.56017e-08
1.52018e-05
-6.00906e-08
1.52228e-05
-5.9648e-08
1.52446e-05
-6.27342e-08
1.52681e-05
-6.7768e-08
1.52927e-05
-7.13083e-08
1.53184e-05
-7.38782e-08
1.53449e-05
-7.68424e-08
1.53724e-05
-7.94328e-08
1.54008e-05
-8.25482e-08
1.54301e-05
-8.51616e-08
1.54604e-05
-8.8164e-08
1.54916e-05
-9.0607e-08
1.55238e-05
-9.33501e-08
1.55573e-05
-9.60071e-08
1.55925e-05
-9.94719e-08
1.56297e-05
-1.04012e-07
1.567e-05
-1.10638e-07
1.57144e-05
-1.20374e-07
1.57645e-05
-1.3546e-07
1.5823e-05
-1.58602e-07
1.58945e-05
-2.00868e-07
1.59858e-05
-2.67518e-07
1.61217e-05
-4.53801e-07
1.62997e-05
-7.83961e-07
-1.44515e-06
1.64492e-05
2.83647e-05
5.52817e-05
2.46706e-05
1.1959e-05
2.32584e-05
4.31492e-06
2.24986e-05
2.39424e-06
2.20038e-05
1.59759e-06
2.16478e-05
1.1677e-06
2.13752e-05
9.03264e-07
2.11582e-05
7.23876e-07
2.09812e-05
5.93201e-07
2.0834e-05
4.95154e-07
2.07092e-05
4.20795e-07
2.06018e-05
3.62942e-07
2.05084e-05
3.1622e-07
2.04266e-05
2.77174e-07
2.03545e-05
2.44308e-07
2.02906e-05
2.16942e-07
2.02333e-05
1.94342e-07
2.01817e-05
1.75365e-07
2.01351e-05
1.58741e-07
2.00929e-05
1.43579e-07
2.00548e-05
1.29504e-07
2.00206e-05
1.16662e-07
1.99896e-05
1.05304e-07
1.99616e-05
9.55735e-08
1.9936e-05
8.73515e-08
1.99125e-05
8.03341e-08
1.98908e-05
7.4167e-08
1.98708e-05
6.8577e-08
1.98523e-05
6.34116e-08
1.98351e-05
5.86334e-08
1.98193e-05
5.42452e-08
1.98047e-05
5.02512e-08
1.97911e-05
4.66147e-08
1.97785e-05
4.32754e-08
1.97668e-05
4.01563e-08
1.9756e-05
3.71961e-08
1.97461e-05
3.43488e-08
1.97369e-05
3.15947e-08
1.97286e-05
2.89225e-08
1.9721e-05
2.63261e-08
1.97142e-05
2.37891e-08
1.97081e-05
2.12864e-08
1.97028e-05
1.87785e-08
1.96983e-05
1.62192e-08
1.96945e-05
1.35546e-08
1.96916e-05
1.07309e-08
1.96896e-05
7.69385e-09
1.96886e-05
4.39524e-09
1.96887e-05
7.29115e-10
1.969e-05
-3.35136e-09
1.96926e-05
-7.79908e-09
1.96967e-05
-1.2597e-08
1.97024e-05
-1.77618e-08
1.97098e-05
-2.33186e-08
1.97191e-05
-2.93927e-08
1.97304e-05
-3.60881e-08
1.97441e-05
-4.36598e-08
1.97604e-05
-5.22392e-08
1.97797e-05
-6.18382e-08
1.98023e-05
-7.30343e-08
1.98283e-05
-8.39554e-08
1.98597e-05
-1.03034e-07
1.98962e-05
-1.21026e-07
1.99228e-05
-8.55102e-08
1.99505e-05
-8.57059e-08
1.99791e-05
-8.97019e-08
2.00097e-05
-9.6526e-08
2.00417e-05
-1.01582e-07
2.00751e-05
-1.053e-07
2.01096e-05
-1.09528e-07
2.01455e-05
-1.13224e-07
2.01824e-05
-1.17627e-07
2.02206e-05
-1.21335e-07
2.02599e-05
-1.25562e-07
2.03004e-05
-1.29022e-07
2.03424e-05
-1.32872e-07
2.03859e-05
-1.36588e-07
2.04315e-05
-1.41361e-07
2.04798e-05
-1.4756e-07
2.05318e-05
-1.56536e-07
2.05889e-05
-1.69689e-07
2.0653e-05
-1.90003e-07
2.07271e-05
-2.21121e-07
2.08166e-05
-2.77223e-07
2.09291e-05
-3.65399e-07
2.10877e-05
-5.97763e-07
2.12829e-05
-9.6053e-07
-1.6572e-06
2.1513e-05
3.70304e-05
6.6488e-05
3.22469e-05
1.67425e-05
3.03075e-05
6.25428e-06
2.92688e-05
3.43297e-06
2.86005e-05
2.26587e-06
2.81241e-05
1.64412e-06
2.77618e-05
1.26561e-06
2.74748e-05
1.01094e-06
2.72414e-05
8.26554e-07
2.70477e-05
6.8876e-07
2.6884e-05
5.84547e-07
2.67432e-05
5.03676e-07
2.66209e-05
4.38524e-07
2.65139e-05
3.84188e-07
2.64197e-05
3.38506e-07
2.63362e-05
3.00491e-07
2.62615e-05
2.69105e-07
2.61942e-05
2.42763e-07
2.61333e-05
2.19706e-07
2.60783e-05
1.98694e-07
2.60287e-05
1.79197e-07
2.59841e-05
1.61408e-07
2.59438e-05
1.4567e-07
2.59073e-05
1.32182e-07
2.5874e-05
1.20785e-07
2.58434e-05
1.11062e-07
2.58152e-05
1.02524e-07
2.57891e-05
9.47912e-08
2.5765e-05
8.76493e-08
2.57427e-05
8.1044e-08
2.57221e-05
7.49771e-08
2.57031e-05
6.94541e-08
2.56854e-05
6.44245e-08
2.56691e-05
5.98061e-08
2.56539e-05
5.54923e-08
2.56398e-05
5.13983e-08
2.56269e-05
4.74601e-08
2.5615e-05
4.36499e-08
2.56042e-05
3.99517e-08
2.55943e-05
3.63573e-08
2.55855e-05
3.2844e-08
2.55776e-05
2.93778e-08
2.55707e-05
2.59042e-08
2.55648e-05
2.23598e-08
2.55599e-05
1.86701e-08
2.55561e-05
1.47607e-08
2.55535e-05
1.05561e-08
2.55522e-05
5.98714e-09
2.55522e-05
9.1045e-10
2.55539e-05
-4.73926e-09
2.55573e-05
-1.09011e-08
2.55625e-05
-1.75498e-08
2.55698e-05
-2.47087e-08
2.55794e-05
-3.24111e-08
2.55913e-05
-4.08288e-08
2.5606e-05
-5.01014e-08
2.56236e-05
-6.05783e-08
2.56447e-05
-7.24387e-08
2.56695e-05
-8.57089e-08
2.56987e-05
-1.01157e-07
2.57322e-05
-1.16334e-07
2.57725e-05
-1.42273e-07
2.5819e-05
-1.66015e-07
2.58531e-05
-1.17941e-07
2.58889e-05
-1.19302e-07
2.59258e-05
-1.24444e-07
2.59652e-05
-1.33363e-07
2.60063e-05
-1.40322e-07
2.60492e-05
-1.45498e-07
2.60936e-05
-1.51344e-07
2.61396e-05
-1.56445e-07
2.6187e-05
-1.62489e-07
2.62359e-05
-1.67588e-07
2.62863e-05
-1.73372e-07
2.63384e-05
-1.78126e-07
2.63921e-05
-1.83377e-07
2.6448e-05
-1.88423e-07
2.65064e-05
-1.94805e-07
2.65682e-05
-2.03009e-07
2.66346e-05
-2.14779e-07
2.67072e-05
-2.31975e-07
2.67883e-05
-2.58435e-07
2.68814e-05
-2.98912e-07
2.69923e-05
-3.70816e-07
2.71294e-05
-4.83451e-07
2.73129e-05
-7.62071e-07
2.75295e-05
-1.15297e-06
-1.9265e-06
2.78226e-05
4.7973e-05
7.85714e-05
4.18936e-05
2.28217e-05
3.92556e-05
8.89229e-06
3.78386e-05
4.84998e-06
3.69359e-05
3.16857e-06
3.62983e-05
2.28177e-06
3.58167e-05
1.74717e-06
3.54372e-05
1.39048e-06
3.51297e-05
1.13395e-06
3.48754e-05
9.43085e-07
3.46607e-05
7.99161e-07
3.44766e-05
6.87787e-07
3.43168e-05
5.98304e-07
3.41771e-05
5.2386e-07
3.40543e-05
4.61361e-07
3.39455e-05
4.09381e-07
3.38482e-05
3.66468e-07
3.37606e-05
3.30463e-07
3.36815e-05
2.98981e-07
3.361e-05
2.7033e-07
3.35456e-05
2.43774e-07
3.34876e-05
2.19553e-07
3.34353e-05
1.9812e-07
3.33879e-05
1.79742e-07
3.33446e-05
1.64206e-07
3.33049e-05
1.50954e-07
3.32683e-05
1.39324e-07
3.32344e-05
1.28802e-07
3.32032e-05
1.19091e-07
3.31744e-05
1.10114e-07
3.31477e-05
1.01868e-07
3.3123e-05
9.43603e-08
3.31001e-05
8.75211e-08
3.30789e-05
8.12409e-08
3.30592e-05
7.53757e-08
3.3041e-05
6.9811e-08
3.30243e-05
6.44593e-08
3.30089e-05
5.92825e-08
3.29949e-05
5.42579e-08
3.29821e-05
4.93743e-08
3.29706e-05
4.4601e-08
3.29604e-05
3.98924e-08
3.29515e-05
3.51752e-08
3.29438e-05
3.03637e-08
3.29374e-05
2.53572e-08
3.29325e-05
2.00552e-08
3.2929e-05
1.43548e-08
3.29272e-05
8.15958e-09
3.29272e-05
1.2814e-09
3.29292e-05
-6.37182e-09
3.29334e-05
-1.47242e-08
3.294e-05
-2.37371e-08
3.29493e-05
-3.34423e-08
3.29613e-05
-4.38835e-08
3.29765e-05
-5.52919e-08
3.29952e-05
-6.78494e-08
3.30177e-05
-8.20271e-08
3.30445e-05
-9.80604e-08
3.30761e-05
-1.16001e-07
3.31133e-05
-1.36838e-07
3.3156e-05
-1.5747e-07
3.32072e-05
-1.9187e-07
3.32656e-05
-2.22461e-07
3.33087e-05
-1.58742e-07
3.33546e-05
-1.61958e-07
3.34017e-05
-1.68601e-07
3.34517e-05
-1.7996e-07
3.3504e-05
-1.89266e-07
3.35585e-05
-1.96263e-07
3.36148e-05
-2.04146e-07
3.36732e-05
-2.11009e-07
3.37332e-05
-2.19119e-07
3.37953e-05
-2.25962e-07
3.38591e-05
-2.337e-07
3.39251e-05
-2.40079e-07
3.39932e-05
-2.47083e-07
3.40639e-05
-2.53783e-07
3.4138e-05
-2.6213e-07
3.42163e-05
-2.72743e-07
3.43002e-05
-2.87818e-07
3.43916e-05
-3.09765e-07
3.44933e-05
-3.43397e-07
3.46093e-05
-3.94756e-07
3.47454e-05
-4.8445e-07
3.4911e-05
-6.24375e-07
3.51215e-05
-9.47796e-07
3.53637e-05
-1.36412e-06
-2.22772e-06
3.56959e-05
6.17609e-05
9.13949e-05
5.41824e-05
3.04e-05
5.06301e-05
1.24446e-05
4.87003e-05
6.77969e-06
4.74794e-05
4.38952e-06
4.66243e-05
3.13693e-06
4.59832e-05
2.38832e-06
4.54807e-05
1.89302e-06
4.50752e-05
1.53931e-06
4.47409e-05
1.27744e-06
4.44593e-05
1.08059e-06
4.42184e-05
9.28706e-07
4.40096e-05
8.0705e-07
4.38274e-05
7.06131e-07
4.36672e-05
6.21549e-07
4.35255e-05
5.51244e-07
4.33989e-05
4.93196e-07
4.3285e-05
4.44502e-07
4.31822e-05
4.01979e-07
4.30894e-05
3.63349e-07
4.30058e-05
3.27605e-07
4.29305e-05
2.95029e-07
4.28626e-05
2.662e-07
4.28011e-05
2.41465e-07
4.2745e-05
2.20537e-07
4.26935e-05
2.02684e-07
4.26461e-05
1.87024e-07
4.26023e-05
1.72873e-07
4.25619e-05
1.59827e-07
4.25245e-05
1.47774e-07
4.249e-05
1.36703e-07
4.2458e-05
1.26621e-07
4.24284e-05
1.17435e-07
4.2401e-05
1.08998e-07
4.23755e-05
1.01121e-07
4.2352e-05
9.36519e-08
4.23303e-05
8.64724e-08
4.23105e-05
7.95314e-08
4.22923e-05
7.27972e-08
4.22758e-05
6.62543e-08
4.2261e-05
5.98617e-08
4.22477e-05
5.35587e-08
4.22361e-05
4.7248e-08
4.22261e-05
4.08162e-08
4.22178e-05
3.41291e-08
4.22113e-05
2.7053e-08
4.22067e-05
1.94504e-08
4.22041e-05
1.11903e-08
4.22039e-05
2.03229e-09
4.22062e-05
-8.15526e-09
4.22113e-05
-1.92817e-08
4.22195e-05
-3.12859e-08
4.2231e-05
-4.42109e-08
4.22461e-05
-5.81123e-08
4.22651e-05
-7.32985e-08
4.22885e-05
-8.99994e-08
4.23168e-05
-1.08843e-07
4.23506e-05
-1.3013e-07
4.23905e-05
-1.53952e-07
4.24372e-05
-1.81551e-07
4.24911e-05
-2.09101e-07
4.25552e-05
-2.53823e-07
4.26281e-05
-2.92517e-07
4.2682e-05
-2.09427e-07
4.27398e-05
-2.15342e-07
4.27993e-05
-2.24001e-07
4.28623e-05
-2.38203e-07
4.2928e-05
-2.50384e-07
4.29965e-05
-2.59622e-07
4.30672e-05
-2.70038e-07
4.31405e-05
-2.79089e-07
4.32158e-05
-2.89766e-07
4.32937e-05
-2.98779e-07
4.33736e-05
-3.08938e-07
4.34563e-05
-3.17343e-07
4.35417e-05
-3.26514e-07
4.36304e-05
-3.35259e-07
4.37233e-05
-3.45988e-07
4.38214e-05
-3.59487e-07
4.39264e-05
-3.78461e-07
4.40406e-05
-4.05976e-07
4.41669e-05
-4.4793e-07
4.431e-05
-5.11837e-07
4.44758e-05
-6.21264e-07
4.46738e-05
-7.91013e-07
4.49134e-05
-1.15583e-06
4.51845e-05
-1.59615e-06
-2.53751e-06
4.55337e-05
7.90771e-05
0.000104714
6.98311e-05
3.96457e-05
6.51034e-05
1.71724e-05
6.24816e-05
9.40147e-06
6.08273e-05
6.04386e-06
5.96771e-05
4.28725e-06
5.88207e-05
3.24468e-06
5.81534e-05
2.56039e-06
5.76173e-05
2.07532e-06
5.71766e-05
1.71806e-06
5.68067e-05
1.45041e-06
5.64908e-05
1.24455e-06
5.62175e-05
1.08021e-06
5.59794e-05
9.4433e-07
5.57703e-05
8.30681e-07
5.55854e-05
7.36278e-07
5.54205e-05
6.58314e-07
5.52723e-05
5.9292e-07
5.51387e-05
5.35889e-07
5.50182e-05
4.84199e-07
5.49096e-05
4.3648e-07
5.48119e-05
3.93046e-07
5.47238e-05
3.54609e-07
5.4644e-05
3.21606e-07
5.45712e-05
2.93653e-07
5.45044e-05
2.69796e-07
5.44429e-05
2.48879e-07
5.43862e-05
2.3e-07
5.43338e-05
2.12617e-07
5.42855e-05
1.96573e-07
5.42408e-05
1.81839e-07
5.41994e-05
1.68419e-07
5.41611e-05
1.56187e-07
5.41256e-05
1.44953e-07
5.40927e-05
1.34468e-07
5.40623e-05
1.24532e-07
5.40343e-05
1.14991e-07
5.40085e-05
1.05775e-07
5.3985e-05
9.68411e-08
5.39637e-05
8.81675e-08
5.39445e-05
7.96991e-08
5.39273e-05
7.13566e-08
5.39121e-05
6.30122e-08
5.38991e-05
5.45175e-08
5.38882e-05
4.56962e-08
5.38796e-05
3.63731e-08
5.38733e-05
2.63666e-08
5.38697e-05
1.5503e-08
5.3869e-05
3.4831e-09
5.38715e-05
-9.88335e-09
5.38775e-05
-2.44938e-08
5.38874e-05
-4.02503e-08
5.39014e-05
-5.72107e-08
5.39199e-05
-7.54435e-08
5.39434e-05
-9.53565e-08
5.39725e-05
-1.17234e-07
5.40077e-05
-1.41906e-07
5.40497e-05
-1.69744e-07
5.40994e-05
-2.00901e-07
5.41576e-05
-2.36908e-07
5.42248e-05
-2.73141e-07
5.43044e-05
-3.30326e-07
5.43945e-05
-3.78583e-07
5.44612e-05
-2.71641e-07
5.45332e-05
-2.81234e-07
5.46075e-05
-2.92618e-07
5.4686e-05
-3.10156e-07
5.47677e-05
-3.25842e-07
5.48529e-05
-3.37829e-07
5.49408e-05
-3.51363e-07
5.50319e-05
-3.63113e-07
5.51254e-05
-3.76949e-07
5.52221e-05
-3.88647e-07
5.53213e-05
-4.01773e-07
5.54238e-05
-4.1269e-07
5.55298e-05
-4.24513e-07
5.564e-05
-4.35783e-07
5.57553e-05
-4.49396e-07
5.5877e-05
-4.6636e-07
5.60073e-05
-4.89943e-07
5.61485e-05
-5.23989e-07
5.63041e-05
-5.75574e-07
5.64791e-05
-6.53836e-07
5.66789e-05
-7.84805e-07
5.69131e-05
-9.86313e-07
5.71833e-05
-1.38695e-06
5.74852e-05
-1.85024e-06
-2.83825e-06
5.78348e-05
0.00010073
0.000118146
8.97329e-05
5.06421e-05
8.3532e-05
2.33732e-05
7.99842e-05
1.29493e-05
7.77395e-05
8.28862e-06
7.61868e-05
5.84011e-06
7.50382e-05
4.39326e-06
7.41483e-05
3.45036e-06
7.34366e-05
2.78688e-06
7.28537e-05
2.3009e-06
7.23658e-05
1.9381e-06
7.19503e-05
1.65997e-06
7.15917e-05
1.43872e-06
7.12796e-05
1.25648e-06
7.1006e-05
1.10442e-06
7.07642e-05
9.78216e-07
7.05489e-05
8.73953e-07
7.03557e-05
7.86499e-07
7.01816e-05
7.10343e-07
7.00248e-05
6.41506e-07
6.98836e-05
5.78138e-07
6.97565e-05
5.20559e-07
6.96419e-05
4.6962e-07
6.95382e-05
4.25848e-07
6.94435e-05
3.88723e-07
6.93568e-05
3.57018e-07
6.9277e-05
3.29224e-07
6.92035e-05
3.04173e-07
6.91355e-05
2.81141e-07
6.90728e-05
2.59908e-07
6.90149e-05
2.40416e-07
6.89613e-05
2.22661e-07
6.89116e-05
2.06471e-07
6.88656e-05
1.91604e-07
6.8823e-05
1.77733e-07
6.87836e-05
1.64603e-07
6.87473e-05
1.52009e-07
6.8714e-05
1.3986e-07
6.86835e-05
1.28097e-07
6.86558e-05
1.1669e-07
6.86308e-05
1.05565e-07
6.86084e-05
9.46186e-08
6.85887e-05
8.36852e-08
6.85715e-05
7.25727e-08
6.85571e-05
6.10518e-08
6.85456e-05
4.88953e-08
6.85371e-05
3.5867e-08
6.85319e-05
2.17401e-08
6.85303e-05
6.15343e-09
6.85327e-05
-1.11697e-08
6.85394e-05
-3.01226e-08
6.8551e-05
-5.05494e-08
6.85677e-05
-7.2526e-08
6.85902e-05
-9.61342e-08
6.86188e-05
-1.2191e-07
6.86544e-05
-1.50194e-07
6.86975e-05
-1.82081e-07
6.87493e-05
-2.18015e-07
6.88104e-05
-2.58241e-07
6.88822e-05
-3.04605e-07
6.89652e-05
-3.51635e-07
6.9063e-05
-4.23724e-07
6.91734e-05
-4.83276e-07
6.92551e-05
-3.4714e-07
6.93437e-05
-3.61494e-07
6.94354e-05
-3.76532e-07
6.95322e-05
-3.98017e-07
6.96329e-05
-4.17973e-07
6.97379e-05
-4.3334e-07
6.98461e-05
-4.50687e-07
6.99583e-05
-4.6577e-07
7.00732e-05
-4.83456e-07
7.0192e-05
-4.98474e-07
7.03139e-05
-5.15196e-07
7.044e-05
-5.29225e-07
7.05702e-05
-5.44277e-07
7.07057e-05
-5.58669e-07
7.08476e-05
-5.75783e-07
7.09974e-05
-5.96939e-07
7.11573e-05
-6.26013e-07
7.13304e-05
-6.67748e-07
7.15202e-05
-7.30448e-07
7.1732e-05
-8.24956e-07
7.19706e-05
-9.78949e-07
7.22442e-05
-1.21301e-06
7.2546e-05
-1.64169e-06
7.28783e-05
-2.12608e-06
-3.11881e-06
7.32173e-05
0.000127654
0.00013115
0.000114982
6.3313e-05
0.000107002
3.13532e-05
0.000102234
1.77175e-05
9.91876e-05
1.1335e-05
9.70846e-05
7.9434e-06
9.5537e-05
5.94085e-06
9.43444e-05
4.64305e-06
9.33949e-05
3.73618e-06
9.26201e-05
3.0756e-06
9.19737e-05
2.58422e-06
9.14248e-05
2.20876e-06
9.09522e-05
1.91123e-06
9.05415e-05
1.66716e-06
9.0182e-05
1.46408e-06
8.98648e-05
1.29571e-06
8.95826e-05
1.15656e-06
8.93299e-05
1.03983e-06
8.91024e-05
9.3835e-07
8.88978e-05
8.46904e-07