/*--------------------------------*- C++ -*----------------------------------*\
| =========                 |                                                 |
| \\      /  F ield         | OpenFOAM: The Open Source CFD Toolbox           |
|  \\    /   O peration     | Version:  5.x                                   |
|   \\  /    A nd           | Web:      www.OpenFOAM.org                      |
|    \\/     M anipulation  |                                                 |
\*---------------------------------------------------------------------------*/
FoamFile
{
    version     2.0;
    format      ascii;
    class       volVectorField;
    location    "300";
    object      U;
}
// * * * * * * * * * * * * * * * * * * * * * * * * * * * * * * * * * * * * * //

dimensions      [0 1 -1 0 0 0 0];

internalField   nonuniform List<vector> 
20540
(
(44.1649 -8.39672e-07 0)
(44.2273 0.00467555 0)
(44.1649 -2.63196e-06 0)
(44.2272 0.0134776 0)
(44.1648 -4.62841e-06 0)
(44.227 0.0220785 0)
(44.1648 -6.85583e-06 0)
(44.2268 0.0311532 0)
(44.1648 -9.25497e-06 0)
(44.2266 0.0407854 0)
(44.1647 -1.16831e-05 0)
(44.2264 0.0509462 0)
(44.1647 -1.38868e-05 0)
(44.2262 0.0615537 0)
(44.1647 -1.54578e-05 0)
(44.2261 0.0724746 0)
(44.1648 -1.57813e-05 0)
(44.226 0.083506 0)
(44.1649 -1.39889e-05 0)
(44.2261 0.0943686 0)
(44.165 -8.91838e-06 0)
(44.2262 0.10471 0)
(44.1652 9.18103e-07 0)
(44.2265 0.114117 0)
(44.1656 1.73561e-05 0)
(44.2269 0.122147 0)
(44.166 4.25917e-05 0)
(44.2275 0.128383 0)
(44.1666 7.918e-05 0)
(44.2282 0.132537 0)
(44.1673 0.000129998 0)
(44.229 0.134598 0)
(44.1682 0.000198138 0)
(44.23 0.134826 0)
(44.1693 0.000286685 0)
(44.2313 0.13369 0)
(44.1706 0.000398408 0)
(44.2328 0.131667 0)
(44.1721 0.000535404 0)
(44.2347 0.128989 0)
(44.1739 0.000698621 0)
(44.2368 0.12568 0)
(44.176 0.000887156 0)
(44.2394 0.121665 0)
(44.1785 0.00109725 0)
(44.2424 0.116826 0)
(44.1813 0.00132091 0)
(44.2458 0.111014 0)
(44.1846 0.00154409 0)
(44.2497 0.104051 0)
(44.1882 0.00174451 0)
(44.2541 0.0957295 0)
(44.1922 0.00188931 0)
(44.259 0.0858062 0)
(44.1964 0.00193353 0)
(44.2641 0.0739953 0)
(44.2006 0.00182044 0)
(44.2693 0.059958 0)
(44.2046 0.00148589 0)
(44.2741 0.0432727 0)
(44.2074 0.000960457 0)
(44.2774 0.0256199 0)
(44.2087 0.000338131 0)
(44.2791 0.00848929 0)
(44.2087 -0.000317612 0)
(44.279 -0.0086263 0)
(44.2073 -0.000938794 0)
(44.2774 -0.0257563 0)
(44.2046 -0.00145687 0)
(44.2741 -0.0431381 0)
(44.2008 -0.00178655 0)
(44.2694 -0.0593695 0)
(44.1966 -0.00190706 0)
(44.2644 -0.0731087 0)
(44.1925 -0.00187627 0)
(44.2594 -0.0847398 0)
(44.1887 -0.00174652 0)
(44.2547 -0.0945754 0)
(44.1851 -0.00155987 0)
(44.2503 -0.102878 0)
(44.1819 -0.00134755 0)
(44.2464 -0.109872 0)
(44.179 -0.00113129 0)
(44.243 -0.115749 0)
(44.1765 -0.00092525 0)
(44.24 -0.120676 0)
(44.1744 -0.000737866 0)
(44.2374 -0.124794 0)
(44.1726 -0.000573486 0)
(44.2352 -0.128219 0)
(44.171 -0.000433623 0)
(44.2333 -0.131035 0)
(44.1696 -0.000317907 0)
(44.2317 -0.133263 0)
(44.1685 -0.000224754 0)
(44.2303 -0.134783 0)
(44.1676 -0.000151835 0)
(44.2292 -0.135244 0)
(44.1668 -9.64097e-05 0)
(44.2284 -0.134174 0)
(44.1661 -5.56119e-05 0)
(44.2276 -0.131229 0)
(44.1656 -2.66838e-05 0)
(44.227 -0.126278 0)
(44.1652 -7.12195e-06 0)
(44.2265 -0.119462 0)
(44.165 5.26154e-06 0)
(44.2262 -0.11111 0)
(44.1648 1.23225e-05 0)
(44.226 -0.101618 0)
(44.1646 1.55935e-05 0)
(44.2258 -0.0913841 0)
(44.1646 1.62997e-05 0)
(44.2258 -0.0807678 0)
(44.1645 1.53858e-05 0)
(44.2259 -0.0700709 0)
(44.1645 1.35477e-05 0)
(44.226 -0.0595288 0)
(44.1645 1.12712e-05 0)
(44.2262 -0.0493099 0)
(44.1646 8.87532e-06 0)
(44.2264 -0.0395236 0)
(44.1646 6.55575e-06 0)
(44.2266 -0.0302359 0)
(44.1646 4.42057e-06 0)
(44.2268 -0.0214641 0)
(44.1646 2.51192e-06 0)
(44.2269 -0.0131079 0)
(44.1647 8.02134e-07 0)
(44.2271 -0.00454736 0)
(7.05416 0.0066108 0)
(5.82131 0.000182244 0)
(5.46009 7.16089e-05 0)
(5.24073 4.94636e-05 0)
(5.08805 3.69577e-05 0)
(4.97471 2.88809e-05 0)
(4.88651 2.33853e-05 0)
(4.81563 1.94664e-05 0)
(4.75746 1.65883e-05 0)
(4.70901 1.44519e-05 0)
(4.66796 1.28125e-05 0)
(4.63268 1.15334e-05 0)
(4.60201 1.04809e-05 0)
(4.57516 9.62775e-06 0)
(4.55157 8.91331e-06 0)
(4.5307 8.30175e-06 0)
(4.51212 7.72898e-06 0)
(4.49542 7.1536e-06 0)
(4.48033 6.56588e-06 0)
(4.46667 5.98243e-06 0)
(4.45433 5.44356e-06 0)
(4.4432 4.97375e-06 0)
(4.43315 4.57938e-06 0)
(4.42405 4.24762e-06 0)
(4.41577 3.95041e-06 0)
(4.40817 3.67572e-06 0)
(4.40118 3.41212e-06 0)
(4.39473 3.17177e-06 0)
(4.38877 2.95923e-06 0)
(4.38326 2.78372e-06 0)
(4.37818 2.63653e-06 0)
(4.37348 2.50751e-06 0)
(4.36912 2.37605e-06 0)
(4.36509 2.23021e-06 0)
(4.36135 2.05916e-06 0)
(4.35788 1.86564e-06 0)
(4.35467 1.65431e-06 0)
(4.35172 1.43711e-06 0)
(4.34901 1.22173e-06 0)
(4.34653 1.01603e-06 0)
(4.34428 8.20783e-07 0)
(4.34225 6.35745e-07 0)
(4.34043 4.55653e-07 0)
(4.33884 2.74842e-07 0)
(4.33746 8.51915e-08 0)
(4.33632 -1.21241e-07 0)
(4.33542 -3.54129e-07 0)
(4.33479 -6.1556e-07 0)
(4.33443 -8.89613e-07 0)
(4.3344 -1.17275e-06 0)
(4.33471 -1.41425e-06 0)
(4.3354 -1.53239e-06 0)
(4.3365 -1.49622e-06 0)
(4.33803 -1.36491e-06 0)
(4.34003 -1.35417e-06 0)
(4.34256 -1.69861e-06 0)
(4.34567 -2.86128e-06 0)
(4.34944 -5.0288e-06 0)
(4.35396 -8.28163e-06 0)
(4.3593 -1.26618e-05 0)
(4.36564 -1.75897e-05 0)
(4.37269 -2.50327e-05 0)
(4.38234 -3.57917e-05 0)
(4.3908 -4.17052e-05 0)
(4.39771 -4.49951e-05 0)
(4.40454 -5.40242e-05 0)
(4.41251 -5.68929e-05 0)
(4.42088 -6.12434e-05 0)
(4.42952 -6.25502e-05 0)
(4.43851 -6.84818e-05 0)
(4.44779 -7.19716e-05 0)
(4.45743 -8.21573e-05 0)
(4.46735 -8.92365e-05 0)
(4.47763 -0.000103173 0)
(4.48819 -0.000112179 0)
(4.4991 -0.000127451 0)
(4.51033 -0.000139094 0)
(4.52207 -0.000161267 0)
(4.53443 -0.000190469 0)
(4.54779 -0.000243832 0)
(4.56256 -0.000330088 0)
(4.57937 -0.000477414 0)
(4.59928 -0.000719886 0)
(4.62358 -0.00114629 0)
(4.65763 -0.00191357 0)
(4.7008 -0.0035229 0)
(4.82193 -0.00881372 0)
(5.15238 -0.0430387 0)
(14.1918 0.0148504 0)
(11.7244 0.000887285 0)
(11.0402 0.000319359 0)
(10.6545 0.000208222 0)
(10.3929 0.000153445 0)
(10.2007 0.000120032 0)
(10.0519 9.78295e-05 0)
(9.93247 8.19975e-05 0)
(9.83457 7.01286e-05 0)
(9.75306 6.10976e-05 0)
(9.684 5.41389e-05 0)
(9.6246 4.86502e-05 0)
(9.5729 4.41172e-05 0)
(9.52763 4.03e-05 0)
(9.48781 3.70574e-05 0)
(9.45257 3.43287e-05 0)
(9.42113 3.19878e-05 0)
(9.39285 2.98798e-05 0)
(9.36727 2.787e-05 0)
(9.34411 2.59027e-05 0)
(9.32318 2.40095e-05 0)
(9.30432 2.22692e-05 0)
(9.28732 2.07402e-05 0)
(9.27192 1.94431e-05 0)
(9.2579 1.83322e-05 0)
(9.24503 1.73604e-05 0)
(9.23318 1.64669e-05 0)
(9.22223 1.56384e-05 0)
(9.21212 1.48655e-05 0)
(9.20277 1.41656e-05 0)
(9.19414 1.35337e-05 0)
(9.18616 1.29633e-05 0)
(9.17876 1.24213e-05 0)
(9.1719 1.18824e-05 0)
(9.16554 1.13163e-05 0)
(9.15965 1.07155e-05 0)
(9.1542 1.00768e-05 0)
(9.14919 9.41381e-06 0)
(9.14459 8.73542e-06 0)
(9.1404 8.05259e-06 0)
(9.1366 7.36261e-06 0)
(9.13318 6.65899e-06 0)
(9.13013 5.92171e-06 0)
(9.12747 5.12908e-06 0)
(9.12519 4.24851e-06 0)
(9.12333 3.24752e-06 0)
(9.1219 2.08872e-06 0)
(9.12093 7.5222e-07 0)
(9.12047 -7.98175e-07 0)
(9.12058 -2.59866e-06 0)
(9.12131 -4.56327e-06 0)
(9.12272 -6.57084e-06 0)
(9.12487 -8.58374e-06 0)
(9.1278 -1.07025e-05 0)
(9.13159 -1.32956e-05 0)
(9.13633 -1.67991e-05 0)
(9.14213 -2.20436e-05 0)
(9.14914 -2.9503e-05 0)
(9.15751 -3.93465e-05 0)
(9.16738 -5.21323e-05 0)
(9.17909 -6.59864e-05 0)
(9.19208 -8.87421e-05 0)
(9.20989 -0.000118379 0)
(9.22557 -0.000130307 0)
(9.23864 -0.000134713 0)
(9.25128 -0.00015896 0)
(9.26587 -0.000175761 0)
(9.28128 -0.000191502 0)
(9.29723 -0.000201844 0)
(9.31381 -0.000220283 0)
(9.33092 -0.000235234 0)
(9.34868 -0.000261591 0)
(9.36696 -0.000283381 0)
(9.3859 -0.000316578 0)
(9.40537 -0.000342304 0)
(9.42554 -0.000377989 0)
(9.44636 -0.000408565 0)
(9.46817 -0.000455687 0)
(9.49123 -0.000515339 0)
(9.51619 -0.000614337 0)
(9.54382 -0.000769358 0)
(9.57528 -0.00102896 0)
(9.61243 -0.00145439 0)
(9.6575 -0.00222567 0)
(9.71928 -0.00360007 0)
(9.79744 -0.00698143 0)
(9.99177 -0.0184758 0)
(10.3447 -0.098676 0)
(18.3841 0.0233558 0)
(15.1298 0.00207104 0)
(14.2232 0.000737792 0)
(13.7349 0.000466264 0)
(13.4103 0.000339886 0)
(13.1744 0.000264895 0)
(12.9927 0.000215779 0)
(12.8474 0.000180954 0)
(12.7286 0.00015482 0)
(12.6298 0.000134849 0)
(12.5462 0.000119457 0)
(12.4743 0.000107306 0)
(12.4118 9.72856e-05 0)
(12.3571 8.88036e-05 0)
(12.3089 8.15795e-05 0)
(12.2663 7.55089e-05 0)
(12.2283 7.03724e-05 0)
(12.1941 6.58427e-05 0)
(12.1631 6.15974e-05 0)
(12.135 5.74597e-05 0)
(12.1097 5.34498e-05 0)
(12.0869 4.97156e-05 0)
(12.0663 4.6404e-05 0)
(12.0477 4.35778e-05 0)
(12.0307 4.11772e-05 0)
(12.0152 3.90935e-05 0)
(12.0009 3.7199e-05 0)
(11.9876 3.54339e-05 0)
(11.9754 3.37728e-05 0)
(11.9641 3.22402e-05 0)
(11.9536 3.08416e-05 0)
(11.944 2.95722e-05 0)
(11.935 2.83838e-05 0)
(11.9267 2.72272e-05 0)
(11.919 2.60436e-05 0)
(11.9119 2.48062e-05 0)
(11.9053 2.34995e-05 0)
(11.8992 2.21372e-05 0)
(11.8937 2.07294e-05 0)
(11.8886 1.92899e-05 0)
(11.8841 1.781e-05 0)
(11.8799 1.62718e-05 0)
(11.8763 1.46315e-05 0)
(11.8731 1.28408e-05 0)
(11.8704 1.08275e-05 0)
(11.8682 8.51841e-06 0)
(11.8666 5.83019e-06 0)
(11.8655 2.70841e-06 0)
(11.8651 -9.69946e-07 0)
(11.8653 -5.29452e-06 0)
(11.8664 -1.01338e-05 0)
(11.8683 -1.53187e-05 0)
(11.8711 -2.08064e-05 0)
(11.8749 -2.67648e-05 0)
(11.8798 -3.3796e-05 0)
(11.8858 -4.26693e-05 0)
(11.8932 -5.47334e-05 0)
(11.9021 -7.10129e-05 0)
(11.9126 -9.17426e-05 0)
(11.9251 -0.000118445 0)
(11.9399 -0.000146958 0)
(11.9562 -0.000195332 0)
(11.9786 -0.000253938 0)
(11.9982 -0.0002781 0)
(12.0149 -0.000286923 0)
(12.0309 -0.000332185 0)
(12.0492 -0.000372787 0)
(12.0686 -0.000408614 0)
(12.0887 -0.000435271 0)
(12.1097 -0.000474844 0)
(12.1312 -0.000509613 0)
(12.1537 -0.000562658 0)
(12.1767 -0.000609482 0)
(12.2006 -0.000674598 0)
(12.2252 -0.000729119 0)
(12.2505 -0.000799647 0)
(12.2767 -0.000862889 0)
(12.3039 -0.000951965 0)
(12.3327 -0.00106085 0)
(12.3636 -0.00123118 0)
(12.3977 -0.00149013 0)
(12.4362 -0.00191607 0)
(12.4815 -0.00260641 0)
(12.5363 -0.00386963 0)
(12.6107 -0.00607716 0)
(12.7056 -0.0118345 0)
(12.9251 -0.0288598 0)
(13.2395 -0.11321 0)
(21.696 0.0339581 0)
(17.7884 0.00392064 0)
(16.6667 0.0013857 0)
(16.0827 0.0008528 0)
(15.7017 0.000614637 0)
(15.4276 0.000476629 0)
(15.2177 0.000387474 0)
(15.0506 0.000324698 0)
(14.9142 0.000277633 0)
(14.8011 0.000241599 0)
(14.7054 0.000213833 0)
(14.6233 0.000191926 0)
(14.5519 0.000173892 0)
(14.4894 0.000158577 0)
(14.4345 0.000145501 0)
(14.3858 0.000134516 0)
(14.3425 0.000125313 0)
(14.3034 0.000117337 0)
(14.268 0.000109981 0)
(14.236 0.000102861 0)
(14.2071 9.59293e-05 0)
(14.181 8.94153e-05 0)
(14.1576 8.35865e-05 0)
(14.1363 7.85906e-05 0)
(14.117 7.43651e-05 0)
(14.0993 7.07265e-05 0)
(14.083 6.74468e-05 0)
(14.0679 6.4388e-05 0)
(14.0539 6.14874e-05 0)
(14.041 5.87736e-05 0)
(14.0291 5.627e-05 0)
(14.0181 5.39861e-05 0)
(14.0079 5.18654e-05 0)
(13.9984 4.98351e-05 0)
(13.9896 4.78008e-05 0)
(13.9815 4.57048e-05 0)
(13.9739 4.35077e-05 0)
(13.967 4.12124e-05 0)
(13.9607 3.88228e-05 0)
(13.9549 3.63496e-05 0)
(13.9497 3.37723e-05 0)
(13.9451 3.10539e-05 0)
(13.9409 2.81181e-05 0)
(13.9373 2.48733e-05 0)
(13.9343 2.11951e-05 0)
(13.9319 1.69485e-05 0)
(13.93 1.19826e-05 0)
(13.9289 6.17939e-06 0)
(13.9285 -7.20403e-07 0)
(13.9289 -8.9007e-06 0)
(13.9302 -1.82074e-05 0)
(13.9325 -2.84733e-05 0)
(13.9359 -3.96867e-05 0)
(13.9404 -5.20698e-05 0)
(13.9462 -6.64477e-05 0)
(13.9533 -8.39034e-05 0)
(13.962 -0.000106248 0)
(13.9724 -0.000135182 0)
(13.9848 -0.000170993 0)
(13.9994 -0.000216693 0)
(14.0166 -0.000264998 0)
(14.0358 -0.000348426 0)
(14.0618 -0.000444419 0)
(14.0845 -0.000484506 0)
(14.1042 -0.00049873 0)
(14.123 -0.000569795 0)
(14.1443 -0.000645781 0)
(14.1669 -0.000711503 0)
(14.1904 -0.000764278 0)
(14.2148 -0.000834324 0)
(14.24 -0.000899049 0)
(14.2661 -0.000988263 0)
(14.2931 -0.00107063 0)
(14.3209 -0.00117743 0)
(14.3496 -0.00127202 0)
(14.3791 -0.00138792 0)
(14.4096 -0.00149557 0)
(14.4412 -0.00163611 0)
(14.4745 -0.00180236 0)
(14.5101 -0.00204648 0)
(14.5491 -0.00240497 0)
(14.5929 -0.00298081 0)
(14.644 -0.00390114 0)
(14.7054 -0.00560013 0)
(14.7877 -0.00851308 0)
(14.8925 -0.0165464 0)
(15.118 -0.0376113 0)
(15.3788 -0.115343 0)
(24.5627 0.0457886 0)
(20.1072 0.00658423 0)
(18.7673 0.00233574 0)
(18.0868 0.00140476 0)
(17.6506 0.00100104 0)
(17.34 0.0007719 0)
(17.1037 0.000625713 0)
(16.9163 0.000523536 0)
(16.7637 0.000447154 0)
(16.6375 0.000388708 0)
(16.5309 0.000343728 0)
(16.4395 0.000308275 0)
(16.3601 0.000279132 0)
(16.2906 0.000254346 0)
(16.2296 0.000233166 0)
(16.1756 0.00021539 0)
(16.1274 0.000200591 0)
(16.084 0.000187903 0)
(16.0447 0.000176309 0)
(16.0092 0.000165125 0)
(15.977 0.000154199 0)
(15.9481 0.000143872 0)
(15.9221 0.000134583 0)
(15.8985 0.000126605 0)
(15.8771 0.000119878 0)
(15.8574 0.000114116 0)
(15.8393 0.000108949 0)
(15.8226 0.000104124 0)
(15.8071 9.95232e-05 0)
(15.7928 9.51803e-05 0)
(15.7796 9.1145e-05 0)
(15.7674 8.74513e-05 0)
(15.756 8.40358e-05 0)
(15.7455 8.07967e-05 0)
(15.7358 7.75908e-05 0)
(15.7267 7.43178e-05 0)
(15.7184 7.09019e-05 0)
(15.7107 6.73297e-05 0)
(15.7037 6.35935e-05 0)
(15.6973 5.96982e-05 0)
(15.6916 5.56061e-05 0)
(15.6864 5.12531e-05 0)
(15.6818 4.65192e-05 0)
(15.6779 4.12489e-05 0)
(15.6745 3.52469e-05 0)
(15.6719 2.82929e-05 0)
(15.6699 2.01389e-05 0)
(15.6686 1.05723e-05 0)
(15.6682 -8.53422e-07 0)
(15.6688 -1.44547e-05 0)
(15.6703 -3.00617e-05 0)
(15.673 -4.75231e-05 0)
(15.6768 -6.68673e-05 0)
(15.682 -8.8388e-05 0)
(15.6885 -0.000113161 0)
(15.6966 -0.000142697 0)
(15.7064 -0.000179355 0)
(15.7182 -0.000225762 0)
(15.7322 -0.00028227 0)
(15.7486 -0.000354014 0)
(15.768 -0.000429537 0)
(15.7897 -0.00056072 0)
(15.8187 -0.000706009 0)
(15.8438 -0.000770441 0)
(15.8662 -0.000795086 0)
(15.8875 -0.000898453 0)
(15.9114 -0.00102225 0)
(15.9367 -0.00113002 0)
(15.963 -0.0012201 0)
(15.9904 -0.00133254 0)
(16.0187 -0.00143914 0)
(16.048 -0.00157776 0)
(16.0783 -0.00170923 0)
(16.1095 -0.00187262 0)
(16.1416 -0.0020225 0)
(16.1748 -0.00220005 0)
(16.2088 -0.00236863 0)
(16.2442 -0.00257797 0)
(16.2813 -0.00281963 0)
(16.3208 -0.00315716 0)
(16.3639 -0.00363815 0)
(16.4119 -0.00439367 0)
(16.4675 -0.00558515 0)
(16.5338 -0.00779103 0)
(16.621 -0.0115134 0)
(16.7314 -0.0220401 0)
(16.9534 -0.0463223 0)
(17.1651 -0.11629 0)
(27.157 0.0587738 0)
(22.2491 0.0102403 0)
(20.6832 0.00368392 0)
(19.9009 0.00217186 0)
(19.4078 0.00153018 0)
(19.0602 0.00117266 0)
(18.7975 0.000947258 0)
(18.5901 0.000790943 0)
(18.4219 0.000674591 0)
(18.2829 0.000585746 0)
(18.1658 0.000517489 0)
(18.0655 0.000463759 0)
(17.9785 0.000419642 0)
(17.9024 0.000382097 0)
(17.8355 0.000350009 0)
(17.7764 0.000323111 0)
(17.7237 0.000300824 0)
(17.6762 0.000281854 0)
(17.6333 0.000264631 0)
(17.5944 0.000248053 0)
(17.5593 0.000231815 0)
(17.5277 0.000216411 0)
(17.4992 0.000202509 0)
(17.4735 0.000190561 0)
(17.4501 0.00018051 0)
(17.4286 0.000171935 0)
(17.4088 0.00016427 0)
(17.3905 0.000157107 0)
(17.3736 0.000150246 0)
(17.358 0.000143727 0)
(17.3436 0.000137636 0)
(17.3302 0.000132044 0)
(17.3179 0.000126884 0)
(17.3064 0.000122019 0)
(17.2957 0.000117242 0)
(17.2859 0.000112396 0)
(17.2768 0.000107358 0)
(17.2684 0.000102087 0)
(17.2608 9.65616e-05 0)
(17.2538 9.07756e-05 0)
(17.2475 8.46679e-05 0)
(17.2419 7.81376e-05 0)
(17.2369 7.10008e-05 0)
(17.2326 6.30268e-05 0)
(17.229 5.39139e-05 0)
(17.2261 4.33307e-05 0)
(17.2239 3.08982e-05 0)
(17.2226 1.6275e-05 0)
(17.2222 -1.2502e-06 0)
(17.2228 -2.21567e-05 0)
(17.2246 -4.6279e-05 0)
(17.2275 -7.34858e-05 0)
(17.2318 -0.000103863 0)
(17.2375 -0.000137805 0)
(17.2447 -0.000176657 0)
(17.2537 -0.000222471 0)
(17.2645 -0.000278234 0)
(17.2775 -0.000347832 0)
(17.2929 -0.000431704 0)
(17.3109 -0.00053778 0)
(17.3323 -0.000649463 0)
(17.3561 -0.000842901 0)
(17.3878 -0.00105053 0)
(17.4149 -0.00115053 0)
(17.4396 -0.00119369 0)
(17.4632 -0.00133655 0)
(17.4893 -0.00152145 0)
(17.517 -0.00168539 0)
(17.5459 -0.00182621 0)
(17.5758 -0.00199523 0)
(17.6068 -0.00215791 0)
(17.639 -0.00236142 0)
(17.6721 -0.00255803 0)
(17.7062 -0.00279549 0)
(17.7414 -0.00301879 0)
(17.7776 -0.00327729 0)
(17.8149 -0.00352672 0)
(17.8535 -0.00382554 0)
(17.8939 -0.00416436 0)
(17.9368 -0.00461853 0)
(17.9833 -0.00524871 0)
(18.0349 -0.00621718 0)
(18.0942 -0.00772513 0)
(18.1641 -0.0105076 0)
(18.2548 -0.0151452 0)
(18.3681 -0.0282555 0)
(18.5819 -0.0549212 0)
(18.754 -0.120852 0)
(29.5613 0.0730466 0)
(24.2983 0.0151218 0)
(22.497 0.005566 0)
(21.6046 0.00322697 0)
(21.0503 0.0022478 0)
(20.6637 0.00171114 0)
(20.3736 0.00137665 0)
(20.1457 0.0011466 0)
(19.9615 0.000976287 0)
(19.8097 0.000846648 0)
(19.682 0.000747267 0)
(19.5729 0.000669154 0)
(19.4782 0.000605089 0)
(19.3956 0.000550561 0)
(19.323 0.000503959 0)
(19.2588 0.000464928 0)
(19.2016 0.000432694 0)
(19.1502 0.000405407 0)
(19.1036 0.000380758 0)
(19.0615 0.000357088 0)
(19.0235 0.00033388 0)
(18.9892 0.000311813 0)
(18.9584 0.000291856 0)
(18.9305 0.000274696 0)
(18.9052 0.000260285 0)
(18.8819 0.000248029 0)
(18.8605 0.000237101 0)
(18.8408 0.000226882 0)
(18.8225 0.000217062 0)
(18.8056 0.000207682 0)
(18.79 0.000198877 0)
(18.7755 0.000190769 0)
(18.7622 0.000183289 0)
(18.7498 0.000176259 0)
(18.7383 0.000169394 0)
(18.7276 0.000162467 0)
(18.7178 0.000155289 0)
(18.7087 0.000147788 0)
(18.7004 0.000139919 0)
(18.6929 0.000131661 0)
(18.6861 0.00012292 0)
(18.68 0.000113548 0)
(18.6747 0.000103271 0)
(18.67 9.17637e-05 0)
(18.6661 7.85805e-05 0)
(18.663 6.32406e-05 0)
(18.6607 4.51953e-05 0)
(18.6593 2.39174e-05 0)
(18.6588 -1.63133e-06 0)
(18.6595 -3.21645e-05 0)
(18.6614 -6.75363e-05 0)
(18.6646 -0.000107645 0)
(18.6693 -0.000152675 0)
(18.6754 -0.000203108 0)
(18.6833 -0.000260637 0)
(18.6929 -0.000327937 0)
(18.7047 -0.000408745 0)
(18.7187 -0.00050856 0)
(18.7354 -0.00062796 0)
(18.7549 -0.000778452 0)
(18.7779 -0.000937349 0)
(18.8037 -0.0012101 0)
(18.8376 -0.00149486 0)
(18.8664 -0.001645 0)
(18.8932 -0.00171873 0)
(18.9189 -0.00190989 0)
(18.9471 -0.00217082 0)
(18.9769 -0.00240763 0)
(19.0079 -0.00261572 0)
(19.0402 -0.00285882 0)
(19.0735 -0.00309526 0)
(19.1081 -0.00338256 0)
(19.1437 -0.00366403 0)
(19.1804 -0.0039969 0)
(19.2182 -0.00431617 0)
(19.2571 -0.00467956 0)
(19.2972 -0.00503503 0)
(19.3386 -0.00544949 0)
(19.3819 -0.00591341 0)
(19.4278 -0.00651412 0)
(19.4773 -0.00732783 0)
(19.532 -0.00855112 0)
(19.5942 -0.0104318 0)
(19.6672 -0.0138688 0)
(19.7601 -0.019539 0)
(19.8745 -0.0352457 0)
(20.0783 -0.0636357 0)
(20.2199 -0.130703 0)
(31.8164 0.0886839 0)
(26.3041 0.0215047 0)
(24.2595 0.00816448 0)
(23.2462 0.00467148 0)
(22.6246 0.00321759 0)
(22.1954 0.00243195 0)
(21.876 0.00194759 0)
(21.6263 0.00161732 0)
(21.4253 0.00137438 0)
(21.2601 0.0011902 0)
(21.1215 0.0010494 0)
(21.0031 0.000938933 0)
(20.9007 0.00084846 0)
(20.8113 0.000771463 0)
(20.7328 0.000705649 0)
(20.6635 0.000650535 0)
(20.6018 0.000605109 0)
(20.5463 0.000566809 0)
(20.4961 0.000532375 0)
(20.4507 0.000499415 0)
(20.4097 0.000467112 0)
(20.3728 0.000436368 0)
(20.3396 0.000408527 0)
(20.3096 0.000384577 0)
(20.2823 0.000364487 0)
(20.2573 0.00034744 0)
(20.2343 0.000332275 0)
(20.213 0.000318094 0)
(20.1934 0.000304434 0)
(20.1752 0.000291332 0)
(20.1584 0.000278979 0)
(20.1429 0.000267564 0)
(20.1285 0.000257018 0)
(20.1152 0.00024712 0)
(20.1028 0.00023749 0)
(20.0914 0.000227813 0)
(20.0808 0.00021782 0)
(20.0711 0.000207402 0)
(20.0622 0.000196479 0)
(20.0541 0.000185014 0)
(20.0468 0.000172867 0)
(20.0403 0.000159824 0)
(20.0345 0.000145505 0)
(20.0295 0.000129436 0)
(20.0253 0.000111005 0)
(20.022 8.95261e-05 0)
(20.0195 6.42278e-05 0)
(20.018 3.43273e-05 0)
(20.0175 -1.61093e-06 0)
(20.0182 -4.46284e-05 0)
(20.0202 -9.46325e-05 0)
(20.0236 -0.000151583 0)
(20.0285 -0.000215775 0)
(20.0351 -0.0002878 0)
(20.0434 -0.000369749 0)
(20.0538 -0.00046505 0)
(20.0663 -0.00057831 0)
(20.0812 -0.000717017 0)
(20.099 -0.000881972 0)
(20.1198 -0.00108914 0)
(20.1443 -0.00130884 0)
(20.1719 -0.00168097 0)
(20.2076 -0.00205953 0)
(20.2378 -0.0022781 0)
(20.2664 -0.0023993 0)
(20.294 -0.00265004 0)
(20.3239 -0.00300422 0)
(20.3556 -0.00333358 0)
(20.3885 -0.00362906 0)
(20.4228 -0.00396781 0)
(20.4582 -0.00430006 0)
(20.4949 -0.00469433 0)
(20.5326 -0.00508487 0)
(20.5716 -0.00553904 0)
(20.6117 -0.00598207 0)
(20.6529 -0.00647977 0)
(20.6953 -0.00697283 0)
(20.7392 -0.00753574 0)
(20.785 -0.00816008 0)
(20.8334 -0.00894517 0)
(20.8855 -0.00998565 0)
(20.9428 -0.0115155 0)
(21.0075 -0.0138368 0)
(21.0828 -0.0180137 0)
(21.1772 -0.0248419 0)
(21.2914 -0.0430879 0)
(21.4844 -0.0727692 0)
(21.6023 -0.145086 0)
(33.9389 0.105656 0)
(28.2971 0.0296949 0)
(26.0059 0.0117179 0)
(24.8591 0.00664428 0)
(24.1621 0.00452718 0)
(23.6857 0.00339613 0)
(23.3338 0.00270586 0)
(23.0604 0.00223928 0)
(22.8412 0.00189848 0)
(22.6616 0.00164139 0)
(22.5113 0.00144551 0)
(22.3832 0.00129223 0)
(22.2725 0.00116692 0)
(22.176 0.00106032 0)
(22.0914 0.000969155 0)
(22.0167 0.000892758 0)
(21.9503 0.000829823 0)
(21.8905 0.000776907 0)
(21.8366 0.000729553 0)
(21.7878 0.000684415 0)
(21.7438 0.000640269 0)
(21.7041 0.000598265 0)
(21.6685 0.000560201 0)
(21.6362 0.000527443 0)
(21.6069 0.000499981 0)
(21.5801 0.000476721 0)
(21.5554 0.000456072 0)
(21.5326 0.000436777 0)
(21.5115 0.000418164 0)
(21.4921 0.000400256 0)
(21.4741 0.000383302 0)
(21.4574 0.000367573 0)
(21.442 0.000353004 0)
(21.4278 0.000339324 0)
(21.4145 0.000326039 0)
(21.4023 0.000312732 0)
(21.391 0.00029904 0)
(21.3806 0.000284804 0)
(21.371 0.000269912 0)
(21.3624 0.000254299 0)
(21.3546 0.000237767 0)
(21.3476 0.000220015 0)
(21.3414 0.000200527 0)
(21.3361 0.000178638 0)
(21.3315 0.000153512 0)
(21.3279 0.000124208 0)
(21.3252 8.96526e-05 0)
(21.3236 4.87398e-05 0)
(21.323 -4.83701e-07 0)
(21.3237 -5.94752e-05 0)
(21.3257 -0.000128283 0)
(21.3292 -0.000206928 0)
(21.3344 -0.00029586 0)
(21.3413 -0.000395834 0)
(21.35 -0.000509358 0)
(21.3609 -0.000640778 0)
(21.374 -0.000795649 0)
(21.3898 -0.000983897 0)
(21.4085 -0.00120666 0)
(21.4304 -0.00148527 0)
(21.4562 -0.00178234 0)
(21.4852 -0.00227723 0)
(21.5226 -0.00276824 0)
(21.5538 -0.00307747 0)
(21.5838 -0.00326866 0)
(21.6131 -0.00359372 0)
(21.6446 -0.00406118 0)
(21.6779 -0.00450621 0)
(21.7125 -0.00491311 0)
(21.7484 -0.00537358 0)
(21.7856 -0.00582898 0)
(21.824 -0.00635862 0)
(21.8636 -0.00688782 0)
(21.9044 -0.00749439 0)
(21.9464 -0.00809482 0)
(21.9896 -0.00876237 0)
(22.034 -0.00943174 0)
(22.0799 -0.0101835 0)
(22.1278 -0.0110122 0)
(22.1783 -0.0120288 0)
(22.2325 -0.0133497 0)
(22.2919 -0.0152495 0)
(22.3586 -0.0180927 0)
(22.4356 -0.0231035 0)
(22.5306 -0.0312238 0)
(22.6435 -0.0518853 0)
(22.8254 -0.0826708 0)
(22.924 -0.16207 0)
(35.9294 0.123823 0)
(30.2952 0.0400084 0)
(27.7625 0.0165311 0)
(26.4688 0.00933442 0)
(25.6867 0.0062973 0)
(25.1567 0.00468754 0)
(24.7684 0.00371398 0)
(24.4685 0.00306152 0)
(24.2292 0.0025885 0)
(24.0337 0.00223365 0)
(23.8706 0.00196438 0)
(23.732 0.00175441 0)
(23.6124 0.0015832 0)
(23.5082 0.00143771 0)
(23.417 0.0013132 0)
(23.3366 0.00120867 0)
(23.265 0.00112248 0)
(23.2008 0.0010501 0)
(23.1428 0.000985602 0)
(23.0904 0.000924442 0)
(23.0432 0.000864846 0)
(23.0007 0.000808233 0)
(22.9624 0.000756931 0)
(22.9278 0.000712767 0)
(22.8964 0.000675748 0)
(22.8677 0.000644437 0)
(22.8412 0.0006167 0)
(22.8168 0.000590821 0)
(22.7942 0.00056585 0)
(22.7734 0.000541772 0)
(22.7541 0.000518895 0)
(22.7363 0.000497584 0)
(22.7199 0.000477775 0)
(22.7046 0.000459137 0)
(22.6904 0.000441043 0)
(22.6773 0.000422955 0)
(22.6652 0.000404404 0)
(22.6541 0.000385178 0)
(22.644 0.000365122 0)
(22.6347 0.000344147 0)
(22.6264 0.000321984 0)
(22.6189 0.000298219 0)
(22.6123 0.000272148 0)
(22.6065 0.000242892 0)
(22.6017 0.000209302 0)
(22.5977 0.000170118 0)
(22.5948 0.000123879 0)
(22.5929 6.90523e-05 0)
(22.5922 3.06222e-06 0)
(22.5928 -7.6134e-05 0)
(22.5949 -0.000168816 0)
(22.5985 -0.00027507 0)
(22.6037 -0.000395604 0)
(22.6108 -0.000531347 0)
(22.6199 -0.000685309 0)
(22.6311 -0.000862855 0)
(22.6448 -0.00107063 0)
(22.6612 -0.00132139 0)
(22.6806 -0.00161682 0)
(22.7034 -0.00198459 0)
(22.7302 -0.00237896 0)
(22.7605 -0.00302353 0)
(22.7991 -0.00364787 0)
(22.8311 -0.00407394 0)
(22.8623 -0.00436373 0)
(22.8929 -0.00478228 0)
(22.9257 -0.00538661 0)
(22.9603 -0.00597454 0)
(22.9963 -0.00652121 0)
(23.0336 -0.00713423 0)
(23.0722 -0.00774613 0)
(23.1121 -0.00844578 0)
(23.1531 -0.0091498 0)
(23.1954 -0.0099459 0)
(23.2389 -0.010744 0)
(23.2836 -0.0116237 0)
(23.3296 -0.012516 0)
(23.3771 -0.0135057 0)
(23.4266 -0.0145926 0)
(23.4788 -0.0158989 0)
(23.5347 -0.0175664 0)
(23.5957 -0.0199132 0)
(23.6639 -0.0233755 0)
(23.7419 -0.0293242 0)
(23.8366 -0.0388797 0)
(23.9473 -0.0617674 0)
(24.1174 -0.0936912 0)
(24.1994 -0.179597 0)
(37.7765 0.142909 0)
(32.3051 0.0527352 0)
(29.5494 0.0229813 0)
(28.0965 0.0129966 0)
(27.2181 0.00869436 0)
(26.6268 0.00642201 0)
(26.1968 0.00505795 0)
(25.867 0.00415118 0)
(25.6049 0.00349873 0)
(25.3917 0.00301217 0)
(25.2143 0.00264464 0)
(25.0639 0.00235932 0)
(24.9344 0.00212758 0)
(24.8219 0.00193104 0)
(24.7234 0.00176277 0)
(24.6366 0.00162115 0)
(24.5595 0.00150404 0)
(24.4904 0.00140565 0)
(24.428 0.00131828 0)
(24.3718 0.00123591 0)
(24.321 0.00115606 0)
(24.2754 0.00108043 0)
(24.2343 0.00101196 0)
(24.1973 0.000953019 0)
(24.1635 0.000903608 0)
(24.1327 0.000861856 0)
(24.1043 0.00082495 0)
(24.0782 0.000790593 0)
(24.054 0.000757473 0)
(24.0317 0.000725505 0)
(24.0111 0.000695049 0)
(23.9921 0.00066657 0)
(23.9745 0.000639992 0)
(23.9581 0.000614907 0)
(23.943 0.000590528 0)
(23.929 0.000566173 0)
(23.9161 0.000541251 0)
(23.9042 0.0005155 0)
(23.8933 0.000488727 0)
(23.8834 0.000460814 0)
(23.8745 0.000431413 0)
(23.8665 0.000399975 0)
(23.8594 0.000365565 0)
(23.8532 0.000327015 0)
(23.8479 0.000282802 0)
(23.8437 0.000231236 0)
(23.8404 0.000170387 0)
(23.8383 9.81522e-05 0)
(23.8374 1.12369e-05 0)
(23.8379 -9.32173e-05 0)
(23.8398 -0.000215858 0)
(23.8434 -0.000356901 0)
(23.8487 -0.00051736 0)
(23.8559 -0.000698408 0)
(23.8651 -0.000903635 0)
(23.8766 -0.00113954 0)
(23.8906 -0.00141401 0)
(23.9074 -0.00174301 0)
(23.9274 -0.00212903 0)
(23.9509 -0.00260697 0)
(23.9785 -0.00312251 0)
(24.0096 -0.00394754 0)
(24.0492 -0.00472866 0)
(24.0817 -0.00530156 0)
(24.1136 -0.00572491 0)
(24.1453 -0.00626143 0)
(24.1791 -0.00703043 0)
(24.2147 -0.00779351 0)
(24.2517 -0.00851336 0)
(24.2901 -0.00931471 0)
(24.3298 -0.010123 0)
(24.3708 -0.0110345 0)
(24.4129 -0.0119575 0)
(24.4563 -0.0129877 0)
(24.5009 -0.0140312 0)
(24.5467 -0.0151729 0)
(24.5938 -0.0163436 0)
(24.6426 -0.0176301 0)
(24.6933 -0.0190404 0)
(24.7466 -0.0207079 0)
(24.8037 -0.0228033 0)
(24.8657 -0.0256911 0)
(24.9347 -0.0298881 0)
(25.0131 -0.036891 0)
(25.1066 -0.0480305 0)
(25.2142 -0.0728954 0)
(25.3718 -0.106139 0)
(25.4386 -0.196115 0)
(39.4584 0.162464 0)
(34.3221 0.0680781 0)
(31.3815 0.0315141 0)
(29.7607 0.0179679 0)
(28.7738 0.011947 0)
(28.1121 0.00875995 0)
(27.6341 0.00685676 0)
(27.2696 0.00560078 0)
(26.9816 0.00470371 0)
(26.7481 0.00403864 0)
(26.5545 0.00353863 0)
(26.3908 0.00315247 0)
(26.2502 0.00284052 0)
(26.1282 0.00257695 0)
(26.0216 0.00235136 0)
(25.9277 0.00216094 0)
(25.8444 0.0020028 0)
(25.7698 0.00186959 0)
(25.7027 0.00175154 0)
(25.6421 0.00164085 0)
(25.5876 0.00153424 0)
(25.5385 0.00143371 0)
(25.4943 0.00134289 0)
(25.4545 0.00126474 0)
(25.4182 0.00119921 0)
(25.3851 0.00114389 0)
(25.3547 0.00109509 0)
(25.3266 0.00104979 0)
(25.3007 0.0010062 0)
(25.2768 0.000964156 0)
(25.2547 0.000924037 0)
(25.2343 0.000886408 0)
(25.2154 0.000851156 0)
(25.1979 0.000817764 0)
(25.1817 0.000785235 0)
(25.1667 0.00075272 0)
(25.1529 0.000719483 0)
(25.1402 0.000685216 0)
(25.1285 0.0006497 0)
(25.1179 0.000612799 0)
(25.1083 0.000574082 0)
(25.0997 0.00053284 0)
(25.0921 0.000487873 0)
(25.0854 0.000437628 0)
(25.0797 0.000380137 0)
(25.075 0.000313169 0)
(25.0714 0.000234179 0)
(25.069 0.000140376 0)
(25.0678 2.75985e-05 0)
(25.068 -0.000108088 0)
(25.0698 -0.00026793 0)
(25.0732 -0.000452319 0)
(25.0784 -0.000662694 0)
(25.0856 -0.000900548 0)
(25.0949 -0.00117014 0)
(25.1065 -0.00147922 0)
(25.1206 -0.00183708 0)
(25.1377 -0.00226324 0)
(25.158 -0.00276133 0)
(25.1819 -0.00337433 0)
(25.21 -0.00403936 0)
(25.2418 -0.00507968 0)
(25.2818 -0.00604442 0)
(25.3145 -0.00679763 0)
(25.347 -0.00739586 0)
(25.3793 -0.0080811 0)
(25.4138 -0.00904703 0)
(25.4501 -0.0100236 0)
(25.4878 -0.0109563 0)
(25.5269 -0.0119871 0)
(25.5673 -0.0130382 0)
(25.6089 -0.0142115 0)
(25.6518 -0.0154071 0)
(25.6959 -0.016725 0)
(25.7412 -0.0180711 0)
(25.7877 -0.0195333 0)
(25.8356 -0.0210473 0)
(25.885 -0.0227004 0)
(25.9364 -0.0245125 0)
(25.9905 -0.0266281 0)
(26.0482 -0.029251 0)
(26.1107 -0.032794 0)
(26.1799 -0.0378621 0)
(26.2579 -0.0460488 0)
(26.3494 -0.0589155 0)
(26.4528 -0.0854637 0)
(26.597 -0.120237 0)
(26.65 -0.210781 0)
(40.9455 0.181826 0)
(36.3276 0.0860569 0)
(33.2672 0.0426175 0)
(31.4775 0.0246822 0)
(30.3703 0.0163661 0)
(29.628 0.0119236 0)
(29.0942 0.00927564 0)
(28.6895 0.00753863 0)
(28.3713 0.00630658 0)
(28.1143 0.00539816 0)
(27.902 0.0047181 0)
(27.723 0.00419575 0)
(27.5697 0.00377659 0)
(27.4369 0.00342455 0)
(27.3211 0.00312387 0)
(27.2192 0.00286947 0)
(27.1289 0.00265708 0)
(27.0482 0.00247732 0)
(26.9756 0.00231796 0)
(26.9102 0.00216924 0)
(26.8514 0.00202694 0)
(26.7984 0.00189349 0)
(26.7508 0.00177333 0)
(26.7078 0.00167007 0)
(26.6688 0.0015835 0)
(26.6331 0.00151045 0)
(26.6003 0.00144613 0)
(26.5701 0.00138663 0)
(26.5423 0.00132956 0)
(26.5166 0.00127459 0)
(26.4929 0.00122215 0)
(26.4709 0.00117287 0)
(26.4506 0.00112658 0)
(26.4319 0.00108257 0)
(26.4144 0.00103958 0)
(26.3983 0.000996528 0)
(26.3835 0.000952514 0)
(26.3698 0.000907182 0)
(26.3573 0.000860307 0)
(26.3459 0.000811769 0)
(26.3356 0.000761049 0)
(26.3263 0.000707274 0)
(26.318 0.000648912 0)
(26.3107 0.00058398 0)
(26.3045 0.000509928 0)
(26.2994 0.000423886 0)
(26.2953 0.000322525 0)