/*--------------------------------*- C++ -*----------------------------------*\
  =========                 |
  \\      /  F ield         | OpenFOAM: The Open Source CFD Toolbox
   \\    /   O peration     | Website:  https://openfoam.org
    \\  /    A nd           | Version:  8
     \\/     M anipulation  |
\*---------------------------------------------------------------------------*/
FoamFile
{
    version     2.0;
    format      ascii;
    class       volScalarField;
    location    "55";
    object      epsilon;
}
// * * * * * * * * * * * * * * * * * * * * * * * * * * * * * * * * * * * * * //

dimensions      [0 2 -3 0 0 0 0];

internalField   nonuniform List<scalar> 
12225
(
285.469
270.775
257.864
243.89
232.44
223.194
216.84
212.888
212.985
214.36
217.871
221.81
229.473
234.268
244.005
248.669
261.803
269.438
52.5047
91.8652
107.077
114.807
125.15
137.074
153.449
170.792
192.787
212.963
238.495
259.484
287.011
306.344
335.038
350.905
383.671
393.921
20.3333
34.8268
44.7255
50.4458
55.5145
59.6373
64.9074
69.8165
76.8584
83.7837
92.5525
100.654
110.211
119.611
129.153
140.39
149.082
164.136
15.3548
19.6826
24.1419
27.5488
30.5529
32.8697
35.256
37.3455
39.6822
42.0969
44.6717
47.6217
50.2897
53.8882
56.5172
60.8362
63.5523
68.8493
14.653
15.8623
17.3786
19.0608
20.6634
22.0251
23.2878
24.458
25.5132
26.6755
27.6469
28.9319
29.8574
31.3177
32.2261
33.8658
34.8568
36.7864
14.7073
14.8773
15.205
15.8608
16.5776
17.2873
17.9404
18.5997
19.1483
19.7751
20.2477
20.8819
21.3094
21.9743
22.3833
23.0918
23.5149
24.3347
14.7424
14.6202
14.6253
14.7371
14.9325
15.2193
15.497
15.8167
16.083
16.4031
16.6434
16.9613
17.1802
17.5017
17.7069
18.0426
18.2422
18.6306
14.7628
14.5864
14.464
14.3805
14.3671
14.3903
14.439
14.5365
14.6223
14.7452
14.8415
14.9752
15.0707
15.212
15.3054
15.4567
15.5481
15.7312
14.7668
14.5907
14.4347
14.2959
14.1844
14.1039
14.0389
14.0067
13.9811
13.9806
13.9839
13.9974
14.0125
14.0438
14.0661
14.1089
14.1376
14.2041
14.7664
14.594
14.432
14.2818
14.1423
14.0211
13.9101
13.818
13.7352
13.6683
13.609
13.5628
13.5189
13.4897
13.4574
13.4427
13.4179
13.4219
14.7659
14.5946
14.4322
14.2802
14.1357
14.0025
13.8769
13.7627
13.656
13.5602
13.4706
13.3921
13.3169
13.2534
13.19
13.1405
13.0858
13.0505
14.7657
14.5944
14.4322
14.2798
14.135
13.9992
13.8704
13.7503
13.6364
13.531
13.431
13.3394
13.2518
13.1729
13.0962
13.0293
12.9618
12.906
14.7657
14.5942
14.4321
14.2794
14.1347
13.9984
13.869
13.7473
13.6314
13.5228
13.4192
13.3225
13.23
13.1442
13.0618
12.9862
12.9129
12.8467
14.7657
14.594
14.4319
14.2791
14.1345
13.998
13.8686
13.7463
13.6303
13.5206
13.4163
13.3178
13.2241
13.1356
13.0515
12.9722
12.8967
12.8258
14.7657
14.5939
14.4318
14.2788
14.1343
13.9976
13.8683
13.7459
13.6299
13.52
13.4157
13.3168
13.223
13.1339
13.0494
12.9693
12.8933
12.8212
14.7657
14.5938
14.4316
14.2786
14.1339
13.9974
13.8679
13.7456
13.6296
13.5198
13.4154
13.3168
13.2228
13.134
13.0494
12.9694
12.8932
12.8211
14.7657
14.5937
14.4315
14.2784
14.1338
13.9971
13.8678
13.7454
13.6295
13.5196
13.4156
13.3168
13.2232
13.1343
13.05
12.9699
12.894
12.8218
14.7657
14.5937
14.4315
14.2783
14.1337
13.9969
13.8677
13.7453
13.6295
13.5197
13.4158
13.3171
13.2237
13.1349
13.0508
12.9707
12.8949
12.8228
14.7657
14.5936
14.4314
14.2782
14.1336
13.9969
13.8677
13.7454
13.6297
13.52
13.4162
13.3177
13.2244
13.1358
13.0518
12.9719
12.8962
12.8242
14.7657
14.5936
14.4314
14.2783
14.1338
13.9971
13.868
13.7458
13.6303
13.5207
13.417
13.3186
13.2254
13.1369
13.0531
12.9733
12.8977
12.8258
14.7657
14.5937
14.4315
14.2784
14.1339
13.9975
13.8684
13.7464
13.6309
13.5216
13.418
13.3199
13.2269
13.1387
13.0551
12.9757
12.9005
12.8289
14.7657
14.5937
14.4316
14.2786
14.1343
13.9979
13.8693
13.7476
13.6329
13.5243
13.4219
13.325
13.2336
13.147
13.0655
12.988
12.9152
12.8457
14.7658
14.5936
14.4318
14.2789
14.1356
14.0008
13.8751
13.7573
13.6481
13.5457
13.4512
13.3624
13.2807
13.2035
13.133
13.0654
13.0045
12.9449
14.7655
14.5928
14.4328
14.2845
14.1518
14.0326
13.9296
13.8383
13.7602
13.6904
13.6316
13.5777
13.5333
13.4906
13.457
13.422
13.397
13.3667
14.7593
14.5931
14.4603
14.3602
14.303
14.2764
14.28
14.2911
14.3191
14.3501
14.3915
14.4285
14.4743
14.5113
14.5589
14.593
14.6424
14.6712
14.7214
14.6909
14.7536
14.9171
15.1811
15.459
15.7432
16.0062
16.2631
16.4918
16.7195
16.9176
17.1238
17.2979
17.4906
17.6456
17.8319
17.9697
14.7483
15.5121
16.5463
17.6821
18.6986
19.5606
20.3231
20.9796
21.5919
22.1325
22.6718
23.1533
23.6654
24.1145
24.6221
25.0515
25.5673
25.9824
15.9874
20.9918
25.0214
27.7565
29.7718
31.3412
32.7388
34.0102
35.2802
36.5183
37.8338
39.1239
40.5293
41.8701
43.3641
44.7467
46.3568
47.7421
29.9015
47.2072
54.8455
58.6398
61.5466
64.3395
67.4178
70.7634
74.4165
78.2963
82.4142
86.6239
90.9817
95.3244
99.7331
104.024
108.305
112.441
165.792
160.085
154.889
149.576
144.467
139.694
135.591
132.113
129.232
126.938
125.24
123.948
123.182
122.645
122.557
122.637
122.92
123.38
22.6323
7.25235
8.63864
8.53232
37.1592
39.009
39.3261
38.7656
37.456
8.64596
8.66613
8.26524
8.61626
8.34859
8.22845
8.35853
8.71197
38.318
40.5253
43.2642
46.371
51.6282
61.985
79.1686
101.552
127.988
158.349
190.651
223.518
256.844
290.039
323.113
355.677
388.039
419.736
451.286
482.096
512.859
542.858
572.92
602.213
631.672
660.361
689.299
717.456
745.936
773.608
801.647
828.841
856.423
883.063
910.089
936.063
962.416
987.618
1013.18
1037.4
1061.99
1085.17
1108.69
1130.52
1152.58
1172.9
1193.84
1213.13
1232.86
1251.04
1269.16
1287.34
1306.35
1320.52
1336.19
1351.26
1359.24
1365.82
1368.16
1368.4
1363.75
1354.9
1347.43
1314.2
1317.71
1274.8
1273.69
1211.92
1203.4
1178.31
1155.28
1129.86
1103.06
1074.62
1045.28
1015.54
985.722
955.922
926.248
896.636
867.407
838.508
810.208
782.406
755.288
728.801
703.096
678.252
653.978
629.455
606.227
584.049
562.81
542.562
523.161
504.652
486.925
470.024
453.911
438.866
426.255
416.579
407.734
399.256
391.021
383.088
375.387
367.945
360.674
353.629
346.727
340.024
333.444
327.055
320.701
314.673
308.314
301.94
295.572
289.319
283.207
277.299
271.535
265.872
260.216
254.597
249.049
243.627
238.36
233.245
228.267
223.458
218.827
214.4
210.158
206.076
202.134
198.295
194.495
190.667
186.754
182.555
178.068
172.923
166.992
160.174
151.742
142.575
131.759
120.839
109.942
100.894
93.3809
88.6369
83.1024
80.1955
78.7553
79.7202
75.8154
77.2667
77.1879
77.4423
17.6552
44.555
35.6848
31.3107
28.9637
27.7941
26.8719
26.1897
25.7229
25.1556
23.9546
23.2362
23.2243
24.3971
27.5795
33.0458
40.8935
51.1154
65.3209
79.3269
94.7038
111.505
129.267
147.416
165.222
181.124
194.986
207.859
219.752
231.037
242.148
251.501
260.206
268.715
277.169
285.567
294.039
302.515
311.104
319.697
328.397
337.077
345.841
354.554
363.32
372.001
380.708
389.297
397.879
406.307
414.699
422.903
431.037
438.951
446.778
454.36
461.829
469.024
476.108
482.911
489.591
495.993
502.323
508.466
514.668
520.8
527.122
533.596
539.937
546.176
552.318
557.82
563.921
569.178
572.212
574.17
575.003
574.459
569.397
571.48
562.977
559.04
555.611
548.736
543.527
534.348
528.919
521.022
512.867
503.892
494.234
483.96
473.166
462.033
450.634
438.995
427.025
414.74
402.529
390.425
378.496
366.795
355.353
344.169
333.302
322.739
312.466
302.39
292.728
283.435
274.517
265.948
257.724
249.821
242.235
234.948
227.978
221.386
215.372
210.006
205.004
200.218
195.6
191.137
186.823
182.649
178.602
174.672
170.85
167.132
163.503
159.973
156.509
153.111
149.648
146.184
142.747
139.358
136.031
132.76
129.554
126.407
123.292
120.201
117.146
114.14
111.198
108.323
105.515
102.779
100.126
97.5568
95.0713
92.6611
90.3117
88.0172
85.7504
83.4807
81.1846
78.7986
76.3071
73.6064
70.6466
67.3859
63.6655
59.6443
55.1815
50.6393
46.018
41.9334
38.0618
35.4851
33.3775
30.8568
29.2624
28.8391
26.935
23.6328
29.0659
26.8502
21.2874
73.451
51.0609
42.2171
37.6648
34.9721
33.4277
32.7835
32.9522
33.9113
35.9321
39.4153
44.9436
53.1301
64.3049
78.207
93.7727
109.505
124.212
136.793
147.202
155.242
162.342
169.072
175.646
182.264
188.942
194.546
200.024
205.325
210.346
216.305
223.111
230.111
237.299
244.597
251.962
259.329
266.673
273.942
281.131
288.202
295.161
301.98
308.673
315.218
321.635
327.904
334.047
340.047
345.928
351.677
357.318
362.84
368.274
373.609
378.878
384.071
389.227
394.339
399.444
404.538
409.665
414.82
420.035
425.287
430.59
435.889
441.106
446.204
451.132
455.812
460.278
464.278
467.63
470.331
472.283
473.25
473.52
474.435
473.122
471.92
469.901
466.728
463.01
458.212
453.254
447.178
440.405
432.906
424.77
416.057
406.862
397.291
387.414
377.303
367.006
356.605
346.208
335.87
325.612
315.586
305.791
296.236
286.948
277.928
269.188
260.713
252.556
244.704
237.162
229.911
222.947
216.251
209.819
203.639
197.718
192.074
186.761
181.79
177.088
172.585
168.249
164.061
160.016
156.102
152.312
148.636
145.068
141.6
138.227
134.944
131.742
128.611
125.517
122.46
119.448
116.486
113.576
110.668
107.803
104.988
102.21
99.451
96.7184
94.0244
91.3728
88.7684
86.2113
83.7044
81.2518
78.8584
76.5229
74.2428
72.0068
69.8123
67.6444
65.4848
63.3132
61.0969
58.8139
56.4134
53.8574
51.1112
48.1207
44.9156
41.4856
37.9746
34.4262
31.1005
28.0248
25.3747
23.2338
21.192
19.5032
18.6048
17.2687
15.7627
16.1835
15.9442
16.2961
99.1349
64.2448
53.172
48.1969
45.6373
44.5357
44.687
46.1858
49.267
54.2689
61.5465
71.3242
83.4291
97.0728
110.896
123.287
133.03
139.878
144.915
149.149
153.594
157.654
161.63
165.837
170.196
174.92
180.591
186.653
193.062
199.819
206.993
214.439
221.996
229.566
237.106
244.577
251.935
259.161
266.226
273.124
279.84
286.376
292.726
298.898
304.892
310.721
316.388
321.908
327.286
332.542
337.682
342.727
347.688
352.587
357.435
362.258
367.067
371.886
376.728
381.614
386.555
391.566
396.651
401.817
407.053
412.354
417.682
422.993
428.25
433.414
438.439
443.282
447.843
452.032
455.783
458.992
461.583
463.587
464.703
465.494
465.848
464.997
463.109
460.298
456.544
451.98
446.441
440.045
432.851
424.927
416.367
407.259
397.697
387.777
377.584
367.205
356.722
346.219
335.752
325.349
315.186
305.25
295.561
286.141
277.004
268.159
259.613
251.377
243.453
235.835
228.515
221.483
214.729
208.245
202.024
196.063
190.366
184.942
179.789
174.875
170.161
165.625
161.249
157.024
152.939
148.987
145.159
141.448
137.845
134.347
130.946
127.636
124.408
121.248
118.149
115.111
112.134
109.217
106.345
103.523
100.755
98.0319
95.3129
92.6156
89.9543
87.3234
84.7285
82.1688
79.6471
77.1666
74.7303
72.3377
69.9887
67.6712
65.3893
63.1354
60.896
58.6555
56.3918
54.0837
51.6971
49.2005
46.5632
43.756
40.7797
37.6458
34.4326
31.1995
28.0936
25.2093
22.6003
20.3787
18.4238
16.7604
15.5924
14.4693
13.4481
13.6623
13.7473
13.9168
124.468
80.1696
67.591
62.408
60.1375
59.5582
60.4711
63.1014
67.6184
74.125
82.495
92.2609
102.594
112.446
120.849
127.408
132.621
136.534
139.443
142.174
145.057
148.742
153.249
158.343
163.979
170.162
176.883
183.96
191.326
198.933
206.72
214.597
222.47
230.322
238.115
245.815
253.385
260.805
268.052
275.117
281.986
288.662
295.138
301.422
307.516
313.431
319.172
324.757
330.193
335.5
340.69
345.785
350.801
355.76
360.681
365.588
370.5
375.442
380.431
385.489
390.631
395.875
401.228
406.701
412.291
417.993
423.789
429.658
435.572
441.498
447.393
453.205
458.86
464.276
469.362
474.014
478.138
481.639
484.363
486.431
487.39
487.89
487.112
485.155
482.067
477.879
472.604
466.301
459.037
450.909
442.001
432.43
422.298
411.719
400.797
389.642
378.348
367.009
355.702
344.502
333.481
322.687
312.16
301.922
292
282.4
273.137
264.21
255.626
247.377
239.46
231.864
224.582
217.6
210.911
204.504
198.376
192.518
186.923
181.567
176.428
171.484
166.722
162.128
157.693
153.407
149.26
145.245
141.355
137.581
133.919
130.36
126.898
123.522
120.226
117.008
113.863
110.788
107.778
104.83
101.943
99.1123
96.3222
93.5726
90.8649
88.1689
85.5007
82.8581
80.2431
77.6573
75.103
72.5815
70.0946
67.6345
65.2109
62.8157
60.4386
58.0675
55.6857
53.2738
50.8053
48.2529
45.5895
42.793
39.8573
36.7955
33.6608
30.5144
27.4619
24.6015
21.9852
19.695
17.7135
16.0297
14.7552
13.6065
12.872
12.5464
12.7758
12.6795
148.142
97.2849
83.6434
78.4669
76.4303
76.0247
77.0209
79.5877
83.6912
89.1583
95.5813
102.364
108.865
114.526
119.533
123.323
126.157
128.843
131.955
135.563
139.789
144.714
150.278
156.398
162.967
169.928
177.203
184.731
192.524
200.539
208.716
216.987
225.301
233.603
241.847
250
258.031
265.918
273.638
281.179
288.528
295.681
302.631
309.381
315.931
322.291
328.464
334.465
340.303
345.996
351.558
357.011
362.37
367.662
372.907
378.13
383.356
388.611
393.918
399.305
404.794
410.41
416.169
422.093
428.189
434.464
440.916
447.539
454.313
461.207
468.179
475.173
482.112
488.908
495.454
501.633
507.319
512.381
516.686
520.116
522.469
523.661
524.147
523.089
520.671
516.922
511.876
505.587
498.142
489.628
480.17
469.885
458.905
447.361
435.384
423.101
410.63
398.079
385.547
373.118
360.868
348.86
337.138
325.742
314.693
304.012
293.708
283.79
274.259
265.113
256.346
247.947
239.905
232.208
224.841
217.791
211.047
204.597
198.425
192.512
186.838
181.385
176.137
171.082
166.208
161.503
156.958
152.563
148.309
144.189
140.196
136.322
132.559
128.9
125.337
121.866
118.482
115.18
111.957
108.807
105.728
102.715
99.7613
96.8622
94.015
91.2078
88.4385
85.6802
82.9371
80.2092
77.4998
74.8137
72.1554
69.5249
66.9255
64.3542
61.8041
59.2655
56.7249
54.1651
51.5638
48.8969
46.1406
43.2756
40.2942
37.2076
34.057
30.9014
27.8282
24.9281
22.2631
19.898
17.8481
16.1122
14.748
13.5562
12.8277
12.4067
12.4687
12.316
164.007
111.738
98.1445
93.1129
91.0958
90.4844
90.7934
92.1863
94.5679
97.7507
101.422
105.228
108.898
112.265
115.095
117.974
120.994
124.412
128.39
132.96
138.129
143.875
150.091
156.7
163.671
171.043
178.768
186.795
195.062
203.519
212.119
220.825
229.592
238.379
247.145
255.856
264.478
272.986
281.354
289.563
297.594
305.438
313.083
320.525
327.759
334.79
341.616
348.249
354.695
360.968
367.08
373.052
378.901
384.651
390.325
395.951
401.558
407.176
412.835
418.571
424.415
430.401
436.561
442.927
449.522
456.37
463.481
470.859
478.493
486.36
494.421
502.618
510.874
519.092
527.152
534.92
542.244
548.963
554.91
559.922
563.844
566.195
567.758
567.718
566.094
562.893
558.146
551.912
544.274
535.351
525.266
514.167
502.211
489.55
476.346
462.745
448.893
434.919
420.939
407.057
393.356
379.915
366.785
354.018
341.641
329.685
318.161
307.081
296.443
286.248
276.485
267.145
258.212
249.672
241.507
233.702
226.239
219.103
212.274
205.734
199.462
193.441
187.652
182.084
176.721
171.551
166.563
161.747
157.091
152.588
148.229
144.005
139.909
135.932
132.067
128.309
124.651
121.088
117.615
114.227
110.92
107.689
104.528
101.434
98.4011
95.4228
92.4927
89.5964
86.7131
83.8261
80.9428
78.0731
75.225
72.4028
69.6099
66.8455
64.1049
61.3802
58.6598
55.9284
53.1666
50.3532
47.4673
44.4914
41.4179
38.2562
35.0414
31.8293
28.6979
25.7303
22.9944
20.5478
18.4147
16.6079
15.1506
13.9165
13.0598
12.7051
12.465
12.5267
175.382
122.019
108.458
103.552
101.385
100.267
99.7916
99.7951
100.34
101.495
103.111
105.065
107.175
109.517
112.132
115.148
118.642
122.675
127.274
132.426
138.104
144.206
150.749
157.72
165.087
172.804
180.847
189.186
197.782
206.598
215.596
224.739
233.987
243.302
252.644
261.979
271.27
280.486
289.599
298.582
307.411
316.07
324.539
332.808
340.866
348.71
356.334
363.742
370.935
377.925
384.719
391.333
397.785
404.098
410.293
416.401
422.453
428.483
434.528
440.629
446.827
453.167
459.693
466.449
473.477
480.812
488.482
496.506
504.886
513.612
522.654
531.959
541.453
551.034
560.576
569.927
578.913
587.343
595.013
601.715
607.244
611.404
613.8
614.988
614.335
611.833
607.513
601.435
593.691
584.4
573.715
561.804
548.846
535.026
520.53
505.537
490.213
474.714
459.177
443.722
428.454
413.46
398.814
384.57
370.772
357.447
344.614
332.284
320.457
309.131
298.296
287.939
278.043
268.592
259.566
250.944
242.708
234.836
227.308
220.104
213.201
206.581
200.226
194.118
188.244
182.588
177.138
171.882
166.809
161.907
157.168
152.582
148.14
143.833
139.654
135.596
131.651
127.813
124.077
120.436
116.885
113.42
110.034
106.724
103.484
100.307
97.1866
94.1115
91.0639
88.0096
84.9421
81.8795
78.8335
75.8116
72.8179
69.8531
66.9141
63.9943
61.0836
58.1683
55.2313
52.2542
49.2182
46.1084
42.9175
39.6542
36.3497
33.0572
29.849
26.8021
23.9857
21.4548
19.2356
17.3493
15.7971
14.5083
13.5621
12.9703
12.8427
12.8108
181.393
129.122
114.38
108.908
106.418
104.836
103.623
102.736
102.321
102.334
102.928
104.01
105.652
107.836
110.57
113.864
117.721
122.131
127.077
132.529
138.452
144.797
151.573
158.758
166.33
174.266
182.544
191.141
200.026
209.171
218.544
228.111
237.835
247.681
257.608
267.581
277.562
287.516
297.408
307.21
316.889
326.421
335.783
344.955
353.92
362.666
371.181
379.463
387.505
395.314
402.89
410.248
417.398
424.362
431.159
437.821
444.375
450.862
457.32
463.797
470.338
476.999
483.834
490.9
498.254
505.947
514.026
522.527
531.472
540.866
550.696
560.922
571.478
582.267
593.16
603.993
614.575
624.687
634.09
642.537
649.783
655.599
659.535
661.736
662.246
660.596
656.85
651.066
643.334
633.794
622.603
609.958
596.062
581.13
565.376
549.007
532.218
515.189
498.087
481.051
464.21
447.661
431.493
415.767
400.535
385.828
371.67
358.07
345.035
332.555
320.626
309.229
298.35
287.965
278.057
268.599
259.571
250.949
242.711
234.832
227.292
220.067
213.14
206.491
200.103
193.961
188.05
182.355
176.865
171.567
166.451
161.505
156.721
152.088
147.597
143.24
139.011
134.9
130.901
127.007
123.213
119.512
115.898
112.367
108.912
105.527
102.204
98.9328
95.6955
92.4595
89.2005
85.9416
82.6967
79.4748
76.2809
73.1165
69.9795
66.8642
63.7616
60.6593
57.5424
54.3944
51.1992
47.9442
44.6238
41.246
37.8403
34.4573
31.1653
28.0367
25.1393
22.5263
20.2244
18.2577
16.6145
15.2672
14.2179
13.5676
13.2137
13.1946
181.678
128.949
114.377
109.163
106.518
104.858
103.533
102.477
101.805
101.584
101.79
102.714
104.331
106.611
109.526
113.04
117.121
121.736
126.854
132.454
138.488
144.949
151.846
159.155
166.863
174.953
183.41
192.214
201.341
210.763
220.462
230.41
240.57
250.907
261.383
271.96
282.599
293.264
303.918
314.525
325.049
335.461
345.729
355.828
365.733
375.424
384.884
394.1
403.061
411.764
420.204
428.388
436.323
444.022
451.504
458.794
465.921
472.922
479.837
486.715
493.607
500.573
507.675
514.982
522.562
530.485
538.816
547.609
556.909
566.742
577.116
588.01
599.376
611.127
623.138
635.245
647.243
658.891
669.918
680.037
688.953
696.382
702.021
705.48
707.105
706.4
703.351
697.995
690.424
680.769
669.217
655.975
641.273
625.353
608.462
590.837
572.704
554.271
535.724
517.226
498.917
480.915
463.312
446.186
429.59
413.564
398.134
383.313
369.107
355.511
342.517
330.108
318.267
306.971
296.197
285.921
276.117
266.761
257.828
249.291
241.129
233.318
225.835
218.661
211.777
205.165
198.809
192.693
186.803
181.126
175.65
170.362
165.252
160.308
155.521
150.882
146.381
142.01
137.761
133.627
129.6
125.672
121.839
118.093
114.428
110.836
107.31
103.837
100.4
96.9656
93.5111
90.0575
86.6185
83.2027
79.8155
76.4585
73.1301
69.8253
66.5362
63.2514
59.9577
56.6406
53.2862
49.8843
46.4312
42.9358
39.4266
35.9526
32.5783
29.3723
26.3996
23.7117
21.335
19.2923
17.5692
16.1544
15.0192
14.2731
13.8101
13.6187
180.298
125.822
111.236
106.039
103.784
102.384
101.242
100.298
99.6865
99.5181
99.923
101.019
102.805
105.255
108.334
111.998
116.21
120.935
126.152
131.824
137.927
144.451
151.383
158.727
166.476
174.623
183.155
192.061
201.328
210.946
220.901
231.156
241.676
252.427
263.372
274.471
285.688
296.988
308.332
319.681
330.995
342.239
353.376
364.377
375.208
385.845
396.262
406.438
416.354
426
435.364
444.445
453.24
461.759
470.011
478.019
485.803
493.4
500.844
508.185
515.472
522.77
530.142
537.664
545.416
553.481
561.939
570.867
580.327
590.372
601.032
612.312
624.183
636.58
649.39
662.454
675.566
688.47
700.869
712.439
722.848
731.765
738.882
743.752
746.426
746.693
744.397
739.554
732.246
722.625
710.872
697.217
681.916
665.237
647.452
628.824
609.601
590.012
570.257
550.523
530.958
511.697
492.842
474.484
456.678
439.475
422.899
406.973
391.699
377.081
363.105
349.761
337.026
324.882
313.3
302.258
291.727
281.683
272.097
262.945
254.2
245.839
237.838
230.175
222.829
215.781
209.013
202.507
196.249
190.224
184.417
178.815
173.407
168.18
163.123
158.226
153.479
148.872
144.396
140.041
135.801
131.666
127.629
123.683
119.82
116.032
112.309
108.638
105
101.361
97.7143
94.074
90.4511
86.8532
83.2847
79.7473
76.2395
72.757
69.2922
65.8352
62.3742
58.8964
55.3902
51.8475
48.2666
44.658
41.0508
37.4923
34.0438
30.7703
27.733
24.9811
22.5408
20.431
18.6406
17.1556
15.9491
15.0625
14.4809
14.395
176.937
119.86
105.372
100.287
98.2425
97.2416
96.6142
96.2332
96.1528
96.4655
97.3042
98.7317
100.771
103.411
106.627
110.384
114.653
119.405
124.622
130.287
136.384
142.902
149.835
157.181
164.94
173.109
181.68
190.649
200.003
209.721
219.79
230.19
240.893
251.873
263.103
274.564
286.23
298.045
309.963
321.945
333.948
345.933
357.853
369.682
381.383
392.923
404.269
415.395
426.272
436.883
447.209
457.239
466.962
476.38
485.494
494.316
502.864
511.163
519.244
527.151
534.93
542.641
550.348
558.13
566.068
574.256
582.787
591.752
601.234
611.305
622.02
633.408
645.466
658.151
671.372
684.986
698.792
712.531
725.888
738.51
750.036
760.106
768.357
774.415
778.092
779.143
777.535
773.192
766.21
756.75
744.998
731.186
715.584
698.473
680.142
660.865
640.908
620.511
599.894
579.247
558.74
538.509
518.683
499.349
480.576
462.415
444.899
428.051
411.881
396.392
381.576
367.422
353.911
341.021
328.729
317.009
305.834
295.176
285.009
275.307
266.044
257.194
248.732
240.634
232.878
225.444
218.311
211.463
204.881
198.549
192.453
186.578
180.911
175.438
170.147
165.028
160.067
155.256
150.582
146.037
141.61
137.293
133.076
128.951
124.909
120.941
117.035
113.176
109.341
105.507
101.681
97.8683
94.0777
90.3142
86.5813
82.8802
79.2095
75.565
71.9402
68.3261
64.7122
61.0876
57.4426
53.7713
50.0741
46.3636
42.6702
39.0398
35.5306
32.2038
29.1167
26.3153
23.8251
21.6608
19.8137
18.2693
16.9895
16.0101
15.2806
15.2145
169.736
113.847
98.636
93.4406
91.5945
91.021
90.9685
91.2161
91.7608
92.6592
93.9868
95.7968
98.1161
100.946
104.276
108.086
112.359
117.076
122.227
127.801
133.793
140.2
147.023
154.263
161.923
170.008
178.519
187.453
196.796
206.537
216.661
227.153
237.989
249.142
260.582
272.271
284.183
296.288
308.55
320.932
333.399
345.933
358.502
371.047
383.521
395.887
408.105
420.14
431.953
443.524
454.827
465.843
476.551
486.942
497.008
506.754
516.184
525.317
534.175
542.793
551.208
559.474
567.65
575.807
584.027
592.404
601.037
610.028
619.471
629.455
640.05
651.31
663.254
675.862
689.066
702.746
716.722
730.751
744.491
757.567
769.607
780.214
789.018
795.696
799.978
801.523
800.465
796.595
790.027
780.871
769.328
755.639
740.071
722.907
704.439
684.944
664.695
643.934
622.889
601.753
580.707
559.887
539.456
519.496
500.084
481.267
463.091
445.578
428.747
412.602
397.142
382.357
368.233
354.748
341.883
329.611
317.907
306.743
296.094
285.934
276.239
266.981
258.136
249.677
241.582
233.827
226.394
219.262
212.414
205.832
199.5
193.402
187.524
181.851
176.372
171.072
165.939
160.962
156.129
151.428
146.849
142.38
138.013
133.736
129.539
125.412
121.339
117.305
113.287
109.286
105.302
101.34
97.4026
93.4947
89.6184
85.7741
81.9606
78.1741
74.4086
70.6563
66.9082
63.1549
59.3889
55.6062
51.8096
48.0144
44.2521
40.5674
37.0154
33.6533
30.5344
27.7007
25.1761
22.9721
21.0794
19.4871
18.1455
17.0821
16.2694
16.1356
163.032
106.997
91.5547
86.2986
84.6341
84.4197
84.8807
85.7308
86.8845
88.346
90.152
92.3371
94.927
97.9311
101.351
105.182
109.416
114.049
119.076
124.497
130.315
136.532
143.155
150.19
157.642
165.519
173.824
182.559
191.718
201.297
211.286
221.675
232.45
243.599
255.091
266.893
278.977
291.315
303.872
316.61
329.479
342.435
355.449
368.491
381.523
394.51
407.417
420.235
432.924
445.429
457.713
469.744
481.492
492.929
504.044
514.829
525.278
535.4
545.204
554.716
563.961
572.98
581.82
590.543
599.22
607.939
616.795
625.891
635.326
645.194
655.577
666.537
678.11
690.29
703.028
716.228
729.746
743.268
756.348
768.75
780.195
790.336
798.828
805.362
809.657
811.246
810.387
806.762
800.54
791.815
780.752
767.559
752.481
735.786
717.747
698.632
678.701
658.194
637.317
616.302
595.307
574.429
553.853
533.702
514.052
494.962
476.473
458.621
441.425
424.899
409.046
393.861
379.333
365.448
352.186
339.526
327.442
315.911
304.904
294.405
284.389
274.83
265.7
256.974
248.626
240.635
232.98
225.639
218.595
211.83
205.325
199.065
193.035
187.218
181.602
176.172
170.915
165.819
160.869
156.054
151.36
146.777
142.291
137.893
133.569
129.305
125.085
120.896
116.736
112.601
108.49
104.405
100.347
96.3199
92.3244
88.3608
84.4277
80.5219
76.6383
72.7701
68.9097
65.0496
61.184
57.3112
53.4368
49.579
45.7697
42.0526
38.4792
35.1029
31.9724
29.1256
26.5839
24.3559
22.4309
20.7995
19.4122
18.2797
17.3366
17.1418
151.732
99.0263
84.3348
79.3202
77.8714
77.971
78.8599
80.2023
81.8662
83.8108
86.0378
88.5595
91.3926
94.547
98.032
101.851
106.009
110.509
115.359
120.564
126.135
132.08
138.411
145.139
152.275
159.828
167.805
176.214
185.054
194.327
204.029
214.154
224.693
235.633
246.955
258.639
270.66
282.994
295.612
308.487
321.589
334.874
348.303
361.841
375.449
389.088
402.71
416.246
429.677
442.982
456.127
469.089
481.869
494.417
506.683
518.638
530.255
541.537
552.483
563.104
573.411
583.428
593.185
602.725
612.103
621.388
630.665
640.025
649.561
659.358
669.496
680.033
691.008
702.414
714.212
726.302
738.552
750.443
761.952
773.041
783.295
792.363
799.93
805.725
809.509
810.75
809.733
806.086
800.034
791.637
781.018
768.357
753.869
737.8
720.398
701.914
682.591
662.656
642.299
621.751
601.157
580.574
560.356
540.538
521.154
502.262
483.905
466.124
448.944
432.388
416.464
401.176
386.519
372.483
359.055
346.217
333.946
322.226
311.02
300.327
290.127
280.395
271.102
262.221
253.727
245.599
237.815
230.355
223.199
216.328
209.726
203.375
197.259
191.362
185.668
180.165
174.839
169.674
164.657
159.773
155.007
150.348
145.781
141.293
136.87
132.493
128.162
123.869
119.608
115.376
111.172
106.995
102.846
98.7274
94.6396
90.5829
86.5561
82.5564
78.5798
74.6208
70.673
66.7308
62.7904
58.8525
54.926
51.0314
47.2007
43.476
39.9055
36.5384
33.4183
30.5788
28.0382
25.8021
23.8589
22.1977
20.776
19.5893
18.5528
18.2091
139.238
90.8768
77.2772
72.6687
71.4709
71.8562
73.0813
74.8132
76.8873
79.2297
81.8126
84.6261
87.6738
90.9598
94.4941
98.2843
102.343
106.68
111.311
116.249
121.511
127.113
133.071
139.402
146.121
153.243
160.78
168.742
177.138
185.973
195.248
204.965
215.119
225.703
236.706
248.115
259.912
272.081
284.596
297.437
310.575
323.979
337.616
351.455
365.457
379.588
393.808
408.085
422.374
436.634
450.822
464.891
478.769
492.441
505.879
519.106
532.059
544.7
557.016
569.003
580.647
591.954
602.925
613.583
623.95
634.073
644.006
653.82
663.582
673.361
683.214
693.187
703.296
713.537
723.851
734.144
743.943
753.667
762.958
771.508
779.17
785.709
790.935
794.665
796.765
796.857
794.937
790.864
784.814
776.785
766.847
755.112
741.737
726.905
710.818
693.68
675.697
657.061
637.947
618.542
598.996
579.344
559.893
540.711
521.879
503.459
485.507
468.064
451.165
434.835
419.089
403.938
389.381
375.414
362.028
349.213
336.944
325.213
313.958
303.242
293.031
283.287
273.981
265.086
256.578
248.437
240.642
233.172
226.008
219.131
212.524
206.17
200.051
194.151
188.451
182.941
177.605
172.428
167.395
162.49
157.696
153.002
148.389
143.841
139.354
134.919
130.53
126.178
121.859
117.569
113.305
109.068
104.859
100.678
96.5255
92.4029
88.309
84.242
80.1987
76.1751
72.1664
68.1687
64.1806
60.2056
56.2556
52.3526
48.5285
44.8234
41.2821
37.9489
34.8625
32.0512
29.53
27.3014
25.3535
23.6724
22.2234
20.9952
19.9049
19.2185
126.632
83.4525
71.0232
66.9161
66.0123
66.6354
68.1277
70.1612
72.5561
75.2185
78.0991
81.1697
84.4196
87.8429
91.4442
95.23
99.2147
103.413
107.844
112.527
117.485
122.74
128.314
134.228
140.504
147.162
154.217
161.688
169.585
177.924
186.709
195.947
205.639
215.785
226.381
237.42
248.893
260.788
273.089
285.78
298.841
312.25
325.981
340.006
354.296
368.819
383.539
398.424
413.431
428.524
443.653
458.774
473.834
488.801
503.634
518.256
532.623
546.743
560.59
574.129
587.319
600.138
612.554
624.557
636.138
647.292
658.052
668.431
678.478
688.204
697.653
706.808
715.686
724.231
732.398
739.684
746.755
753.122
758.67
763.307
767.033
769.735
771.33
771.803
771.171
769.124
765.549
760.607
754.243
746.424
737.156
726.474
714.455
701.203
686.854
671.544
655.431
638.658
621.377
603.725
585.846
567.846
549.863
532.001
514.353
496.989
479.976
463.364
447.197
431.507
416.321
401.656
387.522
373.92
360.853
348.314
336.286
324.764
313.686
303.129
293.052
283.427
274.229
265.435
257.023
248.972
241.264
233.877
226.794
219.995
213.464
207.183
201.133
195.3
189.658
184.211
178.937
173.815
168.829
163.963
159.193
154.512
149.909
145.369
140.886
136.451
132.056
127.696
123.363
119.056
114.772
110.511
106.275
102.065
97.8804
93.7234
89.5934
85.49
81.4111
77.3539
73.3154
69.2938
65.2902
61.3112
57.371
53.4925
49.7074
46.0534
42.5712
39.3001
36.2731
33.5132
31.0317
28.8278
26.8898
25.2004
23.7335
22.4666
21.3591
20.4359
115.168
76.8965
65.7942
62.2822
61.7329
62.6115
64.3916
66.7269
69.4444
72.4365
75.6375
79.0062
82.5268
86.1697
89.9296
93.8096
97.8232
101.987
106.324
110.857
115.614
120.621
125.905
131.494
137.414
143.688
150.339
157.388
164.847
172.749
181.1
189.908
199.18
208.921
219.133
229.817
240.969
252.585
264.657
277.176
290.13
303.503
317.279
331.437
345.952
360.8
375.95
391.371
407.026
422.886
438.897
455.007
471.168
487.328
503.428
519.368
535.172
550.795
566.186
581.29
596.05
610.393
624.264
637.612
650.369
662.518
673.996
684.816
694.925
704.34
712.994
720.88
727.922
734.116
738.967
743.032
746.15
748.124
748.948
748.598
747.562
745.579
742.823
739.44
735.451
730.841
725.556
719.571
712.82
705.216
696.688
687.185
676.693
665.235
652.863
639.654
625.697
611.094
595.952
580.383
564.497
548.401
532.2
515.991
499.861
483.888
468.141
452.677
437.547
422.793
408.449
394.541
381.086