/*--------------------------------*- C++ -*----------------------------------*\
  =========                 |
  \\      /  F ield         | OpenFOAM: The Open Source CFD Toolbox
   \\    /   O peration     | Website:  https://openfoam.org
    \\  /    A nd           | Version:  8
     \\/     M anipulation  |
\*---------------------------------------------------------------------------*/
FoamFile
{
    version     2.0;
    format      ascii;
    class       volScalarField;
    location    "55";
    object      k;
}
// * * * * * * * * * * * * * * * * * * * * * * * * * * * * * * * * * * * * * //

dimensions      [0 2 -2 0 0 0 0];

internalField   nonuniform List<scalar> 
12225
(
0.362771
0.344085
0.327682
0.309915
0.295371
0.283613
0.275545
0.270517
0.270654
0.272323
0.276871
0.28176
0.291544
0.297935
0.309565
0.317183
0.330923
0.336384
0.44025
0.468799
0.46165
0.448599
0.450636
0.458807
0.475321
0.499832
0.5264
0.554846
0.58462
0.611124
0.640441
0.662036
0.690471
0.705794
0.738071
0.745057
0.390381
0.417869
0.420229
0.416861
0.411649
0.407934
0.408189
0.410333
0.415226
0.421915
0.432211
0.440934
0.454
0.463739
0.477751
0.488635
0.502192
0.517018
0.377031
0.387176
0.391457
0.391346
0.390268
0.387913
0.385721
0.384129
0.383059
0.383089
0.383686
0.384759
0.387137
0.389193
0.392367
0.39611
0.399241
0.40519
0.374431
0.3761
0.378419
0.378665
0.378271
0.377193
0.375502
0.373721
0.372054
0.370464
0.369371
0.368151
0.36764
0.367026
0.366896
0.366967
0.367326
0.368164
0.373778
0.372708
0.372657
0.372359
0.371762
0.370796
0.369545
0.368045
0.366564
0.36493
0.363534
0.362024
0.360778
0.359559
0.358476
0.357603
0.356708
0.356263
0.373775
0.371741
0.370386
0.369276
0.368225
0.367089
0.365895
0.364543
0.363205
0.361746
0.360373
0.358953
0.357612
0.356319
0.355062
0.35394
0.352801
0.351887
0.373819
0.37156
0.369634
0.367968
0.36649
0.365084
0.36375
0.362385
0.361061
0.3597
0.358378
0.357056
0.355764
0.354516
0.353286
0.35214
0.350995
0.349977
0.373832
0.371554
0.369449
0.367519
0.365767
0.364132
0.362617
0.361158
0.359767
0.358407
0.357091
0.355809
0.354558
0.353353
0.352173
0.351055
0.349955
0.348936
0.373832
0.371561
0.369418
0.3674
0.36552
0.363755
0.362107
0.360547
0.359073
0.357665
0.356317
0.355026
0.353781
0.352589
0.351435
0.350338
0.34927
0.348271
0.37383
0.371562
0.369414
0.367376
0.365451
0.363631
0.361915
0.360291
0.358754
0.357296
0.355909
0.354588
0.353326
0.352124
0.350971
0.349876
0.348822
0.347829
0.373829
0.37156
0.36941
0.367369
0.365434
0.363598
0.361857
0.360206
0.35864
0.357153
0.35574
0.354395
0.353115
0.351897
0.350735
0.349633
0.348576
0.347581
0.373828
0.371558
0.369407
0.367365
0.365427
0.363586
0.361837
0.360175
0.358595
0.357095
0.355665
0.354308
0.353013
0.351785
0.350612
0.349501
0.348439
0.347437
0.373827
0.371556
0.369403
0.367361
0.365421
0.363579
0.361827
0.360162
0.358579
0.357071
0.355637
0.354271
0.352972
0.351734
0.350558
0.349438
0.348374
0.347362
0.373827
0.371555
0.369401
0.367356
0.365416
0.363572
0.361821
0.360155
0.358571
0.357062
0.355628
0.35426
0.35296
0.351721
0.350543
0.349422
0.348356
0.347342
0.373826
0.371554
0.369398
0.367353
0.365411
0.363568
0.361815
0.360151
0.358565
0.35706
0.355623
0.35426
0.352958
0.351723
0.350544
0.349427
0.348359
0.347348
0.373826
0.371552
0.369396
0.36735
0.365408
0.363564
0.361812
0.360147
0.358564
0.357057
0.355625
0.354261
0.352964
0.351729
0.350555
0.349436
0.348373
0.347361
0.373826
0.371551
0.369394
0.367347
0.365406
0.363561
0.36181
0.360145
0.358564
0.357059
0.355629
0.354266
0.352973
0.351739
0.350568
0.349451
0.34839
0.347379
0.373825
0.37155
0.369394
0.367346
0.365405
0.363561
0.361811
0.360148
0.358568
0.357065
0.355637
0.354277
0.352986
0.351755
0.350586
0.349471
0.348412
0.347402
0.373825
0.37155
0.369394
0.367347
0.365407
0.363564
0.361816
0.360154
0.358577
0.357075
0.35565
0.354292
0.353004
0.351775
0.350608
0.349495
0.348438
0.34743
0.373825
0.371551
0.369395
0.36735
0.36541
0.36357
0.361823
0.360164
0.358588
0.357091
0.355666
0.354314
0.353026
0.351803
0.350637
0.349529
0.348474
0.34747
0.373826
0.371552
0.369396
0.367354
0.365416
0.363579
0.361837
0.360183
0.358614
0.357123
0.355708
0.354364
0.353086
0.351871
0.350715
0.349615
0.348568
0.347571
0.373826
0.371553
0.369399
0.367361
0.365434
0.363613
0.361892
0.360265
0.358724
0.357264
0.355879
0.354563
0.353311
0.352118
0.350982
0.349898
0.348865
0.347876
0.373828
0.37155
0.369412
0.36742
0.365562
0.363831
0.362207
0.360676
0.359223
0.357838
0.356513
0.355241
0.354019
0.352844
0.351715
0.350627
0.349586
0.348579
0.373822
0.371554
0.369604
0.367897
0.366346
0.364905
0.363513
0.362148
0.360795
0.359456
0.358134
0.356834
0.355564
0.354326
0.35313
0.351971
0.350863
0.349789
0.37378
0.371989
0.371111
0.370268
0.369364
0.368325
0.367065
0.365655
0.364151
0.362612
0.361073
0.35957
0.358126
0.356739
0.355441
0.354206
0.353073
0.351991
0.374298
0.375567
0.377782
0.37786
0.377294
0.375897
0.373834
0.371652
0.369503
0.367482
0.365652
0.364055
0.362671
0.361472
0.36052
0.359704
0.359131
0.358618
0.378734
0.394406
0.39832
0.396594
0.392593
0.387639
0.383625
0.380439
0.378174
0.376742
0.376261
0.376463
0.377028
0.378174
0.379803
0.381627
0.383859
0.386016
0.408341
0.427508
0.422392
0.410987
0.402177
0.397705
0.398283
0.400657
0.40534
0.412111
0.419806
0.428217
0.436912
0.445762
0.454493
0.463201
0.471482
0.479809
0.366022
0.35343
0.341968
0.33023
0.318959
0.308412
0.299365
0.291675
0.285329
0.280251
0.276514
0.273656
0.271968
0.270783
0.270594
0.27083
0.271317
0.272421
0.0791644
0.121305
0.14545
0.15621
0.14976
0.147637
0.146841
0.146162
0.139169
0.150165
0.153476
0.154433
0.154894
0.14757
0.158232
0.160626
0.169873
0.16016
0.156639
0.157163
0.160933
0.169694
0.187406
0.217915
0.256985
0.300469
0.346968
0.395217
0.441443
0.486212
0.529155
0.570213
0.609353
0.64699
0.682852
0.717561
0.750675
0.782937
0.813778
0.844016
0.872985
0.90155
0.928967
0.956135
0.98225
1.00824
1.03323
1.05818
1.08217
1.10616
1.12917
1.15221
1.17423
1.1963
1.21733
1.2384
1.25833
1.27832
1.29709
1.31589
1.3333
1.35069
1.36673
1.38292
1.39773
1.41278
1.42698
1.44129
1.45493
1.46809
1.47902
1.49089
1.50066
1.50836
1.51547
1.519
1.51094
1.51089
1.50655
1.50343
1.50409
1.49553
1.48092
1.44824
1.44624
1.39909
1.39147
1.3709
1.35214
1.33096
1.30847
1.28472
1.26002
1.23492
1.20943
1.18384
1.1579
1.13195
1.10592
1.08007
1.05431
1.02881
1.00357
0.978788
0.954525
0.930642
0.906495
0.88281
0.859998
0.837884
0.816552
0.79589
0.775965
0.756674
0.738072
0.720132
0.703028
0.687823
0.676055
0.66559
0.655578
0.645827
0.636381
0.62717
0.618221
0.609447
0.600911
0.592511
0.584328
0.576253
0.568393
0.560525
0.553006
0.545338
0.537501
0.529617
0.521805
0.514092
0.506581
0.499191
0.491942
0.484706
0.477463
0.470233
0.463079
0.456047
0.44917
0.442419
0.435807
0.429344
0.423085
0.417037
0.411192
0.405534
0.400031
0.394627
0.389272
0.383891
0.378344
0.372533
0.366289
0.359239
0.351456
0.341957
0.331158
0.318146
0.303125
0.286605
0.2699
0.253248
0.240024
0.226796
0.217296
0.211055
0.207951
0.209525
0.211925
0.212618
0.212679
0.210094
0.14932
0.202921
0.245521
0.273521
0.288098
0.294718
0.296718
0.296368
0.294814
0.293766
0.292858
0.2938
0.298595
0.312719
0.340747
0.375325
0.409712
0.438552
0.46669
0.497489
0.533454
0.575543
0.622558
0.672948
0.724709
0.775434
0.82492
0.873511
0.921496
0.969474
1.01764
1.06555
1.11335
1.16098
1.20826
1.25521
1.3016
1.34752
1.39273
1.4374
1.48132
1.52471
1.5674
1.60963
1.65126
1.69254
1.73333
1.77388
1.81405
1.85407
1.89379
1.93343
1.9728
2.01216
2.0513
2.09042
2.12929
2.16811
2.20661
2.24496
2.28284
2.32039
2.35729
2.39365
2.42907
2.46365
2.49704
2.52974
2.56147
2.59227
2.62168
2.64964
2.67598
2.70078
2.7237
2.74413
2.76036
2.77349
2.78484
2.78912
2.7888
2.78705
2.782
2.77179
2.76048
2.74186
2.72347
2.70018
2.67386
2.64393
2.61071
2.574
2.53357
2.49124
2.44742
2.40248
2.35674
2.31044
2.26385
2.21723
2.17076
2.12463
2.07897
2.03405
1.98995
1.94684
1.90473
1.86375
1.82391
1.78526
1.74772
1.71132
1.67597
1.64169
1.60839
1.57609
1.54482
1.51481
1.48603
1.45811
1.43085
1.40424
1.37826
1.35292
1.32819
1.30404
1.28043
1.25735
1.23474
1.21258
1.19083
1.16947
1.14846
1.1274
1.10629
1.08536
1.06468
1.04433
1.02437
1.00479
0.985528
0.966372
0.947241
0.92826
0.909539
0.891166
0.873183
0.855534
0.838233
0.821347
0.804942
0.789036
0.773572
0.758501
0.743772
0.729248
0.714796
0.70024
0.685365
0.669956
0.65366
0.636105
0.616936
0.595338
0.571221
0.543886
0.513017
0.479898
0.44506
0.408953
0.376841
0.345887
0.320722
0.298282
0.281576
0.275328
0.273069
0.267883
0.266097
0.263924
0.248801
0.308559
0.350396
0.375388
0.390424
0.399631
0.405871
0.411515
0.418795
0.430001
0.447466
0.47358
0.509952
0.556381
0.609868
0.664324
0.714438
0.758247
0.797345
0.834197
0.871174
0.909932
0.951768
0.99745
1.04714
1.10062
1.15719
1.21638
1.27775
1.34072
1.40468
1.46931
1.53393
1.59809
1.66137
1.72349
1.78418
1.84337
1.90092
1.95687
2.0112
2.06401
2.11534
2.16534
2.21405
2.26165
2.30817
2.3538
2.39856
2.44262
2.48602
2.5289
2.57129
2.61333
2.65504
2.69656
2.73789
2.77914
2.82031
2.86149
2.90265
2.94387
2.98509
3.02633
3.06747
3.10844
3.14902
3.18913
3.22855
3.26707
3.30422
3.33979
3.37356
3.40512
3.43418
3.45996
3.48247
3.5011
3.51491
3.52488
3.52926
3.533
3.52913
3.51934
3.50487
3.48462
3.45989
3.4301
3.39571
3.35696
3.31414
3.26761
3.21781
3.16538
3.11085
3.05465
2.99728
2.93911
2.88052
2.82184
2.76334
2.70527
2.64785
2.59132
2.53581
2.48151
2.42847
2.37682
2.32655
2.27773
2.23029
2.18422
2.13946
2.096
2.05377
2.01277
1.97301
1.93457
1.89738
1.86126
1.82603
1.79163
1.75802
1.72519
1.69311
1.66174
1.63104
1.60099
1.57153
1.54266
1.51431
1.48647
1.45905
1.43198
1.4052
1.37876
1.35265
1.32693
1.30164
1.27677
1.2523
1.22793
1.20349
1.17925
1.15534
1.13185
1.10884
1.08618
1.06386
1.04202
1.02076
1.00008
0.979916
0.960203
0.94089
0.921859
0.902953
0.88397
0.864693
0.844876
0.824141
0.802054
0.778114
0.751618
0.721998
0.688691
0.651342
0.610387
0.567098
0.522205
0.479155
0.438445
0.402394
0.370861
0.34654
0.326677
0.3146
0.309842
0.308264
0.303536
0.337026
0.407462
0.455691
0.485698
0.504551
0.51727
0.527757
0.53941
0.555336
0.57832
0.610483
0.652696
0.703732
0.759975
0.816269
0.867459
0.910813
0.947378
0.981084
1.01629
1.0561
1.10214
1.15458
1.21302
1.27662
1.34436
1.41534
1.48877
1.56382
1.63974
1.71596
1.79185
1.86686
1.9406
2.01273
2.08304
2.15135
2.21762
2.28178
2.34388
2.40394
2.46207
2.51833
2.57287
2.62576
2.67717
2.72718
2.77597
2.82361
2.87028
2.91607
2.96113
3.00556
3.04951
3.09307
3.13639
3.17954
3.22267
3.26583
3.30913
3.35262
3.39637
3.44037
3.48464
3.52911
3.5737
3.61829
3.66271
3.70675
3.75014
3.79252
3.83359
3.87298
3.91027
3.94499
3.97659
4.0047
4.02873
4.04806
4.06234
4.0702
4.07657
4.07537
4.0672
4.05265
4.03171
4.00473
3.97182
3.93337
3.88969
3.84125
3.78851
3.732
3.67231
3.60999
3.54561
3.4797
3.41276
3.34521
3.27747
3.20987
3.14273
3.07635
3.01094
2.94671
2.8838
2.82233
2.76239
2.70403
2.64725
2.59205
2.5384
2.48626
2.43563
2.38645
2.3387
2.29236
2.24742
2.20381
2.16139
2.12003
2.07966
2.04022
2.00168
1.964
1.92715
1.89107
1.85574
1.82111
1.78715
1.75382
1.72109
1.68889
1.65718
1.62592
1.5951
1.56473
1.53479
1.50532
1.4763
1.44772
1.41949
1.39151
1.36386
1.33661
1.30981
1.28353
1.25755
1.23181
1.20657
1.18196
1.15796
1.13443
1.11135
1.0887
1.06637
1.04417
1.02193
0.999419
0.976403
0.952497
0.927243
0.900086
0.870333
0.837241
0.800145
0.758598
0.712728
0.66365
0.612602
0.561967
0.513628
0.469777
0.430644
0.399095
0.372597
0.352827
0.341643
0.341476
0.337189
0.424115
0.51123
0.570842
0.608895
0.633209
0.649901
0.663884
0.679361
0.699822
0.727673
0.76369
0.806714
0.853855
0.90141
0.946234
0.986979
1.02477
1.06272
1.10409
1.15118
1.20492
1.26526
1.33162
1.40308
1.47863
1.55733
1.63834
1.72088
1.80426
1.88787
1.9712
2.05377
2.13516
2.21505
2.29316
2.36932
2.44337
2.51526
2.5849
2.65234
2.71756
2.78064
2.84162
2.90063
2.95774
3.01308
3.06674
3.11888
3.16961
3.21907
3.2674
3.31476
3.36126
3.40708
3.45235
3.49723
3.54186
3.58638
3.63092
3.67562
3.72057
3.76587
3.81159
3.85778
3.90444
3.95154
3.999
4.04669
4.09441
4.14192
4.18888
4.23494
4.27969
4.32262
4.3632
4.40083
4.43495
4.46489
4.49006
4.50977
4.52352
4.53065
4.53419
4.52897
4.51616
4.49599
4.46868
4.4345
4.39377
4.347
4.2946
4.23721
4.17538
4.10977
4.041
3.96973
3.89656
3.82205
3.74674
3.67109
3.59551
3.5204
3.44608
3.37278
3.30078
3.23018
3.16116
3.09377
3.02812
2.96419
2.90203
2.84161
2.78292
2.72591
2.67057
2.61681
2.56463
2.51395
2.46471
2.41678
2.37006
2.32446
2.27993
2.23642
2.19388
2.15226
2.11153
2.07163
2.03253
1.99419
1.95657
1.91963
1.88333
1.84761
1.81246
1.77784
1.74376
1.71018
1.67712
1.64457
1.61251
1.58088
1.54966
1.51885
1.48849
1.45862
1.42929
1.40046
1.37211
1.34434
1.31721
1.2907
1.26453
1.23874
1.21338
1.18836
1.16345
1.13846
1.11324
1.08752
1.06095
1.03303
1.00323
0.970846
0.935052
0.895065
0.850316
0.800767
0.747322
0.6914
0.635084
0.58064
0.530425
0.485116
0.447168
0.415193
0.38952
0.3745
0.369351
0.367514
0.504997
0.61178
0.686494
0.734792
0.765451
0.785532
0.80067
0.81551
0.83366
0.857284
0.886794
0.921067
0.9582
0.996558
1.03555
1.07592
1.11911
1.16678
1.22026
1.28008
1.34603
1.41749
1.49363
1.57358
1.65652
1.74173
1.82856
1.91643
2.00481
2.09326
2.18133
2.26867
2.35491
2.43976
2.52298
2.60437
2.68376
2.76103
2.8361
2.90892
2.97947
3.04775
3.11379
3.17765
3.23938
3.29908
3.35682
3.41273
3.46691
3.51952
3.57066
3.62051
3.6692
3.71692
3.76381
3.81007
3.85586
3.90137
3.94677
3.99224
4.03793
4.08402
4.13062
4.17787
4.22584
4.27457
4.32405
4.3742
4.42489
4.47588
4.52689
4.57754
4.62738
4.67588
4.72242
4.76634
4.80691
4.84338
4.875
4.90101
4.92076
4.93241
4.94006
4.93897
4.92927
4.9112
4.88495
4.8508
4.80914
4.7604
4.70521
4.64414
4.57791
4.50721
4.43278
4.35534
4.2756
4.19419
4.11173
4.02877
3.94579
3.86323
3.78145
3.70075
3.62138
3.54352
3.46734
3.39295
3.32043
3.24984
3.18119
3.11448
3.04969
2.98677
2.92567
2.86635
2.80874
2.75276
2.69834
2.64537
2.59374
2.54338
2.4942
2.44616
2.39921
2.35328
2.30833
2.26431
2.22119
2.17891
2.13744
2.09674
2.05676
2.01745
1.9788
1.94078
1.90336
1.86652
1.83026
1.79456
1.75941
1.72477
1.69062
1.65696
1.6238
1.59115
1.55906
1.52753
1.49658
1.46627
1.43662
1.40762
1.37914
1.35113
1.32354
1.29628
1.26905
1.24168
1.21406
1.18596
1.15698
1.12667
1.09451
1.05981
1.0217
0.979297
0.931907
0.879369
0.822423
0.762513
0.701676
0.64228
0.586777
0.536299
0.492968
0.456147
0.425615
0.408974
0.400296
0.391989
0.57439
0.700203
0.789018
0.847329
0.884117
0.906804
0.92145
0.93312
0.94586
0.962382
0.983955
1.01069
1.04218
1.07813
1.11863
1.16409
1.2151
1.27204
1.33493
1.40346
1.47705
1.55501
1.63663
1.72125
1.80825
1.89711
1.98735
2.07858
2.17038
2.26238
2.35423
2.44557
2.53609
2.62551
2.71355
2.8
2.88465
2.96734
3.04793
3.12633
3.20245
3.27626
3.34771
3.41682
3.4836
3.5481
3.61037
3.67049
3.72856
3.78468
3.83897
3.89159
3.94267
3.99239
4.04093
4.08849
4.13527
4.18148
4.22734
4.27309
4.31894
4.36512
4.41184
4.45931
4.50769
4.55712
4.60765
4.65931
4.71202
4.76562
4.81987
4.87441
4.92879
4.98245
5.03473
5.08487
5.13204
5.17538
5.21397
5.24689
5.2733
5.29215
5.30282
5.30748
5.30211
5.28733
5.26334
5.23039
5.18884
5.13924
5.08215
5.01829
4.94843
4.87336
4.79393
4.71093
4.62516
4.53738
4.44827
4.35846
4.26849
4.17887
4.08999
4.00222
3.91584
3.8311
3.74815
3.66717
3.58822
3.51139
3.43667
3.36408
3.29357
3.22513
3.15866
3.09414
3.03146
2.97057
2.91135
2.85372
2.79757
2.74281
2.68936
2.63718
2.58617
2.53631
2.48752
2.43977
2.39299
2.34715
2.30221
2.25811
2.21481
2.17229
2.13049
2.08939
2.04897
2.00921
1.97008
1.93157
1.89365
1.85631
1.81952
1.78329
1.7476
1.71247
1.67791
1.64393
1.61056
1.57785
1.54581
1.51443
1.48363
1.45332
1.42345
1.3939
1.36447
1.33496
1.30521
1.27496
1.24379
1.21124
1.17689
1.1401
1.09991
1.0554
1.00573
0.950647
0.890776
0.827545
0.762996
0.699534
0.639639
0.584819
0.536975
0.495864
0.461939
0.436172
0.423272
0.419673
0.630478
0.766874
0.865765
0.932422
0.974888
1.00039
1.01526
1.02508
1.03446
1.04688
1.06459
1.0887
1.11961
1.15728
1.2016
1.25242
1.3095
1.37249
1.44091
1.51421
1.59177
1.67302
1.75739
1.84439
1.9336
2.02464
2.11715
2.2108
2.30526
2.4002
2.49529
2.59023
2.6847
2.77841
2.87107
2.96244
3.05227
3.14036
3.22652
3.3106
3.39246
3.472
3.54913
3.62381
3.696
3.76569
3.83289
3.89765
3.96
4.02005
4.07787
4.13359
4.18735
4.23932
4.28966
4.33859
4.38633
4.43311
4.4792
4.52487
4.57039
4.61607
4.66218
4.70903
4.75687
4.80594
4.85641
4.9084
4.96193
5.01695
5.07327
5.1306
5.18853
5.2465
5.30382
5.35968
5.41317
5.46329
5.50897
5.54915
5.58278
5.60894
5.62537
5.63541
5.63525
5.62481
5.60414
5.57345
5.5331
5.48359
5.42558
5.35982
5.28716
5.20851
5.12478
5.03689
4.94574
4.85216
4.75695
4.66078
4.56431
4.46809
4.37261
4.27827
4.18541
4.09429
4.00512
3.91805
3.83318
3.75058
3.67026
3.59224
3.51647
3.44292
3.37152
3.30219
3.23486
3.16945
3.10584
3.04395
2.98366
2.9249
2.86757
2.81161
2.75695
2.70353
2.65129
2.60017
2.55012
2.50109
2.45304
2.40592
2.35968
2.31428
2.26969
2.22587
2.1828
2.14044
2.09877
2.05777
2.01742
1.97769
1.93857
1.90004
1.86211
1.82477
1.78801
1.75185
1.7163
1.6814
1.64717
1.61358
1.58056
1.54805
1.51595
1.48415
1.45249
1.42076
1.38877
1.35626
1.32288
1.28821
1.25181
1.21311
1.17102
1.12466
1.07299
1.01566
0.95328
0.887249
0.819621
0.752816
0.689309
0.630876
0.579269
0.534516
0.497379
0.467221
0.447883
0.444329
0.670032
0.803972
0.908739
0.982608
1.0309
1.06067
1.07844
1.09002
1.10033
1.11332
1.13173
1.15714
1.19016
1.23079
1.27867
1.33327
1.39401
1.46026
1.53144
1.60696
1.68631
1.76901
1.85464
1.94285
2.0333
2.12572
2.21981
2.3153
2.41189
2.50931
2.60725
2.7054
2.80347
2.90115
2.99814
3.09418
3.18899
3.28231
3.37393
3.46363
3.55123
3.63657
3.71951
3.79994
3.87777
3.95295
4.02542
4.09518
4.16223
4.22661
4.28838
4.34764
4.40447
4.45904
4.5115
4.56206
4.61094
4.65838
4.70467
4.75011
4.79502
4.83977
4.88469
4.93018
4.97659
5.02425
5.07348
5.12449
5.17745
5.23241
5.28931
5.34796
5.40801
5.46895
5.53011
5.59066
5.64961
5.70587
5.75825
5.80549
5.84637
5.87971
5.90407
5.91869
5.9247
5.9195
5.90311
5.87567
5.83752
5.78918
5.73125
5.6646
5.59012
5.50879
5.42164
5.3297
5.23394
5.13532
5.03473
4.93296
4.83077
4.72873
4.62743
4.52727
4.42867
4.33188
4.23716
4.14465
4.05448
3.96671
3.88138
3.79848
3.718
3.63986
3.56403
3.4904
3.4189
3.34943
3.2819
3.2162
3.15223
3.08989
3.02912
2.96981
2.91191
2.85534
2.80004
2.74596
2.69305
2.64123
2.59047
2.54072
2.49193
2.44404
2.39704
2.35087
2.30551
2.26092
2.21707
2.17393
2.13149
2.0897
2.04857
2.00806
1.96818
1.92891
1.89025
1.85219
1.81473
1.77789
1.74168
1.70608
1.67103
1.63645
1.60225
1.56832
1.53449
1.50058
1.46637
1.4316
1.39595
1.35903
1.32041
1.27958
1.23575
1.18781
1.13435
1.07502
1.01043
0.942027
0.871853
0.802328
0.735909
0.67453
0.619841
0.572129
0.532133
0.499166
0.474096
0.468598
0.679648
0.814145
0.921773
1.00009
1.05386
1.0895
1.11287
1.12972
1.1448
1.16202
1.18419
1.21298
1.24913
1.29265
1.34316
1.40005
1.46269
1.53043
1.60272
1.67903
1.75895
1.8421
1.92815
2.01684
2.10791
2.20114
2.29629
2.39312
2.49138
2.5908
2.69111
2.79201
2.89321
2.99441
3.09529
3.19558
3.29497
3.39318
3.48994
3.58501
3.67815
3.76917
3.85785
3.94405
4.02762
4.10843
4.1864
4.26146
4.33355
4.40268
4.46884
4.53209
4.59249
4.65015
4.70521
4.75783
4.80823
4.85666
4.90337
4.94871
4.99301
5.03667
5.08008
5.1237
5.16796
5.21333
5.26022
5.30899
5.35993
5.41326
5.46905
5.52724
5.58761
5.64974
5.71304
5.77668
5.83966
5.90081
5.95883
6.01235
6.05993
6.10019
6.13187
6.15298
6.16445
6.16514
6.1537
6.13037
6.09543
6.04925
5.99253
5.92608
5.85087
5.76796
5.67849
5.58358
5.48434
5.38183
5.27703
5.17084
5.06403
4.95729
4.8512
4.74626
4.64285
4.54132
4.44191
4.34479
4.25011
4.15794
4.06831
3.98124
3.89669
3.81463
3.73497
3.65764
3.58254
3.50958
3.43866
3.36968
3.30254
3.23713
3.17338
3.1112
3.05052
2.99127
2.93337
2.87678
2.82143
2.76727
2.71424
2.66228
2.61135
2.56141
2.5124
2.46429
2.41703
2.3706
2.32496
2.28006
2.2359
2.19243
2.14963
2.10749
2.06598
2.0251
1.98483
1.94516
1.90607
1.86757
1.82964
1.79226
1.75538
1.71893
1.6828
1.64688
1.61102
1.57502
1.53867
1.50171
1.46384
1.42467
1.38381
1.34078
1.29493
1.2453
1.19024
1.12905
1.06252
0.992103
0.919859
0.848182
0.779495
0.715804
0.658691
0.608668
0.566262
0.531237
0.50238
0.492589
0.667946
0.805979
0.913282
0.992676
1.04994
1.09096
1.12165
1.14628
1.16869
1.19231
1.21986
1.25298
1.29251
1.3386
1.39099
1.44918
1.51263
1.5808
1.65321
1.72946
1.8092
1.89214
1.97803
2.06666
2.15784
2.25137
2.34704
2.44467
2.54401
2.64485
2.74691
2.84994
2.95364
3.05771
3.16185
3.26575
3.36911
3.47163
3.57301
3.67297
3.77125
3.86759
3.96176
4.05355
4.14276
4.22922
4.31277
4.3933
4.4707
4.54491
4.61588
4.68361
4.74811
4.80944
4.86769
4.92298
4.9755
5.02546
5.07312
5.11878
5.16278
5.20553
5.24746
5.28905
5.33082
5.37331
5.41704
5.46251
5.51015
5.56032
5.61328
5.66912
5.72779
5.789
5.85228
5.91692
5.98187
6.04597
6.1079
6.16614
6.21913
6.26531
6.3032
6.33118
6.34845
6.35462
6.34837
6.32967
6.2987
6.25573
6.2013
6.13628
6.06168
5.97864
5.88837
5.79208
5.69095
5.58613
5.47864
5.36951
5.25955
5.14951
5.03997
4.93151
4.82453
4.71941
4.61639
4.51571
4.41748
4.32184
4.2288
4.13839
4.05059
3.96536
3.88262
3.80229
3.72428
3.64849
3.57481
3.50316
3.43342
3.36552
3.29934
3.23482
3.17188
3.11045
3.05045
2.99184
2.93454
2.87851
2.82367
2.76998
2.71737
2.66581
2.61524
2.56562
2.51691
2.46906
2.42203
2.3758
2.33031
2.28554
2.24147
2.19806
2.15529
2.11315
2.0716
2.03063
1.99021
1.95032
1.91095
1.87206
1.83359
1.79548
1.75762
1.7199
1.68216
1.64422
1.60586
1.56683
1.52682
1.48548
1.44244
1.39723
1.34927
1.2977
1.24095
1.17797
1.10969
1.0376
0.963735
0.890444
0.8201
0.754708
0.695813
0.644043
0.599784
0.563035
0.531755
0.514449
0.644295
0.780442
0.886935
0.967626
1.02909
1.07617
1.1128
1.14372
1.17303
1.20372
1.23741
1.27526
1.31825
1.36669
1.42051
1.47943
1.54306
1.61101
1.68292
1.75849
1.83747
1.91962
2.00479
2.09279
2.18348
2.27673
2.37227
2.46999
2.5697
2.6712
2.77424
2.87859
2.98396
3.09006
3.19659
3.30328
3.40979
3.51583
3.62107
3.72522
3.82799
3.9291
4.02828
4.12527
4.21984
4.31177
4.40083
4.48687
4.56971
4.64926
4.7254
4.79806
4.86719
4.93281
4.99493
5.05363
5.10903
5.1613
5.21064
5.25734
5.30171
5.34412
5.38499
5.42484
5.46418
5.50364
5.5438
5.58529
5.62865
5.67441
5.72298
5.77467
5.82956
5.8875
5.94814
6.01079
6.07455
6.1385
6.20138
6.26167
6.31774
6.36791
6.41052
6.44402
6.46717
6.47883
6.47825
6.46509
6.43895
6.40014
6.34929
6.28721
6.21493
6.1336
6.04444
5.9487
5.8476
5.74234
5.63399
5.52371
5.41239
5.30074
5.18943
5.07899
4.96993
4.8626
4.75732
4.65431
4.55374
4.45573
4.36034
4.26759
4.17749
4.09
4.00504
3.92254
3.8424
3.76453
3.68882
3.61519
3.54353
3.47375
3.40578
3.33951
3.27489
3.21183
3.15028
3.09018
3.03146
2.97407
2.91793
2.863
2.80921
2.75651
2.70485
2.65419
2.60447
2.55566
2.5077
2.46056
2.41419
2.36855
2.3236
2.27932
2.23568
2.19264
2.15016
2.10823
2.0668
2.02584
1.98532
1.94519
1.9054
1.86587
1.8265
1.78718
1.74775
1.70804
1.66782
1.62685
1.58485
1.54146
1.49632
1.449
1.39893
1.34529
1.28658
1.22183
1.152
1.07858
1.00353
0.929151
0.85774
0.79125
0.731179
0.678195
0.632605
0.594384
0.561608
0.538646
0.610401
0.742517
0.845885
0.926447
0.990876
1.04353
1.08801
1.12711
1.16341
1.19949
1.23773
1.2798
1.32609
1.37676
1.43183
1.49116
1.55457
1.62182
1.69272
1.76705
1.84467
1.92543
2.00921
2.09589
2.18537
2.27754
2.37225
2.46931
2.56855
2.66978
2.77279
2.87738
2.9833
3.09033
3.19824
3.30669
3.41536
3.52394
3.63212
3.73958
3.84601
3.95113
4.05463
4.15625
4.25572
4.35282
4.44715
4.53857
4.62686
4.71188
4.79343
4.87141
4.9457
5.01623
5.08294
5.14585
5.20499
5.2605
5.3125
5.36122
5.4069
5.44987
5.49052
5.52931
5.56676
5.6035
5.64017
5.67747
5.71604
5.75651
5.79941
5.84507
5.89367
5.94539
6.00014
6.05756
6.11713
6.17805
6.2389
6.29819
6.35426
6.40542
6.44994
6.48619
6.51273
6.5283
6.53159
6.52374
6.50322
6.47008
6.42469
6.36776
6.30021
6.22315
6.13775
6.04518
5.94688
5.84391
5.7372
5.62808
5.51752
5.40629
5.29512
5.18457
5.07517
4.96731
4.86133
4.75748
4.65595
4.55687
4.46036
4.3664
4.27509
4.18639
4.10022
4.01649
3.93513
3.85603
3.77911
3.70427
3.63144
3.56051
3.49141
3.42406
3.35838
3.29432
3.23181
3.17079
3.11122
3.05301
2.99612
2.94048
2.88602
2.8327
2.78046
2.72924
2.67901
2.62971
2.58129
2.5337
2.4869
2.44083
2.39545
2.35072
2.30661
2.26306
2.22004
2.17751
2.13541
2.0937
2.05233
2.01126
1.97042
1.92973
1.88909
1.84839
1.80748
1.76617
1.72428
1.68154
1.63768
1.59237
1.54525
1.49589
1.44375
1.38797
1.32708
1.26061
1.18946
1.11503
1.03926
0.964319
0.892418
0.825425
0.764754
0.711088
0.664647
0.625382
0.591565
0.565632
0.574171
0.698283
0.797601
0.877356
0.943745
1.00057
1.05067
1.0964
1.13996
1.18298
1.22683
1.27249
1.32108
1.37314
1.42885
1.4882
1.55113
1.6175
1.6872
1.76008
1.83607
1.91506
1.99698
2.08176
2.16931
2.25952
2.35233
2.44762
2.54528
2.64517
2.74709
2.85087
2.95628
3.06306
3.17097
3.27974
3.38909
3.49873
3.60836
3.71768
3.82637
3.93415
4.04069
4.14573
4.24897
4.35021
4.44929
4.5458
4.63943
4.72993
4.81708
4.90069
4.9806
5.05672
5.12875
5.1967
5.26055
5.32033
5.37611
5.42801
5.47621
5.52096
5.56253
5.60135
5.63786
5.67266
5.70639
5.73975
5.77337
5.80795
5.84412
5.88249
5.92388
5.96836
6.01596
6.06645
6.11937
6.17382
6.22891
6.28343
6.33594
6.38486
6.42856
6.46544
6.49403
6.51296
6.52068
6.51732
6.50167
6.4736
6.43343
6.38172
6.31928
6.24713
6.16636
6.0781
5.98376
5.88441
5.78066
5.67499
5.56771
5.45945
5.35087
5.24258
5.13508
5.02883
4.92417
4.82136
4.7206
4.62216
4.5261
4.43236
4.34113
4.25242
4.16616
4.08227
4.00069
3.92132
3.8441
3.76893
3.69574
3.62444
3.55498
3.48726
3.42122
3.35682
3.29397
3.23267
3.17284
3.11443
3.05736
3.00157
2.94699
2.89358
2.84128
2.79003
2.73979
2.6905
2.64211
2.59456
2.54779
2.50176
2.4564
2.41167
2.3675
2.32386
2.28069
2.23792
2.19551
2.15339
2.1115
2.06979
2.02819
1.98661
1.94495
1.9031
1.86092
1.81822
1.77482
1.73048
1.68492
1.63782
1.58883
1.53752
1.4833
1.42527
1.3622
1.29418
1.22198
1.14694
1.07091
0.995943
0.924124
0.857207
0.796498
0.742653
0.695833
0.655921
0.621741
0.592547
0.533213
0.651036
0.746399
0.824937
0.892406
0.952168
1.00654
1.05735
1.10616
1.15428
1.20281
1.25262
1.3042
1.358
1.41433
1.47336
1.53517
1.59979
1.66723
1.73749
1.81055
1.88641
1.96506
2.0465
2.1307
2.21764
2.30727
2.39954
2.49435
2.59161
2.69117
2.79288
2.89653
3.00192
3.10883
3.21702
3.32624
3.43622
3.54667
3.6573
3.76782
3.87792
3.98727
4.09558
4.20247
4.30761
4.41066
4.51142
4.60961
4.70497
4.79723
4.88615
4.97151
5.05317
5.13105
5.20484
5.27435
5.33951
5.40027
5.45666
5.50876
5.55672
5.60066
5.64087
5.67774
5.71174
5.74343
5.77346
5.80263
5.83173
5.86153
5.89278
5.92569
5.96077
5.99827
6.03818
6.08029
6.12414
6.16906
6.2142
6.25849
6.30068
6.33936
6.37311
6.4005
6.42008
6.43058
6.43097
6.42098
6.39944
6.36651
6.32248
6.26793
6.20367
6.13063
6.04986
5.96251
5.8697
5.77212
5.67153
5.56875
5.46461
5.35978
5.25492
5.15054
5.04712
4.94499
4.84447
4.74571
4.64907
4.55461
4.46212
4.37232
4.28499
4.19998
4.11721
4.03661
3.95812
3.88168
3.80722
3.73467
3.66395
3.59501
3.5278
3.46222
3.39827
3.3358
3.27487
3.21544
3.15745
3.10081
3.04547
2.99136
2.93842
2.88661
2.83585
2.78613
2.73737
2.68952
2.6425
2.59626
2.55073
2.50586
2.46157
2.4178
2.37448
2.33155
2.28894
2.24658
2.2044
2.16233
2.12029
2.07821
2.03601
1.99358
1.95082
1.90757
1.86369
1.81897
1.77318
1.72606
1.6773
1.62652
1.5733
1.51697
1.45655
1.39162
1.32234
1.24945
1.17425
1.09844
1.024
0.95283
0.886553
0.826344
0.772798
0.726038
0.685823
0.651566
0.620493
0.488324
0.601093
0.693184
0.770518
0.838522
0.900281
0.957761
1.01238
1.06528
1.11735
1.16936
1.22188
1.27537
1.33018
1.38659
1.44483
1.50505
1.5674
1.63199
1.69893
1.76829
1.84017
1.91464
1.99176
2.07156
2.15409
2.23935
2.32733
2.41798
2.51124
2.60702
2.70521
2.80564
2.90817
3.0126
3.11874
3.22634
3.33519
3.44501
3.55555
3.66652
3.77764
3.88861
3.99913
4.10889
4.21758
4.32483
4.43032
4.53373
4.63475
4.73304
4.82831
4.9202
5.0084
5.09255
5.17257
5.24826
5.31947
5.38605
5.44796
5.50511
5.55763
5.60538
5.6485
5.68717
5.72172
5.75258
5.78036
5.8058
5.82959
5.85247
5.87515
5.89809
5.92181
5.94669
5.9729
6.00051
6.02933
6.05925
6.08997
6.12101
6.15148
6.18048
6.20689
6.22954
6.24702
6.25807
6.26091
6.25581
6.24061
6.21537
6.18004
6.13489
6.08041
6.01732
5.94645
5.8688
5.78534
5.69709
5.60508
5.51028
5.41353
5.31558
5.21706
5.11853
5.02048
4.92328
4.82725
4.73261
4.63967
4.54854
4.45901
4.37178
4.28673
4.2038
4.12294
4.0441
3.96725
3.89233
3.81929
3.74807
3.67861
3.61087
3.5448
3.48032
3.41743
3.35597
3.29618
3.23794
3.18112
3.12565
3.07146
3.01851
2.96671
2.91605
2.8664
2.81776
2.77009
2.7233
2.67733
2.63211
2.58758
2.54367
2.50029
2.45735
2.41478
2.3725
2.33043
2.28849
2.24658
2.20463
2.16256
2.12029
2.07771
2.03475
1.99128
1.94716
1.90225
1.85635
1.80924
1.76067
1.71029
1.65775
1.60257
1.54393
1.4815
1.4151
1.34496
1.27181
1.19691
1.12187
1.04849
0.978534
0.913438
0.854239
0.80144
0.755134
0.714958
0.680806
0.648989
0.443868
0.552149
0.642039
0.718488
0.786756
0.849775
0.909297
0.966482
1.02216
1.07694
1.1313
1.18562
1.24022
1.29535
1.35127
1.4082
1.46635
1.52593
1.58714
1.65016
1.71517
1.78234
1.85183
1.92376
1.99826
2.07541
2.15528
2.23791
2.32332
2.4115
2.50238
2.59591
2.69198
2.79048
2.89124
2.99412
3.09891
3.20542
3.31342
3.42268
3.53293
3.64393
3.75539
3.86702
3.97852
4.08956
4.19982
4.30895
4.4166
4.52244
4.6261
4.72723
4.82545
4.92046
5.01183
5.09925
5.18238
5.26096
5.33469
5.40337
5.46677
5.52477
5.57721
5.6241
5.66547
5.70144
5.73233
5.75851
5.78061
5.79919
5.81512
5.82893
5.84096
5.85175
5.86211
5.87205
5.88177
5.89173
5.90209
5.91389
5.92705
5.94124
5.95606
5.9712
5.98553
5.99786
6.00681
6.01101
6.00946
6.0002
5.98256
5.95639
5.92154
5.87813
5.82657
5.76742
5.70145
5.62949
5.55245
5.47123
5.38674
5.29976
5.21105
5.12122
5.03086
4.94042
4.85033
4.76091
4.67244
4.58517
4.4993
4.4149
4.33219
4.25122
4.17205
4.09464
4.01902
3.94516
3.87304
3.80262
3.73387
3.66676
3.60125
3.5373
3.47487
3.41393
3.35433
3.2963
3.23974
3.18456
3.13072
3.07814
3.02678
2.97657
2.92749
2.87941
2.83245
2.78647
2.74136
2.69705
2.65342
2.61042
2.56798
2.52598
2.48434
2.44296
2.40176
2.36063
2.31948
2.27821
2.23673
2.19493
2.15275
2.11008
2.06683
2.02287
1.9781
1.93235
1.88543
1.83713
1.78719
1.73524