/*--------------------------------*- C++ -*----------------------------------*\
  =========                 |
  \\      /  F ield         | OpenFOAM: The Open Source CFD Toolbox
   \\    /   O peration     | Website:  https://openfoam.org
    \\  /    A nd           | Version:  8
     \\/     M anipulation  |
\*---------------------------------------------------------------------------*/
FoamFile
{
    version     2.0;
    format      ascii;
    class       volScalarField;
    location    "55";
    object      nut;
}
// * * * * * * * * * * * * * * * * * * * * * * * * * * * * * * * * * * * * * //

dimensions      [0 2 -1 0 0 0 0];

internalField   nonuniform List<scalar> 
12225
(
4.14904e-05
3.93519e-05
3.74762e-05
3.54432e-05
3.37808e-05
3.2435e-05
3.15129e-05
3.09371e-05
3.09544e-05
3.11364e-05
3.16662e-05
3.22123e-05
3.33363e-05
3.41014e-05
3.53465e-05
3.64116e-05
3.76463e-05
3.77967e-05
0.000332233
0.00021531
0.000179131
0.000157758
0.000146037
0.000138213
0.000132511
0.000131651
0.000129359
0.000130102
0.000128976
0.000129536
0.000128618
0.000128765
0.000128068
0.000127764
0.000127785
0.000126827
0.000674547
0.00045124
0.000355353
0.000310027
0.00027472
0.000251133
0.000231032
0.000217049
0.000201893
0.00019122
0.000181654
0.000173843
0.000168317
0.000161816
0.000159054
0.000153064
0.00015225
0.000146572
0.000833205
0.000685452
0.000571267
0.000500335
0.000448659
0.000412016
0.000379802
0.000355598
0.000332795
0.000313756
0.000296594
0.000279779
0.000268221
0.000252976
0.000245159
0.00023212
0.000225725
0.000214615
0.00086111
0.000802573
0.000741607
0.000677034
0.00062323
0.000581368
0.000544928
0.000513946
0.000488303
0.000463045
0.000444143
0.000421616
0.000407414
0.000387121
0.000375942
0.000357877
0.000348385
0.000331618
0.000854941
0.00084034
0.000822005
0.000786757
0.000750327
0.000715789
0.000685087
0.000655449
0.000631558
0.000606096
0.000587431
0.000564868
0.000549732
0.000529502
0.000516701
0.000498408
0.000486995
0.000469416
0.000852894
0.000850687
0.000844206
0.000832789
0.000817213
0.000796876
0.000777513
0.000756178
0.00073821
0.000718003
0.000702272
0.000683688
0.000669946
0.000652893
0.000640782
0.00062489
0.000614081
0.000598166
0.000851913
0.000851828
0.000850151
0.0008474
0.00084139
0.000833597
0.000824729
0.000813064
0.000802396
0.000789723
0.00077884
0.000766203
0.000755846
0.000743577
0.000733925
0.00072203
0.000713129
0.000700742
0.000851745
0.000851552
0.000851028
0.000850334
0.000848869
0.000846099
0.000842961
0.000838111
0.000833187
0.000826934
0.000820676
0.000814006
0.000807423
0.000800158
0.000793564
0.000786141
0.000779635
0.000771473
0.000851768
0.000851393
0.000851048
0.000850624
0.000850245
0.000849332
0.000848368
0.000846687
0.000844837
0.000842328
0.000839635
0.000836394
0.000833239
0.000829425
0.000825982
0.000821732
0.000818238
0.000813326
0.000851787
0.00085136
0.000851016
0.000850608
0.000850325
0.000849885
0.000849499
0.000848879
0.000848231
0.00084729
0.000846315
0.000844973
0.000843705
0.000841985
0.000840504
0.000838413
0.000836854
0.000834347
0.000851789
0.000851361
0.000850999
0.000850603
0.000850287
0.000849925
0.000849624
0.000849246
0.000848905
0.000848437
0.000848006
0.000847387
0.00084684
0.000846042
0.000845389
0.000844399
0.000843673
0.000842485
0.000851786
0.000851365
0.000850988
0.000850604
0.000850266
0.000849917
0.000849614
0.000849287
0.000849006
0.00084868
0.000848398
0.000848046
0.000847746
0.000847346
0.000847017
0.000846558
0.000846197
0.000845675
0.000851783
0.000851367
0.000850981
0.000850604
0.000850255
0.000849911
0.000849596
0.000849282
0.000848996
0.000848705
0.000848443
0.000848169
0.000847924
0.000847661
0.000847427
0.00084717
0.000846943
0.000846688
0.000851781
0.000851367
0.000850975
0.000850601
0.000850247
0.000849907
0.000849586
0.000849276
0.000848984
0.000848702
0.000848436
0.000848178
0.000847937
0.000847704
0.000847487
0.000847277
0.000847082
0.000846895
0.00085178
0.000851365
0.000850972
0.000850597
0.000850241
0.000849902
0.000849579
0.000849272
0.000848978
0.000848699
0.000848432
0.000848179
0.000847938
0.000847712
0.000847496
0.000847295
0.000847105
0.000846928
0.000851779
0.000851364
0.000850969
0.000850593
0.000850237
0.000849897
0.000849575
0.000849268
0.000848976
0.000848698
0.000848433
0.000848182
0.000847945
0.000847719
0.000847509
0.000847307
0.000847123
0.000846945
0.000851779
0.000851363
0.000850967
0.00085059
0.000850234
0.000849894
0.000849573
0.000849266
0.000848977
0.0008487
0.000848438
0.000848189
0.000847954
0.000847732
0.000847522
0.000847325
0.00084714
0.000846966
0.000851779
0.000851361
0.000850966
0.000850589
0.000850234
0.000849894
0.000849574
0.000849269
0.000848981
0.000848707
0.000848448
0.000848201
0.00084797
0.000847749
0.000847543
0.000847347
0.000847164
0.00084699
0.000851779
0.000851362
0.000850966
0.00085059
0.000850235
0.000849898
0.000849579
0.000849276
0.000848991
0.000848718
0.000848462
0.000848218
0.000847989
0.000847771
0.000847567
0.000847372
0.00084719
0.000847018
0.000851778
0.000851363
0.000850967
0.000850594
0.000850239
0.000849905
0.000849587
0.000849289
0.000849002
0.000848735
0.000848477
0.000848237
0.000848004
0.000847787
0.000847574
0.000847378
0.000847182
0.000847005
0.000851777
0.000851366
0.000850968
0.000850601
0.000850245
0.000849918
0.000849597
0.0008493
0.000849001
0.00084872
0.000848429
0.000848154
0.00084786
0.000847581
0.000847276
0.000846993
0.000846673
0.000846388
0.000851776
0.000851374
0.000850971
0.000850617
0.000850248
0.000849902
0.000849501
0.000849088
0.00084858
0.000848048
0.000847397
0.00084673
0.00084593
0.000845143
0.00084421
0.000843338
0.000842292
0.000841382
0.000851799
0.000851412
0.00085097
0.000850555
0.000849871
0.000848991
0.00084765
0.000846047
0.000844008
0.000841785
0.000839163
0.000836492
0.000833476
0.000830567
0.000827324
0.000824359
0.000820995
0.000818129
0.000852132
0.000851409
0.000850232
0.00084827
0.000844498
0.000839431
0.000832828
0.000825939
0.000818179
0.000810361
0.0008021
0.000794246
0.000786105
0.000778651
0.000770873
0.000764032
0.000756667
0.000750567
0.000854132
0.000847726
0.000840139
0.00082716
0.00080881
0.000789813
0.000770254
0.000751792
0.00073384
0.000717561
0.000701795
0.000687814
0.000674084
0.000662144
0.000650089
0.000639907
0.000629179
0.000620532
0.000854943
0.000818364
0.000776289
0.000726726
0.000685162
0.000650126
0.000618887
0.00059254
0.000569099
0.000549143
0.000530751
0.000515187
0.000500214
0.000487656
0.000475092
0.000464837
0.000454007
0.000445479
0.000807484
0.00066693
0.000570681
0.000510001
0.000465933
0.000431501
0.00040457
0.000383004
0.000364833
0.0003498
0.000336777
0.00032602
0.00031566
0.000307412
0.000299385
0.000292928
0.00028607
0.0002809
0.000501875
0.000348436
0.000292774
0.000259243
0.000236523
0.000221252
0.000211764
0.000204164
0.000198707
0.000195223
0.000192459
0.000190516
0.000188833
0.000187605
0.000186405
0.000185629
0.000184724
0.000184271
7.27267e-05
7.02263e-05
6.79504e-05
6.56168e-05
6.3379e-05
6.12811e-05
5.94859e-05
5.79554e-05
5.66976e-05
5.56858e-05
5.49456e-05
5.43768e-05
5.4042e-05
5.38067e-05
5.37697e-05
5.38286e-05
5.38981e-05
5.4135e-05
2.49215e-05
0.000182609
0.000220408
0.000257389
5.43209e-05
5.02887e-05
4.93464e-05
4.95979e-05
4.65377e-05
0.000234729
0.000244624
0.000259696
0.000250608
0.000234761
0.000273851
0.000277808
0.000298108
6.02487e-05
5.44897e-05
5.13823e-05
5.02673e-05
5.01982e-05
5.09943e-05
5.39839e-05
5.85291e-05
6.3485e-05
6.8424e-05
7.37353e-05
7.84659e-05
8.2837e-05
8.68865e-05
9.05653e-05
9.39561e-05
9.70874e-05
9.99813e-05
0.000102685
0.000105199
0.000107572
0.000109791
0.000111905
0.000113895
0.000115806
0.000117615
0.000119364
0.000121029
0.00012265
0.000124199
0.000125713
0.000127163
0.000128584
0.000129947
0.000131286
0.00013257
0.000133833
0.000135042
0.000136231
0.000137367
0.000138484
0.000139537
0.000140563
0.00014152
0.000142457
0.000143334
0.000144176
0.000144938
0.000145706
0.000146489
0.000147308
0.00014799
0.000148486
0.000149089
0.000149715
0.000149993
0.000150646
0.000151337
0.000151782
0.000150149
0.000150652
0.000150767
0.000150974
0.000154927
0.000152761
0.000154832
0.000148203
0.000155327
0.000146395
0.000147887
0.000146408
0.000145634
0.000144537
0.00014339
0.000142111
0.000140703
0.00013924
0.000137715
0.000136176
0.000134577
0.000132945
0.000131275
0.000129583
0.000127864
0.000126124
0.000124375
0.000122632
0.0001209
0.000119191
0.000117492
0.000115702
0.000113969
0.000112266
0.000110601
0.000108972
0.000107383
0.000105828
0.000104309
0.000102824
0.000101357
9.9891e-05
9.87436e-05
9.77866e-05
9.68811e-05
9.60008e-05
9.51431e-05
9.43048e-05
9.3486e-05
9.26829e-05
9.18997e-05
9.11272e-05
9.03746e-05
8.96288e-05
8.89035e-05
8.81723e-05
8.74667e-05
8.68124e-05
8.61154e-05
8.54089e-05
8.46997e-05
8.39887e-05
8.32898e-05
8.25942e-05
8.19214e-05
8.12579e-05
8.05877e-05
7.99068e-05
7.92187e-05
7.85289e-05
7.78489e-05
7.7173e-05
7.64955e-05
7.58144e-05
7.51402e-05
7.44811e-05
7.38421e-05
7.32245e-05
7.26303e-05
7.20624e-05
7.15275e-05
7.10211e-05
7.05706e-05
7.01432e-05
6.98292e-05
6.95529e-05
6.9405e-05
6.9355e-05
6.92261e-05
6.91378e-05
6.8435e-05
6.72426e-05
6.49809e-05
6.18123e-05
5.84973e-05
5.57059e-05
5.29903e-05
5.09043e-05
4.88199e-05
5.21144e-05
5.23135e-05
5.27102e-05
5.25672e-05
0.000225008
4.50383e-05
0.000103851
0.000173271
0.000232471
0.000268764
0.00029091
0.000302551
0.000307317
0.00031096
0.000324231
0.000332194
0.000334505
0.000328905
0.000319127
0.000316221
0.00031003
0.000295562
0.000264992
0.000247104
0.000235202
0.00022969
0.000230626
0.000236624
0.000246683
0.000260972
0.000277542
0.000294644
0.000312497
0.000330786
0.000349329
0.000370586
0.000392709
0.00041516
0.000437669
0.0004601
0.00048225
0.000504026
0.000525301
0.00054606
0.000566237
0.000585884
0.000604977
0.000623619
0.000641808
0.000659674
0.000677219
0.000694586
0.000711774
0.00072893
0.000746041
0.000763248
0.000780518
0.000797985
0.000815598
0.000833491
0.000851587
0.000869991
0.000888584
0.000907457
0.000926459
0.000945618
0.000964678
0.000983571
0.00100193
0.00101965
0.00103631
0.00105168
0.00106672
0.00108115
0.001095
0.00110894
0.00112047
0.0011323
0.00114726
0.00116284
0.00117864
0.00119376
0.00121585
0.00122136
0.00124362
0.00125209
0.00125823
0.00126939
0.00127216
0.00128347
0.00127921
0.00128125
0.00127945
0.00127697
0.00127294
0.0012675
0.00126022
0.00125036
0.00123951
0.001228
0.00121649
0.00120529
0.00119354
0.00118141
0.00116897
0.00115623
0.00114327
0.00113023
0.00111719
0.00110427
0.0010917
0.00107979
0.00106796
0.00105632
0.0010449
0.00103368
0.0010227
0.00101192
0.00100135
0.000990949
0.000980645
0.000970174
0.000958891
0.000946384
0.000933383
0.000920298
0.000907308
0.000894454
0.000881769
0.000869245
0.000856915
0.00084476
0.000832792
0.00082098
0.000809348
0.000797805
0.000786463
0.000775301
0.000764407
0.0007535
0.000742723
0.000732066
0.000721571
0.000711362
0.000701359
0.000691529
0.000681704
0.000671822
0.000661998
0.000652297
0.000642783
0.000633478
0.000624316
0.000615269
0.000606388
0.000597743
0.000589368
0.000581228
0.000573338
0.000565659
0.000558158
0.000550834
0.000543579
0.000536498
0.000529383
0.000522434
0.000515477
0.000508339
0.000501032
0.000492358
0.000482464
0.000467754
0.000450415
0.000425127
0.000395457
0.000360173
0.000322595
0.000300019
0.000273644
0.00024743
0.000253294
0.000283969
0.000222203
0.000237342
0.000294495
7.58486e-05
0.000167815
0.000261742
0.000336719
0.000392278
0.000429986
0.000452235
0.000462521
0.00046548
0.000463126
0.000457193
0.000449119
0.000440515
0.000433254
0.000428024
0.000423571
0.000419506
0.000416581
0.000418285
0.000425466
0.000439989
0.000459017
0.000482206
0.000509784
0.00054144
0.000577019
0.000619488
0.00066573
0.000715632
0.000769102
0.00082098
0.00087086
0.000920271
0.000968613
0.0010156
0.00106102
0.00110477
0.0011468
0.00118716
0.00122591
0.00126315
0.001299
0.0013336
0.00136709
0.00139961
0.00143129
0.00146229
0.0014927
0.00152267
0.00155228
0.00158165
0.00161083
0.00163994
0.00166901
0.00169812
0.00172729
0.00175655
0.00178591
0.00181537
0.00184489
0.00187445
0.00190393
0.0019333
0.00196241
0.00199122
0.00201959
0.00204747
0.00207512
0.00210244
0.00212939
0.00215573
0.00218102
0.00220618
0.00223154
0.00225676
0.0022813
0.00230636
0.00232977
0.00234366
0.00236351
0.00237543
0.00239069
0.00240167
0.00240755
0.00241278
0.00241107
0.00240928
0.00240439
0.00239723
0.00238771
0.00237592
0.00236187
0.00234561
0.00232766
0.0023084
0.00228819
0.0022673
0.00224562
0.00222338
0.00220094
0.00217769
0.00215397
0.00213006
0.00210611
0.0020823
0.00205882
0.00203584
0.00201316
0.0019908
0.00196881
0.00194717
0.00192591
0.001905
0.00188444
0.00186417
0.00184411
0.00182403
0.00180353
0.0017823
0.00176063
0.00173882
0.00171707
0.00169544
0.001674
0.00165273
0.00163168
0.00161082
0.00159018
0.00156973
0.00154949
0.00152939
0.00150949
0.00148972
0.00147033
0.0014512
0.00143232
0.00141366
0.00139526
0.00137785
0.00136093
0.00134436
0.00132769
0.00131075
0.00129403
0.00127768
0.00126184
0.00124657
0.00123163
0.00121693
0.00120272
0.00118916
0.00117631
0.00116403
0.00115238
0.00114127
0.00113068
0.00112055
0.00111077
0.0011014
0.00109232
0.00108359
0.00107499
0.00106614
0.00105659
0.00104452
0.00102895
0.00100547
0.00097401
0.000930662
0.000875753
0.000814316
0.000744652
0.000687661
0.000634685
0.000580929
0.000556186
0.000565106
0.00053389
0.000536396
0.000508837
0.00010312
0.000232584
0.00035148
0.00044051
0.000502034
0.000540716
0.000560956
0.000566985
0.000563375
0.000554662
0.000544988
0.000537561
0.000534244
0.000535481
0.000540746
0.000549319
0.000561242
0.000577486
0.000597782
0.000623237
0.000653548
0.00069344
0.000742282
0.000798544
0.000861822
0.000929894
0.000998318
0.00106872
0.00114003
0.00121103
0.00128027
0.00134754
0.00141293
0.00147641
0.0015377
0.0015967
0.0016534
0.00170784
0.00176011
0.00181031
0.00185858
0.00190505
0.00194988
0.00199322
0.0020352
0.00207598
0.00211569
0.00215447
0.00219243
0.0022297
0.00226638
0.00230256
0.00233832
0.00237376
0.00240894
0.0024439
0.00247872
0.00251341
0.00254801
0.00258254
0.00261698
0.00265135
0.00268561
0.00271975
0.00275373
0.00278747
0.00282099
0.0028544
0.00288757
0.00292035
0.0029525
0.00298383
0.00301445
0.0030443
0.0030731
0.0031007
0.00312703
0.003151
0.00317367
0.00319066
0.00320059
0.00321649
0.0032277
0.0032344
0.00323772
0.00323669
0.00323313
0.00322645
0.00321687
0.00320448
0.00318941
0.00317182
0.0031519
0.00312995
0.00310628
0.00308118
0.0030549
0.00302763
0.00299966
0.00297146
0.00294205
0.00291208
0.00288182
0.00285146
0.00282119
0.00279114
0.00276143
0.00273205
0.00270303
0.00267439
0.00264614
0.00261831
0.00259088
0.00256383
0.00253713
0.00251071
0.00248439
0.00245797
0.00243123
0.00240426
0.00237721
0.00235019
0.00232327
0.00229651
0.0022699
0.00224348
0.00221724
0.00219119
0.00216532
0.00213962
0.00211408
0.0020887
0.00206346
0.00203848
0.00201377
0.00198931
0.00196509
0.00194112
0.00191771
0.00189476
0.00187218
0.00184986
0.00182838
0.00180758
0.00178742
0.0017682
0.00174994
0.00173214
0.00171458
0.00169793
0.00168248
0.00166826
0.00165491
0.00164264
0.00163136
0.001621
0.00161139
0.00160241
0.00159412
0.00158648
0.00157944
0.00157275
0.00156591
0.00155803
0.00154703
0.00153061
0.00150417
0.00146535
0.00141095
0.0013398
0.00125762
0.0011651
0.00107807
0.000995853
0.000919352
0.000863522
0.000833119
0.000768886
0.000763392
0.000735273
0.000130062
0.000293403
0.000433896
0.000534672
0.000600056
0.000638256
0.000655962
0.00065827
0.000651859
0.00064291
0.000636281
0.00063484
0.000639572
0.000650344
0.000666802
0.000688115
0.000712663
0.000744459
0.000786786
0.000838896
0.000900776
0.000968647
0.00104137
0.00111894
0.00119997
0.00128276
0.00136573
0.00144885
0.00153132
0.00161244
0.0016917
0.00176899
0.0018443
0.00191724
0.00198759
0.00205534
0.00212051
0.00218318
0.00224343
0.00230135
0.00235706
0.00241069
0.00246236
0.00251219
0.00256032
0.00260688
0.00265198
0.00269576
0.00273833
0.00277979
0.00282025
0.00285982
0.00289859
0.00293664
0.00297405
0.00301092
0.00304731
0.00308328
0.0031189
0.00315422
0.00318929
0.00322415
0.00325884
0.00329338
0.00332779
0.00336206
0.00339621
0.0034302
0.0034639
0.00349717
0.00352979
0.00356158
0.00359241
0.0036221
0.00365043
0.00367724
0.00370226
0.00372514
0.00374607
0.00376296
0.0037785
0.00378653
0.00379851
0.00380506
0.00380781
0.00380693
0.0038028
0.00379547
0.00378504
0.00377166
0.00375548
0.00373668
0.00371548
0.00369213
0.00366688
0.00363999
0.00361171
0.00358228
0.00355192
0.00352079
0.00348893
0.00345656
0.00342385
0.00339098
0.00335809
0.0033253
0.00329272
0.00326039
0.00322836
0.00319665
0.00316528
0.00313428
0.00310363
0.00307332
0.00304333
0.0030136
0.00298403
0.0029545
0.00292489
0.00289519
0.00286545
0.00283571
0.00280604
0.00277645
0.00274698
0.00271762
0.00268838
0.00265928
0.0026303
0.00260145
0.00257272
0.0025441
0.0025156
0.00248726
0.00245911
0.00243117
0.00240344
0.00237593
0.00234878
0.002322
0.00229556
0.00226942
0.00224382
0.00221883
0.00219451
0.00217176
0.00215038
0.00213035
0.00211162
0.00209449
0.00207918
0.00206569
0.00205312
0.0020419
0.00203196
0.00202333
0.00201568
0.00200885
0.00200296
0.00199805
0.00199397
0.00199042
0.00198691
0.00198231
0.00197427
0.00195955
0.00193321
0.00189126
0.00183032
0.0017488
0.00165111
0.00154063
0.00142951
0.00132132
0.00121966
0.00114024
0.00106086
0.00100607
0.000961022
0.000958713
0.000154932
0.000346248
0.000507089
0.000619277
0.00068994
0.000730492
0.000749102
0.000752065
0.000747379
0.000741873
0.000740483
0.000745898
0.000759046
0.000780444
0.000807413
0.000844799
0.000893465
0.000950957
0.0010156
0.00108786
0.00116648
0.00124961
0.00133608
0.00142491
0.00151543
0.00160672
0.00169821
0.00178932
0.00187891
0.00196647
0.00205178
0.00213477
0.00221526
0.00229329
0.00236881
0.00244179
0.00251221
0.00258011
0.00264551
0.00270847
0.00276905
0.00282735
0.00288343
0.00293739
0.00298933
0.00303934
0.00308752
0.00313398
0.0031788
0.00322209
0.00326394
0.00330446
0.00334375
0.00338189
0.00341899
0.00345515
0.00349046
0.00352503
0.00355893
0.00359228
0.00362515
0.00365763
0.0036898
0.00372173
0.00375347
0.00378507
0.00381652
0.00384777
0.00387875
0.00390933
0.00393939
0.00396876
0.00399729
0.00402478
0.00405106
0.00407592
0.00409914
0.00412048
0.00413967
0.00415636
0.00417106
0.00418129
0.00419039
0.004197
0.00419996
0.00419944
0.00419564
0.00418864
0.00417854
0.00416547
0.00414958
0.00413106
0.00411011
0.00408696
0.00406184
0.004035
0.00400669
0.00397712
0.00394653
0.00391509
0.00388295
0.00385029
0.00381725
0.00378398
0.00375061
0.00371726
0.003684
0.0036509
0.00361802
0.00358537
0.003553
0.00352091
0.00348909
0.00345755
0.00342626
0.00339517
0.00336423
0.00333336
0.00330249
0.00327159
0.00324065
0.00320968
0.00317873
0.0031478
0.00311692
0.00308608
0.00305531
0.0030246
0.00299395
0.00296338
0.00293288
0.00290244
0.00287209
0.00284183
0.00281169
0.00278171
0.00275189
0.00272226
0.00269289
0.00266381
0.00263503
0.00260657
0.00257853
0.00255101
0.00252411
0.00249824
0.00247359
0.00245099
0.0024305
0.00241238
0.00239677
0.0023836
0.00237242
0.00236316
0.00235572
0.00234997
0.00234522
0.00234131
0.00233855
0.00233702
0.00233643
0.00233644
0.00233666
0.00233591
0.00233156
0.00231975
0.00229499
0.0022522
0.0021875
0.00209917
0.00199035
0.00186587
0.00173618
0.00160657
0.00148302
0.00138139
0.00127095
0.00121332
0.0011566
0.00112284
0.000181048
0.000394902
0.000570888
0.000693963
0.000772259
0.000817892
0.000841651
0.000850064
0.000851437
0.000852741
0.000859138
0.000873674
0.000897653
0.000931844
0.000978505
0.00103379
0.00109825
0.00117052
0.0012492
0.00133328
0.0014215
0.0015126
0.00160617
0.00170162
0.00179799
0.00189374
0.00198839
0.00208166
0.00217341
0.00226344
0.00235158
0.00243756
0.00252125
0.00260256
0.00268143
0.0027578
0.00283164
0.00290293
0.00297167
0.00303788
0.00310158
0.00316283
0.00322165
0.00327812
0.0033323
0.00338425
0.00343405
0.00348178
0.00352752
0.00357135
0.00361336
0.00365365
0.0036923
0.00372943
0.00376513
0.00379951
0.00383268
0.00386475
0.00389584
0.00392607
0.00395554
0.00398438
0.0040127
0.0040406
0.00406817
0.00409548
0.00412259
0.00414949
0.0041762
0.00420265
0.00422879
0.0042545
0.00427966
0.00430412
0.00432771
0.00435024
0.00437148
0.00439121
0.00440916
0.00442506
0.00443863
0.00445186
0.00445752
0.00446566
0.00446942
0.00446982
0.00446702
0.00446109
0.00445211
0.00444019
0.00442545
0.00440807
0.00438825
0.00436619
0.00434213
0.00431632
0.00428897
0.00426034
0.00423063
0.00420004
0.00416874
0.00413689
0.00410464
0.00407212
0.00403945
0.00400672
0.00397402
0.00394142
0.00390895
0.00387666
0.00384456
0.00381265
0.00378095
0.00374944
0.00371809
0.00368689
0.00365578
0.00362472
0.00359365
0.00356254
0.00353137
0.00350014
0.00346886
0.00343755
0.0034062
0.00337484
0.00334348
0.00331211
0.00328076
0.00324942
0.00321809
0.0031868
0.00315553
0.00312432
0.00309318
0.00306214
0.00303123
0.00300048
0.00296993
0.00293962
0.00290959
0.00287986
0.00285052
0.00282165
0.00279337
0.00276591
0.0027395
0.00271467
0.00269222
0.00267297
0.00265691
0.00264387
0.00263348
0.00262549
0.00261972
0.00261597
0.00261383
0.00261308
0.00261373
0.00261581
0.00261878
0.00262227
0.00262616
0.00262935
0.00262886
0.00262044
0.00259792
0.00255537
0.00248846
0.00239541
0.00227859
0.00214337
0.00199962
0.00185341
0.00171285
0.00159014
0.00147054
0.00134766
0.00129357
0.00126539
0.000203985
0.000433775
0.000621985
0.00075563
0.000843677
0.000898304
0.000929621
0.000947646
0.00095983
0.000971834
0.000989235
0.00101531
0.00105264
0.00110062
0.00115887
0.00122598
0.00130082
0.00138199
0.00146818
0.00155826
0.00165119
0.00174687
0.00184384
0.00194116
0.00203827
0.00213493
0.00223067
0.00232516
0.00241822
0.00250963
0.00259923
0.00268684
0.00277232
0.00285555
0.00293644
0.00301492
0.00309091
0.00316439
0.0032353
0.00330364
0.00336939
0.00343257
0.00349317
0.00355124
0.0036068
0.00365988
0.00371055
0.00375884
0.00380483
0.00384857
0.00389014
0.00392962
0.00396709
0.00400265
0.0040364
0.00406844
0.00409889
0.00412788
0.00415553
0.00418197
0.00420736
0.00423183
0.00425552
0.00427859
0.00430117
0.00432339
0.00434535
0.00436715
0.00438885
0.00441048
0.00443204
0.00445349
0.00447477
0.00449576
0.00451633
0.0045363
0.00455547
0.00457361
0.00459047
0.00460579
0.00461934
0.00463101
0.00463999
0.00464758
0.00465225
0.00465398
0.0046527
0.00464839
0.00464109
0.00463087
0.00461783
0.00460212
0.00458393
0.00456346
0.00454095
0.00451664
0.00449076
0.00446356
0.00443526
0.00440605
0.00437612
0.00434563
0.00431473
0.00428355
0.00425219
0.00422075
0.0041893
0.0041579
0.00412659
0.0040954
0.00406434
0.00403341
0.00400262
0.00397194
0.00394136
0.00391084
0.00388035
0.00384986
0.00381932
0.00378869
0.00375796
0.00372712
0.00369617
0.00366511
0.00363397
0.00360274
0.00357144
0.00354008
0.00350868
0.00347724
0.00344577
0.00341428
0.00338279
0.00335131
0.00331987
0.0032885
0.00325722
0.00322607
0.00319509
0.00316433
0.00313382
0.00310362
0.0030738
0.00304444
0.00301566
0.00298763
0.00296058
0.00293491
0.00291128
0.00289106
0.00287472
0.00286184
0.00285202
0.00284495
0.00284036
0.00283801
0.00283759
0.00283885
0.0028417
0.00284606
0.00285166
0.00285821
0.00286547
0.0028725
0.00287568
0.00287077
0.00285056
0.00280851
0.00274003
0.00264341
0.00252067
0.00237736
0.00222313
0.00206466
0.00191172
0.00177234
0.00164168
0.00151473
0.00140577
0.001387
0.000222747
0.000450532
0.000649787
0.000797887
0.000898796
0.000965809
0.00101014
0.00104086
0.00106495
0.00109009
0.00111994
0.00115861
0.00120664
0.00126428
0.00133083
0.00140506
0.00148566
0.00157137
0.00166102
0.00175364
0.00184849
0.0019451
0.00204239
0.00213986
0.00223705
0.00233368
0.00242943
0.00252408
0.00261741
0.00270925
0.00279942
0.00288775
0.00297411
0.00305836
0.00314042
0.00322017
0.00329752
0.00337241
0.00344478
0.00351457
0.00358174
0.00364627
0.00370813
0.00376733
0.00382386
0.00387773
0.00392896
0.00397758
0.00402361
0.00406711
0.00410812
0.0041467
0.00418292
0.00421686
0.00424861
0.00427828
0.00430597
0.0043318
0.00435592
0.00437847
0.00439961
0.00441951
0.00443834
0.0044563
0.00447358
0.00449035
0.0045068
0.00452309
0.00453936
0.00455572
0.00457224
0.00458898
0.00460593
0.00462304
0.00464021
0.00465732
0.00467418
0.00469056
0.00470622
0.00472087
0.0047342
0.00474586
0.00475672
0.00476441
0.00477041
0.00477394
0.0047746
0.00477236
0.00476719
0.00475913
0.00474822
0.00473458
0.00471838
0.00469983
0.00467915
0.00465661
0.00463245
0.00460692
0.00458026
0.00455268
0.00452439
0.00449555
0.0044663
0.00443676
0.00440706
0.00437726
0.00434745
0.00431767
0.00428796
0.00425833
0.0042288
0.00419935
0.00416999
0.00414069
0.00411142
0.00408215
0.00405284
0.00402346
0.00399397
0.00396434
0.00393455
0.00390458
0.00387444
0.00384413
0.00381367
0.00378306
0.00375232
0.00372147
0.00369052
0.00365949
0.00362839
0.00359723
0.00356603
0.00353482
0.00350361
0.00347244
0.00344135
0.00341037
0.00337955
0.00334893
0.00331857
0.00328852
0.00325886
0.00322967
0.00320108
0.00317324
0.00314638
0.00312084
0.00309723
0.00307681
0.00306065
0.00304816
0.00303893
0.00303262
0.00302892
0.00302758
0.00302832
0.00303087
0.00303508
0.00304081
0.00304785
0.00305594
0.00306478
0.00307357
0.00307991
0.00307861
0.00306044
0.0030185
0.0029484
0.00284867
0.0027213
0.00257191
0.00240999
0.00224284
0.00208121
0.00192962
0.00179245
0.00165283
0.00153092
0.00149778
0.000228827
0.000462625
0.000668578
0.000824602
0.000938387
0.0010188
0.0010766
0.00112087
0.00115861
0.00119631
0.00123989
0.00128921
0.001346
0.00141059
0.00148246
0.00156064
0.00164404
0.00173162
0.00182243
0.00191556
0.00201066
0.00210695
0.00220355
0.0023002
0.00239657
0.0024924
0.00258746
0.00268156
0.00277453
0.00286628
0.00295646
0.00304492
0.00313156
0.00321626
0.0032989
0.00337939
0.00345759
0.00353343
0.0036068
0.00367764
0.00374587
0.00381146
0.00387434
0.00393449
0.00399186
0.00404643
0.0040982
0.00414717
0.00419333
0.00423671
0.00427732
0.00431521
0.00435042
0.00438301
0.00441304
0.00444061
0.00446582
0.00448877
0.00450961
0.00452848
0.00454555
0.00456101
0.00457507
0.00458794
0.00459985
0.00461105
0.00462179
0.00463229
0.00464277
0.00465345
0.00466448
0.00467599
0.00468808
0.00470076
0.00471403
0.00472778
0.00474187
0.00475611
0.00477027
0.00478408
0.0047972
0.0048093
0.00482035
0.0048298
0.00483668
0.00484259
0.00484556
0.00484578
0.00484323
0.00483778
0.00482943
0.00481826
0.00480441
0.00478809
0.00476952
0.00474898
0.00472673
0.00470306
0.00467822
0.00465247
0.004626
0.004599
0.00457159
0.0045439
0.00451605
0.00448812
0.00446018
0.00443228
0.00440444
0.00437668
0.00434899
0.00432138
0.00429382
0.00426628
0.00423873
0.00421112
0.00418341
0.00415557
0.00412755
0.00409933
0.00407088
0.00404218
0.00401324
0.00398407
0.00395468
0.00392509
0.00389531
0.00386537
0.00383528
0.00380508
0.00377476
0.00374436
0.00371389
0.00368337
0.00365284
0.00362234
0.0035919
0.00356156
0.00353138
0.00350141
0.0034717
0.00344233
0.00341337
0.00338492
0.00335711
0.00333009
0.00330409
0.00327946
0.00325678
0.00323725
0.00322189
0.00321016
0.00320167
0.0031961
0.00319317
0.00319259
0.0031941
0.00319744
0.00320241
0.00320883
0.00321649
0.0032251
0.00323432
0.00324337
0.00325032
0.00325065
0.00323388
0.00319109
0.00311879
0.0030159
0.00288461
0.0027306
0.00256317
0.00239027
0.00222257
0.00206401
0.00192145
0.00177951
0.00164479
0.00160353
0.000222708
0.000464658
0.000674848
0.000836357
0.000955961
0.00104623
0.0011184
0.00117906
0.00123312
0.00128565
0.00134028
0.00139871
0.00146251
0.00153215
0.0016074
0.00168763
0.00177201
0.0018597
0.00194987
0.00204206
0.00213582
0.00223063
0.00232612
0.00242177
0.00251727
0.00261237
0.00270686
0.00280054
0.0028932
0.00298452
0.00307422
0.00316234
0.0032488
0.00333349
0.00341629
0.00349714
0.00357587
0.00365234
0.00372643
0.00379806
0.00386715
0.00393364
0.00399744
0.00405848
0.0041167
0.00417204
0.00422447
0.00427395
0.00432046
0.00436399
0.00440453
0.00444209
0.00447668
0.00450834
0.00453711
0.00456304
0.00458623
0.00460676
0.00462476
0.00464038
0.00465376
0.00466511
0.00467465
0.0046826
0.00468925
0.00469487
0.00469978
0.00470426
0.00470864
0.0047132
0.00471821
0.00472391
0.00473046
0.00473801
0.00474666
0.0047564
0.00476704
0.00477849
0.00479059
0.00480309
0.00481565
0.00482788
0.00483937
0.00485047
0.0048595
0.00486721
0.00487262
0.00487568
0.00487627
0.004874
0.00486875
0.00486054
0.00484951
0.00483584
0.00481976
0.00480156
0.00478153
0.00475997
0.00473715
0.00471342
0.00468899
0.00466403
0.00463864
0.00461298
0.00458714
0.00456124
0.00453535
0.0045095
0.00448373
0.00445804
0.00443244
0.00440691
0.00438143
0.00435596
0.00433044
0.00430483
0.00427908
0.00425312
0.00422693
0.00420047
0.0041737
0.00414662
0.00411922
0.00409152
0.00406354
0.00403529
0.00400681
0.00397813
0.00394926
0.00392024
0.00389108
0.0038618
0.00383243
0.003803
0.00377355
0.00374411
0.00371473
0.00368546
0.00365635
0.00362747
0.00359888
0.00357067
0.0035429
0.00351571
0.00348921
0.00346358
0.00343907
0.00341603
0.00339508
0.0033774
0.00336344
0.00335283
0.0033453
0.00334055
0.00333832
0.00333835
0.00334038
0.00334416
0.00334945
0.00335603
0.00336366
0.00337202
0.00338068
0.00338883
0.00339463
0.00339382
0.00337619
0.00333093
0.00325541
0.00314899
0.00301412
0.00285657
0.00268539
0.00250906
0.00233759
0.00217603
0.00203
0.00189416
0.0017574
0.00165469
0.000211151
0.000457352
0.000671893
0.000840259
0.000970177
0.00107189
0.00115355
0.00122336
0.00128796
0.00135182
0.00141623
0.00148246
0.00155204
0.00162561
0.00170321
0.00178453
0.00186906
0.0019562
0.0020454
0.00213611
0.00222801
0.00232079
0.00241416
0.0025078
0.00260145
0.00269491
0.00278781
0.00288004
0.00297146
0.00306204
0.00315154
0.00323979
0.00332662
0.00341188
0.00349536
0.00357675
0.0036558
0.00373263
0.0038072
0.00387941
0.00394917
0.0040164
0.00408109
0.00414303
0.00420216
0.00425839
0.00431162
0.00436181
0.00440893
0.00445292
0.00449374
0.00453138
0.00456581
0.00459704
0.00462506
0.00464991
0.00467163
0.0046903
0.00470602
0.00471889
0.00472908
0.00473677
0.00474215
0.00474549
0.00474706
0.00474719
0.00474622
0.00474454
0.00474251
0.00474052
0.00473896
0.00473821
0.00473849
0.00474001
0.00474287
0.00474705
0.00475251
0.00475952