/*--------------------------------*- C++ -*----------------------------------*\
  =========                 |
  \\      /  F ield         | OpenFOAM: The Open Source CFD Toolbox
   \\    /   O peration     | Website:  https://openfoam.org
    \\  /    A nd           | Version:  8
     \\/     M anipulation  |
\*---------------------------------------------------------------------------*/
FoamFile
{
    version     2.0;
    format      ascii;
    class       volScalarField;
    location    "55";
    object      p;
}
// * * * * * * * * * * * * * * * * * * * * * * * * * * * * * * * * * * * * * //

dimensions      [0 2 -2 0 0 0 0];

internalField   nonuniform List<scalar> 
12225
(
-1.09055
-3.27526
-4.36632
-4.67347
-4.8431
-4.99131
-5.09143
-5.15738
-5.2069
-5.23755
-5.24392
-5.23299
-5.21001
-5.17528
-5.12063
-5.01972
-4.89778
-4.53676
-4.25312
-5.01682
-5.17201
-5.06543
-5.03947
-5.08653
-5.13386
-5.17103
-5.20303
-5.22284
-5.22391
-5.20995
-5.18662
-5.15277
-5.1012
-5.01224
-4.89462
-4.7206
-4.65416
-4.63758
-4.75766
-4.82043
-4.90144
-5.0013
-5.08044
-5.13764
-5.18076
-5.20734
-5.21468
-5.20704
-5.19011
-5.16234
-5.1183
-5.04628
-4.958
-4.87043
-4.53339
-4.47427
-4.7056
-4.85077
-4.93956
-5.02575
-5.09669
-5.14939
-5.18823
-5.21211
-5.21974
-5.2147
-5.20135
-5.17788
-5.14063
-5.08371
-5.02047
-4.95928
-4.52439
-4.54488
-4.76433
-4.89434
-4.9644
-5.03586
-5.10095
-5.15157
-5.18891
-5.21259
-5.22221
-5.22078
-5.21155
-5.19328
-5.16379
-5.12155
-5.07727
-5.04413
-4.58382
-4.62891
-4.79628
-4.90713
-4.97477
-5.04247
-5.10513
-5.1552
-5.19268
-5.21729
-5.22917
-5.23105
-5.22581
-5.21304
-5.19186
-5.16324
-5.13646
-5.12629
-4.64598
-4.68682
-4.81518
-4.91726
-4.98841
-5.05369
-5.11265
-5.16148
-5.1994
-5.2252
-5.23915
-5.24407
-5.24302
-5.2363
-5.22383
-5.20767
-5.19545
-5.19764
-4.70184
-4.73626
-4.83927
-4.93365
-5.00543
-5.06723
-5.12195
-5.16942
-5.20806
-5.23535
-5.25149
-5.25967
-5.26326
-5.26304
-5.25924
-5.254
-5.25305
-5.26359
-4.75452
-4.78448
-4.86883
-4.95373
-5.02308
-5.08161
-5.13301
-5.1794
-5.21878
-5.24771
-5.26632
-5.27812
-5.28662
-5.29289
-5.2973
-5.30156
-5.3099
-5.32694
-4.80526
-4.83155
-4.90099
-4.97613
-5.04166
-5.09733
-5.14644
-5.19202
-5.232
-5.26264
-5.28403
-5.29967
-5.313
-5.32546
-5.33743
-5.35002
-5.36607
-5.38894
-4.85409
-4.87689
-4.93405
-5.00071
-5.06216
-5.11492
-5.16216
-5.20711
-5.24772
-5.28029
-5.30477
-5.32432
-5.34229
-5.36046
-5.37921
-5.39911
-5.422
-5.44973
-4.89709
-4.91693
-4.96513
-5.02494
-5.08281
-5.13305
-5.17861
-5.22284
-5.26399
-5.29863
-5.32637
-5.34962
-5.37162
-5.39421
-5.41824
-5.44394
-5.47241
-5.50488
-4.93794
-4.95542
-4.99672
-5.04983
-5.1042
-5.15283
-5.19714
-5.24023
-5.28143
-5.31825
-5.34975
-5.37738
-5.40315
-5.42956
-5.45772
-5.48831
-5.52205
-5.55876
-4.98238
-4.99753
-5.03312
-5.07928
-5.1295
-5.17735
-5.22131
-5.26304
-5.30348
-5.34227
-5.37868
-5.4118
-5.44257
-5.47288
-5.50493
-5.53968
-5.57823
-5.61922
-5.02976
-5.04268
-5.07387
-5.11396
-5.15938
-5.20643
-5.25144
-5.29271
-5.33198
-5.37198
-5.41299
-5.45276
-5.48976
-5.52484
-5.56058
-5.59892
-5.6415
-5.68659
-5.07886
-5.09021
-5.11756
-5.15338
-5.19428
-5.23974
-5.28648
-5.32957
-5.36883
-5.40922
-5.45353
-5.49983
-5.54399
-5.58521
-5.62501
-5.66649
-5.71196
-5.76037
-5.12754
-5.13772
-5.16225
-5.19606
-5.23418
-5.27742
-5.3256
-5.37225
-5.4139
-5.45508
-5.50143
-5.55257
-5.60405
-5.65213
-5.69704
-5.74168
-5.7899
-5.84091
-5.17205
-5.18173
-5.20477
-5.23837
-5.27624
-5.31847
-5.36764
-5.4182
-5.46413
-5.50801
-5.55658
-5.61139
-5.66859
-5.72325
-5.77385
-5.82233
-5.87302
-5.92577
-5.20555
-5.21572
-5.23918
-5.27405
-5.31443
-5.35879
-5.40999
-5.46421
-5.51519
-5.56385
-5.61622
-5.67472
-5.73616
-5.79566
-5.85105
-5.90379
-5.95765
-6.01284
-5.21269
-5.22405
-5.25022
-5.28875
-5.33385
-5.38321
-5.43811
-5.4955
-5.55027
-5.60397
-5.66122
-5.72362
-5.78743
-5.84888
-5.90649
-5.9624
-6.01938
-6.07768
-5.20216
-5.2149
-5.24491
-5.28824
-5.33869
-5.39332
-5.4523
-5.51229
-5.57059
-5.62891
-5.69094
-5.75615
-5.82115
-5.88284
-5.94175
-5.99968
-6.05956
-6.12024
-5.17919
-5.1932
-5.22808
-5.27838
-5.33591
-5.39636
-5.45885
-5.5212
-5.58274
-5.64593
-5.71226
-5.77961
-5.84476
-5.90637
-5.96618
-6.0263
-6.08847
-6.15126
-5.14763
-5.16191
-5.20232
-5.26226
-5.32863
-5.39544
-5.46137
-5.52587
-5.59049
-5.65771
-5.72714
-5.79559
-5.86032
-5.92213
-5.98309
-6.04571
-6.10992
-6.17439
-5.11035
-5.12389
-5.17238
-5.24298
-5.31652
-5.38913
-5.46015
-5.52864
-5.59691
-5.6673
-5.73833
-5.80663
-5.87077
-5.93266
-5.99511
-6.05937
-6.12522
-6.19028
-5.0679
-5.07582
-5.14606
-5.23135
-5.30512
-5.37839
-5.45385
-5.52753
-5.60035
-5.67395
-5.7463
-5.81437
-5.87828
-5.94074
-6.00443
-6.06991
-6.1362
-6.20105
-5.02763
-4.99347
-5.10955
-5.22912
-5.30573
-5.37608
-5.45109
-5.5256
-5.60013
-5.6755
-5.74837
-5.81619
-5.88022
-5.94373
-6.00898
-6.07584
-6.14272
-6.20749
-5.04366
-4.88814
-5.02202
-5.18268
-5.28823
-5.3769
-5.45919
-5.53476
-5.60934
-5.68472
-5.75676
-5.82275
-5.88531
-5.9484
-6.01407
-6.08157
-6.14893
-6.21385
-5.16744
-4.99089
-5.01376
-5.09025
-5.19132
-5.3079
-5.41245
-5.50132
-5.58585
-5.66941
-5.74702
-5.81585
-5.87952
-5.94377
-6.01106
-6.0803
-6.14973
-6.21697
-4.87528
-5.46721
-5.56662
-5.44958
-5.40813
-5.45153
-5.51092
-5.56839
-5.63325
-5.70524
-5.77526
-5.83768
-5.89542
-5.95484
-6.0186
-6.08528
-6.15256
-6.21901
-1.88751
-3.65381
-4.66312
-4.97062
-5.13529
-5.29523
-5.42053
-5.51466
-5.6021
-5.6894
-5.76988
-5.83917
-5.90117
-5.96334
-6.02923
-6.09758
-6.16503
-6.22684
-7.42343
-7.38543
-7.38938
-7.44342
-7.50673
-7.56342
-7.61344
-7.65726
-7.69265
-7.71956
-7.7408
-7.75822
-7.77067
-7.77918
-7.78966
-7.80319
-7.81859
-7.83381
-7.85332
-7.87847
-7.90807
-7.94281
-7.98535
-8.03997
-8.11257
-8.20845
-8.33111
-8.48259
-8.66237
-8.86942
-9.09989
-9.35091
-9.61676
-9.8944
-10.1781
-10.4662
-10.7534
-11.0395
-11.3202
-11.5963
-11.8641
-12.1251
-12.3758
-12.6181
-12.8486
-13.0697
-13.2777
-13.4748
-13.6577
-13.8288
-13.9847
-14.128
-14.2545
-14.3666
-14.46
-14.5371
-14.593
-14.6293
-14.6409
-14.6292
-14.588
-14.5174
-14.4117
-14.2712
-14.0908
-13.8707
-13.6073
-13.3016
-12.9504
-12.5548
-12.1131
-11.6267
-11.0955
-10.5215
-9.90517
-9.24876
-8.55533
-7.82817
-7.07206
-6.2903
-5.48906
-4.67194
-3.84592
-3.01356
-2.18235
-1.35448
-0.537546
0.265958
1.05013
1.81255
2.55249
3.26734
3.95508
4.61408
5.24373
5.84344
6.41335
6.95356
7.46477
7.94758
8.40322
8.83271
9.23733
9.61811
9.97616
10.3128
10.6292
10.9268
11.2069
11.4709
11.7199
11.9549
12.177
12.3871
12.5861
12.7748
12.954
13.1246
13.287
13.4416
13.5884
13.7277
13.8598
13.9853
14.1048
14.2182
14.326
14.4288
14.5264
14.6198
14.7094
14.7942
14.8742
14.9505
15.024
15.0945
15.1606
15.2226
15.2823
15.34
15.3946
15.4462
15.4955
15.5425
15.5862
15.6276
15.6666
15.7045
15.7416
15.7761
15.808
15.8378
15.866
15.8949
15.924
15.9503
15.9758
16.0007
16.025
16.0489
16.0721
16.0949
16.1162
16.1398
16.1641
16.1843
16.204
16.2216
16.233
16.2429
16.2532
16.2557
16.2532
16.2491
16.2421
16.2439
16.2604
16.2917
16.3606
16.4575
-7.47968
-7.47656
-7.49626
-7.54016
-7.59454
-7.64745
-7.6935
-7.72959
-7.75479
-7.7677
-7.76861
-7.76151
-7.752
-7.74402
-7.73951
-7.73986
-7.74419
-7.75304
-7.76726
-7.786
-7.81003
-7.84029
-7.87953
-7.93409
-8.01187
-8.11854
-8.25675
-8.4267
-8.62587
-8.85087
-9.09655
-9.35872
-9.63201
-9.91302
-10.1972
-10.4827
-10.7659
-11.0461
-11.3209
-11.5903
-11.8523
-12.1076
-12.3541
-12.5928
-12.8216
-13.0414
-13.2502
-13.4487
-13.6348
-13.8094
-13.9703
-14.1181
-14.2503
-14.3672
-14.4664
-14.548
-14.6089
-14.649
-14.6651
-14.6565
-14.6194
-14.5529
-14.4534
-14.3202
-14.1502
-13.9425
-13.6944
-13.4046
-13.0707
-12.6925
-12.2687
-11.7998
-11.286
-10.7284
-10.1278
-9.48631
-8.80677
-8.09239
-7.34725
-6.57493
-5.78108
-4.96995
-4.14737
-3.31747
-2.48646
-1.65801
-0.837866
-0.0301116
0.759826
1.52984
2.27779
3.00139
3.69826
4.36689
5.0064
5.61608
6.19597
6.7461
7.26706
7.7594
8.22435
8.6628
9.07612
9.46508
9.83111
10.1752
10.4988
10.8032
11.0899
11.3599
11.6147
11.8553
12.0827
12.2977
12.5014
12.6943
12.877
13.05
13.2143
13.3704
13.519
13.6601
13.7944
13.922
14.0429
14.1583
14.2682
14.3729
14.4732
14.5686
14.659
14.7451
14.8274
14.906
14.9809
15.0517
15.1191
15.1836
15.2451
15.3039
15.36
15.4132
15.4632
15.5107
15.5561
15.5987
15.6404
15.6798
15.7154
15.7493
15.7825
15.8151
15.8467
15.8765
15.9052
15.9334
15.9592
15.9844
16.0091
16.034
16.0583
16.0821
16.1074
16.1315
16.1549
16.1786
16.1985
16.2154
16.2316
16.2429
16.2483
16.2521
16.2541
16.2549
16.2578
16.2614
16.2703
16.2921
16.3447
16.4135
-7.54398
-7.55632
-7.57815
-7.61289
-7.65553
-7.69678
-7.73091
-7.75537
-7.7691
-7.77181
-7.76441
-7.7494
-7.73063
-7.71196
-7.69674
-7.68667
-7.68284
-7.68688
-7.70262
-7.73239
-7.77756
-7.83841
-7.91579
-8.0117
-8.12875
-8.26874
-8.43192
-8.61737
-8.82261
-9.04508
-9.28121
-9.52848
-9.78333
-10.0437
-10.3065
-10.5705
-10.8331
-11.094
-11.3511
-11.6044
-11.8523
-12.095
-12.331
-12.5607
-12.7827
-12.997
-13.2024
-13.399
-13.5852
-13.7612
-13.9251
-14.077
-14.2148
-14.3382
-14.445
-14.5346
-14.6046
-14.6541
-14.6803
-14.6817
-14.6557
-14.6007
-14.5139
-14.3938
-14.2382
-14.0456
-13.8133
-13.5399
-13.2234
-12.8627
-12.4568
-12.0055
-11.5089
-10.9675
-10.3824
-9.75589
-9.09033
-8.38873
-7.65459
-6.89183
-6.10534
-5.29998
-4.481
-3.65333
-2.82237
-1.99278
-1.16966
-0.357915
0.437929
1.21456
1.97025
2.70216
3.4077
4.08558
4.73444
5.35373
5.94307
6.5027
7.03287
7.53434
8.0081
8.4551
8.87659
9.27333
9.64681
9.99794
10.3284
10.6393
10.9322
11.2081
11.4685
11.7143
11.9468
12.1666
12.3749
12.5723
12.7596
12.9373
13.1063
13.267
13.42
13.5653
13.7035
13.8346
13.9595
14.0784
14.1919
14.2997
14.4026
14.5004
14.5936
14.6826
14.7677
14.8485
14.9254
14.9986
15.0687
15.1354
15.1987
15.2589
15.3166
15.3713
15.4229
15.472
15.519
15.5632
15.6056
15.6456
15.6829
15.719
15.7543
15.7884
15.8205
15.8504
15.8794
15.9082
15.9352
15.9615
15.9874
16.0133
16.0389
16.0639
16.0896
16.1141
16.1376
16.1613
16.1821
16.2
16.2168
16.2294
16.2363
16.2414
16.2455
16.2484
16.2532
16.2588
16.2671
16.2832
16.3196
16.3503
-7.53454
-7.56577
-7.59271
-7.62068
-7.65271
-7.68355
-7.70842
-7.72501
-7.73247
-7.73088
-7.72153
-7.70663
-7.68936
-7.6731
-7.66148
-7.65753
-7.66416
-7.68413
-7.72058
-7.77556
-7.84962
-7.94186
-8.05122
-8.17699
-8.31895
-8.47705
-8.65073
-8.83936
-9.04134
-9.25542
-9.47934
-9.71171
-9.95013
-10.1934
-10.4391
-10.6866
-10.9337
-11.1802
-11.4242
-11.6658
-11.9034
-12.1371
-12.3654
-12.5887
-12.8055
-13.0159
-13.2186
-13.4136
-13.5993
-13.7759
-13.9417
-14.0963
-14.238
-14.3662
-14.4789
-14.5752
-14.6528
-14.7105
-14.7459
-14.7572
-14.7419
-14.6983
-14.6237
-14.5163
-14.3739
-14.1945
-13.9757
-13.7158
-13.4128
-13.0654
-12.6725
-12.2336
-11.7485
-11.2177
-10.6422
-10.0239
-9.36524
-8.66909
-7.93898
-7.17895
-6.39373
-5.58825
-4.76769
-3.9373
-3.10236
-2.268
-1.43925
-0.621019
0.181782
0.966494
1.73012
2.46992
3.18355
3.86928
4.52606
5.15301
5.7499
6.31672
6.8539
7.36213
7.84232
8.29548
8.72264
9.12494
9.50351
9.85972
10.1949
10.5106
10.8079
11.0883
11.3529
11.6028
11.8392
12.0628
12.2747
12.4757
12.6664
12.8475
13.0198
13.1837
13.3397
13.4879
13.6287
13.7627
13.8902
14.0117
14.1275
14.2377
14.3427
14.4427
14.5383
14.6295
14.7164
14.7991
14.8779
14.9531
15.0249
15.093
15.1578
15.2196
15.2786
15.3347
15.3878
15.4383
15.4864
15.5319
15.575
15.6159
15.6549
15.6925
15.7287
15.7631
15.7955
15.8263
15.8562
15.8856
15.9136
15.9409
15.9678
15.9943
16.0205
16.0459
16.0713
16.0959
16.1196
16.143
16.1642
16.1829
16.1997
16.2132
16.2218
16.2283
16.2336
16.2376
16.2426
16.2478
16.2544
16.2646
16.2857
16.2892
-7.40187
-7.45449
-7.49674
-7.52866
-7.55913
-7.58663
-7.60815
-7.62264
-7.63058
-7.63309
-7.63193
-7.62924
-7.62774
-7.6302
-7.63974
-7.65927
-7.69164
-7.7389
-7.8024
-7.88266
-7.97957
-8.09228
-8.21978
-8.3612
-8.51561
-8.68244
-8.86076
-9.04993
-9.24859
-9.45602
-9.67062
-9.8917
-10.1175
-10.3474
-10.5796
-10.8139
-11.0485
-11.2833
-11.5166
-11.7487
-11.9779
-12.2046
-12.4271
-12.6457
-12.859
-13.0671
-13.2686
-13.4635
-13.6502
-13.8287
-13.9973
-14.1557
-14.3021
-14.4358
-14.5549
-14.6584
-14.7442
-14.8108
-14.8558
-14.8776
-14.8735
-14.8415
-14.7791
-14.6841
-14.554
-14.3868
-14.1801
-13.9316
-13.6396
-13.3024
-12.9188
-12.4881
-12.0099
-11.4847
-10.9133
-10.2975
-9.6396
-8.94253
-8.2099
-7.44594
-6.65547
-5.84359
-5.01562
-4.17704
-3.3333
-2.48982
-1.65176
-0.824221
-0.0116275
0.782073
1.55488
2.30311
3.02463
3.71767
4.38124
5.01447
5.61712
6.18924
6.73127
7.24407
7.72833
8.1854
8.6159
9.02153
9.40303
9.7624
10.1005
10.4193
10.7195
11.003
11.2703
11.523
11.7618
11.988
12.2021
12.4053
12.5979
12.7812
12.9553
13.1211
13.2787
13.4287
13.5712
13.7069
13.836
13.9592
14.0765
14.1884
14.295
14.3968
14.4939
14.5866
14.6748
14.759
14.8393
14.9159
14.9888
15.0584
15.1245
15.1877
15.248
15.3052
15.3596
15.4112
15.4602
15.5067
15.5508
15.5927
15.6327
15.6711
15.7077
15.7426
15.7757
15.8075
15.8383
15.8683
15.8971
15.925
15.9524
15.9792
16.0055
16.031
16.0561
16.0806
16.1042
16.1271
16.1483
16.167
16.1836
16.1973
16.207
16.2143
16.22
16.2243
16.2286
16.2325
16.2365
16.2406
16.2483
16.2324
-7.17457
-7.25262
-7.31819
-7.36178
-7.39674
-7.42564
-7.44845
-7.46606
-7.48044
-7.49387
-7.5087
-7.52683
-7.55037
-7.5811
-7.62103
-7.67171
-7.7346
-7.81057
-7.90025
-8.00363
-8.12034
-8.24973
-8.39091
-8.54304
-8.70518
-8.87678
-9.05686
-9.24501
-9.44011
-9.64184
-9.84894
-10.0612
-10.2772
-10.4969
-10.7188
-10.9429
-11.1678
-11.3934
-11.6186
-11.8433
-12.0663
-12.2876
-12.506
-12.7216
-12.9329
-13.1402
-13.3419
-13.538
-13.727
-13.9087
-14.0815
-14.2449
-14.3972
-14.5377
-14.6643
-14.7762
-14.871
-14.9474
-15.003
-15.0359
-15.0435
-15.0236
-14.9737
-14.8912
-14.7736
-14.6185
-14.4233
-14.1857
-13.9036
-13.5751
-13.199
-12.7742
-12.3002
-11.7774
-11.2066
-10.5892
-9.92778
-9.22525
-8.48537
-7.71255
-6.91179
-6.08849
-5.24827
-4.39691
-3.54014
-2.68368
-1.8329
-0.992953
-0.168982
0.636287
1.41905
2.1766
2.90625
3.60659
4.27642
4.91516
5.5225
6.09865
6.64421
7.15994
7.64691
8.10607
8.53872
8.94599
9.32945
9.6905
10.0306
10.351
10.6531
10.9381
11.2071
11.4613
11.7017
11.9292
12.1448
12.3492
12.5432
12.7276
12.9029
13.0698
13.2286
13.3796
13.5233
13.6602
13.7906
13.9149
14.0335
14.1465
14.2544
14.3574
14.4557
14.5495
14.639
14.7244
14.8058
14.8835
14.9576
15.0283
15.0957
15.16
15.2214
15.2798
15.3352
15.3879
15.4379
15.4854
15.5305
15.5734
15.6143
15.6533
15.6906
15.7262
15.7602
15.7929
15.8244
15.855
15.8844
15.9129
15.9405
15.9675
15.9937
16.0192
16.044
16.0682
16.0915
16.1138
16.1344
16.1528
16.1689
16.1824
16.1925
16.2001
16.2056
16.2095
16.2127
16.2146
16.2155
16.2136
16.2101
16.179
-6.91627
-7.01328
-7.10159
-7.16064
-7.20528
-7.24035
-7.26919
-7.29503
-7.32101
-7.35
-7.38451
-7.42609
-7.47606
-7.53515
-7.6042
-7.68367
-7.77412
-7.87563
-7.98819
-8.11144
-8.24493
-8.38802
-8.53991
-8.70011
-8.86778
-9.04257
-9.22368
-9.41096
-9.60354
-9.80133
-10.0034
-10.2097
-10.4192
-10.6319
-10.8468
-11.064
-11.2823
-11.5018
-11.7214
-11.9413
-12.1602
-12.3783
-12.5944
-12.8086
-13.0195
-13.2274
-13.4306
-13.6292
-13.8217
-14.0078
-14.1859
-14.3555
-14.5148
-14.663
-14.7983
-14.9195
-15.0243
-15.1114
-15.1783
-15.2231
-15.2431
-15.236
-15.199
-15.1295
-15.0246
-14.8817
-14.6982
-14.4713
-14.1988
-13.8786
-13.509
-13.0889
-12.6177
-12.0953
-11.5226
-10.9011
-10.2331
-9.52186
-8.77123
-7.98587
-7.17105
-6.3325
-5.47626
-4.6085
-3.73534
-2.86279
-1.99655
-1.14211
-0.304154
0.513252
1.30744
2.07488
2.81305
3.52061
4.19653
4.84026
5.45171
6.03115
6.57948
7.09734
7.58619
8.0467
8.48074
8.88901
9.27362
9.63543
9.97648
10.2975
10.6005
10.886
11.1559
11.4107
11.6519
11.88
12.0964
12.3015
12.4963
12.6814
12.8576
13.0251
13.1847
13.3364
13.481
13.6187
13.7501
13.8754
13.995
14.109
14.2179
14.3219
14.4212
14.516
14.6065
14.6929
14.7754
14.854
14.9292
15.0009
15.0694
15.1348
15.1971
15.2565
15.3129
15.3666
15.4176
15.4662
15.5123
15.5562
15.598
15.6379
15.676
15.7125
15.7474
15.7809
15.8132
15.8444
15.8744
15.9032
15.9312
15.9583
15.9845
16.0098
16.0344
16.0581
16.0808
16.1023
16.1222
16.1399
16.1554
16.1683
16.1782
16.1855
16.1906
16.1936
16.1953
16.1949
16.1923
16.185
16.1722
16.1293
-6.68125
-6.79028
-6.89563
-6.96804
-7.02408
-7.06897
-7.10757
-7.14492
-7.18499
-7.23077
-7.28455
-7.34736
-7.41994
-7.50236
-7.59478
-7.69692
-7.80868
-7.92961
-8.05941
-8.19753
-8.34341
-8.4966
-8.65646
-8.82262
-8.99447
-9.1719
-9.3542
-9.54141
-9.73276
-9.92841
-10.1275
-10.3303
-10.5359
-10.7446
-10.9553
-11.1684
-11.3829
-11.5989
-11.8155
-12.033
-12.25
-12.4671
-12.6828
-12.8975
-13.1097
-13.3197
-13.5259
-13.7285
-13.9257
-14.1174
-14.3019
-14.4788
-14.6462
-14.8033
-14.9482
-15.0797
-15.1955
-15.2943
-15.3734
-15.4309
-15.464
-15.4704
-15.4469
-15.3908
-15.2992
-15.169
-14.9974
-14.7816
-14.5187
-14.2066
-13.8432
-13.4272
-12.9577
-12.4346
-11.8585
-11.2309
-10.5542
-9.83175
-9.06761
-8.26678
-7.43489
-6.57808
-5.70287
-4.81592
-3.92373
-3.03278
-2.14906
-1.27823
-0.425553
0.405631
1.21169
1.98936
2.73627
3.45108
4.13297
4.78154
5.39684
5.97945
6.53015
7.05011
7.54027
8.002
8.4365
8.84537
9.23006
9.59218
9.93313
10.2544
10.5572
10.8429
11.1126
11.3676
11.6088
11.8373
12.0538
12.2593
12.4544
12.64
12.8166
12.9846
13.1447
13.297
13.4423
13.5807
13.7128
13.8389
13.9593
14.0742
14.184
14.2889
14.3891
14.4848
14.5762
14.6636
14.747
14.8266
14.9027
14.9754
15.0448
15.1111
15.1743
15.2346
15.2919
15.3465
15.3986
15.4481
15.4953
15.5402
15.5831
15.624
15.6631
15.7005
15.7363
15.7707
15.8038
15.8356
15.8661
15.8955
15.9238
15.951
15.9773
16.0024
16.0266
16.0498
16.0718
16.0925
16.1114
16.1282
16.1427
16.1547
16.1639
16.1707
16.1749
16.1769
16.1768
16.1737
16.1677
16.1554
16.135
16.0832
-6.50861
-6.62036
-6.73373
-6.81451
-6.87968
-6.93417
-6.98319
-7.03219
-7.08541
-7.14574
-7.21517
-7.2944
-7.38378
-7.48299
-7.59179
-7.7095
-7.83566
-7.96964
-8.1109
-8.25889
-8.41314
-8.5732
-8.73854
-8.90899
-9.08396
-9.26347
-9.44692
-9.63449
-9.82553
-10.0203
-10.2181
-10.4193
-10.623
-10.8298
-11.0386
-11.25
-11.4629
-11.6778
-11.8936
-12.1107
-12.3281
-12.546
-12.7633
-12.9802
-13.1953
-13.409
-13.6197
-13.8274
-14.0307
-14.2292
-14.4213
-14.6066
-14.7831
-14.9501
-15.1056
-15.2483
-15.3761
-15.4874
-15.5796
-15.6506
-15.6976
-15.7181
-15.7088
-15.6669
-15.5891
-15.4722
-15.3131
-15.1086
-14.8557
-14.5518
-14.1947
-13.7825
-13.3143
-12.7896
-12.209
-11.574
-10.8869
-10.1512
-9.37142
-8.5528
-7.70148
-6.82411
-5.92771
-5.01947
-4.10644
-3.19547
-2.29295
-1.40483
-0.536166
0.308842
1.12729
1.91552
2.67129
3.3935
4.08141
4.73497
5.35421
5.94
6.4929
7.01448
7.50539
7.96763
8.40201
8.81082
9.19501
9.55682
9.89711
10.2179
10.5201
10.8054
11.0746
11.3294
11.5703
11.7986
12.015
12.2206
12.4158
12.6016
12.7783
12.9468
13.1071
13.26
13.4056
13.5448
13.6775
13.8043
13.9254
14.0411
14.1517
14.2575
14.3584
14.4551
14.5474
14.6356
14.7199
14.8005
14.8774
14.951
15.0213
15.0885
15.1526
15.2137
15.2719
15.3274
15.3804
15.4309
15.4791
15.525
15.569
15.6109
15.6511
15.6895
15.7263
15.7616
15.7954
15.8279
15.8591
15.889
15.9177
15.9452
15.9714
15.9965
16.0203
16.0429
16.0641
16.0838
16.1017
16.1174
16.1307
16.1416
16.1498
16.1556
16.1588
16.1594
16.1574
16.1516
16.1421
16.1252
16.0987
16.0404
-6.41038
-6.51353
-6.62603
-6.70805
-6.7768
-6.8376
-6.89506
-6.95398
-7.0179
-7.08922
-7.16964
-7.25979
-7.35987
-7.46945
-7.58809
-7.71501
-7.84964
-7.99122
-8.13924
-8.29311
-8.45234
-8.61661
-8.78544
-8.95868
-9.13583
-9.31697
-9.50155
-9.68981
-9.88118
-10.076
-10.2737
-10.4746
-10.6782
-10.8847
-11.0934
-11.3049
-11.5181
-11.7337
-11.9506
-12.1693
-12.3886
-12.6091
-12.8295
-13.0502
-13.2698
-13.4885
-13.7049
-13.9192
-14.1296
-14.336
-14.5368
-14.7314
-14.918
-15.0958
-15.2626
-15.4175
-15.5579
-15.6825
-15.7884
-15.8736
-15.9352
-15.9705
-15.9761
-15.9489
-15.8855
-15.7825
-15.6364
-15.4437
-15.2012
-14.9058
-14.555
-14.1466
-13.6794
-13.1526
-12.5668
-11.9232
-11.2244
-10.474
-9.67692
-8.83883
-7.96637
-7.0668
-6.14772
-5.21689
-4.28188
-3.35003
-2.42802
-1.52196
-0.63734
0.222249
1.05307
1.852
2.61686
3.34661
4.0407
4.69896
5.32186
5.91005
6.46472
6.98697
7.47832
7.94012
8.37418
8.78208
9.1656
9.5263
9.8658
10.1855
10.4869
10.7713
11.0399
11.2939
11.5344
11.7622
11.9784
12.1837
12.379
12.5648
12.7417
12.9102
13.0708
13.2241
13.3702
13.5098
13.6432
13.7706
13.8924
14.0089
14.1202
14.2268
14.3286
14.4261
14.5193
14.6084
14.6935
14.775
14.8529
14.9274
14.9986
15.0666
15.1315
15.1935
15.2526
15.309
15.3629
15.4143
15.4635
15.5105
15.5555
15.5986
15.6398
15.6792
15.717
15.7532
15.7878
15.8211
15.8529
15.8834
15.9125
15.9402
15.9666
15.9916
16.0151
16.0371
16.0575
16.0761
16.0928
16.1072
16.1192
16.1288
16.1358
16.1404
16.1423
16.1415
16.1374
16.1291
16.1162
16.0949
16.0637
16.0004
-6.37995
-6.46758
-6.56387
-6.64148
-6.70905
-6.77224
-6.83475
-6.89999
-6.9708
-7.04904
-7.13597
-7.23213
-7.33771
-7.45232
-7.57558
-7.70672
-7.84519
-7.99027
-8.14138
-8.29801
-8.45969
-8.62607
-8.7967
-8.97154
-9.15009
-9.33245
-9.5181
-9.70733
-9.89959
-10.0953
-10.2938
-10.4956
-10.7001
-10.9077
-11.1178
-11.3308
-11.5459
-11.7636
-11.9831
-12.2048
-12.4276
-12.6521
-12.877
-13.1027
-13.3279
-13.5529
-13.7762
-13.9979
-14.2165
-14.4318
-14.642
-14.8467
-15.0441
-15.2333
-15.4123
-15.5798
-15.7335
-15.8718
-15.992
-16.092
-16.1685
-16.219
-16.2399
-16.228
-16.1794
-16.0906
-15.9578
-15.7773
-15.5454
-15.2587
-14.9142
-14.5096
-14.043
-13.5136
-12.9218
-12.2688
-11.5573
-10.7912
-9.9757
-9.11703
-8.22245
-7.29982
-6.35737
-5.40343
-4.44608
-3.49311
-2.5515
-1.62756
-0.726625
0.147143
0.990509
1.79992
2.57341
3.31001
4.00948
4.67165
5.29739
5.8872
6.44284
6.96509
7.45615
7.91703
8.35022
8.7568
9.13922
9.49848
9.83684
10.1552
10.4556
10.7388
11.0066
11.2597
11.4996
11.7268
11.9427
12.1477
12.3428
12.5285
12.7055
12.8741
13.035
13.1885
13.3352
13.4752
13.6092
13.7371
13.8597
13.9768
14.089
14.1963
14.2991
14.3973
14.4914
14.5814
14.6675
14.7498
14.8287
14.9041
14.9762
15.045
15.1108
15.1737
15.2337
15.291
15.3458
15.3982
15.4484
15.4965
15.5425
15.5867
15.6289
15.6694
15.7081
15.7452
15.7807
15.8147
15.8472
15.8782
15.9078
15.9358
15.9624
15.9873
16.0105
16.032
16.0516
16.069
16.0844
16.0973
16.108
16.1162
16.1219
16.1251
16.1256
16.1233
16.1172
16.1064
16.0904
16.0652
16.03
15.9628
-6.38
-6.46224
-6.54261
-6.61091
-6.67307
-6.73375
-6.79595
-6.86224
-6.93468
-7.01472
-7.10339
-7.20104
-7.30779
-7.42331
-7.54723
-7.67892
-7.81788
-7.9634
-8.115
-8.27215
-8.43434
-8.6013
-8.77257
-8.94807
-9.12735
-9.31057
-9.4972
-9.68756
-9.88112
-10.0783
-10.2784
-10.482
-10.6885
-10.8983
-11.1109
-11.3266
-11.5448
-11.7659
-11.9892
-12.215
-12.4425
-12.672
-12.9025
-13.1343
-13.3662
-13.5983
-13.8293
-14.0594
-14.2868
-14.5115
-14.7319
-14.9473
-15.156
-15.357
-15.5485
-15.7289
-15.8962
-16.0485
-16.1831
-16.2979
-16.3895
-16.4553
-16.4915
-16.4947
-16.4609
-16.3863
-16.2668
-16.0984
-15.8769
-15.5986
-15.2602
-14.8587
-14.3923
-13.8599
-13.2614
-12.5984
-11.8737
-11.0913
-10.257
-9.37751
-8.4607
-7.51508
-6.54953
-5.57283
-4.59351
-3.61975
-2.65881
-1.71741
-0.801092
0.0861961
0.940841
1.75959
2.54041
3.28273
3.98625
4.65137
5.27865
5.86939
6.42481
6.94666
7.43647
7.89626
8.32778
8.73302
9.11368
9.47157
9.80828
10.1254
10.4244
10.7065
10.9732
11.2255
11.4646
11.6913
11.9067
12.1115
12.3064
12.4921
12.669
12.8378
12.9989
13.1528
13.2999
13.4404
13.5749
13.7036
13.8268
13.9447
14.0576
14.1658
14.2694
14.3685
14.4635
14.5543
14.6414
14.7247
14.8045
14.8808
14.9538
15.0236
15.0903
15.1541
15.215
15.2733
15.3291
15.3825
15.4337
15.4828
15.53
15.5752
15.6185
15.6599
15.6996
15.7376
15.7739
15.8087
15.8418
15.8734
15.9034
15.9317
15.9584
15.9833
16.0063
16.0272
16.0459
16.0622
16.0761
16.0877
16.0969
16.1037
16.1081
16.1099
16.1089
16.1048
16.0968
16.0838
16.0648
16.0364
15.9979
15.9277
-6.40085
-6.47342
-6.53866
-6.59592
-6.65047
-6.70575
-6.7642
-6.82779
-6.89802
-6.97598
-7.06254
-7.15803
-7.26259
-7.37592
-7.49774
-7.62745
-7.76462
-7.90862
-8.05894
-8.2151
-8.37664
-8.54323
-8.71443
-8.89015
-9.06992
-9.25388
-9.44151
-9.63313
-9.82821
-10.0271
-10.2294
-10.4354
-10.6445
-10.8574
-11.0733
-11.2927
-11.515
-11.7405
-11.9685
-12.1996
-12.4326
-12.6681
-12.905
-13.1437
-13.3828
-13.6227
-13.862
-14.1008
-14.3375
-14.5721
-14.8027
-15.029
-15.249
-15.462
-15.6657
-15.8591
-16.0397
-16.2057
-16.3544
-16.4836
-16.5899
-16.6704
-16.7213
-16.7391
-16.7196
-16.6586
-16.5518
-16.3948
-16.1832
-15.9129
-15.58
-15.1814
-14.7147
-14.1788
-13.5737
-12.9007
-12.1628
-11.3646
-10.512
-9.61232
-8.67387
-7.70581
-6.71763
-5.7188
-4.71834
-3.7247
-2.74586
-1.78836
-0.858228
0.0406414
0.904768
1.73099
2.51737
3.2637
3.96974
4.63635
5.26397
5.85448
6.40881
6.92943
7.41744
7.87559
8.30511
8.70865
9.08736
9.44367
9.77864
10.0944
10.392
10.6731
10.9387
11.1903
11.4285
11.6548
11.8698
12.0744
12.2691
12.4548
12.6317
12.8008
12.9621
13.1164
13.2639
13.4051
13.5401
13.6695
13.7934
13.9121
14.0258
14.1349
14.2393
14.3394
14.4352
14.5271
14.6151
14.6994
14.7802
14.8574
14.9314
15.0021
15.0698
15.1346
15.1965
15.2558
15.3126
15.367
15.4193
15.4695
15.5177
15.5639
15.6082
15.6507
15.6913
15.7302
15.7673
15.8028
15.8365
15.8687
15.8991
15.9277
15.9545
15.9793
16.002
16.0223
16.0401
16.0552
16.0678
16.0779
16.0856
16.0911
16.0942
16.0948
16.0924
16.0867
16.0768
16.0615
16.0397
16.0083
15.9671
15.8948
-6.42815
-6.48551
-6.53358
-6.57831
-6.62382
-6.672
-6.72455
-6.78311
-6.84887
-6.92258
-7.00492
-7.09617
-7.1965
-7.30571
-7.42363
-7.54973
-7.68368
-7.82484
-7.9728
-8.12705
-8.28715
-8.4528
-8.62356
-8.79927
-8.97947
-9.16428
-9.35315
-9.54634
-9.74332
-9.94449
-10.1492
-10.3581
-10.5705
-10.7869
-11.0067
-11.2303
-11.4572
-11.6877
-11.9211
-12.1579
-12.3971
-12.6391
-12.8829
-13.1289
-13.3758
-13.6239
-13.8718
-14.1197
-14.3659
-14.6104
-14.8514
-15.0886
-15.3199
-15.5447
-15.7607
-15.9667
-16.1602
-16.3396
-16.5019
-16.6449
-16.7652
-16.8598
-16.9248
-16.9565
-16.9504
-16.9023
-16.8075
-16.6614
-16.4591
-16.1961
-15.8682
-15.472
-15.0048
-14.4652
-13.8531
-13.17
-12.4191
-11.605
-10.7342
-9.81446
-8.85487
-7.865
-6.85523
-5.83548
-4.8153
-3.80388
-2.80918
-1.83805
-0.89687
0.0111877
0.882195
1.71332
2.50311
3.25125
3.95817
4.62441
5.2513
5.84011
6.39279
6.91104
7.39707
7.85278
8.28035
8.68165
9.05863
9.41302
9.74657
10.0608
10.3573
10.6373
10.9021
11.1528
11.3907
11.6165
11.8313
12.0357
12.2304
12.4161
12.5933
12.7625
12.9243
13.079
13.227
13.3688
13.5045
13.6347
13.7593
13.8789
13.9935
14.1034
14.2088
14.3098
14.4066
14.4995
14.5885
14.6738
14.7556
14.8339
14.9088
14.9806
15.0493
15.1151
15.178
15.2384
15.2963
15.3518
15.4052
15.4564
15.5056
15.5528
15.5981
15.6415
15.6831
15.7228
15.7608
15.7969
15.8313
15.8639
15.8947
15.9236
15.9504
15.9751
15.9974
16.017
16.0338
16.0478
16.059
16.0678
16.0742
16.0784
16.0803
16.0797
16.0761
16.069
16.0574
16.04
16.0155
15.9811
15.9375
15.864
-6.44355
-6.48396
-6.51452
-6.54636
-6.58202
-6.62195
-6.66732
-6.71936
-6.77903
-6.84697
-6.92369
-7.00938
-7.10431
-7.20833
-7.32135
-7.44292
-7.57281
-7.71046
-7.85552
-8.00749
-8.16594
-8.33052
-8.50078
-8.67659
-8.85739
-9.04325
-9.23366
-9.4288
-9.62812
-9.83202
-10.0399
-10.2522
-10.4684
-10.6889
-10.9131
-11.1415
-11.3735
-11.6095
-11.8488
-12.0917
-12.3374
-12.5864
-12.8375
-13.0911
-13.3461
-13.6027
-13.8595
-14.1166
-14.3725
-14.6271
-14.8786
-15.1266
-15.3691
-15.6054
-15.8333
-16.0514
-16.2576
-16.4496
-16.625
-16.781
-16.9146
-17.0224
-17.1006
-17.145
-17.1514
-17.1151
-17.0312
-16.8945
-16.7003
-16.4432
-16.119
-15.7237
-15.2546
-14.7099
-14.0897
-13.3955
-12.6305
-11.8003
-10.9113
-9.97234
-8.99259
-7.98284
-6.95361
-5.91558
-4.87888
-3.85312
-2.84565
-1.86536
-0.915817
-0.00270443
0.871959
1.70487
2.49522
3.24277
3.94841
4.61259
5.23724
5.82329
6.37336
6.88872
7.37225
7.82534
8.25079
8.64988
9.02516
9.37781
9.7101
10.0231
10.3187
10.5978
10.8621
11.1123
11.35
11.5756
11.7903
11.9947
12.1896
12.3754
12.553
12.7226
12.8849
13.0401
13.1889
13.3313
13.4679
13.5987
13.7244
13.8448
13.9604
14.0712
14.1776
14.2796
14.3775
14.4714
14.5615
14.6479
14.7307
14.81
14.886
14.9589
15.0287
15.0955
15.1596
15.2211
15.2801
15.3367
15.3911
15.4434
15.4936
15.5418
15.5881
15.6324
15.6748
15.7154
15.7541
15.7909
15.8259
15.859
15.8901
15.9191
15.9459
15.9703
15.992
16.0109
16.0268
16.0396
16.0497
16.0572
16.0625
16.0655
16.0663
16.0647
16.0601
16.0519
16.0389
16.0198
15.9929
15.9556
15.9094
15.8347
-6.43684
-6.45972
-6.47487
-6.49463
-6.51998
-6.55071
-6.5877
-6.63193
-6.6841
-6.74473
-6.81444
-6.89347
-6.98212
-7.08027
-7.18798
-7.30479
-7.43054
-7.56469
-7.70692
-7.85672
-8.01365
-8.17736
-8.34735
-8.52348
-8.70512
-8.89243
-9.08474
-9.28233
-9.48446
-9.69169
-9.90319
-10.1196
-10.3401
-10.5653
-10.7945
-11.0283
-11.2658
-11.5078
-11.7532
-12.0027
-12.2552
-12.5114
-12.7698
-13.0314
-13.2944
-13.5595
-13.825
-14.0914
-14.3567
-14.6213
-14.8828
-15.1414
-15.3946
-15.6421
-15.8811
-16.1109
-16.3284
-16.5326
-16.7196
-16.8878
-17.0331
-17.1529
-17.2425
-17.2984
-17.3153
-17.289
-17.2138
-17.0847
-16.896
-16.6427
-16.3197
-15.9233
-15.4499
-14.8984
-14.2686
-13.5622
-12.7833
-11.9371
-11.0313
-10.0746
-9.07729
-8.05082
-7.00558
-5.95369
-4.90479
-3.86889
-2.85458
-1.8681
-0.91629
-0.0016503
0.872333
1.7035
2.49108
3.23553
3.93737
4.59793
5.21847
5.80102
6.34728
6.85958
7.33993
7.79063
8.2136
8.61093
8.98439
9.33585
9.66691
9.97918
10.2741
10.5529
10.8169
11.0671
11.3047
11.5305
11.7455
11.9502
12.1454
12.3317
12.5098
12.68
12.8429
12.9989
13.1484
13.2917
13.4292
13.561
13.6876
13.809
13.9257
14.0376
14.145
14.2482
14.3472
14.4422
14.5335
14.621
14.705
14.7855
14.8627
14.9366
15.0076
15.0756
15.1409
15.2035
15.2636
15.3214
15.3769
15.4302
15.4814
15.5306
15.5778
15.6231
15.6663
15.7077
15.7471
15.7846
15.8201
15.8535
15.8849
15.9139
15.9406
15.9646
15.9857
16.0038
16.0187
16.0305
16.0396
16.0461
16.0503
16.0524
16.0524
16.0499
16.0445
16.0353
16.0212
16.0007
15.9721
15.9324
15.8834
15.8074
-6.40289
-6.40994
-6.41236
-6.42127
-6.43622
-6.45714
-6.48499
-6.52061
-6.56454
-6.61727
-6.67949
-6.75157
-6.83389
-6.92628
-7.02885
-7.14123
-7.26324
-7.39437
-7.53428
-7.68247
-7.83854
-8.002
-8.17235
-8.3494
-8.53254
-8.72172
-8.91638
-9.11667
-9.32195
-9.53258
-9.74791
-9.96835
-10.1933
-10.4232
-10.6573
-10.8964