/*--------------------------------*- C++ -*----------------------------------*\
  =========                 |
  \\      /  F ield         | OpenFOAM: The Open Source CFD Toolbox
   \\    /   O peration     | Website:  https://openfoam.org
    \\  /    A nd           | Version:  8
     \\/     M anipulation  |
\*---------------------------------------------------------------------------*/
FoamFile
{
    version     2.0;
    format      ascii;
    class       surfaceScalarField;
    location    "55";
    object      phi;
}
// * * * * * * * * * * * * * * * * * * * * * * * * * * * * * * * * * * * * * //

dimensions      [0 3 -1 0 0 0 0];

internalField   nonuniform List<scalar> 
24170
(
3.12876e-06
5.96421e-08
3.0462e-06
8.25653e-08
2.97259e-06
7.36086e-08
2.90322e-06
6.93527e-08
2.83793e-06
6.53013e-08
2.77941e-06
5.85179e-08
2.72868e-06
5.07209e-08
2.68504e-06
4.36247e-08
2.64736e-06
3.76875e-08
2.61454e-06
3.28139e-08
2.58555e-06
2.89917e-08
2.55937e-06
2.61608e-08
2.53517e-06
2.42047e-08
2.51196e-06
2.31952e-08
2.48887e-06
2.30865e-08
2.46332e-06
2.55288e-08
2.4341e-06
2.9192e-08
5.25263e-08
2.38154e-06
3.45311e-06
2.37859e-08
3.45688e-06
7.87972e-08
3.45019e-06
8.03094e-08
3.43836e-06
8.11869e-08
3.42308e-06
8.05896e-08
3.40517e-06
7.64359e-08
3.38508e-06
7.08077e-08
3.36346e-06
6.52567e-08
3.34098e-06
6.0174e-08
3.31821e-06
5.55913e-08
3.29558e-06
5.16253e-08
3.2733e-06
4.8445e-08
3.25148e-06
4.60263e-08
3.23005e-06
4.46333e-08
3.20903e-06
4.41103e-08
3.18797e-06
4.65789e-08
3.16749e-06
4.96515e-08
6.72176e-08
3.15278e-06
3.66821e-06
1.80948e-08
3.67895e-06
6.80507e-08
3.68487e-06
7.43845e-08
3.68847e-06
7.75724e-08
3.68951e-06
7.95566e-08
3.68784e-06
7.81041e-08
3.68381e-06
7.48244e-08
3.67788e-06
7.11791e-08
3.67042e-06
6.76358e-08
3.6617e-06
6.42965e-08
3.65198e-06
6.13516e-08
3.6414e-06
5.90157e-08
3.63007e-06
5.73508e-08
3.61804e-06
5.66556e-08
3.60521e-06
5.69381e-08
3.59198e-06
5.97967e-08
3.57751e-06
6.41112e-08
7.60952e-08
3.56863e-06
3.9258e-06
1.76854e-08
3.93562e-06
5.82398e-08
3.94191e-06
6.80975e-08
3.94695e-06
7.25368e-08
3.95074e-06
7.57764e-08
3.9529e-06
7.59508e-08
3.95359e-06
7.41338e-08
3.95306e-06
7.17162e-08
3.95147e-06
6.92286e-08
3.94893e-06
6.68388e-08
3.94554e-06
6.47499e-08
3.94135e-06
6.3206e-08
3.93639e-06
6.23112e-08
3.9307e-06
6.23457e-08
3.92421e-06
6.34324e-08
3.91741e-06
6.65915e-08
3.91002e-06
7.14947e-08
8.03958e-08
3.90571e-06
4.20809e-06
1.67179e-08
4.21565e-06
5.06823e-08
4.22096e-06
6.27814e-08
4.22551e-06
6.79724e-08
4.22957e-06
7.1716e-08
4.23268e-06
7.28423e-08
4.2348e-06
7.20134e-08
4.23604e-06
7.04689e-08
4.23648e-06
6.87784e-08
4.23618e-06
6.71361e-08
4.23518e-06
6.57519e-08
4.23352e-06
6.48621e-08
4.23122e-06
6.46061e-08
4.22834e-06
6.5222e-08
4.2249e-06
6.68739e-08
4.22132e-06
7.0166e-08
4.21778e-06
7.50239e-08
8.18739e-08
4.21631e-06
4.51058e-06
1.52251e-08
4.51652e-06
4.47465e-08
4.52135e-06
5.79595e-08
4.52558e-06
6.37487e-08
4.52955e-06
6.77481e-08
4.53288e-06
6.95195e-08
4.53544e-06
6.94532e-08
4.5373e-06
6.86099e-08
4.53851e-06
6.75677e-08
4.5391e-06
6.65556e-08
4.53908e-06
6.57726e-08
4.5385e-06
6.54421e-08
4.53739e-06
6.5715e-08
4.53583e-06
6.6786e-08
4.5339e-06
6.88043e-08
4.53196e-06
7.21017e-08
4.53036e-06
7.66135e-08
8.21263e-08
4.53009e-06
4.8342e-06
1.37448e-08
4.83925e-06
3.96929e-08
4.84392e-06
5.32809e-08
4.84801e-06
5.96541e-08
4.85186e-06
6.38993e-08
4.85521e-06
6.61702e-08
4.85792e-06
6.67373e-08
4.86003e-06
6.64946e-08
4.86158e-06
6.60167e-08
4.86258e-06
6.55549e-08
4.86305e-06
6.52997e-08
4.86304e-06
6.54533e-08
4.86258e-06
6.61646e-08
4.86178e-06
6.7586e-08
4.86075e-06
6.98293e-08
4.8598e-06
7.30499e-08
4.85925e-06
7.71541e-08
8.1797e-08
4.8596e-06
5.18092e-06
1.24053e-08
5.18536e-06
3.52629e-08
5.1899e-06
4.87466e-08
5.19391e-06
5.56419e-08
5.19768e-06
6.0141e-08
5.20103e-06
6.28215e-08
5.20383e-06
6.39418e-08
5.20608e-06
6.42421e-08
5.20782e-06
6.42744e-08
5.20908e-06
6.43024e-08
5.20986e-06
6.45151e-08
5.21023e-06
6.50893e-08
5.21023e-06
6.61635e-08
5.20997e-06
6.78471e-08
5.20959e-06
7.02138e-08
5.20932e-06
7.33103e-08
5.20945e-06
7.70387e-08
8.09873e-08
5.21025e-06
5.55257e-06
1.11744e-08
5.55648e-06
3.13453e-08
5.56082e-06
4.44079e-08
5.56478e-06
5.1682e-08
5.56849e-06
5.64222e-08
5.57187e-06
5.94466e-08
5.57476e-06
6.10535e-08
5.57714e-06
6.18583e-08
5.57905e-06
6.23625e-08
5.58052e-06
6.28357e-08
5.58157e-06
6.34631e-08
5.58225e-06
6.44037e-08
5.58264e-06
6.57755e-08
5.58284e-06
6.76527e-08
5.58298e-06
7.00727e-08
5.58326e-06
7.30256e-08
5.5839e-06
7.63944e-08
7.98315e-08
5.58509e-06
5.95092e-06
1.00335e-08
5.95438e-06
2.7891e-08
5.95848e-06
4.03171e-08
5.96237e-06
4.77963e-08
5.96607e-06
5.2733e-08
5.96948e-06
5.60411e-08
5.97246e-06
5.80732e-08
5.97499e-06
5.93431e-08
5.97707e-06
6.02801e-08
5.97876e-06
6.11523e-08
5.98008e-06
6.21422e-08
5.98109e-06
6.33994e-08
5.98185e-06
6.50113e-08
5.98248e-06
6.70271e-08
5.9831e-06
6.94517e-08
5.98387e-06
7.22466e-08
5.98496e-06
7.53119e-08
7.83256e-08
5.98647e-06
6.37786e-06
8.98166e-09
6.38094e-06
2.48149e-08
6.3848e-06
3.64613e-08
6.38862e-06
4.39755e-08
6.3923e-06
4.90527e-08
6.39576e-06
5.25869e-08
6.39886e-06
5.4981e-08
6.40154e-06
5.66643e-08
6.40382e-06
5.79954e-08
6.40576e-06
5.92199e-08
6.40737e-06
6.05273e-08
6.40872e-06
6.20433e-08
6.40988e-06
6.38512e-08
6.41095e-06
6.59548e-08
6.41204e-06
6.83554e-08
6.41329e-06
7.09949e-08
6.41481e-06
7.37827e-08
7.64839e-08
6.41667e-06
5.74166e-06
8.15535e-09
5.744e-06
2.24749e-08
5.74708e-06
3.33856e-08
5.75026e-06
4.07999e-08
5.75337e-06
4.59486e-08
5.75633e-06
4.96318e-08
5.75904e-06
5.22742e-08
5.76145e-06
5.42536e-08
5.76356e-06
5.58791e-08
5.76541e-06
5.7374e-08
5.76702e-06
5.89053e-08
5.76845e-06
6.0618e-08
5.76976e-06
6.25325e-08
5.77102e-06
6.46942e-08
5.77232e-06
6.70466e-08
5.77375e-06
6.9565e-08
5.77538e-06
7.21566e-08
7.4623e-08
5.77725e-06
6.99903e-06
7.28357e-09
7.0015e-06
2.00052e-08
7.00484e-06
3.00456e-08
7.00841e-06
3.72357e-08
7.01197e-06
4.23862e-08
7.01542e-06
4.6182e-08
7.01865e-06
4.90441e-08
7.0216e-06
5.13101e-08
7.02425e-06
5.32245e-08
7.02663e-06
5.49753e-08
7.02881e-06
5.67425e-08
7.0308e-06
5.86085e-08
7.0327e-06
6.06445e-08
7.03457e-06
6.28179e-08
7.0365e-06
6.51252e-08
7.03857e-06
6.7496e-08
7.04085e-06
6.98869e-08
7.21177e-08
7.04337e-06
8.53176e-06
6.3705e-09
8.53435e-06
1.74137e-08
8.53793e-06
2.64611e-08
8.54191e-06
3.32544e-08
8.54599e-06
3.83165e-08
8.55001e-06
4.21552e-08
8.55387e-06
4.51877e-08
8.55748e-06
4.76931e-08
8.56083e-06
4.98698e-08
8.56394e-06
5.18648e-08
8.56686e-06
5.3821e-08
8.56965e-06
5.58335e-08
8.57236e-06
5.79381e-08
8.57507e-06
6.01173e-08
8.57785e-06
6.23422e-08
8.58079e-06
6.45658e-08
8.58394e-06
6.67448e-08
6.87441e-08
8.58734e-06
1.04002e-05
5.42092e-09
1.04029e-05
1.47095e-08
1.04067e-05
2.26155e-08
1.04111e-05
2.88242e-08
1.04158e-05
3.36483e-08
1.04205e-05
3.74534e-08
1.04252e-05
4.0555e-08
1.04296e-05
4.32278e-08
1.04339e-05
4.56011e-08
1.0438e-05
4.77945e-08
1.04419e-05
4.98934e-08
1.04458e-05
5.20056e-08
1.04496e-05
5.41297e-08
1.04534e-05
5.62839e-08
1.04573e-05
5.84015e-08
1.04614e-05
6.04708e-08
1.04657e-05
6.24373e-08
6.42135e-08
1.04703e-05
1.26778e-05
4.41832e-09
1.26806e-05
1.18525e-08
1.26848e-05
1.8464e-08
1.26898e-05
2.38617e-08
1.26952e-05
2.82616e-08
1.27007e-05
3.1879e-08
1.27064e-05
3.49402e-08
1.27119e-05
3.76471e-08
1.27174e-05
4.01289e-08
1.27228e-05
4.24288e-08
1.27281e-05
4.46215e-08
1.27333e-05
4.67498e-08
1.27386e-05
4.88656e-08
1.2744e-05
5.09337e-08
1.27494e-05
5.29427e-08
1.2755e-05
5.48358e-08
1.27609e-05
5.66129e-08
5.81664e-08
1.27669e-05
1.54543e-05
3.32999e-09
1.54574e-05
8.75609e-09
1.5462e-05
1.38392e-08
1.54677e-05
1.81882e-08
1.5474e-05
2.19131e-08
1.54808e-05
2.5146e-08
1.54877e-05
2.79968e-08
1.54948e-05
3.05966e-08
1.55019e-05
3.30386e-08
1.5509e-05
3.53458e-08
1.55161e-05
3.75352e-08
1.55232e-05
3.96353e-08
1.55304e-05
4.1671e-08
1.55377e-05
4.36339e-08
1.55451e-05
4.54986e-08
1.55527e-05
4.72295e-08
1.55605e-05
4.88157e-08
5.01923e-08
1.55685e-05
1.88389e-05
2.08412e-09
1.88424e-05
5.20422e-09
1.88479e-05
8.43472e-09
1.88546e-05
1.14204e-08
1.88624e-05
1.4182e-08
1.88708e-05
1.67711e-08
1.88795e-05
1.9212e-08
1.88886e-05
2.15355e-08
1.88979e-05
2.37842e-08
1.89073e-05
2.59612e-08
1.89167e-05
2.80586e-08
1.89263e-05
3.00694e-08
1.8936e-05
3.19959e-08
1.89458e-05
3.38265e-08
1.89557e-05
3.55438e-08
1.89658e-05
3.71261e-08
1.89761e-05
3.8561e-08
3.98062e-08
1.89865e-05
2.29649e-05
5.02018e-10
2.29693e-05
7.98682e-10
2.29761e-05
1.6553e-09
2.29847e-05
2.84029e-09
2.29946e-05
4.29011e-09
2.30054e-05
5.94986e-09
2.30169e-05
7.75631e-09
2.30288e-05
9.63986e-09
2.3041e-05
1.15592e-08
2.30535e-05
1.34955e-08
2.30661e-05
1.54284e-08
2.30789e-05
1.7315e-08
2.30917e-05
1.9124e-08
2.31047e-05
2.08274e-08
2.31178e-05
2.24169e-08
2.31311e-05
2.38815e-08
2.31444e-05
2.52152e-08
2.63931e-08
2.31578e-05
1.6812e-05
-8.00406e-10
1.68156e-05
-2.7768e-09
1.68211e-05
-3.85472e-09
1.6828e-05
-4.10841e-09
1.6836e-05
-3.65775e-09
1.68446e-05
-2.68516e-09
1.68537e-05
-1.34974e-09
1.68632e-05
2.2533e-10
1.68728e-05
1.91772e-09
1.68826e-05
3.7034e-09
1.68925e-05
5.51927e-09
1.69025e-05
7.34224e-09
1.69125e-05
9.08695e-09
1.69226e-05
1.07513e-08
1.69327e-05
1.22928e-08
1.69429e-05
1.37372e-08
1.6953e-05
1.50532e-08
1.62491e-08
1.69632e-05
1.46358e-05
-2.06982e-09
1.46394e-05
-6.31031e-09
1.46448e-05
-9.31271e-09
1.46516e-05
-1.08803e-08
1.46592e-05
-1.12624e-08
1.46674e-05
-1.08619e-08
1.46759e-05
-9.90202e-09
1.46847e-05
-8.56649e-09
1.46937e-05
-7.00406e-09
1.47027e-05
-5.31175e-09
1.47117e-05
-3.53294e-09
1.47208e-05
-1.75051e-09
1.47299e-05
-1.24891e-11
1.4739e-05
1.63033e-09
1.47481e-05
3.18251e-09
1.47572e-05
4.62747e-09
1.47663e-05
5.97266e-09
7.19279e-09
1.47754e-05
1.27413e-05
-3.26675e-09
1.27449e-05
-9.8849e-09
1.27505e-05
-1.48886e-08
1.27572e-05
-1.75535e-08
1.27644e-05
-1.85442e-08
1.27722e-05
-1.85895e-08
1.27802e-05
-1.79138e-08
1.27883e-05
-1.6716e-08
1.27965e-05
-1.52102e-08
1.28048e-05
-1.35255e-08
1.2813e-05
-1.17414e-08
1.28211e-05
-9.94152e-09
1.28293e-05
-8.18751e-09
1.28375e-05
-6.51961e-09
1.28456e-05
-4.93778e-09
1.28537e-05
-3.45266e-09
1.28617e-05
-2.06327e-09
-7.88373e-10
1.28697e-05
1.10919e-05
-4.28689e-09
1.10956e-05
-1.35287e-08
1.11014e-05
-2.07217e-08
1.1108e-05
-2.41696e-08
1.1115e-05
-2.55282e-08
1.11223e-05
-2.58768e-08
1.11298e-05
-2.53557e-08
1.11372e-05
-2.41875e-08
1.11447e-05
-2.26656e-08
1.11521e-05
-2.09457e-08
1.11595e-05
-1.91182e-08
1.11668e-05
-1.72686e-08
1.11741e-05
-1.54729e-08
1.11813e-05
-1.37542e-08
1.11885e-05
-1.21272e-08
1.11956e-05
-1.05829e-08
1.12027e-05
-9.13694e-09
-7.79553e-09
1.12097e-05
9.65598e-06
-5.05475e-09
9.65981e-06
-1.73557e-08
9.6658e-06
-2.67082e-08
9.67219e-06
-3.0568e-08
9.6789e-06
-3.22334e-08
9.68583e-06
-3.28067e-08
9.69274e-06
-3.22676e-08
9.69955e-06
-3.10015e-08
9.70628e-06
-2.93943e-08
9.71293e-06
-2.75983e-08
9.71951e-06
-2.56924e-08
9.72601e-06
-2.37695e-08
9.73245e-06
-2.19048e-08
9.73881e-06
-2.01234e-08
9.74511e-06
-1.84299e-08
9.75135e-06
-1.68207e-08
9.75751e-06
-1.5303e-08
-1.38848e-08
9.76359e-06
8.40544e-06
-5.14542e-09
8.41016e-06
-2.20742e-08
8.41599e-06
-3.25421e-08
8.42182e-06
-3.6398e-08
8.42819e-06
-3.86067e-08
8.43482e-06
-3.94257e-08
8.44131e-06
-3.87644e-08
8.44762e-06
-3.73058e-08
8.45376e-06
-3.55372e-08
8.45975e-06
-3.35917e-08
8.4656e-06
-3.15391e-08
8.47131e-06
-2.94785e-08
8.4769e-06
-2.74905e-08
8.48238e-06
-2.56028e-08
8.48776e-06
-2.38106e-08
8.49304e-06
-2.21102e-08
8.49824e-06
-2.04992e-08
-1.89955e-08
8.50335e-06
7.31463e-06
-2.4875e-09
7.32164e-06
-2.90887e-08
7.32774e-06
-3.86454e-08
7.33342e-06
-4.20756e-08
7.3397e-06
-4.48896e-08
7.34608e-06
-4.58018e-08
7.35217e-06
-4.48569e-08
7.35796e-06
-4.30988e-08
7.36348e-06
-4.10584e-08
7.36873e-06
-3.88406e-08
7.37372e-06
-3.65265e-08
7.37846e-06
-3.4221e-08
7.38299e-06
-3.20206e-08
7.38734e-06
-2.9946e-08
7.39152e-06
-2.7993e-08
7.39556e-06
-2.61474e-08
7.39947e-06
-2.44145e-08
-2.27956e-08
7.40328e-06
6.36257e-06
5.00901e-09
6.37229e-06
-3.88055e-08
6.38016e-06
-4.65153e-08
6.38742e-06
-4.93354e-08
6.39448e-06
-5.19533e-08
6.40071e-06
-5.20306e-08
6.40605e-06
-5.01985e-08
6.4107e-06
-4.77569e-08
6.41481e-06
-4.5169e-08
6.41844e-06
-4.24703e-08
6.42165e-06
-3.97262e-08
6.42448e-06
-3.70591e-08
6.42701e-06
-3.45429e-08
6.42927e-06
-3.22067e-08
6.43131e-06
-3.00374e-08
6.43318e-06
-2.80159e-08
6.43492e-06
-2.61509e-08
-2.44066e-08
6.43654e-06
5.54139e-06
9.08405e-09
5.55064e-06
-4.80597e-08
5.55899e-06
-5.48566e-08
5.56719e-06
-5.75313e-08
5.57426e-06
-5.90348e-08
5.57934e-06
-5.71089e-08
5.58246e-06
-5.33246e-08
5.58402e-06
-4.93148e-08
5.58437e-06
-4.55226e-08
5.5838e-06
-4.19016e-08
5.58255e-06
-3.84703e-08
5.58079e-06
-3.52977e-08
5.57866e-06
-3.2415e-08
5.57627e-06
-2.9818e-08
5.57371e-06
-2.74782e-08
5.57107e-06
-2.53772e-08
5.56844e-06
-2.35049e-08
-2.18048e-08
5.56584e-06
4.86017e-06
-2.34814e-08
4.86551e-06
-5.33979e-08
4.86559e-06
-5.49333e-08
4.86287e-06
-5.48101e-08
4.85815e-06
-5.43149e-08
4.85122e-06
-5.01897e-08
4.84224e-06
-4.43464e-08
4.83168e-06
-3.8756e-08
4.82005e-06
-3.38919e-08
4.80783e-06
-2.96846e-08
4.79542e-06
-2.60572e-08
4.78308e-06
-2.296e-08
4.771e-06
-2.0331e-08
4.75929e-06
-1.81072e-08
4.74803e-06
-1.622e-08
4.7373e-06
-1.46442e-08
4.7272e-06
-1.34027e-08
-1.30246e-08
4.71844e-06
4.17919e-06
4.1258e-06
4.07086e-06
4.01605e-06
3.96174e-06
3.91155e-06
3.8672e-06
3.82844e-06
3.79455e-06
3.76487e-06
3.73881e-06
3.71585e-06
3.69552e-06
3.67741e-06
3.66119e-06
3.64655e-06
3.63315e-06
3.62013e-06
8.43523e-08
-8.43601e-08
2.03322e-07
-1.19004e-07
3.26075e-07
-1.22702e-07
4.47735e-07
-1.21815e-07
5.55907e-07
-1.08108e-07
6.45315e-07
-8.96458e-08
7.13542e-07
-6.81505e-08
7.57883e-07
-4.45518e-08
7.76776e-07
-1.88173e-08
7.70722e-07
5.90928e-09
7.4476e-07
2.60327e-08
7.00928e-07
4.36926e-08
6.47203e-07
5.38075e-08
5.94442e-07
5.24484e-08
5.45418e-07
4.91234e-08
4.96698e-07
4.80858e-08
4.46373e-07
5.04144e-08
3.88694e-07
5.68221e-08
3.22862e-07
6.59328e-08
2.44369e-07
7.77681e-08
1.51422e-07
9.32212e-08
4.08618e-08
1.10452e-07
-9.01596e-08
1.3151e-07
-2.45368e-07
1.55532e-07
-4.21187e-07
1.76234e-07
-6.13298e-07
1.92391e-07
-8.17021e-07
2.04004e-07
-1.02835e-06
2.11423e-07
-1.24317e-06
2.15031e-07
-1.45851e-06
2.15279e-07
-1.67105e-06
2.12744e-07
-1.87912e-06
2.07927e-07
-2.08032e-06
2.01427e-07
-2.27429e-06
1.93794e-07
-2.4595e-06
1.85519e-07
-2.63661e-06
1.76942e-07
-2.80467e-06
1.68391e-07
-2.96487e-06
1.60035e-07
-3.11662e-06
1.52061e-07
-3.26131e-06
1.44511e-07
-3.39849e-06
1.37474e-07
-3.52959e-06
1.30914e-07
-3.65417e-06
1.24862e-07
-3.77359e-06
1.19238e-07
-3.88733e-06
1.14042e-07
-3.99665e-06
1.09172e-07
-4.10098e-06
1.04621e-07
-4.2014e-06
1.00278e-07
-4.29722e-06
9.61244e-08
-4.38945e-06
9.20486e-08
-4.47725e-06
8.80506e-08
-4.56151e-06
8.40145e-08
-4.64126e-06
7.99463e-08
-4.71725e-06
7.57471e-08
-4.78841e-06
7.14245e-08
-4.85552e-06
6.68496e-08
-4.91733e-06
6.20446e-08
-4.9745e-06
5.68918e-08
-5.02562e-06
5.14191e-08
-5.07137e-06
4.54625e-08
-5.1102e-06
3.90894e-08
-5.1426e-06
3.21731e-08
-5.16705e-06
2.48328e-08
-5.18423e-06
1.70399e-08
-5.1929e-06
9.12129e-09
-5.19443e-06
1.38715e-09
-5.18819e-06
-5.8328e-09
-5.17545e-06
-1.29123e-08
-5.15519e-06
-1.98935e-08
-5.12818e-06
-2.71932e-08
-5.09312e-06
-3.47047e-08
-5.05097e-06
-4.23282e-08
-5.00074e-06
-4.9918e-08
-4.94341e-06
-5.75364e-08
-4.87812e-06
-6.5064e-08
-4.80578e-06
-7.26287e-08
-4.72589e-06
-7.98027e-08
-4.639e-06
-8.71545e-08
-4.54489e-06
-9.39719e-08
-4.44467e-06
-1.00321e-07
-4.33715e-06
-1.07355e-07
-4.22366e-06
-1.13384e-07
-4.10463e-06
-1.18831e-07
-3.98037e-06
-1.23887e-07
-3.85187e-06
-1.2823e-07
-3.71867e-06
-1.32707e-07
-3.58271e-06
-1.35826e-07
-3.44399e-06
-1.38679e-07
-3.30329e-06
-1.40906e-07
-3.16138e-06
-1.4271e-07
-3.01839e-06
-1.43775e-07
-2.87506e-06
-1.44257e-07
-2.73182e-06
-1.44098e-07
-2.58931e-06
-1.43456e-07
-2.44784e-06
-1.42304e-07
-2.30797e-06
-1.40764e-07
-2.1699e-06
-1.38795e-07
-2.03417e-06
-1.36495e-07
-1.90088e-06
-1.33868e-07
-1.77043e-06
-1.31014e-07
-1.6428e-06
-1.27957e-07
-1.5182e-06
-1.24706e-07
-1.39664e-06
-1.21315e-07
-1.27826e-06
-1.1776e-07
-1.16321e-06
-1.14231e-07
-1.05152e-06
-1.10653e-07
-9.43321e-07
-1.07261e-07
-8.38442e-07
-1.03927e-07
-7.36921e-07
-1.0079e-07
-6.38552e-07
-9.76967e-08
-5.43309e-07
-9.47978e-08
-4.50983e-07
-9.19425e-08
-3.61523e-07
-8.92741e-08
-2.74778e-07
-8.66304e-08
-1.90603e-07
-8.41927e-08
-1.08813e-07
-8.18347e-08
-2.95474e-08
-7.93722e-08
4.76677e-08
-7.73508e-08
1.23079e-07
-7.5658e-08
1.96323e-07
-7.33866e-08
2.67423e-07
-7.10774e-08
3.36545e-07
-6.88154e-08
4.03661e-07
-6.67351e-08
4.68831e-07
-6.47292e-08
5.31946e-07
-6.28497e-08
5.93232e-07
-6.10527e-08
6.52732e-07
-5.94421e-08
7.10685e-07
-5.78802e-08
7.6709e-07
-5.64634e-08
8.22175e-07
-5.50926e-08
8.75835e-07
-5.37737e-08
9.28208e-07
-5.24194e-08
9.79269e-07
-5.12051e-08
1.02925e-06
-5.00531e-08
1.07802e-06
-4.8956e-08
1.12569e-06
-4.77891e-08
1.17211e-06
-4.66722e-08
1.21747e-06
-4.56141e-08
1.26166e-06
-4.46584e-08
1.30479e-06
-4.36436e-08
1.34683e-06
-4.26318e-08
1.38799e-06
-4.16529e-08
1.42824e-06
-4.06977e-08
1.46759e-06
-3.9703e-08
1.50596e-06
-3.86972e-08
1.54341e-06
-3.77215e-08
1.57989e-06
-3.67442e-08
1.61544e-06
-3.57736e-08
1.65001e-06
-3.48007e-08
1.68356e-06
-3.37547e-08
1.71613e-06
-3.27768e-08
1.74778e-06
-3.18442e-08
1.77857e-06
-3.09991e-08
1.80862e-06
-3.02319e-08
1.83786e-06
-2.9444e-08
1.86627e-06
-2.85871e-08
1.89392e-06
-2.78369e-08
1.92071e-06
-2.69498e-08
1.94645e-06
-2.59111e-08
1.97093e-06
-2.46084e-08
1.99379e-06
-2.30179e-08
2.01484e-06
-2.11755e-08
2.03381e-06
-1.91136e-08
2.05084e-06
-1.71529e-08
2.06599e-06
-1.52911e-08
2.07954e-06
-1.3672e-08
2.09164e-06
-1.2247e-08
2.10246e-06
-1.09528e-08
2.11286e-06
-1.05453e-08
2.12283e-06
-1.00907e-08
2.13222e-06
-9.51988e-09
2.14222e-06
-1.01018e-08
2.15758e-06
-1.54583e-08
2.18374e-06
-2.62554e-08
2.20525e-06
-2.1616e-08
2.22101e-06
-1.58595e-08
2.23728e-06
-1.63947e-08
2.23544e-06
1.74108e-09
2.19407e-06
4.12674e-08
1.00991e-07
2.09303e-06
1.28667e-07
-2.13065e-07
2.50864e-07
-2.41246e-07
3.4538e-07
-2.17225e-07
4.12174e-07
-1.88685e-07
4.59621e-07
-1.5556e-07
4.90212e-07
-1.20342e-07
5.06015e-07
-8.39558e-08
5.08649e-07
-4.72826e-08
5.01126e-07
-1.12967e-08
4.83965e-07
2.30049e-08
4.55134e-07
5.48707e-08
4.15549e-07
8.32254e-08
3.63984e-07
1.05391e-07
2.94652e-07
1.2168e-07
2.09061e-07
1.34731e-07
1.08961e-07
1.47988e-07
-7.51095e-09
1.66867e-07
-1.44389e-07
1.93494e-07
-3.04611e-07
2.26121e-07
-4.88544e-07
2.61605e-07
-6.92607e-07
2.97306e-07
-9.13017e-07
3.30916e-07
-1.14233e-06
3.60904e-07
-1.37245e-06
3.85773e-07
-1.59993e-06
4.03816e-07
-1.82188e-06
4.14451e-07
-2.03577e-06
4.17973e-07
-2.23951e-06
4.15215e-07
-2.43169e-06
4.07269e-07
-2.61167e-06
3.95262e-07
-2.77927e-06
3.80397e-07
-2.93519e-06
3.63818e-07
-3.08004e-06
3.46336e-07
-3.21491e-06
3.28636e-07
-3.34053e-06
3.11226e-07
-3.45808e-06
2.94463e-07
-3.56817e-06
2.78583e-07
-3.67188e-06
2.63708e-07
-3.76961e-06
2.4989e-07
-3.86226e-06
2.37113e-07
-3.95003e-06
2.25329e-07
-4.03362e-06
2.14455e-07
-4.11307e-06
2.044e-07
-4.18893e-06
1.95053e-07
-4.26109e-06
1.86311e-07
-4.33e-06
1.78059e-07
-4.39546e-06
1.70197e-07
-4.45782e-06
1.62615e-07
-4.5168e-06
1.55223e-07
-4.57268e-06
1.47917e-07
-4.62516e-06
1.40619e-07
-4.67446e-06
1.3325e-07
-4.72019e-06
1.25754e-07
-4.76252e-06
1.18054e-07
-4.8011e-06
1.10096e-07
-4.83613e-06
1.01819e-07
-4.86719e-06
9.31953e-08
-4.89452e-06
8.417e-08
-4.91775e-06
7.47259e-08
-4.93719e-06
6.48279e-08
-4.95253e-06
5.44988e-08
-4.96411e-06
4.37205e-08
-4.9717e-06
3.25369e-08
-4.97558e-06
2.09323e-08
-4.97528e-06
8.95448e-09
-4.97037e-06
-3.50613e-09
-4.9596e-06
-1.64787e-08
-4.94255e-06
-2.99552e-08
-4.91849e-06
-4.38386e-08
-4.88752e-06
-5.81545e-08
-4.84929e-06
-7.2814e-08
-4.80383e-06
-8.77714e-08
-4.75078e-06
-1.02854e-07
-4.69029e-06
-1.18023e-07
-4.62218e-06
-1.33124e-07
-4.54672e-06
-1.48142e-07
-4.46359e-06
-1.62932e-07
-4.37342e-06
-1.77383e-07
-4.27607e-06
-1.91287e-07
-4.17171e-06
-2.04666e-07
-4.06146e-06
-2.17539e-07
-3.94527e-06
-2.2949e-07
-3.82353e-06
-2.40443e-07
-3.69686e-06
-2.50363e-07
-3.56565e-06
-2.59238e-07
-3.43114e-06
-2.66999e-07
-3.29339e-06
-2.73461e-07
-3.15322e-06
-2.7876e-07
-3.01144e-06
-2.82972e-07
-2.86849e-06
-2.85933e-07
-2.72499e-06
-2.87747e-07
-2.58134e-06
-2.88341e-07
-2.43811e-06
-2.87769e-07
-2.2958e-06
-2.86175e-07
-2.15488e-06
-2.83615e-07
-2.01576e-06
-2.80229e-07
-1.87879e-06
-2.76071e-07
-1.74428e-06
-2.71272e-07
-1.61244e-06
-2.6589e-07
-1.48353e-06
-2.60078e-07
-1.35761e-06
-2.53884e-07
-1.23484e-06
-2.47396e-07
-1.11515e-06
-2.40644e-07
-9.98756e-07
-2.3373e-07
-8.85601e-07
-2.2677e-07
-7.75852e-07
-2.19859e-07
-6.69398e-07
-2.13126e-07
-5.66298e-07
-2.06589e-07
-4.6636e-07
-2.00293e-07
-3.69562e-07
-1.94215e-07
-2.75695e-07
-1.8839e-07
-1.84702e-07
-1.82792e-07
-9.63375e-08
-1.77496e-07
-1.04879e-08
-1.72448e-07
7.30246e-08
-1.6766e-07
1.54168e-07
-1.63003e-07
2.33209e-07
-1.58421e-07
3.098e-07
-1.5403e-07
3.83829e-07
-1.49773e-07
4.5581e-07
-1.45452e-07
5.25999e-07
-1.41236e-07
5.94467e-07
-1.37165e-07
6.61234e-07
-1.33301e-07
7.26282e-07
-1.29606e-07
7.89673e-07
-1.2609e-07
8.51441e-07
-1.22738e-07
9.11651e-07
-1.19594e-07
9.70374e-07
-1.16591e-07
1.02768e-06
-1.1376e-07
1.0836e-06
-1.11046e-07
1.13823e-06
-1.08423e-07
1.1916e-06
-1.05836e-07
1.24373e-06
-1.03371e-07
1.29463e-06
-1.0102e-07
1.34436e-06
-9.87495e-08
1.39296e-06
-9.64782e-08
1.44043e-06
-9.42469e-08
1.48674e-06
-9.21061e-08
1.53189e-06
-9.00629e-08
1.57595e-06
-8.80221e-08
1.61897e-06
-8.59796e-08
1.66101e-06
-8.39918e-08
1.70212e-06
-8.20417e-08
1.74229e-06
-8.00768e-08
1.78151e-06
-7.80929e-08
1.81976e-06
-7.61455e-08
1.85707e-06
-7.41943e-08
1.89342e-06
-7.22688e-08
1.92883e-06
-7.03432e-08
1.96332e-06
-6.83773e-08
1.99685e-06
-6.64294e-08
2.02945e-06
-6.45776e-08
2.06121e-06
-6.28802e-08
2.09218e-06
-6.13267e-08
2.12233e-06
-5.97202e-08
2.15165e-06
-5.8017e-08
2.18e-06
-5.63083e-08
2.20736e-06
-5.44062e-08
2.23352e-06
-5.21679e-08
2.2583e-06
-4.94822e-08
2.28155e-06
-4.63406e-08
2.30311e-06
-4.28125e-08
2.32303e-06
-3.90947e-08
2.34141e-06
-3.55984e-08
2.35851e-06
-3.246e-08
2.37473e-06
-2.99445e-08
2.39058e-06
-2.81652e-08
2.40664e-06
-2.70799e-08
2.42275e-06
-2.67351e-08
2.43902e-06
-2.64417e-08
2.45564e-06
-2.62303e-08
2.47159e-06
-2.6144e-08
2.48449e-06
-2.84511e-08
2.49059e-06
-3.24721e-08
2.49397e-06
-2.5141e-08
2.49245e-06
-1.4469e-08
2.48503e-06
-9.09842e-09
2.47689e-06
9.76205e-09
2.46484e-06
5.32294e-08
1.32999e-07
2.43279e-06
9.4119e-08
-3.07216e-07
1.56788e-07
-3.03946e-07
2.01203e-07
-2.61653e-07
2.27281e-07
-2.14821e-07
2.38471e-07
-1.66762e-07
2.36346e-07
-1.18289e-07
2.22307e-07
-6.99329e-08
1.97227e-07
-2.22672e-08
1.61724e-07
2.41995e-08
1.15611e-07
6.90778e-08
5.85702e-08
1.11914e-07
-1.03498e-08
1.52124e-07
-9.45516e-08
1.89604e-07
-1.98277e-07
2.25379e-07
-3.24562e-07
2.61024e-07
-4.74997e-07
2.98369e-07
-6.47209e-07
3.39078e-07
-8.36579e-07
3.82798e-07
-1.03723e-06
4.26765e-07
-1.24323e-06
4.67585e-07
-1.44868e-06
5.02771e-07
-1.6486e-06
5.3086e-07
-1.83874e-06
5.51089e-07
-2.01612e-06
5.63214e-07
-2.17969e-06
5.67434e-07
-2.32961e-06
5.64421e-07
-2.46684e-06
5.55251e-07
-2.59275e-06
5.41155e-07
-2.70883e-06
5.23384e-07
-2.81669e-06
5.03137e-07
-2.91772e-06
4.81458e-07
-3.01311e-06
4.59194e-07
-3.10374e-06
4.36995e-07
-3.19047e-06
4.15352e-07
-3.2738e-06
3.94596e-07
-3.3543e-06
3.74936e-07
-3.43215e-06
3.56484e-07
-3.50774e-06
3.39269e-07
-3.58108e-06
3.2327e-07
-3.65242e-06
3.0842e-07
-3.72168e-06
2.94631e-07
-3.78905e-06
2.81793e-07
-3.85441e-06
2.6979e-07
-3.91788e-06
2.585e-07
-3.97932e-06
2.478e-07
-4.03883e-06
2.37569e-07
-4.09627e-06
2.27691e-07
-4.1517e-06
2.18052e-07
-4.20495e-06
2.08539e-07
-4.25607e-06
1.99052e-07
-4.30488e-06
1.89495e-07
-4.3514e-06
1.79777e-07
-4.3954e-06
1.69822e-07
-4.43688e-06
1.5955e-07
-4.4756e-06
1.48888e-07
-4.51153e-06
1.3777e-07
-4.54442e-06
1.26141e-07
-4.57419e-06
1.13945e-07
-4.60056e-06
1.01138e-07
-4.62343e-06
8.76766e-08
-4.64244e-06
7.35365e-08
-4.65742e-06
5.86783e-08
-4.66792e-06
4.30733e-08
-4.67366e-06
2.66801e-08
-4.67413e-06
9.46294e-09
-4.66901e-06
-8.62581e-09
-4.65787e-06
-2.75801e-08
-4.64045e-06
-4.7359e-08
-4.61637e-06
-6.78721e-08
-4.58545e-06
-8.90368e-08
-4.54745e-06
-1.10751e-07
-4.50224e-06
-1.32925e-07
-4.44963e-06
-1.55398e-07
-4.38958e-06
-1.78032e-07
-4.32199e-06
-2.00666e-07
-4.24695e-06
-2.23168e-07
-4.16448e-06
-2.45386e-07
-4.07479e-06
-2.67069e-07
-3.97808e-06
-2.87975e-07
-3.87472e-06
-3.07983e-07
-3.76529e-06
-3.26924e-07
-3.65011e-06
-3.44618e-07
-3.52959e-06
-3.60874e-07
-3.4043e-06
-3.75542e-07
-3.27483e-06
-3.88578e-07
-3.14191e-06
-3.99803e-07
-3.00605e-06
-4.0921e-07
-2.868e-06
-4.16824e-07
-2.72837e-06
-4.22614e-07
-2.58785e-06
-4.26678e-07
-2.4469e-06
-4.28908e-07
-2.306e-06
-4.2937e-07
-2.16575e-06
-4.28193e-07
-2.02656e-06
-4.25456e-07
-1.88894e-06
-4.21352e-07
-1.75321e-06
-4.1599e-07
-1.61976e-06
-4.09569e-07
-1.48881e-06
-4.02198e-07
-1.36061e-06
-3.94056e-07
-1.23532e-06
-3.85266e-07
-1.11305e-06
-3.7597e-07
-9.93903e-07
-3.66281e-07
-8.7785e-07
-3.56274e-07
-7.65025e-07
-3.46115e-07
-6.55374e-07
-3.35887e-07
-5.49021e-07
-3.25789e-07
-4.45831e-07
-3.15873e-07
-3.45847e-07
-3.06274e-07
-2.48872e-07
-2.96962e-07
-1.54886e-07
-2.88025e-07
-6.36236e-08
-2.79462e-07
2.49574e-08
-2.71292e-07
1.11001e-07
-2.63442e-07
1.94487e-07
-2.55924e-07
2.75549e-07
-2.48688e-07
3.5424e-07
-2.41726e-07
4.30774e-07
-2.34974e-07
5.05118e-07
-2.28462e-07
5.77395e-07
-2.22123e-07
6.47794e-07
-2.15932e-07
7.16503e-07
-2.09929e-07
7.83556e-07
-2.04159e-07
8.49008e-07
-1.98627e-07
9.12831e-07
-1.93342e-07
9.75107e-07
-1.88277e-07
1.03585e-06
-1.83447e-07
1.09513e-06
-1.78842e-07
1.15297e-06
-1.74448e-07
1.20946e-06
-1.70247e-07
1.26459e-06
-1.66214e-07
1.31844e-06
-1.62297e-07
1.37104e-06
-1.58485e-07
1.42244e-06
-1.54799e-07
1.47261e-06
-1.51254e-07
1.52161e-06
-1.47798e-07
1.56945e-06
-1.4439e-07
1.61616e-06
-1.41044e-07
1.66171e-06
-1.37799e-07
1.70611e-06
-1.34648e-07
1.7494e-06
-1.31535e-07
1.79165e-06
-1.28463e-07
1.83293e-06
-1.25453e-07
1.87324e-06
-1.22501e-07
1.9126e-06
-1.19553e-07
1.95102e-06
-1.16615e-07
1.98848e-06
-1.13698e-07
2.02501e-06
-1.10806e-07
2.06059e-06
-1.07913e-07
2.0952e-06
-1.05025e-07
2.12891e-06
-1.02143e-07
2.16174e-06
-9.93158e-08
2.19371e-06
-9.66038e-08
2.22482e-06
-9.40588e-08
2.25506e-06
-9.16209e-08
2.28442e-06
-8.91414e-08
2.3129e-06
-8.65479e-08
2.34037e-06
-8.38338e-08
2.36676e-06
-8.08503e-08
2.39197e-06
-7.7436e-08
2.41592e-06
-7.34762e-08
2.43852e-06
-6.89896e-08
2.45976e-06
-6.40957e-08
2.47974e-06
-5.91166e-08
2.49856e-06
-5.44581e-08
2.51651e-06
-5.04572e-08
2.53398e-06
-4.74437e-08
2.5512e-06
-4.54178e-08
2.56839e-06
-4.42926e-08
2.58559e-06
-4.39635e-08
2.60253e-06
-4.33864e-08
2.61873e-06
-4.24465e-08
2.63366e-06
-4.10884e-08
2.64553e-06
-4.03366e-08
2.65155e-06
-3.85159e-08
2.65459e-06
-2.82289e-08
2.6547e-06
-1.46429e-08
2.64783e-06
-2.314e-09
2.6366e-06
2.09306e-08
2.62372e-06
6.60521e-08
1.44777e-07
2.61193e-06
3.26999e-08
-3.39938e-07
3.9365e-08
-3.1065e-07
3.71146e-08
-2.59414e-07
2.55789e-08
-2.03334e-07
4.49342e-09
-1.45694e-07
-2.64402e-08
-8.74138e-08
-6.73604e-08
-2.903e-08
-1.18771e-07
2.90946e-08
-1.81313e-07
8.67229e-08
-2.55869e-07
1.43603e-07
-3.43473e-07
1.99508e-07
-4.45658e-07
2.54291e-07
-5.64064e-07
3.08006e-07
-6.99576e-07
3.60873e-07
-8.51576e-07
4.13022e-07
-1.01729e-06
4.64053e-07
-1.19125e-06
5.13031e-07
-1.36685e-06
5.58367e-07
-1.53803e-06
5.97949e-07
-1.7004e-06
6.29926e-07
-1.85095e-06
6.53327e-07
-1.98817e-06
6.68087e-07
-2.11179e-06
6.74724e-07
-2.22256e-06
6.74013e-07
-2.32202e-06
6.66924e-07
-2.41211e-06
6.54544e-07
-2.49482e-06
6.37991e-07
-2.57199e-06
6.18347e-07
-2.64518e-06
5.96599e-07
-2.71566e-06
5.73617e-07
-2.7843e-06
5.50127e-07
-2.85179e-06
5.26673e-07
-2.91845e-06
5.03682e-07
-2.98458e-06
4.81467e-07
-3.05019e-06
4.60236e-07
-3.11539e-06
4.4011e-07
-3.18002e-06
4.21144e-07
-3.24412e-06
4.03337e-07
-3.30747e-06
3.86648e-07
-3.37009e-06
3.71006e-07
-3.43176e-06
3.56323e-07
-3.49249e-06
3.42492e-07
-3.55209e-06
3.29402e-07
-3.61055e-06
3.16936e-07
-3.6677e-06
3.04975e-07
-3.72353e-06
2.93399e-07
-3.77789e-06
2.82089e-07
-3.83076e-06
2.7093e-07
-3.88197e-06
2.59808e-07
-3.93151e-06
2.48611e-07
-3.97919e-06
2.37235e-07
-4.02497e-06
2.25582e-07
-4.06863e-06
2.13555e-07
-4.11011e-06
2.0106e-07
-4.14915e-06
1.8801e-07
-4.18567e-06
1.74318e-07
-4.21937e-06
1.59908e-07
-4.25011e-06
1.44703e-07
-4.27756e-06
1.28633e-07
-4.30153e-06
1.11632e-07
-4.32162e-06
9.36398e-08
-4.33756e-06
7.45995e-08
-4.34894e-06
5.44571e-08
-4.35544e-06
3.31589e-08
-4.35667e-06
1.06778e-08
-4.35231e-06
-1.2998e-08
-4.34204e-06
-3.78492e-08
-4.32558e-06
-6.38186e-08
-4.30261e-06
-9.08129e-08
-4.2729e-06
-1.18721e-07
-4.23618e-06
-1.47417e-07
-4.19229e-06
-1.7676e-07
-4.14105e-06
-2.06566e-07
-4.08239e-06
-2.36641e-07
-4.01623e-06
-2.6677e-07
-3.94262e-06
-2.96732e-07
-3.86169e-06
-3.26285e-07
-3.77359e-06
-3.55136e-07
-3.67855e-06
-3.82979e-07
-3.57694e-06
-4.09552e-07
-3.46921e-06
-4.34611e-07
-3.35579e-06
-4.57989e-07
-3.23715e-06
-4.79454e-07
-3.11384e-06
-4.98773e-07
-2.9865e-06
-5.15822e-07
-2.85576e-06
-5.30456e-07
-2.72227e-06
-5.42642e-07
-2.58667e-06
-5.52358e-07
-2.44971e-06
-5.59677e-07
-2.3119e-06
-5.64507e-07
-2.17383e-06
-5.67015e-07
-2.03602e-06
-5.67197e-07
-1.89895e-06
-5.65219e-07
-1.76313e-06
-5.61234e-07
-1.62893e-06
-5.55454e-07
-1.49674e-06
-5.48067e-07
-1.36686e-06
-5.39299e-07
-1.23955e-06
-5.29339e-07
-1.11501e-06
-5.18393e-07
-9.93378e-07
-5.06645e-07
-8.74772e-07
-4.9426e-07
-7.59229e-07
-4.81421e-07
-6.46792e-07
-4.68238e-07
-5.37485e-07
-4.54913e-07
-4.31339e-07
-4.41552e-07
-3.28334e-07
-4.28369e-07
-2.28431e-07
-4.1542e-07
-1.31545e-07
-4.02877e-07
-3.75405e-08
-3.90739e-07
5.36741e-08
-3.79074e-07
1.42155e-07
-3.67814e-07
2.27962e-07
-3.57019e-07
3.11207e-07
-3.46626e-07
3.91985e-07
-3.36681e-07
4.70417e-07
-3.27106e-07
5.46602e-07
-3.17929e-07
6.20671e-07
-3.09075e-07
6.92704e-07
-3.00567e-07
7.62835e-07
-2.92321e-07
8.31206e-07