/*--------------------------------*- C++ -*----------------------------------*\
  =========                 |
  \\      /  F ield         | OpenFOAM: The Open Source CFD Toolbox
   \\    /   O peration     | Website:  https://openfoam.org
    \\  /    A nd           | Version:  8
     \\/     M anipulation  |
\*---------------------------------------------------------------------------*/
FoamFile
{
    version     2.0;
    format      ascii;
    class       volVectorField;
    location    "55";
    object      U;
}
// * * * * * * * * * * * * * * * * * * * * * * * * * * * * * * * * * * * * * //

dimensions      [0 1 -1 0 0 0 0];

internalField   nonuniform List<vector> 
12225
(
(9.85687 -0.886659 0)
(9.6656 -0.740521 0)
(9.45376 -0.429341 0)
(9.22059 -0.221734 0)
(8.99986 -0.105747 0)
(8.80456 -0.0450518 0)
(8.6334 -0.0142969 0)
(8.48632 0.00152065 0)
(8.3589 0.00973229 0)
(8.24955 0.0139241 0)
(8.15303 0.0159752 0)
(8.06715 0.0174441 0)
(7.98845 0.0184158 0)
(7.9149 0.0197026 0)
(7.84247 0.0209692 0)
(7.77189 0.0248605 0)
(7.67299 0.0311753 0)
(7.64054 0.0428628 0)
(10.0545 0.227815 0)
(10.1211 0.327157 0)
(10.119 0.262061 0)
(10.0841 0.18723 0)
(10.0407 0.135629 0)
(9.99233 0.102257 0)
(9.93736 0.0806786 0)
(9.87562 0.0663675 0)
(9.81086 0.0566135 0)
(9.74418 0.0496186 0)
(9.67767 0.0445187 0)
(9.61159 0.0408376 0)
(9.54695 0.0384152 0)
(9.48387 0.0373207 0)
(9.42114 0.0375284 0)
(9.36222 0.0410917 0)
(9.29483 0.0452177 0)
(9.25652 0.0756363 0)
(10.0035 0.0582794 0)
(10.0302 0.0562985 0)
(10.0551 0.0344921 0)
(10.0683 0.0338516 0)
(10.0736 0.0419109 0)
(10.0728 0.0482255 0)
(10.0653 0.0515403 0)
(10.0514 0.0531472 0)
(10.033 0.0537926 0)
(10.0107 0.0538775 0)
(9.98547 0.0538052 0)
(9.95753 0.0539661 0)
(9.92751 0.054593 0)
(9.89575 0.0561046 0)
(9.86172 0.0585475 0)
(9.82676 0.0642441 0)
(9.78827 0.0715941 0)
(9.75455 0.0929932 0)
(9.99769 0.0111055 0)
(10.0107 0.0271202 0)
(10.0339 0.0379315 0)
(10.0503 0.0492495 0)
(10.0607 0.0571679 0)
(10.068 0.0604913 0)
(10.0718 0.0613304 0)
(10.0719 0.0613982 0)
(10.0692 0.0612873 0)
(10.0639 0.0611693 0)
(10.0563 0.0612736 0)
(10.0466 0.0618805 0)
(10.0348 0.0631344 0)
(10.0214 0.0654055 0)
(10.0059 0.0689019 0)
(9.98906 0.0752454 0)
(9.97074 0.0841639 0)
(9.9546 0.100684 0)
(9.99929 0.00731566 0)
(10.0086 0.0323149 0)
(10.0263 0.0449769 0)
(10.0395 0.0515744 0)
(10.0491 0.0559132 0)
(10.0573 0.0582189 0)
(10.0637 0.0592975 0)
(10.0677 0.0599873 0)
(10.0697 0.0606107 0)
(10.0699 0.0612957 0)
(10.0683 0.0622326 0)
(10.0651 0.0636727 0)
(10.0603 0.0657888 0)
(10.0543 0.0689212 0)
(10.0467 0.0733781 0)
(10.0384 0.0802265 0)
(10.0296 0.0896347 0)
(10.0229 0.10315 0)
(10.0003 0.00943113 0)
(10.0079 0.0320015 0)
(10.0215 0.0423524 0)
(10.0327 0.0474763 0)
(10.0413 0.051832 0)
(10.0492 0.0549992 0)
(10.0559 0.0569775 0)
(10.0609 0.0584018 0)
(10.0643 0.0596842 0)
(10.0663 0.0610123 0)
(10.0669 0.0625794 0)
(10.0662 0.0646283 0)
(10.0643 0.0673612 0)
(10.0613 0.0710947 0)
(10.0574 0.0761416 0)
(10.053 0.083188 0)
(10.0488 0.0923979 0)
(10.0464 0.104061 0)
(10.0004 0.00927391 0)
(10.0067 0.0280915 0)
(10.0179 0.038121 0)
(10.0279 0.0438614 0)
(10.0359 0.0487494 0)
(10.0432 0.0524455 0)
(10.0495 0.0549123 0)
(10.0546 0.0567746 0)
(10.0584 0.0584939 0)
(10.061 0.0602859 0)
(10.0625 0.062333 0)
(10.063 0.0648605 0)
(10.0625 0.0680808 0)
(10.0612 0.0722682 0)
(10.0592 0.0776901 0)
(10.0571 0.0847554 0)
(10.0553 0.0935441 0)
(10.0549 0.103825 0)
(10.0004 0.00832036 0)
(10.0056 0.0245506 0)
(10.015 0.0347389 0)
(10.0241 0.0410176 0)
(10.0315 0.0460588 0)
(10.0383 0.049938 0)
(10.0442 0.0527203 0)
(10.0492 0.0549456 0)
(10.0531 0.0570452 0)
(10.056 0.0592377 0)
(10.0579 0.061701 0)
(10.059 0.0646427 0)
(10.0593 0.0682674 0)
(10.0591 0.0727964 0)
(10.0584 0.078435 0)
(10.0577 0.0854066 0)
(10.0573 0.0937205 0)
(10.0582 0.102994 0)
(10.0003 0.00744217 0)
(10.0047 0.0217775 0)
(10.0126 0.0317794 0)
(10.0208 0.0382612 0)
(10.0278 0.0433209 0)
(10.0341 0.0473248 0)
(10.0397 0.0504012 0)
(10.0445 0.0529809 0)
(10.0484 0.0554388 0)
(10.0515 0.0579908 0)
(10.0537 0.0608176 0)
(10.0552 0.0641116 0)
(10.0561 0.068057 0)
(10.0566 0.072822 0)
(10.0569 0.0785533 0)
(10.0572 0.0853627 0)
(10.0579 0.0932167 0)
(10.0596 0.101721 0)
(10.0003 0.00668856 0)
(10.0039 0.0193988 0)
(10.0106 0.0289332 0)
(10.0179 0.0354543 0)
(10.0244 0.040548 0)
(10.0303 0.0446839 0)
(10.0357 0.0480203 0)
(10.0404 0.0509149 0)
(10.0443 0.0536907 0)
(10.0475 0.0565596 0)
(10.05 0.0596978 0)
(10.0519 0.0632832 0)
(10.0533 0.0674686 0)
(10.0545 0.0723803 0)
(10.0555 0.078117 0)
(10.0566 0.0847252 0)
(10.0581 0.092148 0)
(10.0603 0.100029 0)
(10.0003 0.00600446 0)
(10.0033 0.0172775 0)
(10.009 0.0262182 0)
(10.0154 0.0326768 0)
(10.0215 0.0377887 0)
(10.0271 0.0420289 0)
(10.0322 0.0455716 0)
(10.0367 0.048722 0)
(10.0407 0.0517637 0)
(10.044 0.0548985 0)
(10.0468 0.0582957 0)
(10.049 0.0621089 0)
(10.051 0.0664633 0)
(10.0527 0.071447 0)
(10.0544 0.0771236 0)
(10.0562 0.0835009 0)
(10.0583 0.0905194 0)
(10.0609 0.0978752 0)
(10.0003 0.00540852 0)
(10.0029 0.0155226 0)
(10.0077 0.023879 0)
(10.0135 0.030215 0)
(10.0192 0.035294 0)
(10.0245 0.0395783 0)
(10.0294 0.0432722 0)
(10.0339 0.0466175 0)
(10.0378 0.0498552 0)
(10.0413 0.0531828 0)
(10.0443 0.0567683 0)
(10.0469 0.0607513 0)
(10.0492 0.065214 0)
(10.0515 0.0702208 0)
(10.0537 0.0757959 0)
(10.056 0.0819441 0)
(10.0587 0.0886074 0)
(10.0617 0.0955512 0)
(10.0002 0.00486221 0)
(10.0025 0.0139142 0)
(10.0067 0.0216584 0)
(10.0119 0.0277914 0)
(10.0172 0.0327891 0)
(10.0223 0.0370671 0)
(10.027 0.0408607 0)
(10.0314 0.0443658 0)
(10.0354 0.047764 0)
(10.0391 0.0512313 0)
(10.0423 0.0549417 0)
(10.0453 0.0590263 0)
(10.048 0.0635463 0)
(10.0507 0.0685324 0)
(10.0533 0.0739867 0)
(10.0562 0.0798963 0)
(10.0593 0.0862204 0)
(10.0627 0.0927579 0)
(10.0002 0.00429994 0)
(10.0021 0.012251 0)
(10.0058 0.0192744 0)
(10.0104 0.0250852 0)
(10.0153 0.0299434 0)
(10.0201 0.0341568 0)
(10.0247 0.037989 0)
(10.0291 0.0416184 0)
(10.0332 0.045163 0)
(10.037 0.0487472 0)
(10.0405 0.0525425 0)
(10.0439 0.056666 0)
(10.0471 0.0611886 0)
(10.0502 0.0661023 0)
(10.0534 0.0714001 0)
(10.0567 0.0770418 0)
(10.0603 0.0829978 0)
(10.0641 0.089096 0)
(10.0002 0.003717 0)
(10.0018 0.0105139 0)
(10.005 0.0167311 0)
(10.0091 0.0220768 0)
(10.0136 0.0266977 0)
(10.0182 0.0307808 0)
(10.0227 0.034554 0)
(10.0271 0.0382107 0)
(10.0313 0.0418389 0)
(10.0353 0.0455128 0)
(10.0391 0.0493352 0)
(10.0429 0.0534279 0)
(10.0466 0.0578471 0)
(10.0502 0.0626055 0)
(10.0539 0.0676617 0)
(10.0577 0.0729827 0)
(10.0618 0.0785221 0)
(10.066 0.0841471 0)
(10.0002 0.00310444 0)
(10.0016 0.0086917 0)
(10.0043 0.0140024 0)
(10.0081 0.0187246 0)
(10.0122 0.0229616 0)
(10.0166 0.0268182 0)
(10.0211 0.0304305 0)
(10.0255 0.0339805 0)
(10.0299 0.0375704 0)
(10.0341 0.0412365 0)
(10.0383 0.045017 0)
(10.0425 0.0489894 0)
(10.0467 0.0532082 0)
(10.0509 0.0576954 0)
(10.0551 0.0624184 0)
(10.0594 0.0673331 0)
(10.0639 0.0724006 0)
(10.0685 0.0774957 0)
(10.0001 0.00244505 0)
(10.0014 0.00674559 0)
(10.0039 0.0110107 0)
(10.0073 0.0149433 0)
(10.0113 0.0186131 0)
(10.0155 0.0220826 0)
(10.02 0.0254094 0)
(10.0246 0.0287095 0)
(10.0292 0.0320909 0)
(10.0337 0.0355775 0)
(10.0383 0.0391815 0)
(10.0429 0.0429187 0)
(10.0476 0.046835 0)
(10.0523 0.0509363 0)
(10.0571 0.0552178 0)
(10.0619 0.0596283 0)
(10.0668 0.0641463 0)
(10.0719 0.0686522 0)
(10.0001 0.00170553 0)
(10.0013 0.00458028 0)
(10.0037 0.00761886 0)
(10.007 0.0105643 0)
(10.0109 0.0134347 0)
(10.0152 0.0162821 0)
(10.0198 0.0191265 0)
(10.0246 0.0220082 0)
(10.0295 0.0249916 0)
(10.0344 0.0281046 0)
(10.0393 0.0313452 0)
(10.0444 0.0347066 0)
(10.0496 0.0381952 0)
(10.0548 0.0418078 0)
(10.0601 0.0455347 0)
(10.0653 0.0493474 0)
(10.0707 0.0532224 0)
(10.0761 0.057077 0)
(10.0002 0.000812566 0)
(10.0014 0.00199927 0)
(10.0038 0.00351769 0)
(10.0072 0.0051855 0)
(10.0113 0.00698759 0)
(10.0158 0.00894253 0)
(10.0207 0.0110545 0)
(10.0258 0.0133009 0)
(10.0311 0.0156881 0)
(10.0365 0.018218 0)
(10.0418 0.020894 0)
(10.0474 0.0236916 0)
(10.053 0.0265987 0)
(10.0587 0.0295885 0)
(10.0644 0.0326484 0)
(10.0701 0.0357543 0)
(10.0759 0.0388956 0)
(10.0816 0.0420184 0)
(10.0002 -9.76805e-05 0)
(10.0015 -0.000604086 0)
(10.0042 -0.000652805 0)
(10.008 -0.000309784 0)
(10.0125 0.000393002 0)
(10.0174 0.00141973 0)
(10.0227 0.00273784 0)
(10.0283 0.00430408 0)
(10.034 0.00605874 0)
(10.0398 0.00799534 0)
(10.0456 0.010091 0)
(10.0515 0.0123333 0)
(10.0575 0.0146695 0)
(10.0636 0.0170798 0)
(10.0696 0.0195259 0)
(10.0755 0.0220118 0)
(10.0816 0.0245099 0)
(10.0875 0.0270096 0)
(10.0002 -0.000909262 0)
(10.0017 -0.00294697 0)
(10.0047 -0.00440603 0)
(10.009 -0.00519432 0)
(10.014 -0.00538307 0)
(10.0195 -0.00509629 0)
(10.0252 -0.00440843 0)
(10.0312 -0.00339044 0)
(10.0373 -0.0021281 0)
(10.0433 -0.000649225 0)
(10.0495 0.00101933 0)
(10.0557 0.00284619 0)
(10.062 0.00476378 0)
(10.0683 0.00674115 0)
(10.0745 0.00874424 0)
(10.0806 0.0107785 0)
(10.0868 0.0128227 0)
(10.093 0.0148689 0)
(10.0002 -0.00168931 0)
(10.0019 -0.00527634 0)
(10.0054 -0.00817161 0)
(10.0104 -0.0100156 0)
(10.016 -0.0109559 0)
(10.022 -0.0112617 0)
(10.0282 -0.0110557 0)
(10.0346 -0.0104676 0)
(10.041 -0.00959908 0)
(10.0474 -0.00850224 0)
(10.0538 -0.00719145 0)
(10.0603 -0.00573122 0)
(10.0668 -0.00417231 0)
(10.0732 -0.00257588 0)
(10.0795 -0.000938882 0)
(10.0858 0.000714302 0)
(10.0922 0.00239625 0)
(10.0984 0.004067 0)
(10.0002 -0.00242294 0)
(10.002 -0.00762213 0)
(10.0062 -0.0119389 0)
(10.0121 -0.0147196 0)
(10.0184 -0.0163533 0)
(10.0249 -0.0172046 0)
(10.0316 -0.0173917 0)
(10.0383 -0.0170886 0)
(10.045 -0.0164726 0)
(10.0517 -0.0156201 0)
(10.0584 -0.0145729 0)
(10.0651 -0.0133919 0)
(10.0717 -0.0121395 0)
(10.0782 -0.0108503 0)
(10.0847 -0.00953156 0)
(10.0911 -0.00818201 0)
(10.0975 -0.00681272 0)
(10.1038 -0.00544315 0)
(10.0002 -0.00307571 0)
(10.0021 -0.0103528 0)
(10.0071 -0.0158507 0)
(10.0139 -0.0190262 0)
(10.021 -0.021163 0)
(10.0281 -0.0226185 0)
(10.0352 -0.023265 0)
(10.0423 -0.0232542 0)
(10.0493 -0.0228345 0)
(10.0563 -0.0221414 0)
(10.0631 -0.0212553 0)
(10.07 -0.0202522 0)
(10.0767 -0.0192035 0)
(10.0832 -0.0181268 0)
(10.0898 -0.0170354 0)
(10.0962 -0.0159184 0)
(10.1027 -0.014799 0)
(10.109 -0.0136868 0)
(9.99995 -0.00301832 0)
(10.0019 -0.014037 0)
(10.0082 -0.0211384 0)
(10.016 -0.0239552 0)
(10.0234 -0.0257755 0)
(10.031 -0.0273099 0)
(10.0388 -0.0282071 0)
(10.0465 -0.0285 0)
(10.0539 -0.028381 0)
(10.0611 -0.0279532 0)
(10.0682 -0.0272926 0)
(10.0751 -0.0264937 0)
(10.0818 -0.0256271 0)
(10.0883 -0.0247229 0)
(10.0948 -0.0237874 0)
(10.1011 -0.0228324 0)
(10.1074 -0.0218703 0)
(10.1134 -0.020934 0)
(9.99863 -0.000110627 0)
(9.99935 -0.0150788 0)
(10.0085 -0.026174 0)
(10.0184 -0.0307453 0)
(10.0267 -0.0326121 0)
(10.0349 -0.0333376 0)
(10.0434 -0.0333905 0)
(10.0516 -0.0331777 0)
(10.0594 -0.0328608 0)
(10.0667 -0.0324091 0)
(10.0738 -0.0318168 0)
(10.0804 -0.0311341 0)
(10.0867 -0.0304163 0)
(10.0927 -0.0296698 0)
(10.0985 -0.0288921 0)
(10.1042 -0.0280885 0)
(10.1097 -0.0272719 0)
(10.1148 -0.0264769 0)
(9.99493 0.00159603 0)
(9.99321 -0.00763167 0)
(10.0069 -0.0194286 0)
(10.0219 -0.0308905 0)
(10.0335 -0.0387337 0)
(10.0435 -0.0420467 0)
(10.0525 -0.0424987 0)
(10.0603 -0.0418481 0)
(10.0671 -0.0408549 0)
(10.0732 -0.039693 0)
(10.0786 -0.0384462 0)
(10.0834 -0.0372083 0)
(10.0875 -0.0360455 0)
(10.0912 -0.0349603 0)
(10.0945 -0.0339281 0)
(10.0976 -0.0329246 0)
(10.1005 -0.0319579 0)
(10.103 -0.0310017 0)
(9.99475 -0.030464 0)
(9.99972 -0.0224502 0)
(10.0155 -0.00206368 0)
(10.032 -0.000961029 0)
(10.0459 -0.010311 0)
(10.0571 -0.0192645 0)
(10.0647 -0.0253352 0)
(10.0688 -0.0292803 0)
(10.0703 -0.0317529 0)
(10.07 -0.0330824 0)
(10.0684 -0.0335783 0)
(10.0656 -0.0335537 0)
(10.062 -0.0332424 0)
(10.0578 -0.0327939 0)
(10.0533 -0.0322659 0)
(10.0486 -0.0316845 0)
(10.0439 -0.0311133 0)
(10.039 -0.030492 0)
(10.0273 -0.182922 0)
(10.0767 -0.288134 0)
(10.0875 -0.247426 0)
(10.0788 -0.186105 0)
(10.0682 -0.139662 0)
(10.0567 -0.107267 0)
(10.0408 -0.0846198 0)
(10.0203 -0.0689403 0)
(9.99694 -0.058011 0)
(9.97209 -0.0500584 0)
(9.94656 -0.0440026 0)
(9.92083 -0.0392307 0)
(9.89535 -0.0353967 0)
(9.87055 -0.0322777 0)
(9.84671 -0.0296995 0)
(9.82392 -0.0275727 0)
(9.80243 -0.025848 0)
(9.782 -0.0248242 0)
(9.93586 0.689583 0)
(9.86885 0.609722 0)
(9.76615 0.381073 0)
(9.62955 0.217853 0)
(9.49067 0.119649 0)
(9.36431 0.0637139 0)
(9.25244 0.032297 0)
(9.15372 0.0144882 0)
(9.06726 0.00422234 0)
(8.99194 -0.00176209 0)
(8.92603 -0.00521557 0)
(8.86798 -0.00719432 0)
(8.81655 -0.0082941 0)
(8.77085 -0.00889572 0)
(8.7301 -0.00924351 0)
(8.69357 -0.00944334 0)
(8.66042 -0.00955748 0)
(8.62994 -0.0100716 0)
(0.0714926 -0.0384023 -2.43835e-19)
(0.148797 -0.0987649 1.06453e-19)
(0.226254 -0.144721 0)
(0.329805 -0.166791 0)
(0.453774 -0.15419 0)
(0.53972 -0.136348 -1.00131e-19)
(0.608113 -0.114806 0)
(0.657606 -0.0888334 0)
(0.687137 -0.0565061 0)
(0.692857 -0.025781 0)
(0.679424 -0.00366742 9.50462e-20)
(0.647559 0.0258702 0)
(0.600998 0.0490668 0)
(0.554466 0.0421343 0)
(0.508774 0.0324784 0)
(0.464561 0.0288426 1.28532e-19)
(0.421888 0.0221942 0)
(0.374292 0.0174413 0)
(0.319397 0.0153546 0)
(0.256039 0.0169967 0)
(0.180796 0.0261558 0)
(0.0868467 0.0446723 0)
(-0.016199 0.0688277 0)
(-0.14265 0.0972574 1.56738e-19)
(-0.293172 0.126738 -1.18726e-19)
(-0.460074 0.152001 9.41613e-20)
(-0.639422 0.171636 7.7547e-20)
(-0.827307 0.185693 0)
(-1.02015 0.194391 0)
(-1.21479 0.198303 -5.13085e-20)
(-1.40856 0.198269 -4.66664e-20)
(-1.59891 0.194924 0)
(-1.78423 0.189261 0)
(-1.96326 0.182081 -3.83084e-20)
(-2.13518 0.174038 0)
(-2.29964 0.165627 0)
(-2.4565 0.157238 3.42666e-20)
(-2.60591 0.149113 0)
(-2.74812 0.141438 3.27043e-20)
(-2.88351 0.13428 6.42486e-20)
(-3.01249 0.12769 0)
(-3.13552 0.121639 0)
(-3.25301 0.116101 0)
(-3.36538 0.110992 0)
(-3.473 0.106256 0)
(-3.57623 0.101798 6.04461e-20)
(-3.67533 0.0975637 6.0134e-20)
(-3.77054 0.0934544 5.98725e-20)
(-3.86203 0.0894191 0)
(-3.94995 0.0853822 -5.94863e-20)
(-4.03436 0.0813206 0)
(-4.11531 0.0771843 5.92431e-20)
(-4.1927 0.072983 5.91703e-20)
(-4.26647 0.0686859 0)
(-4.33645 0.064306 0)
(-4.40253 0.0598156 0)
(-4.46445 0.055258 5.92047e-20)
(-4.52196 0.0506071 0)
(-4.5747 0.0458872 0)
(-4.62238 0.0410345 0)
(-4.6645 0.0360955 0)
(-4.70059 0.0310004 0)
(-4.73016 0.0257964 0)
(-4.75277 0.0204462 0)
(-4.76814 0.0150772 0)
(-4.77594 0.00980105 -6.14556e-20)
(-4.7772 0.00476978 0)
(-4.77206 -0.000123867 0)
(-4.76047 -0.00488402 6.18854e-20)
(-4.74233 -0.0102082 6.18789e-20)
(-4.7173 -0.0160346 0)
(-4.68527 -0.0216711 -6.14543e-20)
(-4.64621 -0.0271276 6.10092e-20)
(-4.60007 -0.0323329 0)
(-4.54691 -0.0375222 -5.96214e-20)
(-4.48667 -0.0427468 0)
(-4.41966 -0.0474916 0)
(-4.3458 -0.0532518 5.6056e-20)
(-4.26516 -0.0582808 0)
(-4.17827 -0.0626572 -5.25065e-20)
(-4.08504 -0.0696527 0)
(-3.98524 -0.074587 4.77956e-20)
(-3.88035 -0.0787446 4.50319e-20)
(-3.76983 -0.0827243 4.18481e-20)
(-3.65526 -0.0860718 7.70998e-20)
(-3.53574 -0.0910458 -6.96934e-20)
(-3.41293 -0.0934666 0)
(-3.28721 -0.0960239 0)
(-3.15923 -0.097987 0)
(-3.02954 -0.0995743 -3.42766e-20)
(-2.89851 -0.1006 -2.40542e-20)
(-2.7666 -0.101187 1.32986e-20)
(-2.63439 -0.101319 0)
(-2.50235 -0.101129 9.81892e-21)
(-2.37092 -0.100587 2.21878e-20)
(-2.2405 -0.0997641 3.50982e-20)
(-2.11148 -0.0986232 0)
(-1.9842 -0.0972449 0)
(-1.85896 -0.0956351 0)
(-1.736 -0.093868 9.26176e-20)
(-1.6155 -0.0919508 0)
(-1.49755 -0.0899066 0)
(-1.38224 -0.087772 -1.43152e-19)
(-1.26966 -0.0855693 0)
(-1.15997 -0.0834083 0)
(-1.05326 -0.0812426 -2.02391e-19)
(-0.949616 -0.0792341 0)
(-0.84901 -0.077329 0)
(-0.751386 -0.0755719 2.73753e-19)
(-0.656676 -0.0738862 3.01197e-19)
(-0.564764 -0.0723644 0)
(-0.475554 -0.0709203 -3.63408e-19)
(-0.388924 -0.0696387 0)
(-0.304794 -0.0684144 4.38499e-19)
(-0.222995 -0.067329 0)
(-0.143398 -0.0663027 5.32052e-19)
(-0.0662885 -0.0652268 5.88579e-19)
(0.00896524 -0.0631549 0)
(0.0828775 -0.0600426 0)
(0.154801 -0.0566767 0)
(0.22481 -0.0535073 0)
(0.293013 -0.0505726 0)
(0.359467 -0.0479306 0)
(0.424183 -0.0454939 0)
(0.487086 -0.0432261 4.53284e-19)
(0.548233 -0.0410707 -4.39679e-19)
(0.607822 -0.0391702 0)
(0.665898 -0.0374496 0)
(0.722605 -0.0359101 0)
(0.778107 -0.0345524 0)
(0.832369 -0.0332475 -7.75175e-19)
(0.885404 -0.0318066 0)
(0.93743 -0.0304821 7.439e-19)
(0.988424 -0.0294005 -7.29897e-19)
(1.03838 -0.0284935 0)
(1.08727 -0.0274977 0)
(1.13518 -0.0263826 0)
(1.18221 -0.0253632 6.82385e-19)
(1.22828 -0.0246139 6.72217e-19)
(1.27324 -0.0239222 0)
(1.31727 -0.0231895 6.53691e-19)
(1.36054 -0.0225169 6.45266e-19)
(1.40308 -0.0219014 -6.37295e-19)
(1.44478 -0.0211834 0)
(1.48571 -0.0203777 0)
(1.52588 -0.0196771 -6.15737e-19)
(1.56521 -0.0190628 0)
(1.60374 -0.018708 0)
(1.64137 -0.0183464 0)
(1.6781 -0.017511 0)
(1.71405 -0.0164787 5.86209e-19)
(1.74918 -0.0156103 5.81053e-19)
(1.78358 -0.0151988 0)
(1.81728 -0.0152486 5.71305e-19)
(1.85012 -0.0152543 0)
(1.88237 -0.0150135 0)
(1.91408 -0.0148652 5.57852e-19)
(1.94502 -0.014525 0)
(1.97512 -0.0139928 5.49867e-19)
(2.00412 -0.0132287 0)
(2.03185 -0.012334 0)
(2.05785 -0.0112976 5.40496e-19)
(2.08209 -0.010256 0)
(2.10437 -0.0098358 5.37189e-19)
(2.1244 -0.00957125 0)
(2.14325 -0.00966131 0)
(2.16052 -0.0101399 0)
(2.17618 -0.0106865 -5.47167e-19)
(2.19139 -0.0131784 0)
(2.2061 -0.0152105 5.62097e-19)
(2.21997 -0.0164652 0)
(2.23284 -0.0196499 0)
(2.25192 -0.0277844 0)
(2.27713 -0.0248052 0)
(2.30103 0.0404919 0)
(2.33226 0.07069 0)
(2.35658 0.0428055 0)
(2.36925 0.0310948 -9.41217e-19)
(2.36523 0.0311153 0)
(2.2688 0.0382963 0)
(0.0699599 -0.295906 5.60183e-19)
(0.17628 -0.359004 -2.91643e-19)
(0.268188 -0.332284 0)
(0.338965 -0.30381 1.15876e-19)
(0.390711 -0.26037 0)
(0.425146 -0.208333 4.86152e-20)
(0.445234 -0.151513 -9.63711e-20)
(0.452989 -0.0926327 -9.78247e-20)
(0.44994 -0.0340731 0)
(0.438948 0.021157 -1.0653e-19)
(0.420586 0.0698318 -5.66394e-20)
(0.392462 0.107419 0)
(0.351713 0.127831 0)
(0.297507 0.135436 0)
(0.228447 0.135955 0)
(0.143952 0.136058 -7.44781e-20)
(0.0479903 0.148515 0)
(-0.0625002 0.175399 1.40678e-19)
(-0.194344 0.213319 0)
(-0.349598 0.259074 0)
(-0.525481 0.309827 -1.00045e-19)
(-0.717185 0.361186 0)
(-0.918844 0.408719 7.84928e-20)
(-1.12565 0.448991 -3.54642e-20)
(-1.33218 0.479489 3.19044e-20)
(-1.53534 0.499159 -2.90406e-20)
(-1.73249 0.508336 -2.67633e-20)
(-1.92144 0.508268 0)
(-2.10063 0.500555 0)
(-2.26918 0.486783 2.24397e-20)
(-2.42653 0.468728 -2.1676e-20)
(-2.57317 0.447988 0)
(-2.7097 0.425591 0)
(-2.83689 0.402554 1.99691e-20)
(-2.95556 0.379636 0)
(-3.06659 0.357377 0)
(-3.17077 0.33617 -1.93019e-20)
(-3.26887 0.316222 0)
(-3.36155 0.297669 1.91717e-20)
(-3.44939 0.280517 -3.81231e-20)
(-3.53287 0.264754 0)
(-3.6124 0.250282 0)
(-3.6883 0.237017 -7.589e-20)
(-3.76082 0.22481 -7.58757e-20)
(-3.83016 0.213547 -7.59054e-20)
(-3.89647 0.20307 3.77819e-20)
(-3.95985 0.193263 -3.82704e-20)
(-4.02036 0.183967 -1.14568e-19)
(-4.07802 0.175068 7.63649e-20)
(-4.13284 0.166417 3.85502e-20)
(-4.1848 0.157927 0)
(-4.23386 0.149476 -3.8754e-20)
(-4.27992 0.141001 3.83162e-20)
(-4.3229 0.132399 0)
(-4.36271 0.12362 0)
(-4.39925 0.114565 0)
(-4.43244 0.10522 -3.93162e-20)
(-4.46217 0.0955086 0)
(-4.48839 0.0854441 7.88804e-20)
(-4.51105 0.0749628 0)
(-4.53015 0.0641395 7.95667e-20)
(-4.54568 0.0529468 0)
(-4.55769 0.0415093 -8.02396e-20)
(-4.56622 0.0298559 0)
(-4.57116 0.0182008 8.08131e-20)
(-4.57249 0.0066182 -4.03096e-20)
(-4.56887 -0.00481622 0)
(-4.55956 -0.0163485 -8.08959e-20)
(-4.5441 -0.0279615 -4.04427e-20)
(-4.52217 -0.0397253 -4.02778e-20)
(-4.4937 -0.0515497 0)
(-4.45853 -0.0635529 -3.97725e-20)
(-4.41645 -0.075507 -3.90933e-20)
(-4.36741 -0.0874697 0)
(-4.31128 -0.0992004 3.77107e-20)
(-4.24819 -0.110805 -7.42464e-20)
(-4.17807 -0.122065 0)
(-4.10094 -0.1328 -3.47412e-20)
(-4.01715 -0.143023 0)
(-3.92663 -0.152799 9.77785e-20)
(-3.82983 -0.161853 0)
(-3.72754 -0.170223 -8.83034e-20)
(-3.61969 -0.177824 -2.70592e-20)
(-3.50683 -0.18458 2.68495e-20)
(-3.38938 -0.19047 4.97403e-20)
(-3.26799 -0.195251 -4.54341e-20)
(-3.14343 -0.199159 0)
(-3.01599 -0.202187 0)
(-2.88653 -0.204387 0)
(-2.75557 -0.205711 6.76831e-20)
(-2.62358 -0.206119 1.54811e-20)
(-2.49105 -0.205616 -9.82149e-21)
(-2.35841 -0.204233 0)
(-2.22619 -0.202117 -2.94758e-21)
(-2.09484 -0.199319 -7.85994e-21)
(-1.96477 -0.19598 -1.39265e-20)
(-1.83636 -0.19213 0)
(-1.7099 -0.187864 0)
(-1.58565 -0.183229 0)
(-1.46383 -0.178345 -3.86301e-20)
(-1.34459 -0.173254 0)
(-1.22804 -0.168004 9.79093e-20)
(-1.11422 -0.162627 1.67886e-19)
(-1.00321 -0.157175 -1.23145e-19)
(-0.895084 -0.151763 0)
(-0.78992 -0.14644 -7.22312e-20)
(-0.687747 -0.141334 0)
(-0.588545 -0.136422 -1.73528e-19)
(-0.492252 -0.131755 9.12576e-20)
(-0.398772 -0.127289 9.76112e-20)
(-0.308002 -0.12307 0)
(-0.219816 -0.119029 3.37847e-19)
(-0.134093 -0.115222 -2.36945e-19)
(-0.050684 -0.111629 -1.25919e-19)
(0.0306611 -0.108332 0)
(0.109947 -0.105209 -1.30379e-19)
(0.187225 -0.10215 -3.91829e-19)
(0.26249 -0.098829 0)
(0.335488 -0.0951364 -2.6497e-19)
(0.406405 -0.0913341 -2.67214e-19)
(0.475653 -0.0876722 -2.69321e-19)
(0.543389 -0.0842021 0)
(0.609645 -0.0809576 0)
(0.674395 -0.0778971 0)
(0.737675 -0.0750339 1.37218e-19)
(0.79952 -0.0723423 1.39641e-19)
(0.859958 -0.0698551 0)
(0.919079 -0.0675186 2.80127e-19)
(0.976937 -0.0653277 2.81267e-19)
(1.03357 -0.0632422 0)
(1.08906 -0.0612577 2.84712e-19)
(1.14347 -0.0593284 5.68725e-19)
(1.1968 -0.0575316 -2.86467e-19)
(1.24906 -0.055837 -2.84904e-19)
(1.30027 -0.0542076 0)
(1.35051 -0.0525964 0)
(1.39981 -0.0510461 0)
(1.44813 -0.0495849 -2.90185e-19)
(1.49543 -0.0482142 2.88822e-19)
(1.54175 -0.046845 5.8075e-19)
(1.58716 -0.0454784 -2.91838e-19)
(1.63172 -0.0441582 2.90667e-19)
(1.67548 -0.0428864 2.92983e-19)
(1.71846 -0.0416259 0)
(1.76062 -0.0403697 0)
(1.802 -0.0391809 -2.92987e-19)
(1.84255 -0.0379844 0)
(1.88224 -0.0367872 0)
(1.92118 -0.0356137 5.89844e-19)
(1.95935 -0.0344321 0)
(1.99665 -0.0333446 2.94841e-19)
(2.03315 -0.0323602 -2.96197e-19)
(2.06889 -0.031452 0)
(2.10395 -0.0305953 2.95089e-19)
(2.13835 -0.0296803 0)
(2.17202 -0.0286775 0)
(2.20495 -0.0277627 -2.95961e-19)
(2.23706 -0.0267786 5.90561e-19)
(2.26814 -0.0256819 -2.95654e-19)
(2.29803 -0.0244165 0)
(2.32655 -0.0229606 0)
(2.35359 -0.0213787 2.94768e-19)
(2.37895 -0.019656 0)
(2.40277 -0.0180389 2.96104e-19)
(2.42529 -0.0165153 0)
(2.44678 -0.0150844 0)
(2.46772 -0.0140548 0)
(2.48875 -0.0133413 3.14964e-19)
(2.51021 -0.0124532 0)
(2.53162 -0.0121511 -3.37858e-19)
(2.55345 -0.0121404 0)
(2.57561 -0.0112002 0)
(2.59571 -0.0115668 7.37996e-19)
(2.61138 -0.0186998 -7.59272e-19)
(2.62376 -0.0333849 0)
(2.62569 -0.0318623 0)
(2.62685 -0.0197902 0)
(2.62238 -0.0059667 1.93296e-18)
(2.62319 0.0169104 0)
(2.60178 0.0517106 -1.28324e-18)
(0.0506838 -0.531126 1.24524e-21)
(0.11704 -0.551228 2.95981e-19)
(0.162143 -0.476676 0)
(0.192485 -0.395097 -1.83034e-19)
(0.209312 -0.313009 0)
(0.21342 -0.231593 0)
(0.206053 -0.151835 -2.09759e-22)
(0.188494 -0.0747395 7.94227e-20)
(0.161478 -0.00142084 8.15689e-20)
(0.125305 0.0673469 8.36152e-20)
(0.0800394 0.130717 0)
(0.024872 0.187279 0)
(-0.0426135 0.236031 -8.82914e-20)
(-0.125757 0.278613 -1.68741e-19)
(-0.228015 0.31888 1.59745e-19)
(-0.35185 0.362111 0)
(-0.496596 0.414065 1.38849e-19)
(-0.658984 0.476298 -6.45017e-20)
(-0.834866 0.544202 0)
(-1.01888 0.610951 1.07759e-19)
(-1.20505 0.671181 5.02857e-20)
(-1.3881 0.721264 -9.19326e-20)
(-1.56393 0.759187 -4.32883e-20)
(-1.72947 0.783981 0)
(-1.88318 0.795351 7.57616e-20)
(-2.02462 0.794222 7.18522e-20)
(-2.15428 0.782341 0)
(-2.27326 0.761728 6.56691e-20)
(-2.38284 0.734511 0)
(-2.48436 0.702738 6.12765e-20)
(-2.5793 0.668194 2.93865e-20)
(-2.66882 0.632472 0)
(-2.75379 0.596786 0)
(-2.835 0.562011 0)
(-2.91307 0.528751 0)
(-2.98846 0.497381 0)
(-3.06151 0.468098 0)
(-3.13246 0.440955 5.49866e-20)
(-3.20148 0.415913 -8.20343e-20)
(-3.2687 0.392854 0)
(-3.33418 0.371631 0)
(-3.39796 0.352059 0)
(-3.46008 0.333957 3.03947e-24)
(-3.52052 0.317125 5.45756e-20)
(-3.57929 0.301384 1.09244e-19)
(-3.63635 0.286546 -1.09442e-19)
(-3.69169 0.272452 -5.47397e-20)
(-3.74526 0.258933 5.509e-20)
(-3.79701 0.245849 -2.65761e-22)
(-3.8469 0.233054 5.51336e-20)
(-3.89485 0.220435 0)
(-3.9408 0.207877 5.54643e-20)
(-3.98463 0.195296 -3.31769e-22)
(-4.02625 0.182594 0)
(-4.06553 0.1697 0)
(-4.10237 0.156538 -5.6259e-20)
(-4.13662 0.143068 0)
(-4.16813 0.129231 0)
(-4.19673 0.115004 5.66903e-20)
(-4.22224 0.100346 1.14397e-19)
(-4.24444 0.0852653 -5.76639e-20)
(-4.26308 0.0697269 0)
(-4.27787 0.0537343 5.80629e-20)
(-4.28847 0.0372391 0)
(-4.29452 0.0202373 5.80745e-20)
(-4.29564 0.00266461 5.82604e-20)
(-4.29142 -0.0154402 -1.16248e-19)
(-4.28154 -0.0340202 -5.80157e-20)
(-4.26569 -0.0529558 0)
(-4.24358 -0.0722088 1.15016e-19)
(-4.21504 -0.0916653 0)
(-4.17989 -0.111243 1.69317e-19)
(-4.13793 -0.130772 1.11682e-19)
(-4.08908 -0.150136 1.09989e-19)
(-4.03318 -0.169176 -1.08009e-19)
(-3.97034 -0.18779 1.578e-19)
(-3.90046 -0.205878 0)
(-3.82365 -0.223217 0)
(-3.74015 -0.239593 -9.67265e-20)
(-3.65012 -0.255007 -1.38432e-19)
(-3.55401 -0.269397 0)
(-3.45235 -0.282489 4.0804e-20)
(-3.3453 -0.294168 0)
(-3.23344 -0.304349 -1.08715e-19)
(-3.11716 -0.313077 2.69045e-21)
(-2.99715 -0.320209 -2.77853e-21)
(-2.87396 -0.325746 5.49204e-20)
(-2.74818 -0.329762 0)
(-2.62046 -0.33231 -4.11515e-20)
(-2.4914 -0.333408 2.98617e-21)
(-2.36151 -0.333068 0)
(-2.23121 -0.331327 0)
(-2.10103 -0.328299 0)
(-1.97144 -0.3241 7.01122e-22)
(-1.84287 -0.318874 0)
(-1.71572 -0.312745 0)
(-1.59033 -0.305865 0)
(-1.46698 -0.29835 0)
(-1.34589 -0.29033 0)
(-1.22726 -0.28193 -4.2703e-20)
(-1.11123 -0.27325 0)
(-0.997898 -0.26438 -6.01811e-20)
(-0.887292 -0.255371 -6.74453e-20)
(-0.779472 -0.246343 7.4598e-20)
(-0.674488 -0.23738 0)
(-0.572381 -0.228611 8.85462e-20)
(-0.473155 -0.220104 0)
(-0.37677 -0.211929 1.01998e-19)
(-0.283156 -0.204077 -1.08551e-19)
(-0.19221 -0.196569 -3.40862e-19)
(-0.10383 -0.189406 0)
(-0.0178253 -0.18262 -3.75996e-19)
(0.0658951 -0.176201 -1.26593e-19)
(0.147337 -0.170093 0)
(0.226563 -0.164216 -2.68954e-19)
(0.303666 -0.158541 -2.74388e-19)
(0.378765 -0.153061 4.20853e-19)
(0.451942 -0.147818 0)
(0.523227 -0.142769 1.4604e-19)
(0.592767 -0.137849 1.48282e-19)
(0.660761 -0.133114 4.48726e-19)
(0.727315 -0.128586 0)
(0.792461 -0.12428 0)
(0.856208 -0.120189 0)
(0.918568 -0.116296 1.55995e-19)
(0.97958 -0.112611 0)
(1.0393 -0.109126 0)
(1.09776 -0.105809 -1.63189e-19)
(1.15501 -0.102665 -1.64758e-19)
(1.2111 -0.0996585 0)
(1.26606 -0.0967606 0)
(1.31993 -0.0939711 -3.3845e-19)
(1.37274 -0.0913051 0)
(1.42452 -0.0887554 3.43997e-19)
(1.47527 -0.0862847 3.45202e-19)
(1.52502 -0.0838655 0)
(1.57379 -0.0815278 0)
(1.62158 -0.0792863 -3.52912e-19)
(1.66838 -0.0771146 -1.26613e-21)
(1.71419 -0.0749755 -1.21985e-21)
(1.75907 -0.0728912 0)
(1.80312 -0.0708761 -7.24846e-19)
(1.84636 -0.0689115 0)
(1.88877 -0.0669744 0)
(1.93039 -0.0650775 0)
(1.97121 -0.0632063 3.70783e-19)
(2.01121 -0.0613744 0)
(2.05042 -0.0595455 -7.46153e-19)
(2.08883 -0.0577249 -3.75448e-19)
(2.12642 -0.0559789 0)
(2.16323 -0.0543088 -3.77862e-19)
(2.1993 -0.0527177 0)
(2.23468 -0.0512119 0)
(2.26934 -0.0497415 -1.13897e-18)
(2.30323 -0.0482598 7.59763e-19)
(2.33634 -0.0467834 0)
(2.36867 -0.0452639 7.60975e-19)
(2.40008 -0.0436509 -3.81313e-19)
(2.43045 -0.0418498 0)
(2.45969 -0.039799 0)
(2.48772 -0.0374976 0)
(2.51449 -0.0349982 -1.14346e-18)
(2.53998 -0.0324918 0)
(2.56437 -0.0300933 -3.83171e-19)
(2.58783 -0.0280104 0)
(2.61066 -0.0264875 0)
(2.63335 -0.0254027 0)
(2.65598 -0.0247989 0)
(2.67878 -0.0247742 0)
(2.70158 -0.0244385 0)
(2.72406 -0.0239336 -9.33708e-19)
(2.7458 -0.0235753 0)
(2.76496 -0.023634 -5.08179e-19)
(2.78001 -0.0231254 1.58383e-18)
(2.79134 -0.019227 0)
(2.79773 -0.0153974 0)
(2.79909 -0.0113692 -1.04046e-18)
(2.79428 -0.000662777 -1.03705e-18)
(2.78974 0.0210901 1.02316e-18)
(2.77446 0.059777 1.02864e-18)
(0.0107932 -0.644013 -6.47706e-19)
(0.0359358 -0.59967 -3.72223e-19)
(0.0365958 -0.504799 -1.86787e-19)
(0.0293978 -0.403779 -7.9662e-20)
(0.0150404 -0.302136 0)
(-0.00780143 -0.201526 1.39764e-19)
(-0.0396146 -0.102858 -6.84033e-20)
(-0.0805335 -0.00700253 0)
(-0.131057 0.0855815 -6.65112e-20)
(-0.191838 0.174542 0)
(-0.263703 0.259639 1.26664e-19)
(-0.347892 0.3409 0)
(-0.446063 0.418959 5.90619e-20)
(-0.559376 0.495324 1.11936e-19)
(-0.688238 0.571782 -1.05324e-19)
(-0.8313 0.648987 0)
(-0.984578 0.726234 -9.20066e-20)
(-1.1424 0.800755 0)
(-1.29908 0.86805 0)
(-1.44987 0.923933 -7.50311e-20)
(-1.59125 0.965928 0)
(-1.72103 0.993362 1.23325e-22)
(-1.83851 1.00667 0)
(-1.94406 1.00683 0)
(-2.03878 0.995324 4.11311e-22)
(-2.12432 0.973948 -5.40544e-20)
(-2.20252 0.94479 -5.26483e-20)
(-2.27507 0.909952 -5.0192e-20)
(-2.34349 0.87136 0)
(-2.40905 0.830713 -9.5865e-20)
(-2.47272 0.78943 0)
(-2.53519 0.748526 -4.65668e-20)
(-2.59689 0.70877 0)
(-2.65809 0.670707 0)
(-2.71892 0.63467 4.49586e-20)
(-2.77943 0.600835 0)
(-2.83958 0.569256 -4.43655e-20)
(-2.89933 0.539889 3.18061e-22)
(-2.95858 0.512632 8.78084e-20)
(-3.01725 0.487334 -8.78811e-20)
(-3.07524 0.463822 0)
(-3.13247 0.441905 0)
(-3.18883 0.421389 -4.39497e-20)
(-3.24425 0.402081 0)
(-3.29865 0.383792 -4.39854e-20)
(-3.35194 0.36634 4.40979e-20)
(-3.40404 0.349551 4.42255e-20)
(-3.45488 0.333262 0)
(-3.50438 0.317321 -4.45219e-20)
(-3.55244 0.301584 -4.4688e-20)
(-3.59897 0.285922 8.94952e-20)
(-3.64388 0.270217 -4.505e-20)
(-3.68703 0.254364 -4.52446e-20)
(-3.72831 0.238259 0)
(-3.76755 0.221812 0)
(-3.80461 0.204937 4.5882e-20)
(-3.83931 0.187562 0)
(-3.87144 0.169618 0)
(-3.90079 0.151048 -9.31679e-20)
(-3.9271 0.131796 -9.36474e-20)
(-3.9501 0.111823 0)
(-3.96948 0.0910867 0)
(-3.98492 0.0695558 0)
(-3.99606 0.0471972 0)
(-4.00258 0.0240074 -9.55217e-20)
(-4.00414 -1.793e-05 9.56873e-20)
(-4.00044 -0.02484 9.53784e-20)
(-3.99118 -0.0503827 1.90667e-19)
(-3.97606 -0.0765231 0)
(-3.95482 -0.103134 5.83048e-22)
(-3.92722 -0.130075 0)
(-3.89305 -0.157206 -9.25604e-20)
(-3.85213 -0.184335 9.56769e-22)