# vtk DataFile Version 2.0
track0
ASCII
DATASET POLYDATA
POINTS 12075 float
-0.0205 0.001 1e-05
-0.02052 0.000999985 1e-05
-0.02054 0.000999974 1e-05
-0.02056 0.000999965 1e-05
-0.02058 0.000999959 1e-05
-0.0206 0.000999956 1e-05
-0.0205 0.00367778 1e-05
-0.02052 0.00367778 1e-05
-0.02054 0.00367777 1e-05
-0.02056 0.00367777 1e-05
-0.02058 0.00367777 1e-05
-0.0206 0.00367777 1e-05
-0.0205 0.00635556 1e-05
-0.02052 0.00635555 1e-05
-0.02054 0.00635555 1e-05
-0.02056 0.00635555 1e-05
-0.02058 0.00635555 1e-05
-0.0206 0.00635555 1e-05
-0.0205 0.00903333 1e-05
-0.02052 0.00903333 1e-05
-0.02054 0.00903333 1e-05
-0.02056 0.00903333 1e-05
-0.02058 0.00903333 1e-05
-0.0206 0.00903333 1e-05
-0.0205 0.0117111 1e-05
-0.02052 0.0117111 1e-05
-0.02054 0.0117111 1e-05
-0.02056 0.0117111 1e-05
-0.02058 0.0117111 1e-05
-0.0206 0.0117111 1e-05
-0.0205 0.0143889 1e-05
-0.02052 0.0143889 1e-05
-0.02054 0.0143889 1e-05
-0.02056 0.0143889 1e-05
-0.02058 0.0143889 1e-05
-0.0206 0.0143889 1e-05
-0.0205 0.0170667 1e-05
-0.02052 0.0170667 1e-05
-0.02054 0.0170667 1e-05
-0.02056 0.0170667 1e-05
-0.02058 0.0170667 1e-05
-0.0206 0.0170667 1e-05
-0.0205 0.0197444 1e-05
-0.02052 0.0197444 1e-05
-0.02054 0.0197444 1e-05
-0.02056 0.0197444 1e-05
-0.02058 0.0197444 1e-05
-0.0206 0.0197444 1e-05
-0.0205 0.0224222 1e-05
-0.02052 0.0224222 1e-05
-0.02054 0.0224222 1e-05
-0.02056 0.0224222 1e-05
-0.02058 0.0224222 1e-05
-0.0206 0.0224222 1e-05
-0.0205 0.0251 1e-05
-0.02052 0.0250998 1e-05
-0.02054 0.0250997 1e-05
-0.02056 0.0250995 1e-05
-0.02058 0.0250995 1e-05
-0.0206 0.0250994 1e-05
-0.0205 0.001 1e-05
-0.0202034 0.00100022 1e-05
-0.0199069 0.00100067 1e-05
-0.0196103 0.00100133 1e-05
-0.0193137 0.00100219 1e-05
-0.0190172 0.00100326 1e-05
-0.0187132 0.00100467 1e-05
-0.0184093 0.00100589 1e-05
-0.0181054 0.00100711 1e-05
-0.0178015 0.00100833 1e-05
-0.0174976 0.00100954 1e-05
-0.0172058 0.00101083 1e-05
-0.016914 0.00101194 1e-05
-0.0166222 0.00101303 1e-05
-0.0163305 0.00101413 1e-05
-0.0160387 0.00101523 1e-05
-0.0157586 0.00101637 1e-05
-0.0154784 0.00101745 1e-05
-0.0151983 0.00101856 1e-05
-0.0149182 0.00101972 1e-05
-0.0146381 0.00102091 1e-05
-0.0143747 0.00102209 1e-05
-0.0141114 0.00102327 1e-05
-0.013848 0.00102449 1e-05
-0.0135847 0.00102574 1e-05
-0.0133623 0.00102682 1e-05
-0.0133485 0.00102689 1e-05
-0.0133347 0.00102695 1e-05
-0.013321 0.00102702 1e-05
-0.0133072 0.00102709 1e-05
-0.0132934 0.00102716 1e-05
-0.0130353 0.00102845 1e-05
-0.0127771 0.00102975 1e-05
-0.0125189 0.00103107 1e-05
-0.0122607 0.0010324 1e-05
-0.0120025 0.00103376 1e-05
-0.0117547 0.00103506 1e-05
-0.0115068 0.00103638 1e-05
-0.0112589 0.0010377 1e-05
-0.0110111 0.00103903 1e-05
-0.0107632 0.00104036 1e-05
-0.0105252 0.00104163 1e-05
-0.0102873 0.00104291 1e-05
-0.0100493 0.00104419 1e-05
-0.00981133 0.00104547 1e-05
-0.00957337 0.00104675 1e-05
-0.00934491 0.00104797 1e-05
-0.00911645 0.00104919 1e-05
-0.00888799 0.00105041 1e-05
-0.00865954 0.00105163 1e-05
-0.00843108 0.00105285 1e-05
-0.00821175 0.001054 1e-05
-0.00799242 0.00105516 1e-05
-0.00777309 0.00105632 1e-05
-0.00755376 0.00105747 1e-05
-0.00733443 0.00105861 1e-05
-0.00712387 0.00105971 1e-05
-0.0069133 0.0010608 1e-05
-0.00670273 0.00106189 1e-05
-0.00649216 0.00106297 1e-05
-0.0062816 0.00106405 1e-05
-0.00607944 0.00106508 1e-05
-0.00587729 0.0010661 1e-05
-0.00567514 0.00106713 1e-05
-0.00547298 0.00106815 1e-05
-0.00527083 0.00106916 1e-05
-0.00507675 0.00107013 1e-05
-0.00488267 0.0010711 1e-05
-0.0046886 0.00107206 1e-05
-0.00449452 0.00107302 1e-05
-0.00430044 0.00107398 1e-05
-0.00411412 0.00107489 1e-05
-0.0039278 0.0010758 1e-05
-0.00374147 0.00107671 1e-05
-0.00355515 0.00107762 1e-05
-0.00336883 0.00107852 1e-05
-0.00318995 0.00107938 1e-05
-0.00301107 0.00108024 1e-05
-0.00283219 0.0010811 1e-05
-0.00265331 0.00108196 1e-05
-0.00247443 0.00108282 1e-05
-0.0023027 0.00108363 1e-05
-0.00213097 0.00108445 1e-05
-0.00195924 0.00108527 1e-05
-0.0017875 0.00108609 1e-05
-0.00161577 0.00108691 1e-05
-0.0014509 0.00108769 1e-05
-0.00128603 0.00108848 1e-05
-0.00112116 0.00108926 1e-05
-0.000956289 0.00109005 1e-05
-0.000791418 0.00109085 1e-05
-0.000633135 0.00109161 1e-05
-0.000474851 0.00109238 1e-05
-0.000316567 0.00109315 1e-05
-0.000158284 0.00109392 1e-05
0 0.00109469 1e-05
0.000105677 0.00109521 1e-05
0.000211355 0.00109572 1e-05
0.000317032 0.00109624 1e-05
0.00042271 0.00109675 1e-05
0.000528387 0.00109726 1e-05
0.000634886 0.00109777 1e-05
0.000741385 0.00109827 1e-05
0.000847885 0.00109877 1e-05
0.000954384 0.00109927 1e-05
0.00106088 0.00109977 1e-05
0.00116821 0.00110026 1e-05
0.00127554 0.00110075 1e-05
0.00138286 0.00110123 1e-05
0.00149019 0.0011017 1e-05
0.00159752 0.00110217 1e-05
0.00170568 0.00110263 1e-05
0.00181384 0.00110309 1e-05
0.001922 0.00110354 1e-05
0.00203016 0.00110398 1e-05
0.00213833 0.00110441 1e-05
0.00224733 0.00110483 1e-05
0.00235633 0.00110525 1e-05
0.00246533 0.00110565 1e-05
0.00257434 0.00110605 1e-05
0.00268334 0.00110644 1e-05
0.00279319 0.00110682 1e-05
0.00290304 0.0011072 1e-05
0.00301289 0.00110757 1e-05
0.00312274 0.00110793 1e-05
0.00323259 0.00110828 1e-05
0.00334329 0.00110862 1e-05
0.003454 0.00110896 1e-05
0.0035647 0.00110929 1e-05
0.0036754 0.00110962 1e-05
0.00378611 0.00110993 1e-05
0.00389767 0.00111024 1e-05
0.00400924 0.00111054 1e-05
0.0041208 0.00111083 1e-05
0.00423237 0.00111112 1e-05
0.00434393 0.0011114 1e-05
0.00445636 0.00111166 1e-05
0.00456879 0.00111193 1e-05
0.00468123 0.00111218 1e-05
0.00479366 0.00111243 1e-05
0.00490609 0.00111267 1e-05
0.0050194 0.0011129 1e-05
0.0051327 0.00111312 1e-05
0.00524601 0.00111334 1e-05
0.00535932 0.00111355 1e-05
0.00547262 0.00111375 1e-05
0.00558681 0.00111395 1e-05
0.005701 0.00111413 1e-05
0.00581518 0.00111431 1e-05
0.00592937 0.00111448 1e-05
0.00604356 0.00111465 1e-05
0.00615863 0.0011148 1e-05
0.00627371 0.00111495 1e-05
0.00638878 0.00111509 1e-05
0.00650386 0.00111523 1e-05
0.00661893 0.00111535 1e-05
0.0067349 0.00111547 1e-05
0.00685087 0.00111558 1e-05
0.00696684 0.00111569 1e-05
0.00708281 0.00111578 1e-05
0.00719878 0.00111587 1e-05
0.00731565 0.00111595 1e-05
0.00743252 0.00111602 1e-05
0.00754939 0.00111608 1e-05
0.00766626 0.00111614 1e-05
0.00778313 0.00111619 1e-05
0.00778694 0.00111619 1e-05
0.00779075 0.00111619 1e-05
0.00779456 0.00111619 1e-05
0.00779836 0.00111619 1e-05
0.00780216 0.0011162 1e-05
0.00791614 0.00111623 1e-05
0.00803011 0.00111626 1e-05
0.00814409 0.00111629 1e-05
0.00825806 0.0011163 1e-05
0.00837203 0.00111631 1e-05
0.00849073 0.00111631 1e-05
0.00860942 0.0011163 1e-05
0.00872812 0.00111628 1e-05
0.00884682 0.00111626 1e-05
0.00896551 0.00111622 1e-05
0.00908513 0.00111618 1e-05
0.00920475 0.00111612 1e-05
0.00932437 0.00111607 1e-05
0.00944398 0.001116 1e-05
0.0095636 0.00111592 1e-05
0.00968415 0.00111583 1e-05
0.0098047 0.00111573 1e-05
0.00992525 0.00111563 1e-05
0.0100458 0.00111552 1e-05
0.0101663 0.0011154 1e-05
0.0102878 0.00111526 1e-05
0.0104093 0.00111512 1e-05
0.0105308 0.00111497 1e-05
0.0106523 0.00111482 1e-05
0.0107738 0.00111465 1e-05
0.0108962 0.00111447 1e-05
0.0110186 0.00111428 1e-05
0.0111411 0.00111409 1e-05
0.0112635 0.00111388 1e-05
0.0113859 0.00111367 1e-05
0.0115093 0.00111344 1e-05
0.0116327 0.0011132 1e-05
0.0117561 0.00111296 1e-05
0.0118795 0.00111271 1e-05
0.0120028 0.00111245 1e-05
0.0121272 0.00111217 1e-05
0.0122515 0.00111189 1e-05
0.0123759 0.0011116 1e-05
0.0125002 0.0011113 1e-05
0.0126245 0.00111099 1e-05
0.0127498 0.00111065 1e-05
0.0128752 0.00111032 1e-05
0.0130005 0.00110998 1e-05
0.0131258 0.00110963 1e-05
0.0132511 0.00110927 1e-05
0.0133774 0.00110889 1e-05
0.0135036 0.0011085 1e-05
0.0136299 0.00110811 1e-05
0.0137562 0.00110771 1e-05
0.0138825 0.0011073 1e-05
0.0140098 0.00110686 1e-05
0.014137 0.00110643 1e-05
0.0142643 0.00110598 1e-05
0.0143915 0.00110552 1e-05
0.0145188 0.00110506 1e-05
0.0146471 0.00110457 1e-05
0.0147753 0.00110408 1e-05
0.0149036 0.00110358 1e-05
0.0150318 0.00110307 1e-05
0.0151601 0.00110255 1e-05
0.0152893 0.00110201 1e-05
0.0154186 0.00110146 1e-05
0.0155478 0.00110091 1e-05
0.0156771 0.00110034 1e-05
0.0158063 0.00109977 1e-05
0.0159366 0.00109918 1e-05
0.0160668 0.00109858 1e-05
0.0161971 0.00109796 1e-05
0.0163274 0.00109734 1e-05
0.0164576 0.00109671 1e-05
0.0165889 0.00109607 1e-05
0.0167201 0.00109541 1e-05
0.0168514 0.00109474 1e-05
0.0169827 0.00109406 1e-05
0.0171139 0.00109338 1e-05
0.0172462 0.00109268 1e-05
0.0173785 0.00109197 1e-05
0.0175108 0.00109124 1e-05
0.0176431 0.0010905 1e-05
0.0177754 0.00108976 1e-05
0.0179087 0.00108901 1e-05
0.018042 0.00108824 1e-05
0.0181753 0.00108746 1e-05
0.0183087 0.00108666 1e-05
0.018442 0.00108586 1e-05
0.0185763 0.00108506 1e-05
0.0187107 0.00108423 1e-05
0.018845 0.00108339 1e-05
0.0189794 0.00108253 1e-05
0.0191137 0.00108168 1e-05
0.0192491 0.00108082 1e-05
0.0193845 0.00107994 1e-05
0.0195199 0.00107904 1e-05
0.0196553 0.00107812 1e-05
0.0197907 0.00107721 1e-05
0.0199272 0.0010763 1e-05
0.0200636 0.00107536 1e-05
0.0202001 0.00107439 1e-05
0.0203365 0.00107342 1e-05
0.020473 0.00107245 1e-05
0.0206105 0.00107148 1e-05
0.020748 0.00107049 1e-05
0.0208855 0.00106946 1e-05
0.021023 0.00106843 1e-05
0.0211606 0.00106741 1e-05
0.0212991 0.00106638 1e-05
0.0214377 0.00106532 1e-05
0.0215763 0.00106424 1e-05
0.0217149 0.00106315 1e-05
0.0218535 0.00106207 1e-05
0.0219931 0.00106098 1e-05
0.0221328 0.00105987 1e-05
0.0222724 0.00105873 1e-05
0.0224121 0.00105758 1e-05
0.0225517 0.00105644 1e-05
0.0226925 0.00105529 1e-05
0.0228332 0.00105412 1e-05
0.022974 0.00105292 1e-05
0.0231147 0.00105171 1e-05
0.0232555 0.00105051 1e-05
0.0233973 0.00104931 1e-05
0.0235391 0.00104807 1e-05
0.023681 0.00104681 1e-05
0.0238228 0.00104554 1e-05
0.0239647 0.00104428 1e-05
0.0241076 0.00104302 1e-05
0.0242505 0.00104172 1e-05
0.0243935 0.0010404 1e-05
0.0245364 0.00103907 1e-05
0.0246794 0.00103774 1e-05
0.0248234 0.00103642 1e-05
0.0249675 0.00103506 1e-05
0.0251115 0.00103368 1e-05
0.0252556 0.00103229 1e-05
[...]
POINT_DATA 12075
 FIELD attributes 2
p 1 12075 float
-5.45764 -5.45433 -5.45102 -5.44771 -5.44441 -5.4411
-5.61077 -5.61075 -5.61073 -5.6107 -5.61068 -5.61066
-5.78483 -5.78471 -5.78458 -5.78446 -5.78434 -5.78423
-5.87816 -5.87811 -5.87806 -5.878 -5.87795 -5.8779
-5.9233 -5.92319 -5.92308 -5.92297 -5.92285 -5.92274
-5.92994 -5.92978 -5.92961 -5.92945 -5.92929 -5.92913
-5.90312 -5.90305 -5.90297 -5.9029 -5.90283 -5.90276
-5.83365 -5.83361 -5.83357 -5.83353 -5.83349 -5.83345
-5.7125 -5.71251 -5.71252 -5.71252 -5.71253 -5.71254
-3.50003 -3.51936 -3.53855 -3.55762 -3.57654 -3.59534
-5.45764 -5.45697 -5.4534 -5.44975 -5.44602 -5.43775 -5.45166 -5.46668 -5.48169 -5.49671 -5.52117 -5.54293 -5.57286 -5.60278 -5.63271 -5.66544 -5.68108 -5.70276 -5.72445 -5.74613 -5.76943 -5.78829 -5.80915 -5.83002 -5.85088 -5.86851 -5.8696 -5.87069 -5.87177 -5.87286 -5.87394 -5.89557 -5.91719 -5.93882 -5.96045 -5.9818 -6.00052 -6.01904 -6.03756 -6.05609 -6.07404 -6.0896 -6.10489 -6.12017 -6.13546 -6.15019 -6.16388 -6.17733 -6.19078 -6.20422 -6.21722 -6.22983 -6.24217 -6.25451 -6.26685 -6.27877 -6.29043 -6.30179 -6.31314 -6.3245 -6.33543 -6.34622 -6.35672 -6.36722 -6.37772 -6.38786 -6.39796 -6.40777 -6.41757 -6.42738 -6.43685 -6.44637 -6.45566 -6.46494 -6.47422 -6.4833 -6.4924 -6.50115 -6.5099 -6.51864 -6.52719 -6.536 -6.54488 -6.55377 -6.56265 -6.57182 -6.58126 -6.59031 -6.59936 -6.6084 -6.61749 -6.62754 -6.63899 -6.65043 -6.66188 -6.67412 -6.68577 -6.69906 -6.71235 -6.72565 -6.73856 -6.75032 -6.76184 -6.77336 -6.78488 -6.79521 -6.80377 -6.81298 -6.82219 -6.8314 -6.84109 -6.84973 -6.85855 -6.86737 -6.87619 -6.88503 -6.89357 -6.90098 -6.9084 -6.91582 -6.92225 -6.92939 -6.93516 -6.94093 -6.9467 -6.9513 -6.95723 -6.96205 -6.96688 -6.9717 -6.97553 -6.98053 -6.98461 -6.9887 -6.99278 -6.99606 -7.00007 -7.00334 -7.00661 -7.00988 -7.01257 -7.01563 -7.01814 -7.02066 -7.02317 -7.02533 -7.02773 -7.02978 -7.03182 -7.03386 -7.03572 -7.03783 -7.03971 -7.04159 -7.04348 -7.04526 -7.04721 -7.04901 -7.05082 -7.05262 -7.05438 -7.05619 -7.05794 -7.05968 -7.06142 -7.06316 -7.06322 -7.06327 -7.06333 -7.06338 -7.06344 -7.0651 -7.06676 -7.06842 -7.07009 -7.0719 -7.07346 -7.0752 -7.07694 -7.07867 -7.0808 -7.08219 -7.084 -7.08582 -7.08763 -7.09016 -7.09137 -7.09333 -7.09528 -7.09723 -7.10025 -7.10128 -7.10337 -7.10545 -7.10754 -7.11104 -7.11187 -7.11406 -7.11625 -7.11844 -7.12238 -7.12303 -7.12533 -7.12762 -7.12992 -7.1343 -7.13482 -7.13725 -7.13968 -7.14211 -7.14688 -7.14732 -7.14988 -7.15244 -7.15501 -7.16012 -7.16052 -7.16322 -7.16591 -7.1686 -7.17399 -7.17441 -7.17723 -7.18005 -7.18295 -7.18849 -7.18915 -7.19193 -7.19488 -7.19817 -7.20361 -7.20462 -7.20731 -7.21039 -7.21402 -7.21935 -7.22071 -7.22336 -7.22656 -7.23049 -7.2357 -7.23741 -7.24005 -7.24338 -7.24754 -7.25264 -7.25467 -7.25735 -7.2608 -7.26516 -7.27015 -7.27249 -7.27524 -7.2788 -7.28331 -7.28821 -7.29084 -7.29369 -7.29736 -7.30199 -7.3068 -7.30971 -7.31267 -7.31646 -7.32116 -7.32591 -7.32905 -7.3322 -7.3361 -7.3408 -7.3455 -7.34887 -7.35224 -7.35624 -7.3609 -7.36555 -7.36914 -7.37273 -7.37683 -7.38143 -7.38603 -7.38982 -7.3936 -7.39777 -7.40233 -7.40689 -7.41084 -7.41479 -7.41903 -7.42356 -7.42808 -7.43215 -7.43623 -7.44052 -7.44502 -7.44952 -7.45368 -7.45784 -7.46217 -7.46667 -7.47117 -7.4754 -7.47963 -7.48402 -7.48852 -7.49303 -7.49731 -7.50162 -7.50604 -7.51055 -7.51508 -7.51939 -7.52375 -7.5282 -7.53271 -7.53726 -7.5416 -7.54599 -7.55046 -7.55497 -7.55953 -7.56388 -7.56831 -7.57278 -7.57728 -7.58184 -7.58619 -7.59064 -7.59511 -7.5996 -7.60415 -7.60848 -7.61293 -7.61739 -7.62186 -7.62639 -7.63071 -7.63514 -7.63958 -7.64401 -7.64851 -7.65281 -7.65721 -7.6616 -7.666 -7.67044 -7.67472 -7.67907 -7.68341 -7.68776 -7.69214 -7.69638 -7.70066 -7.70495 -7.70924 -7.71354 -7.71772 -7.72192 -7.72613 -7.73034 -7.73455 -7.73717 -7.7398 -7.74243 -7.74506 -7.74761 -7.74911 -7.75061 -7.75211 -7.75362 -7.75512 -7.75914 -7.76315 -7.76716 -7.77117 -7.7752 -7.77909 -7.78298 -7.78688 -7.79077 -7.79467 -7.79845 -7.80221 -7.80596 -7.80972 -7.81349 -7.81712 -7.82072 -7.82431 -7.8279 -7.83149 -7.83497 -7.83837 -7.84177 -7.84517 -7.84855 -7.85185 -7.85504 -7.85823 -7.86141 -7.86456 -7.86766 -7.87066 -7.87363 -7.87657 -7.87948 -7.88235 -7.88515 -7.88787 -7.89054 -7.89318 -7.8958 -7.89838 -7.90082 -7.90318 -7.90552 -7.90786 -7.9102 -7.91233 -7.91434 -7.91635 -7.91838 -7.92042 -7.92223 -7.92389 -7.92554 -7.92723 -7.92892 -7.93039 -7.93165 -7.93291 -7.93423 -7.93554 -7.93664 -7.93748 -7.93832 -7.93922 -7.94013 -7.94083 -7.94121 -7.9416 -7.94207 -7.9425 -7.94274 -7.94271 -7.94261 -7.94261 -7.94252 -7.94226 -7.94181 -7.9412 -7.9407 -7.94001 -7.93922 -7.93834 -7.93718 -7.93614 -7.93482 -7.93346 -7.93211 -7.93037 -7.9287 -7.92674 -7.92478 -7.92282 -7.92058 -7.9182 -7.91559 -7.91299 -7.91039 -7.90762 -7.90447 -7.90118 -7.8979 -7.89462 -7.89131 -7.89047 -7.88961 -7.88876 -7.8879 -7.88705 -7.88394 -7.88084 -7.87774 -7.87464 -7.87142 -7.86685 -7.86213 -7.85742 -7.85271 -7.84773 -7.84256 -7.83703 -7.83152 -7.826 -7.82003 -7.81423 -7.80787 -7.80151 -7.79507 -7.78812 -7.7815 -7.77444 -7.7672 -7.75967 -7.7518 -7.74428 -7.73656 -7.72839 -7.7197 -7.71088 -7.70241 -7.69395 -7.68478 -7.67495 -7.66512 -7.65567 -7.64622 -7.63606 -7.62519 -7.61432 -7.60384 -7.59336 -7.58218 -7.57022 -7.55827 -7.54672 -7.53502 -7.52268 -7.50984 -7.49677 -7.48411 -7.47099 -7.45751 -7.44385 -7.42963 -7.41583 -7.40121 -7.38655 -7.37189 -7.35664 -7.34135 -7.32546 -7.30958 -7.29371 -7.2776 -7.26676 -7.25567 -7.24459 -7.2335 -7.22296 -7.21686 -7.21077 -7.20467 -7.19858 -7.19237 -7.17423 -7.15598 -7.13773 -7.11949 -7.10078 -7.08169 -7.06212 -7.04256 -7.02296 -7.00258 -6.98235 -6.96164 -6.94075 -6.9194 -6.89765 -6.87606 -6.85441 -6.83214 -6.809 -6.78586 -6.76289 -6.73993 -6.71618 -6.69164 -6.6671 -6.64273 -6.61835 -6.59308 -6.56723 -6.54127 -6.51549 -6.4892 -6.4625 -6.43568 -6.4083 -6.38101 -6.35285 -6.32471 -6.29657 -6.2681 -6.24876 -6.22906 -6.20936 -6.18967 -6.17091 -6.16087 -6.15082 -6.14078 -6.13073 -6.12056 -6.08972 -6.05879 -6.02787 -5.99696 -5.96553 -5.93357 -5.9012 -5.86885 -5.83628 -5.80322 -5.76984 -5.73634 -5.70256 -5.66815 -5.63367 -5.59885 -5.56404 -5.5287 -5.49282 -5.45693 -5.4207 -5.38441 -5.34753 -5.3104 -5.27315 -5.23554 -5.19746 -5.15922 -5.12099 -5.08247 -5.04546 -5.00807 -4.97069 -4.93333 -4.89826 -4.89563 -4.893 -4.89037 -4.88773 -4.88507 -4.84435 -4.80362 -4.76291 -4.72221 -4.68104 -4.63936 -4.59741 -4.55548 -4.51333 -4.47077 -4.42791 -4.38502 -4.34191 -4.29824 -4.25456 -4.21057 -4.16659 -4.12219 -4.07748 -4.03276 -3.98771 -3.94246 -3.89694 -3.85141 -3.80574 -3.75964 -3.71319 -3.66676 -3.62034 -3.57389 -3.56778 -3.56163 -3.55549 -3.54935 -3.54325 -3.50214 -3.46104 -3.41995 -3.37887 -3.33751 -3.28956 -3.24158 -3.19362 -3.14553 -3.0972 -3.04855 -2.99992 -2.95127 -2.90237 -2.85345 -2.8042 -2.75496 -2.70553 -2.65614 -2.60673 -2.55697 -2.50711 -2.45721 -2.40733 -2.35751 -2.32549 -2.29344 -2.26138 -2.22934 -2.19827 -2.17987 -2.16146 -2.14306 -2.12466 -2.10622 -2.05558 -2.00502 -1.95448 -1.90393 -1.8533 -1.80235 -1.7515 -1.70079 -1.65007 -1.59932 -1.54826 -1.4972 -1.44622 -1.39547 -1.3447 -1.2936 -1.24255 -1.19156 -1.14057 -1.08983 -1.05374 -1.01774 -0.981735 -0.945738 -0.91067 -0.895535 -0.880401 -0.865267 -0.850135 -0.835016 -0.783988 -0.733088 -0.682195 -0.63132 -0.580526 -0.529472 -0.478556 -0.42788 -0.377355 -0.326819 -0.276014 -0.225217 -0.174599 -0.124404 -0.0741891 -0.0236958 0.0266363 0.0768839 0.127126 0.177075 0.203169 0.229139 0.255107 0.281075 0.306706 0.330739 0.35477 0.3788 0.402829 0.426788 0.476657 0.526236 0.575812 0.625326 0.674704 0.724265 0.773803 0.822846 0.871697 0.920563 0.969623 1.01867 1.06748 1.11594 1.16426 1.21278 1.26106 1.30931 1.35755 1.40566 1.41595 1.42618 1.43642 1.44665 1.45686 1.49447 1.53208 1.56969 1.6073 1.64476 1.69255 1.73985 1.78712 1.83425 1.88129 1.92845 1.9756 2.02234 2.06871 2.1151 2.16162 2.20805 2.25431 2.30044 2.34616 2.38702 2.42769 2.46835 2.50901 2.54954 2.55454 2.55954 2.56454 2.56953 2.57451 2.61977 2.66496 2.71014 2.75533 2.80033 2.84539 2.89018 2.93473 2.97913 3.02349 3.06793 3.11237 3.15659 3.20035 3.24412 3.28797 3.33172 3.3754 3.41908 3.46235 3.4892 3.51597 3.54273 3.5695 3.59629 3.61273 3.62917 3.6456 3.66204 3.67844 3.72147 3.76428 3.80709 3.84988 3.89258 3.93535 3.97804 4.02039 4.06265 4.10491 4.14726 4.18961 4.2319 4.27382 4.31569 4.35767 4.39961 4.44155 4.48348 4.52521 4.54233 4.55944 4.57655 4.59366 4.61075 4.63536 4.65996 4.68457 4.70918 4.73378 4.77555 4.81708 4.85861 4.90014 4.94169 4.98336 5.02502 5.06642 5.10785 5.14929 5.19084 5.2324 5.27404 5.31554 5.35694 5.39846 5.44012 5.48177 5.52343 5.56505 5.57185 5.57868 5.58551 5.59234 5.59914 5.63409 5.66904 5.70398 5.73893 5.77404 5.8161 5.85806 5.90001 5.94213 5.98436 6.02665 6.06894 6.11136 6.15391 6.19648 6.23909 6.28187 6.32487 6.36787 6.41088 6.44071 6.47082 6.50094 6.53105 6.56043 6.57395 6.58747 6.60099 6.61451 6.62817 6.67216 6.71619 6.76023 6.8044 6.84898 6.89356 6.93814 6.983 7.0283 7.07363 7.11896 7.16446 7.21043 7.25642 7.30263 7.33242 7.36263 7.39287 7.4231 7.45234 7.46913 7.48592 7.50271 7.51952 7.53656 7.58407 7.63175 7.67944 7.72747 7.77594 7.82439 7.87284 7.92184 7.97137 8.02097 8.07052 8.12064 8.171 8.22137 8.2719 8.27774 8.28365 8.28958 8.2955 8.30139 8.34679 8.39219 8.43759 8.48313 8.5293 8.58143 8.63356 8.68625 8.73954 8.79292 8.84623 8.89994 8.95406 9.00818 9.06258 9.07321 9.08394 9.09472 9.1055 9.11618 9.16046 9.20475 9.24903 9.29349 9.33844 9.39415 9.44986 9.5061 9.56286 9.61969 9.67637 9.73347 9.79078 9.8481 9.90547 9.90553 9.90559 9.90565 9.90571 9.90577 9.96362 10.0215 10.0793 10.1373 10.1957 10.254 10.3123 10.3708 10.4297 10.4886 10.5271 10.5657 10.6044 10.6431 10.6819 10.7022 10.7224 10.7426 10.7629 10.7832 10.8421 10.9012 10.9603 11.0195 11.0786 11.1374 11.1963 11.2551 11.3139 11.3726 11.3898 11.4069 11.424 11.4411 11.4584 11.4997 11.541 11.5823 11.6236 11.6647 11.7226 11.7804 11.8381 11.8956 11.9529 12.0098 12.0664 12.1228 12.1791 12.2353 12.2393 12.2433 12.2473 12.2513 12.2553 12.3068 12.3584 12.4098 12.4612 12.5122 12.5666 12.621 12.6746 12.7274 12.78 12.832 12.8844 12.937 12.9896 13.0419 13.0577 13.0714 13.0849 13.0984 13.113 13.1459 13.1787 13.2115 13.2441 13.2722 13.3119 13.3573 13.4039 13.4585 13.5171 13.5749 13.6326 13.67 13.6943 13.716 13.7289 13.7434 13.7588 13.7741 13.7916 13.7996 13.8075 13.8155 13.8238 13.8331 13.8581 13.8833 13.9083 13.9336 13.9588 13.9824 14.0059 14.0259 14.0436 14.0606 14.0731 14.0829 14.0921 14.1013 14.1127 14.1143 14.116 14.1176 14.1193 14.1205 14.126 14.1309 14.1357 14.1399 14.1418 14.1403 14.1386 14.1344 14.1277 14.1208 14.1104 14.0996 14.0855 14.07 14.0534 14.0331 14.0088 13.9843 13.9597 13.934 13.9252 13.9154 13.9056 13.8958 13.8851 13.8608 13.8364 13.8119 13.7873 13.7605 13.7173 13.6715 13.6255 13.5783 13.5276 13.4724 13.4161 13.3575 13.2946 13.2313 13.1633 13.0952 13.0225 12.9453 12.868 12.7857 12.7029 12.615 12.5241 12.432 12.3346 12.2337 12.1305 12.0267 11.9188 11.8049 11.6855 11.5662 11.4467 11.3246 11.1907 11.0535 10.9163 10.7791 10.6412 10.6096 10.5774 10.5453 10.5132 10.4786 10.3564 10.2342 10.1119 9.98955 9.86522 9.69153 9.51456 9.33751 9.1604 8.97642 8.78084 8.58302 8.38515 8.18725 7.98596 7.77746 7.54596 7.31361 7.07637 6.81823 6.55121 6.29738 6.04996 5.8114 5.58452 5.34973 5.07637 4.74737 4.34864 3.91852 3.47283 3.0529 2.77595 2.6482 2.54032 2.42827 2.31647 1.8031 0.900851 0