# vtk DataFile Version 2.0
track0
ASCII
DATASET POLYDATA
POINTS 12075 float
-0.0205 0.001 1e-05
-0.02052 0.000999985 1e-05
-0.02054 0.000999974 1e-05
-0.02056 0.000999965 1e-05
-0.02058 0.000999959 1e-05
-0.0206 0.000999956 1e-05
-0.0205 0.00367778 1e-05
-0.02052 0.00367778 1e-05
-0.02054 0.00367777 1e-05
-0.02056 0.00367777 1e-05
-0.02058 0.00367777 1e-05
-0.0206 0.00367777 1e-05
-0.0205 0.00635556 1e-05
-0.02052 0.00635555 1e-05
-0.02054 0.00635555 1e-05
-0.02056 0.00635555 1e-05
-0.02058 0.00635555 1e-05
-0.0206 0.00635555 1e-05
-0.0205 0.00903333 1e-05
-0.02052 0.00903333 1e-05
-0.02054 0.00903333 1e-05
-0.02056 0.00903333 1e-05
-0.02058 0.00903333 1e-05
-0.0206 0.00903333 1e-05
-0.0205 0.0117111 1e-05
-0.02052 0.0117111 1e-05
-0.02054 0.0117111 1e-05
-0.02056 0.0117111 1e-05
-0.02058 0.0117111 1e-05
-0.0206 0.0117111 1e-05
-0.0205 0.0143889 1e-05
-0.02052 0.0143889 1e-05
-0.02054 0.0143889 1e-05
-0.02056 0.0143889 1e-05
-0.02058 0.0143889 1e-05
-0.0206 0.0143889 1e-05
-0.0205 0.0170667 1e-05
-0.02052 0.0170667 1e-05
-0.02054 0.0170667 1e-05
-0.02056 0.0170667 1e-05
-0.02058 0.0170667 1e-05
-0.0206 0.0170667 1e-05
-0.0205 0.0197444 1e-05
-0.02052 0.0197444 1e-05
-0.02054 0.0197444 1e-05
-0.02056 0.0197444 1e-05
-0.02058 0.0197444 1e-05
-0.0206 0.0197444 1e-05
-0.0205 0.0224222 1e-05
-0.02052 0.0224222 1e-05
-0.02054 0.0224222 1e-05
-0.02056 0.0224222 1e-05
-0.02058 0.0224222 1e-05
-0.0206 0.0224222 1e-05
-0.0205 0.0251 1e-05
-0.02052 0.0250998 1e-05
-0.02054 0.0250997 1e-05
-0.02056 0.0250995 1e-05
-0.02058 0.0250995 1e-05
-0.0206 0.0250994 1e-05
-0.0205 0.001 1e-05
-0.0202034 0.00100022 1e-05
-0.0199069 0.00100067 1e-05
-0.0196103 0.00100133 1e-05
-0.0193137 0.00100219 1e-05
-0.0190172 0.00100326 1e-05
-0.0187132 0.00100467 1e-05
-0.0184093 0.00100589 1e-05
-0.0181054 0.00100711 1e-05
-0.0178015 0.00100833 1e-05
-0.0174976 0.00100954 1e-05
-0.0172058 0.00101083 1e-05
-0.016914 0.00101194 1e-05
-0.0166222 0.00101303 1e-05
-0.0163305 0.00101413 1e-05
-0.0160387 0.00101523 1e-05
-0.0157586 0.00101637 1e-05
-0.0154784 0.00101745 1e-05
-0.0151983 0.00101856 1e-05
-0.0149182 0.00101972 1e-05
-0.0146381 0.00102091 1e-05
-0.0143747 0.00102209 1e-05
-0.0141114 0.00102327 1e-05
-0.013848 0.00102449 1e-05
-0.0135847 0.00102574 1e-05
-0.0133623 0.00102682 1e-05
-0.0133485 0.00102689 1e-05
-0.0133347 0.00102695 1e-05
-0.013321 0.00102702 1e-05
-0.0133072 0.00102709 1e-05
-0.0132934 0.00102716 1e-05
-0.0130353 0.00102845 1e-05
-0.0127771 0.00102975 1e-05
-0.0125189 0.00103107 1e-05
-0.0122607 0.0010324 1e-05
-0.0120025 0.00103376 1e-05
-0.0117547 0.00103506 1e-05
-0.0115068 0.00103638 1e-05
-0.0112589 0.0010377 1e-05
-0.0110111 0.00103903 1e-05
-0.0107632 0.00104036 1e-05
-0.0105252 0.00104163 1e-05
-0.0102873 0.00104291 1e-05
-0.0100493 0.00104419 1e-05
-0.00981133 0.00104547 1e-05
-0.00957337 0.00104675 1e-05
-0.00934491 0.00104797 1e-05
-0.00911645 0.00104919 1e-05
-0.00888799 0.00105041 1e-05
-0.00865954 0.00105163 1e-05
-0.00843108 0.00105285 1e-05
-0.00821175 0.001054 1e-05
-0.00799242 0.00105516 1e-05
-0.00777309 0.00105632 1e-05
-0.00755376 0.00105747 1e-05
-0.00733443 0.00105861 1e-05
-0.00712387 0.00105971 1e-05
-0.0069133 0.0010608 1e-05
-0.00670273 0.00106189 1e-05
-0.00649216 0.00106297 1e-05
-0.0062816 0.00106405 1e-05
-0.00607944 0.00106508 1e-05
-0.00587729 0.0010661 1e-05
-0.00567514 0.00106713 1e-05
-0.00547298 0.00106815 1e-05
-0.00527083 0.00106916 1e-05
-0.00507675 0.00107013 1e-05
-0.00488267 0.0010711 1e-05
-0.0046886 0.00107206 1e-05
-0.00449452 0.00107302 1e-05
-0.00430044 0.00107398 1e-05
-0.00411412 0.00107489 1e-05
-0.0039278 0.0010758 1e-05
-0.00374147 0.00107671 1e-05
-0.00355515 0.00107762 1e-05
-0.00336883 0.00107852 1e-05
-0.00318995 0.00107938 1e-05
-0.00301107 0.00108024 1e-05
-0.00283219 0.0010811 1e-05
-0.00265331 0.00108196 1e-05
-0.00247443 0.00108282 1e-05
-0.0023027 0.00108363 1e-05
-0.00213097 0.00108445 1e-05
-0.00195924 0.00108527 1e-05
-0.0017875 0.00108609 1e-05
-0.00161577 0.00108691 1e-05
-0.0014509 0.00108769 1e-05
-0.00128603 0.00108848 1e-05
-0.00112116 0.00108926 1e-05
-0.000956289 0.00109005 1e-05
-0.000791418 0.00109085 1e-05
-0.000633135 0.00109161 1e-05
-0.000474851 0.00109238 1e-05
-0.000316567 0.00109315 1e-05
-0.000158284 0.00109392 1e-05
0 0.00109469 1e-05
0.000105677 0.00109521 1e-05
0.000211355 0.00109572 1e-05
0.000317032 0.00109624 1e-05
0.00042271 0.00109675 1e-05
0.000528387 0.00109726 1e-05
0.000634886 0.00109777 1e-05
0.000741385 0.00109827 1e-05
0.000847885 0.00109877 1e-05
0.000954384 0.00109927 1e-05
0.00106088 0.00109977 1e-05
0.00116821 0.00110026 1e-05
0.00127554 0.00110075 1e-05
0.00138286 0.00110123 1e-05
0.00149019 0.0011017 1e-05
0.00159752 0.00110217 1e-05
0.00170568 0.00110263 1e-05
0.00181384 0.00110309 1e-05
0.001922 0.00110354 1e-05
0.00203016 0.00110398 1e-05
0.00213833 0.00110441 1e-05
0.00224733 0.00110483 1e-05
0.00235633 0.00110525 1e-05
0.00246533 0.00110565 1e-05
0.00257434 0.00110605 1e-05
0.00268334 0.00110644 1e-05
0.00279319 0.00110682 1e-05
0.00290304 0.0011072 1e-05
0.00301289 0.00110757 1e-05
0.00312274 0.00110793 1e-05
0.00323259 0.00110828 1e-05
0.00334329 0.00110862 1e-05
0.003454 0.00110896 1e-05
0.0035647 0.00110929 1e-05
0.0036754 0.00110962 1e-05
0.00378611 0.00110993 1e-05
0.00389767 0.00111024 1e-05
0.00400924 0.00111054 1e-05
0.0041208 0.00111083 1e-05
0.00423237 0.00111112 1e-05
0.00434393 0.0011114 1e-05
0.00445636 0.00111166 1e-05
0.00456879 0.00111193 1e-05
0.00468123 0.00111218 1e-05
0.00479366 0.00111243 1e-05
0.00490609 0.00111267 1e-05
0.0050194 0.0011129 1e-05
0.0051327 0.00111312 1e-05
0.00524601 0.00111334 1e-05
0.00535932 0.00111355 1e-05
0.00547262 0.00111375 1e-05
0.00558681 0.00111395 1e-05
0.005701 0.00111413 1e-05
0.00581518 0.00111431 1e-05
0.00592937 0.00111448 1e-05
0.00604356 0.00111465 1e-05
0.00615863 0.0011148 1e-05
0.00627371 0.00111495 1e-05
0.00638878 0.00111509 1e-05
0.00650386 0.00111523 1e-05
0.00661893 0.00111535 1e-05
0.0067349 0.00111547 1e-05
0.00685087 0.00111558 1e-05
0.00696684 0.00111569 1e-05
0.00708281 0.00111578 1e-05
0.00719878 0.00111587 1e-05
0.00731565 0.00111595 1e-05
0.00743252 0.00111602 1e-05
0.00754939 0.00111608 1e-05
0.00766626 0.00111614 1e-05
0.00778313 0.00111619 1e-05
0.00778694 0.00111619 1e-05
0.00779075 0.00111619 1e-05
0.00779456 0.00111619 1e-05
0.00779836 0.00111619 1e-05
0.00780216 0.0011162 1e-05
0.00791614 0.00111623 1e-05
0.00803011 0.00111626 1e-05
0.00814409 0.00111629 1e-05
0.00825806 0.0011163 1e-05
0.00837203 0.00111631 1e-05
0.00849073 0.00111631 1e-05
0.00860942 0.0011163 1e-05
0.00872812 0.00111628 1e-05
0.00884682 0.00111626 1e-05
0.00896551 0.00111622 1e-05
0.00908513 0.00111618 1e-05
0.00920475 0.00111612 1e-05
0.00932437 0.00111607 1e-05
0.00944398 0.001116 1e-05
0.0095636 0.00111592 1e-05
0.00968415 0.00111583 1e-05
0.0098047 0.00111573 1e-05
0.00992525 0.00111563 1e-05
0.0100458 0.00111552 1e-05
0.0101663 0.0011154 1e-05
0.0102878 0.00111526 1e-05
0.0104093 0.00111512 1e-05
0.0105308 0.00111497 1e-05
0.0106523 0.00111482 1e-05
0.0107738 0.00111465 1e-05
0.0108962 0.00111447 1e-05
0.0110186 0.00111428 1e-05
0.0111411 0.00111409 1e-05
0.0112635 0.00111388 1e-05
0.0113859 0.00111367 1e-05
0.0115093 0.00111344 1e-05
0.0116327 0.0011132 1e-05
0.0117561 0.00111296 1e-05
0.0118795 0.00111271 1e-05
0.0120028 0.00111245 1e-05
0.0121272 0.00111217 1e-05
0.0122515 0.00111189 1e-05
0.0123759 0.0011116 1e-05
0.0125002 0.0011113 1e-05
0.0126245 0.00111099 1e-05
0.0127498 0.00111065 1e-05
0.0128752 0.00111032 1e-05
0.0130005 0.00110998 1e-05
0.0131258 0.00110963 1e-05
0.0132511 0.00110927 1e-05
0.0133774 0.00110889 1e-05
0.0135036 0.0011085 1e-05
0.0136299 0.00110811 1e-05
0.0137562 0.00110771 1e-05
0.0138825 0.0011073 1e-05
0.0140098 0.00110686 1e-05
0.014137 0.00110643 1e-05
0.0142643 0.00110598 1e-05
0.0143915 0.00110552 1e-05
0.0145188 0.00110506 1e-05
0.0146471 0.00110457 1e-05
0.0147753 0.00110408 1e-05
0.0149036 0.00110358 1e-05
0.0150318 0.00110307 1e-05
0.0151601 0.00110255 1e-05
0.0152893 0.00110201 1e-05
0.0154186 0.00110146 1e-05
0.0155478 0.00110091 1e-05
0.0156771 0.00110034 1e-05
0.0158063 0.00109977 1e-05
0.0159366 0.00109918 1e-05
0.0160668 0.00109858 1e-05
0.0161971 0.00109796 1e-05
0.0163274 0.00109734 1e-05
0.0164576 0.00109671 1e-05
0.0165889 0.00109607 1e-05
0.0167201 0.00109541 1e-05
0.0168514 0.00109474 1e-05
0.0169827 0.00109406 1e-05
0.0171139 0.00109338 1e-05
0.0172462 0.00109268 1e-05
0.0173785 0.00109197 1e-05
0.0175108 0.00109124 1e-05
0.0176431 0.0010905 1e-05
0.0177754 0.00108976 1e-05
0.0179087 0.00108901 1e-05
0.018042 0.00108824 1e-05
0.0181753 0.00108746 1e-05
0.0183087 0.00108666 1e-05
0.018442 0.00108586 1e-05
0.0185763 0.00108506 1e-05
0.0187107 0.00108423 1e-05
0.018845 0.00108339 1e-05
0.0189794 0.00108253 1e-05
0.0191137 0.00108168 1e-05
0.0192491 0.00108082 1e-05
0.0193845 0.00107994 1e-05
0.0195199 0.00107904 1e-05
0.0196553 0.00107812 1e-05
0.0197907 0.00107721 1e-05
0.0199272 0.0010763 1e-05
0.0200636 0.00107536 1e-05
0.0202001 0.00107439 1e-05
0.0203365 0.00107342 1e-05
0.020473 0.00107245 1e-05
0.0206105 0.00107148 1e-05
0.020748 0.00107049 1e-05
0.0208855 0.00106946 1e-05
0.021023 0.00106843 1e-05
0.0211606 0.00106741 1e-05
0.0212991 0.00106638 1e-05
0.0214377 0.00106532 1e-05
0.0215763 0.00106424 1e-05
0.0217149 0.00106315 1e-05
0.0218535 0.00106207 1e-05
0.0219931 0.00106098 1e-05
0.0221328 0.00105987 1e-05
0.0222724 0.00105873 1e-05
0.0224121 0.00105758 1e-05
0.0225517 0.00105644 1e-05
0.0226925 0.00105529 1e-05
0.0228332 0.00105412 1e-05
0.022974 0.00105292 1e-05
0.0231147 0.00105171 1e-05
0.0232555 0.00105051 1e-05
0.0233973 0.00104931 1e-05
0.0235391 0.00104807 1e-05
0.023681 0.00104681 1e-05
0.0238228 0.00104554 1e-05
0.0239647 0.00104428 1e-05
0.0241076 0.00104302 1e-05
0.0242505 0.00104172 1e-05
0.0243935 0.0010404 1e-05
0.0245364 0.00103907 1e-05
0.0246794 0.00103774 1e-05
0.0248234 0.00103642 1e-05
0.0249675 0.00103506 1e-05
0.0251115 0.00103368 1e-05
0.0252556 0.00103229 1e-05
[...]
POINT_DATA 12075
 FIELD attributes 1
U 3 12075 float
10.0004 	0.00734833 	0 10.0004 	0.00587866 	0 10.0003 	0.004409 	0 10.0002 	0.00293933 	0 10.0001 	0.00146966 	0 10 	0 	0
10.0001 	0.000878897 	0 10 	0.000703118 	0 10 	0.000527338 	0 10 	0.000351559 	0 10 	0.000175779 	0 10 	0 	0
10.0001 	0.00046713 	0 10.0001 	0.000373515 	0 10.0001 	0.000279899 	0 10 	0.000186283 	0 10 	9.26672e-05 	0 10 	0 	0
10 	0.000267508 	0 10 	0.000214007 	0 10 	0.000160505 	0 10 	0.000107003 	0 10 	5.35017e-05 	0 10 	0 	0
10 	8.19072e-05 	0 10 	6.55258e-05 	0 10 	4.91443e-05 	0 10 	3.27629e-05 	0 10 	1.63814e-05 	0 10 	0 	0
10 	-2.48392e-05 	0 10 	-1.98714e-05 	0 10 	-1.49035e-05 	0 10 	-9.9357e-06 	0 10 	-4.96785e-06 	0 10 	0 	0
10 	-0.000215113 	0 10 	-0.000172091 	0 10 	-0.000129068 	0 10 	-8.60453e-05 	0 10 	-4.30227e-05 	0 10 	0 	0
10 	-0.000377001 	0 10 	-0.0003016 	0 10 	-0.0002262 	0 10 	-0.0001508 	0 10 	-7.54001e-05 	0 10 	0 	0
9.99999 	-0.000426087 	0 9.99999 	-0.00034087 	0 9.99999 	-0.000255652 	0 10 	-0.000170435 	0 10 	-8.52174e-05 	0 10 	0 	0
9.17387 	0.0871273 	0 9.1308 	0.0697019 	0 9.08741 	0.0522761 	0 9.04368 	0.0348502 	0 8.99963 	0.017424 	0 8.95524 	0 	0
10.0004 	0.00734833 	0 10.0024 	0.015207 	0 10.0045 	0.0222293 	0 10.0065 	0.0292071 	0 10.0086 	0.0361407 	0 10.0136 	0.0463332 	0 10.0164 	0.0402145 	0 10.0208 	0.0401657 	0 10.0253 	0.040117 	0 10.0297 	0.0400685 	0 10.0356 	0.0445275 	0 10.0385 	0.0378902 	0 10.0425 	0.0378477 	0 10.0464 	0.037805 	0 10.0504 	0.0377624 	0 10.0545 	0.0408644 	0 10.0567 	0.038788 	0 10.0591 	0.0400984 	0 10.0616 	0.0414104 	0 10.064 	0.042724 	0 10.0661 	0.0451829 	0 10.0677 	0.0452949 	0 10.069 	0.0464977 	0 10.0703 	0.0477016 	0 10.0717 	0.0489067 	0 10.0728 	0.0499253 	0 10.0729 	0.0499888 	0 10.0729 	0.0500522 	0 10.073 	0.0501157 	0 10.0731 	0.0501792 	0 10.0731 	0.0502331 	0 10.0737 	0.0508615 	0 10.0742 	0.0514838 	0 10.0747 	0.0521066 	0 10.0752 	0.05273 	0 10.0757 	0.0531892 	0 10.0756 	0.0534869 	0 10.0752 	0.0536791 	0 10.0749 	0.0538715 	0 10.0745 	0.0540639 	0 10.074 	0.054018 	0 10.0735 	0.0541656 	0 10.0724 	0.0541448 	0 10.0713 	0.054124 	0 10.0703 	0.0541032 	0 10.0687 	0.0538133 	0 10.0683 	0.0538973 	0 10.0667 	0.0537674 	0 10.065 	0.0536374 	0 10.0634 	0.0535075 	0 10.0609 	0.0530913 	0 10.0608 	0.0531504 	0 10.0588 	0.0529608 	0 10.0568 	0.0527711 	0 10.0547 	0.0525813 	0 10.0512 	0.0520931 	0 10.0518 	0.052153 	0 10.0495 	0.0519392 	0 10.0471 	0.0517253 	0 10.0448 	0.0515114 	0 10.0402 	0.0509912 	0 10.0416 	0.0510745 	0 10.0391 	0.0508594 	0 10.0365 	0.0506443 	0 10.034 	0.0504292 	0 10.0282 	0.0498951 	0 10.0307 	0.0500104 	0 10.028 	0.0498131 	0 10.0253 	0.0496158 	0 10.0226 	0.0494184 	0 10.0157 	0.0488958 	0 10.0193 	0.049056 	0 10.0166 	0.0488812 	0 10.0138 	0.0487064 	0 10.011 	0.0485315 	0 10.0029 	0.0480149 	0 10.0077 	0.0482259 	0 10.0049 	0.0481216 	0 10.0022 	0.0480172 	0 9.9994 	0.0479129 	0 9.99009 	0.0474808 	0 9.99625 	0.0477908 	0 9.99351 	0.0477297 	0 9.99076 	0.0476685 	0 9.98802 	0.0476074 	0 9.9775 	0.0471609 	0 9.98507 	0.0475281 	0 9.98244 	0.0476897 	0 9.97981 	0.0478514 	0 9.97719 	0.0480131 	0 9.96555 	0.047857 	0 9.97469 	0.0483893 	1.0928e-21 9.97279 	0.0485143 	7.28632e-21 9.9709 	0.0486393 	1.34797e-20 9.969 	0.0487644 	1.96728e-20 9.957 	0.0483845 	1.6628e-20 9.96751 	0.0486594 	1.15839e-19 9.96591 	0.0484646 	1.07636e-19 9.96431 	0.0482697 	9.94305e-20 9.96272 	0.0480748 	9.12222e-20 9.95051 	0.0474367 	-1.83934e-20 9.96096 	0.047366 	-5.00026e-20 9.9594 	0.0469969 	-5.56175e-20 9.95784 	0.0466277 	-6.123e-20 9.95627 	0.0462585 	-6.68401e-20 9.94418 	0.0456146 	-2.59542e-20 9.95417 	0.0453298 	-2.28758e-20 9.95235 	0.0446558 	-1.58913e-20 9.95053 	0.0439818 	-8.90751e-21 9.9487 	0.0433076 	-1.92431e-21 9.93666 	0.042428 	8.76112e-21 9.94624 	0.042089 	-6.5892e-21 9.94413 	0.0412117 	-2.91761e-20 9.94202 	0.0403342 	-5.17656e-20 9.93991 	0.0394566 	-7.43577e-20 9.92783 	0.0382928 	-1.06471e-19 9.93687 	0.0380629 	-1.52e-19 9.93438 	0.0372097 	-1.37018e-19 9.93189 	0.0363564 	-1.22026e-19 9.92939 	0.0355028 	-1.07024e-19 9.91721 	0.0342143 	-3.61828e-20 9.92557 	0.0341089 	4.37722e-20 9.92266 	0.03334 	6.01706e-20 9.91974 	0.0325709 	7.65572e-20 9.91682 	0.0318016 	9.2932e-20 9.9046 	0.0304942 	4.45265e-20 9.9122 	0.0304156 	-5.99514e-20 9.90887 	0.02968 	-6.73683e-20 9.90553 	0.0289441 	-7.47672e-20 9.90218 	0.028208 	-8.21478e-20 9.89003 	0.0269206 	-4.08894e-22 9.89674 	0.0267997 	7.6954e-20 9.89296 	0.0260729 	6.56403e-20 9.88917 	0.0253458 	5.43086e-20 9.88538 	0.0246184 	4.29588e-20 9.87334 	0.0233885 	-3.39723e-20 9.87898 	0.0232042 	-1.02461e-19 9.87471 	0.0224849 	-1.29356e-19 9.87044 	0.0217653 	-1.56245e-19 9.86616 	0.0210454 	-1.83127e-19 9.85434 	0.0198978 	-1.64119e-19 9.85869 	0.0196494 	-1.90091e-19 9.85392 	0.0189418 	-1.75046e-19 9.84914 	0.0182339 	-1.59995e-19 9.84435 	0.0175257 	-1.44939e-19 9.83293 	0.0164716 	-1.00006e-19 9.83573 	0.0161677 	-8.43885e-20 9.83045 	0.015476 	-6.20126e-20 9.82516 	0.0147842 	-3.96389e-20 9.81987 	0.014092 	-1.72674e-20 9.80908 	0.013131 	2.8065e-21 9.81001 	0.0127634 	0 9.80425 	0.0120815 	0 9.79847 	0.0113993 	0 9.79269 	0.0107168 	0 9.78284 	0.009843 	0 9.78154 	0.0093967 	-1.94654e-20 9.77529 	0.00871997 	-4.23751e-20 9.76904 	0.0080429 	-6.5287e-20 9.76278 	0.0073655 	-8.8201e-20 9.75424 	0.00658265 	-1.12269e-19 9.75027 	0.00604053 	-1.19199e-19 9.74356 	0.00536936 	-1.20079e-19 9.73683 	0.00469782 	-1.20953e-19 9.7301 	0.00402592 	-1.2182e-19 9.72328 	0.00335 	-1.22477e-19 9.72314 	0.00333296 	-1.21048e-19 9.72291 	0.00331144 	-1.19911e-19 9.72268 	0.00328992 	-1.18774e-19 9.72245 	0.0032684 	-1.17636e-19 9.72222 	0.00324691 	-1.16501e-19 9.71521 	0.0025989 	-8.24157e-20 9.70819 	0.00195048 	-4.83416e-20 9.70117 	0.00130167 	-1.42787e-20 9.69413 	0.000652448 	1.97728e-20 9.68094 	-0.000271662 	6.13803e-20 9.67889 	-0.000691667 	6.25177e-20 9.6712 	-0.00135862 	6.38744e-20 9.6635 	-0.00202604 	6.52282e-20 9.65579 	-0.00269393 	6.65793e-20 9.63573 	-0.00388906 	7.0056e-20 9.63891 	-0.00408533 	5.53095e-20 9.6308 	-0.00474961 	4.05603e-20 9.62268 	-0.0054144 	2.58096e-20 9.61454 	-0.0060797 	1.10574e-20 9.58821 	-0.00747708 	-1.13841e-21 9.59631 	-0.00749601 	-1.04349e-20 9.5878 	-0.00815858 	-2.45144e-20 9.57929 	-0.0088217 	-3.85923e-20 9.57076 	-0.00948537 	-5.26688e-20 9.53868 	-0.0110308 	-6.67621e-20 9.55126 	-0.0109243 	-6.74017e-20 9.5424 	-0.0115868 	-7.62674e-20 9.53352 	-0.01225 	-8.5129e-20 9.52462 	-0.0129138 	-9.39866e-20 9.48742 	-0.0145492 	-1.15718e-19 9.50397 	-0.0143705 	-1.76536e-19 9.49477 	-0.0150336 	-1.65033e-19 9.48555 	-0.0156973 	-1.53546e-19 9.47632 	-0.0163616 	-1.42076e-19 9.43469 	-0.0180258 	-4.99177e-20 9.45464 	-0.0178261 	-3.2335e-20 9.44513 	-0.0184898 	-2.27698e-20 9.43561 	-0.0191542 	-1.32036e-20 9.42607 	-0.0198192 	-3.63645e-21 9.38076 	-0.0214558 	0 9.40351 	-0.0212861 	0 9.39372 	-0.021952 	0 9.38391 	-0.0226185 	0 9.37409 	-0.0232858 	0 9.32587 	-0.0248418 	0 9.35083 	-0.0247542 	2.2527e-21 9.34078 	-0.0254231 	1.11378e-20 9.33073 	-0.0260927 	2.00218e-20 9.32065 	-0.0267631 	2.89048e-20 9.27025 	-0.028184 	5.00813e-20 9.29684 	-0.0282264 	1.88142e-19 9.28658 	-0.0288973 	1.91698e-19 9.27629 	-0.029569 	1.95272e-19 9.26599 	-0.0302415 	1.98866e-19 9.21411 	-0.0314752 	5.03136e-20 9.24181 	-0.0316887 	2.72936e-20 9.23135 	-0.0323603 	1.93128e-20 9.22086 	-0.0330326 	1.13308e-20 9.20925 	-0.0337144 	4.01169e-21 9.15763 	-0.0347081 	2.06419e-20 9.18337 	-0.0351436 	1.26201e-19 9.17533 	-0.0357981 	1.35174e-19 9.16467 	-0.0364703 	1.36722e-19 9.14897 	-0.0371506 	1.22235e-19 9.101 	-0.0378791 	4.69711e-21 9.12341 	-0.0385333 	-1.2014e-19 9.11877 	-0.0392011 	-1.53309e-19 9.10796 	-0.0398726 	-1.65622e-19 9.08889 	-0.0404996 	-1.55003e-19 9.04437 	-0.0409874 	-7.36508e-20 9.06367 	-0.041837 	-2.14962e-19 9.06188 	-0.0425613 	-2.5963e-19 9.05095 	-0.043232 	-2.62464e-19 9.02916 	-0.0437607 	-2.09598e-19 8.9879 	-0.0440333 	-5.65764e-20 9.00433 	-0.0450554 	-2.97488e-20 9.00487 	-0.0458735 	-1.33741e-20 8.99383 	-0.046543 	-4.61975e-21 8.96995 	-0.0469354 	0 8.93171 	-0.047018 	0 8.94551 	-0.0481897 	0 8.94794 	-0.049132 	0 8.93681 	-0.0498001 	0 8.91136 	-0.0500259 	2.34977e-21 8.87593 	-0.0499435 	6.33566e-21 8.88733 	-0.0512437 	2.53927e-21 8.89123 	-0.0523348 	0 8.88005 	-0.0530016 	0 8.8535 	-0.0530367 	2.82983e-21 8.82065 	-0.0528124 	6.821e-21 8.82988 	-0.0542202 	3.02428e-21 8.83493 	-0.055478 	1.60806e-21 8.8237 	-0.0561434 	9.51792e-21 8.79647 	-0.0559711 	2.9349e-20 8.76598 	-0.055628 	5.16084e-20 8.77326 	-0.0571254 	2.02966e-19 8.77914 	-0.0585636 	3.4361e-19 8.76788 	-0.059228 	3.47894e-19 8.74033 	-0.0588366 	2.03594e-19 8.71201 	-0.0583949 	5.2251e-20 8.71753 	-0.0599639 	3.03241e-20 8.72299 	-0.0615346 	8.39892e-21 8.71151 	-0.0621576 	3.09906e-22 8.68515 	-0.0616387 	4.14026e-21 8.65879 	-0.0611194 	7.97044e-21 8.66274 	-0.0627455 	4.34027e-21 8.66663 	-0.0643732 	7.1117e-22 8.65555 	-0.064966 	2.69432e-21 8.63098 	-0.0643864 	-1.99399e-21 8.60641 	-0.0638064 	-6.68116e-21 8.60897 	-0.0654773 	-5.90204e-20 8.61146 	-0.0671498 	-1.11365e-19 8.60083 	-0.0677131 	-1.13007e-19 8.57787 	-0.0670868 	-6.51451e-20 8.55493 	-0.0664602 	-1.72811e-20 8.55625 	-0.0681687 	1.01944e-19 8.55751 	-0.069879 	2.21162e-19 8.54736 	-0.0704143 	2.31415e-19 8.52586 	-0.0697514 	1.32074e-19 8.50438 	-0.069088 	3.27338e-20 8.50463 	-0.0708248 	1.90063e-20 8.50482 	-0.0725633 	5.27423e-21 8.49516 	-0.073072 	4.90496e-22 8.47498 	-0.0723836 	6.09435e-21 8.45481 	-0.0716947 	1.17002e-20 8.45411 	-0.0734415 	4.94725e-21 8.45335 	-0.0751899 	-1.81236e-21 8.44422 	-0.075673 	-2.47941e-20 8.42521 	-0.0749788 	-8.49096e-20 8.40621 	-0.074284 	-1.45028e-19 8.40468 	-0.076029 	-3.0216e-19 8.4031 	-0.0777756 	-4.59286e-19 8.3945 	-0.0782354 	-4.40742e-19 8.37655 	-0.0775505 	-2.6061e-19 8.35861 	-0.0768652 	-8.04794e-20 8.35635 	-0.078602 	6.84595e-20 8.35387 	-0.0803053 	2.13399e-19 8.34546 	-0.0807161 	2.1044e-19 8.32898 	-0.0801158 	1.08604e-19 8.31201 	-0.0794507 	4.75716e-22 8.3091 	-0.0811768 	-1.06758e-19 8.30524 	-0.082682 	-1.97619e-19 8.29696 	-0.0831032 	-2.08615e-19 8.28251 	-0.0826901 	-1.37598e-19 8.26641 	-0.0820519 	-4.44957e-20 8.26293 	-0.0837656 	-3.1093e-20 8.25795 	-0.0850756 	-1.78102e-20 8.2498 	-0.085509 	-4.78094e-21 8.2371 	-0.0852842 	1.56137e-20 8.22179 	-0.0846777 	4.02796e-20 8.2178 	-0.0863783 	1.40644e-20 8.21193 	-0.0874981 	-3.2045e-21 8.2039 	-0.0879452 	-1.01171e-20 8.19273 	-0.087908 	-5.2199e-21 8.17814 	-0.0873366 	1.26958e-20 8.1737 	-0.0890241 	-7.25995e-21 8.16712 	-0.0899601 	-1.96353e-20 8.1592 	-0.0904223 	-2.72319e-20 8.14937 	-0.0905703 	-4.05891e-20 8.13543 	-0.0900368 	-6.64278e-20 8.13058 	-0.0917118 	6.30353e-20 8.12347 	-0.0924712 	9.54881e-20 8.11566 	-0.09295 	9.81847e-20 8.10698 	-0.0932802 	8.34875e-20 8.09364 	-0.0927866 	-2.73563e-20 8.08843 	-0.0944502 	8.18119e-20 8.08093 	-0.0950406 	9.39037e-20 8.07321 	-0.0955374 	9.74737e-20 8.06546 	-0.0960344 	1.01031e-19 8.05272 	-0.095594 	1.1367e-20 8.04704 	-0.0971613 	-7.28231e-22 8.03943 	-0.0976769 	-4.9923e-22 8.03179 	-0.0981929 	-2.70258e-22 8.02414 	-0.0987092 	-4.13137e-23 8.01267 	-0.0984671 	1.94251e-20 8.00646 	-0.0998524 	0 7.99893 	-0.100389 	0 7.99137 	-0.100925 	0 7.9838 	-0.101462 	0 7.97344 	-0.101414 	1.54917e-20 7.96683 	-0.102625 	0 7.95937 	-0.103183 	0 7.95189 	-0.103742 	0 7.94438 	-0.1043 	0 7.93499 	-0.104442 	0 7.9281 	-0.105488 	0 7.9207 	-0.106069 	0 7.91328 	-0.10665 	0 7.90584 	-0.107232 	0 7.8973 	-0.107559 	-6.8646e-21 7.89021 	-0.108447 	0 7.88286 	-0.109052 	0 7.8755 	-0.109658 	0 7.86811 	-0.110264 	0 7.8603 	-0.110772 	-5.39078e-21 7.85572 	-0.111283 	0 7.85106 	-0.111687 	0 7.84638 	-0.11209 	0 7.8417 	-0.112494 	0 7.83715 	-0.112885 	0 7.83439 	-0.113116 	0 7.83163 	-0.113347 	0 7.82887 	-0.113577 	0 7.8261 	-0.113808 	0 7.82365 	-0.113977 	0 7.81608 	-0.114692 	-1.05672e-20 7.8086 	-0.115351 	-2.19281e-20 7.80109 	-0.11601 	-3.3287e-20 7.79356 	-0.11667 	-4.4644e-20 7.78718 	-0.117101 	-5.60121e-20 7.77931 	-0.117995 	-5.21751e-20 7.77186 	-0.118682 	-5.13506e-20 7.76438 	-0.119369 	-5.0522e-20 7.75687 	-0.120057 	-4.96893e-20 7.75136 	-0.120355 	-5.41559e-20 7.74319 	-0.121424 	-4.18208e-20 7.73576 	-0.122141 	-2.94598e-20 7.7283 	-0.122858 	-1.70967e-20 7.72081 	-0.123575 	-4.73152e-21 7.71614 	-0.123747 	0 7.70767 	-0.124988 	-1.86563e-21 7.70024 	-0.125735 	-7.45006e-21 7.6928 	-0.126483 	-1.30334e-20 7.68532 	-0.127231 	-1.86156e-20 7.68147 	-0.127283 	-2.41672e-20 7.67268 	-0.128691 	-6.24e-20 7.66526 	-0.12947 	-8.55669e-20 7.65782 	-0.13025 	-1.08736e-19 7.65034 	-0.13103 	-1.31893e-19 7.6473 	-0.130973 	-1.12755e-19 7.63832 	-0.132487 	-8.3233e-20 7.63076 	-0.13336 	-6.86609e-20 7.62331 	-0.134175 	-5.54398e-20 7.61669 	-0.134829 	-5.03748e-20 7.61357 	-0.134828 	-7.86538e-20 7.6046 	-0.136361 	-9.48949e-20 7.5967 	-0.137416 	-8.46984e-20 7.58923 	-0.138267 	-6.3248e-20 7.58345 	-0.138802 	-3.4959e-20 7.58024 	-0.138856 	3.751e-21 7.57128 	-0.140409 	8.6658e-21 7.56302 	-0.141641 	8.3458e-21 7.55553 	-0.142529 	2.38603e-21 7.55055 	-0.142951 	0 7.54725 	-0.143062 	0 7.53829 	-0.144635 	0 7.52967 	-0.146043 	0 7.52215 	-0.146969 	0 7.51796 	-0.147284 	0 7.51456 	-0.147452 	0 7.50558 	-0.149048 	0 7.49659 	-0.150628 	-5.24572e-22 7.48911 	-0.15158 	-2.09475e-20 7.4856 	-0.151807 	-4.14601e-20 7.48209 	-0.152033 	-6.1972e-20 7.4731 	-0.153653 	-3.96044e-20 7.46406 	-0.155274 	-1.7228e-20 7.45707 	-0.156241 	3.70001e-21 7.45345 	-0.156527 	8.40404e-21 7.44982 	-0.156812 	1.31078e-20 7.4408 	-0.158459 	5.05441e-20 7.43173 	-0.160106 	8.7978e-20 7.42518 	-0.161107 	9.92989e-20 7.42143 	-0.161452 	8.21329e-20 7.41767 	-0.161797 	6.49635e-20 7.40862 	-0.163472 	3.70118e-20 7.39951 	-0.165147 	9.04881e-21 7.39339 	-0.166184 	7.26269e-21 7.3895 	-0.166589 	1.79971e-20 7.38559 	-0.166993 	2.87331e-20 7.3765 	-0.168699 	1.01535e-19 7.36734 	-0.170405 	1.74342e-19 7.36162 	-0.171479 	1.75198e-19 7.35759 	-0.171943 	1.03252e-19 7.35353 	-0.172408 	3.13042e-20 7.34438 	-0.174145 	2.16185e-20 7.3357 	-0.175791 	1.33981e-20 7.33014 	-0.176878 	1.40172e-20 7.32565 	-0.177521 	2.23957e-20 7.32144 	-0.178045 	3.28413e-20 7.31222 	-0.179816 	1.03698e-19 7.30434 	-0.181344 	1.46392e-19 7.29866 	-0.18248 	1.43493e-19 7.29365 	-0.183326 	1.055e-19 7.28926 	-0.183911 	3.55386e-20 7.27997 	-0.185717 	2.61798e-20 7.27286 	-0.187132 	1.67053e-20 7.26704 	-0.188315 	7.16295e-21 7.2615 	-0.189364 	0 7.25693 	-0.190009 	0 7.24756 	-0.19185 	0 7.2412 	-0.193157 	0 7.23523 	-0.194389 	0 7.22921 	-0.195621 	0 7.2244 	-0.196342 	0 7.21539 	-0.19814 	0 7.2093 	-0.199421 	0 7.20316 	-0.200703 	0 7.19698 	-0.201984 	0 7.19161 	-0.202916 	1.21609e-20 7.18337 	-0.204599 	3.90762e-21 7.17711 	-0.20593 	1.37561e-20 7.1708 	-0.20726 	2.36079e-20 7.16445 	-0.20859 	3.3463e-20 7.15851 	-0.20973 	4.51117e-20 7.15102 	-0.211302 	8.07863e-20 7.14457 	-0.212681 	8.52149e-20 7.13808 	-0.21406 	8.96117e-20 7.13154 	-0.215439 	9.39767e-20 7.12504 	-0.216785 	8.99788e-20 7.12344 	-0.217124 	9.51312e-20 7.12203 	-0.217429 	9.20945e-20 7.12061 	-0.217735 	8.90562e-20 7.1192 	-0.21804 	8.60165e-20 7.1178 	-0.218341 	8.30202e-20 7.11242 	-0.219462 	7.25892e-20 7.107 	-0.220584 	6.21421e-20 7.10155 	-0.221705 	5.16788e-20 7.09607 	-0.222826 	4.11994e-20 7.09156 	-0.223837 	4.29632e-20 7.08401 	-0.225422 	4.03328e-20 7.07696 	-0.226897 	3.87264e-20 7.06986 	-0.228371 	3.71122e-20 7.06271 	-0.229846 	3.54904e-20 7.05779 	-0.23107 	4.15246e-20 7.0493 	-0.232846 	3.30264e-20 7.04203 	-0.234371 	3.18399e-20 7.03471 	-0.235896 	3.06455e-20 7.02734 	-0.237421 	2.94433e-20 7.0235 	-0.238559 	4.37217e-20 7.01403 	-0.240525 	5.91723e-20 7.00653 	-0.2421 	5.202e-20 6.99898 	-0.243675 	4.48795e-20 6.992 	-0.245184 	3.44744e-20 6.98862 	-0.246301 	4.80036e-21 6.97882 	-0.248331 	9.43335e-22 6.97042 	-0.250081 	-1.76e-22 6.96262 	-0.251704 	-6.13393e-23 6.95675 	-0.253117 	0 6.95311 	-0.25429 	0 6.94307 	-0.256361 	0 6.93362 	-0.258305 	-4.77189e-21 6.92557 	-0.259975 	-1.99251e-20 6.92082 	-0.261293 	-3.17344e-20 6.9169 	-0.262518 	-4.26659e-20 6.90661 	-0.264629 	-2.88712e-20 6.89624 	-0.26674 	-1.50636e-20 6.8883 	-0.268427 	7.19413e-22 6.88414 	-0.269704 	8.84016e-21 6.87993 	-0.270981 	1.6965e-20 6.86937 	-0.273131 	1.00924e-20 6.85874 	-0.275281 	3.22552e-21 6.85112 	-0.277021 	1.18133e-20 6.84666 	-0.278349 	3.51253e-20 6.84214 	-0.279676 	5.8437e-20 6.83131 	-0.281864 	3.39036e-20 6.8204 	-0.284052 	9.36483e-21 6.81309 	-0.285846 	-3.19509e-21 6.80831 	-0.287221 	-6.89212e-21 6.80348 	-0.288596 	-1.05913e-20 6.79237 	-0.290821 	-6.75548e-20 6.78196 	-0.292966 	-1.15161e-19 6.77481 	-0.294773 	-1.23129e-19 6.76905 	-0.296314 	-9.48873e-20 6.7639 	-0.297735 	-5.02783e-20 6.75248 	-0.299996 	-9.59167e-20 6.7433 	-0.302023 	-1.1213e-19 6.73584 	-0.303869 	-1.05565e-19 6.72883 	-0.30562 	-8.88887e-20 6.72333 	-0.307084 	-4.14376e-20 6.7116 	-0.309378 	-8.933e-20 6.70366 	-0.311283 	-8.16535e-20 6.69587 	-0.313166 	-7.07677e-20 6.68801 	-0.315048 	-5.98564e-20 6.68173 	-0.316632 	-1.51047e-20 6.67105 	-0.318819 	-1.20379e-20 6.66298 	-0.320735 	-8.76886e-21 6.65485 	-0.322652 	-5.50205e-21 6.64666 	-0.324568 	-2.23751e-21 6.63904 	-0.326366 	0 6.63258 	-0.327732 	0 6.62715 	-0.328992 	0 6.6217 	-0.330251 	0 6.61621 	-0.331511 	0 6.61097 	-0.33271 	0 6.60771 	-0.333408 	0 6.60445 	-0.334107 	0 6.60118 	-0.334805 	0 6.5979 	-0.335503 	0 6.59501 	-0.336148 	0 6.58563 	-0.338182 	-2.34492e-21 6.57635 	-0.340154 	-5.23885e-21 6.567 	-0.342126 	-8.13045e-21 6.55757 	-0.344097 	-1.10197e-20 6.54959 	-0.345866 	-1.38046e-20 6.5393 	-0.348098 	8.40416e-21 6.52961 	-0.350097 	1.16497e-20 6.51985 	-0.352095 	1.49188e-20 6.51016 	-0.354072 	1.58831e-20 6.50278 	-0.355737 	-1.91517e-20 6.49182 	-0.358073 	-1.03867e-20 6.48143 	-0.36019 	-1.46401e-21 6.47124 	-0.362211 	7.52604e-21 6.46233 	-0.364057 	1.45056e-20 6.45454 	-0.365748 	1.97065e-20 6.44314 	-0.368102 	1.31916e-20 6.43175 	-0.370423 	7.48596e-21 6.42116 	-0.37246 	8.96969e-21 6.41302 	-0.374173 	2.36875e-20 6.40481 	-0.375887 	3.84067e-20 6.39296 	-0.378254 	4.65573e-20 6.38102 	-0.38062 	5.47048e-20 6.37076 	-0.38267 	4.67185e-20 6.36219 	-0.3844 	2.26202e-20 6.35354 	-0.38613 	-1.49153e-21 6.34123 	-0.388505 	1.93504e-20 6.32888 	-0.390874 	3.97234e-20 6.31896 	-0.392925 	3.57546e-20 6.30978 	-0.394713 	8.85379e-21 6.30069 	-0.396453 	-2.2273e-20 6.2879 	-0.39883 	-1.46208e-20 6.27642 	-0.401032 	-5.48898e-21 6.26604 	-0.403086 	4.89326e-21 6.25575 	-0.405085 	1.35934e-20 6.24619 	-0.406829 	1.44209e-20 6.23313 	-0.409179 	1.61635e-20 6.22236 	-0.411231 	1.74369e-20 6.21151 	-0.413283 	1.8719e-20 6.20057 	-0.415333 	2.00099e-20 6.19002 	-0.417237 	2.34456e-20 6.18163 	-0.418717 	2.04748e-20 6.17416 	-0.420078 	1.74984e-20 6.16665 	-0.421438 	1.4524e-20 6.15911 	-0.422797 	1.15517e-20 6.15189 	-0.424092 	8.72266e-21 6.14816 	-0.424791 	6.76446e-21 6.14441 	-0.425489 	4.80577e-21 6.14065 	-0.426188 	2.84661e-21 6.13689 	-0.426886 	8.86958e-22 6.13315 	-0.427523 	-1.93161e-21 6.12218 	-0.429638 	0 6.11092 	-0.431675 	0 6.09959 	-0.433712 	0 6.08817 	-0.435748 	0 6.07681 	-0.437539 	-7.78441e-21 6.06595 	-0.439865 	1.52101e-22 6.05421 	-0.441884 	3.94799e-21 6.04238 	-0.443902 	7.73989e-21 6.03053 	-0.445816 	1.46193e-20 6.01872 	-0.447505 	2.82539e-20 6.0074 	-0.449818 	5.0875e-20 5.99574 	-0.452039 	6.80138e-20 5.98341 	-0.454034 	7.15124e-20 5.97116 	-0.455732 	5.46462e-20 5.95885 	-0.457397 	3.54783e-20 5.94702 	-0.459679 	3.79623e-20 5.93509 	-0.46196 	4.04528e-20 5.92275 	-0.463919 	3.27167e-20 5.91001 	-0.465553 	1.46651e-20 5.89718 	-0.467187 	-3.38814e-21 5.88483 	-0.469431 	-3.25195e-20 5.87241 	-0.471636 	-5.89987e-20 5.86005 	-0.473549 	-6.4606e-20 5.84704 	-0.475244 	-5.03069e-20 5.83369 	-0.47684 	-2.67677e-20 5.82082 	-0.479038 	1.05265e-20 5.80798 	-0.48099 	1.50166e-20 5.79509 	-0.482855 	8.08454e-21 5.78212 	-0.484719 	1.10899e-21 5.76837 	-0.486321 	-3.53868e-20 5.75577 	-0.488238 	-5.73513e-20 5.74317 	