# vtk DataFile Version 2.0
track0
ASCII
DATASET POLYDATA
POINTS 12073 float
-0.0205 0.001 1e-05
-0.02052 0.000999985 1e-05
-0.02054 0.000999974 1e-05
-0.02056 0.000999965 1e-05
-0.02058 0.000999959 1e-05
-0.0206 0.000999956 1e-05
-0.0205 0.00367778 1e-05
-0.02052 0.00367778 1e-05
-0.02054 0.00367777 1e-05
-0.02056 0.00367777 1e-05
-0.02058 0.00367777 1e-05
-0.0206 0.00367777 1e-05
-0.0205 0.00635556 1e-05
-0.02052 0.00635555 1e-05
-0.02054 0.00635555 1e-05
-0.02056 0.00635555 1e-05
-0.02058 0.00635555 1e-05
-0.0206 0.00635555 1e-05
-0.0205 0.00903333 1e-05
-0.02052 0.00903333 1e-05
-0.02054 0.00903333 1e-05
-0.02056 0.00903333 1e-05
-0.02058 0.00903333 1e-05
-0.0206 0.00903333 1e-05
-0.0205 0.0117111 1e-05
-0.02052 0.0117111 1e-05
-0.02054 0.0117111 1e-05
-0.02056 0.0117111 1e-05
-0.02058 0.0117111 1e-05
-0.0206 0.0117111 1e-05
-0.0205 0.0143889 1e-05
-0.02052 0.0143889 1e-05
-0.02054 0.0143889 1e-05
-0.02056 0.0143889 1e-05
-0.02058 0.0143889 1e-05
-0.0206 0.0143889 1e-05
-0.0205 0.0170667 1e-05
-0.02052 0.0170667 1e-05
-0.02054 0.0170667 1e-05
-0.02056 0.0170667 1e-05
-0.02058 0.0170667 1e-05
-0.0206 0.0170667 1e-05
-0.0205 0.0197444 1e-05
-0.02052 0.0197444 1e-05
-0.02054 0.0197444 1e-05
-0.02056 0.0197444 1e-05
-0.02058 0.0197444 1e-05
-0.0206 0.0197444 1e-05
-0.0205 0.0224222 1e-05
-0.02052 0.0224222 1e-05
-0.02054 0.0224222 1e-05
-0.02056 0.0224222 1e-05
-0.02058 0.0224222 1e-05
-0.0206 0.0224222 1e-05
-0.0205 0.0251 1e-05
-0.02052 0.0250998 1e-05
-0.02054 0.0250997 1e-05
-0.02056 0.0250995 1e-05
-0.02058 0.0250995 1e-05
-0.0206 0.0250994 1e-05
-0.0205 0.001 1e-05
-0.0202034 0.00100022 1e-05
-0.0199069 0.00100067 1e-05
-0.0196103 0.00100133 1e-05
-0.0193137 0.0010022 1e-05
-0.0190172 0.00100327 1e-05
-0.0187132 0.00100468 1e-05
-0.0184093 0.00100591 1e-05
-0.0181054 0.00100713 1e-05
-0.0178015 0.00100835 1e-05
-0.0174976 0.00100957 1e-05
-0.0172058 0.00101087 1e-05
-0.016914 0.00101198 1e-05
-0.0166222 0.00101309 1e-05
-0.0163305 0.00101419 1e-05
-0.0160387 0.0010153 1e-05
-0.0157586 0.00101645 1e-05
-0.0154784 0.00101754 1e-05
-0.0151983 0.00101867 1e-05
-0.0149182 0.00101983 1e-05
-0.0146381 0.00102104 1e-05
-0.0143834 0.00102219 1e-05
-0.0141287 0.00102335 1e-05
-0.0138739 0.00102454 1e-05
-0.0136192 0.00102576 1e-05
-0.0134041 0.00102682 1e-05
-0.013382 0.00102693 1e-05
-0.0133598 0.00102704 1e-05
-0.0133377 0.00102715 1e-05
-0.0133156 0.00102726 1e-05
-0.0132934 0.00102737 1e-05
-0.0130353 0.00102868 1e-05
-0.0127771 0.00103 1e-05
-0.0125189 0.00103134 1e-05
-0.0122607 0.0010327 1e-05
-0.0120025 0.00103408 1e-05
-0.0117547 0.00103541 1e-05
-0.0115068 0.00103675 1e-05
-0.0112589 0.00103809 1e-05
-0.0110111 0.00103945 1e-05
-0.0107632 0.00104081 1e-05
-0.0105252 0.00104211 1e-05
-0.0102873 0.00104342 1e-05
-0.0100493 0.00104473 1e-05
-0.00981133 0.00104605 1e-05
-0.00957337 0.00104736 1e-05
-0.00934491 0.00104862 1e-05
-0.00911645 0.00104988 1e-05
-0.00888799 0.00105114 1e-05
-0.00865954 0.00105239 1e-05
-0.00843108 0.00105365 1e-05
-0.00821175 0.00105485 1e-05
-0.00799242 0.00105606 1e-05
-0.00777309 0.00105726 1e-05
-0.00755376 0.00105846 1e-05
-0.00733443 0.00105966 1e-05
-0.00712387 0.0010608 1e-05
-0.0069133 0.00106195 1e-05
-0.00670273 0.00106309 1e-05
-0.00649217 0.00106424 1e-05
-0.0062816 0.00106538 1e-05
-0.00607944 0.00106647 1e-05
-0.00587729 0.00106757 1e-05
-0.00567514 0.00106867 1e-05
-0.00547298 0.00106976 1e-05
-0.00527083 0.00107086 1e-05
-0.00507675 0.0010719 1e-05
-0.00488267 0.00107295 1e-05
-0.0046886 0.00107401 1e-05
-0.00449452 0.00107506 1e-05
-0.00430044 0.00107612 1e-05
-0.00411412 0.00107713 1e-05
-0.0039278 0.00107815 1e-05
-0.00374147 0.00107918 1e-05
-0.00355515 0.00108021 1e-05
-0.00336883 0.00108124 1e-05
-0.00318995 0.00108223 1e-05
-0.00301107 0.00108324 1e-05
-0.00283219 0.00108425 1e-05
-0.00265331 0.00108527 1e-05
-0.00247443 0.00108631 1e-05
-0.0023027 0.0010873 1e-05
-0.00213097 0.00108832 1e-05
-0.00195924 0.00108936 1e-05
-0.00178751 0.00109041 1e-05
-0.00161577 0.00109147 1e-05
-0.0014509 0.00109251 1e-05
-0.00128603 0.00109357 1e-05
-0.00112116 0.00109467 1e-05
-0.00095629 0.00109579 1e-05
-0.000791418 0.00109696 1e-05
-0.000633135 0.0010981 1e-05
-0.000474851 0.0010993 1e-05
-0.000316568 0.00110053 1e-05
-0.000158286 0.00110181 1e-05
0 0.00110313 1e-05
0.000105677 0.00110403 1e-05
0.000211355 0.00110495 1e-05
0.000317032 0.00110588 1e-05
0.000422709 0.00110683 1e-05
0.000528387 0.00110778 1e-05
0.000634886 0.00110875 1e-05
0.000741385 0.00110971 1e-05
0.000847885 0.00111067 1e-05
0.000954384 0.00111163 1e-05
0.00106088 0.00111258 1e-05
0.00116821 0.00111353 1e-05
0.00127554 0.00111447 1e-05
0.00138286 0.0011154 1e-05
0.00149019 0.00111632 1e-05
0.00159752 0.00111722 1e-05
0.00170568 0.00111812 1e-05
0.00181384 0.00111901 1e-05
0.001922 0.00111988 1e-05
0.00203016 0.00112074 1e-05
0.00213833 0.00112159 1e-05
0.00224733 0.00112243 1e-05
0.00235633 0.00112326 1e-05
0.00246533 0.00112408 1e-05
0.00257434 0.00112489 1e-05
0.00268334 0.00112568 1e-05
0.00279319 0.00112647 1e-05
0.00290304 0.00112725 1e-05
0.00301289 0.00112802 1e-05
0.00312274 0.00112878 1e-05
0.00323259 0.00112952 1e-05
0.00334329 0.00113026 1e-05
0.003454 0.001131 1e-05
0.0035647 0.00113172 1e-05
0.0036754 0.00113244 1e-05
0.00378611 0.00113315 1e-05
0.00389767 0.00113385 1e-05
0.00400924 0.00113455 1e-05
0.0041208 0.00113524 1e-05
0.00423237 0.00113592 1e-05
0.00434393 0.0011366 1e-05
0.00445636 0.00113727 1e-05
0.00456879 0.00113794 1e-05
0.00468123 0.00113861 1e-05
0.00479366 0.00113927 1e-05
0.00490609 0.00113992 1e-05
0.0050194 0.00114056 1e-05
0.0051327 0.00114121 1e-05
0.00524601 0.00114186 1e-05
0.00535931 0.0011425 1e-05
0.00547262 0.00114313 1e-05
0.00558681 0.00114376 1e-05
0.005701 0.00114439 1e-05
0.00581518 0.00114502 1e-05
0.00592937 0.00114565 1e-05
0.00604356 0.00114628 1e-05
0.00615863 0.00114689 1e-05
0.00627371 0.00114752 1e-05
0.00638878 0.00114814 1e-05
0.00650386 0.00114876 1e-05
0.00661893 0.00114938 1e-05
0.0067349 0.00114999 1e-05
0.00685087 0.00115061 1e-05
0.00696684 0.00115123 1e-05
0.00708281 0.00115185 1e-05
0.00719878 0.00115247 1e-05
0.00731565 0.00115309 1e-05
0.00743252 0.00115371 1e-05
0.00754939 0.00115434 1e-05
0.00766626 0.00115497 1e-05
0.00778313 0.00115559 1e-05
0.00790091 0.00115621 1e-05
0.00801869 0.00115685 1e-05
0.00813647 0.00115748 1e-05
0.00825425 0.00115812 1e-05
0.00837203 0.00115876 1e-05
0.00849073 0.00115939 1e-05
0.00860942 0.00116004 1e-05
0.00872812 0.0011607 1e-05
0.00884682 0.00116135 1e-05
0.00896551 0.001162 1e-05
0.00908513 0.00116265 1e-05
0.00920475 0.00116332 1e-05
0.00932437 0.00116399 1e-05
0.00944398 0.00116467 1e-05
0.0095636 0.00116534 1e-05
0.00968415 0.00116601 1e-05
0.0098047 0.0011667 1e-05
0.00992525 0.0011674 1e-05
0.0100458 0.00116809 1e-05
0.0101663 0.00116879 1e-05
0.0102878 0.00116949 1e-05
0.0104093 0.0011702 1e-05
0.0105308 0.00117092 1e-05
0.0106523 0.00117163 1e-05
0.0107738 0.00117236 1e-05
0.0108962 0.00117308 1e-05
0.0110186 0.00117382 1e-05
0.0111411 0.00117456 1e-05
0.0112635 0.0011753 1e-05
0.0113859 0.00117605 1e-05
0.0115093 0.0011768 1e-05
0.0116327 0.00117756 1e-05
0.0117561 0.00117833 1e-05
0.0118795 0.0011791 1e-05
0.0120028 0.00117987 1e-05
0.0121272 0.00118065 1e-05
0.0122515 0.00118144 1e-05
0.0123759 0.00118223 1e-05
0.0125002 0.00118303 1e-05
0.0126245 0.00118383 1e-05
0.0127498 0.00118463 1e-05
0.0128752 0.00118545 1e-05
0.0130005 0.00118627 1e-05
0.0131258 0.00118709 1e-05
0.0132511 0.00118792 1e-05
0.0133774 0.00118876 1e-05
0.0135036 0.0011896 1e-05
0.0136299 0.00119045 1e-05
0.0137562 0.0011913 1e-05
0.0138825 0.00119215 1e-05
0.0140098 0.00119302 1e-05
0.014137 0.00119389 1e-05
0.0142643 0.00119476 1e-05
0.0143915 0.00119564 1e-05
0.0145188 0.00119652 1e-05
0.0146471 0.00119741 1e-05
0.0147753 0.00119831 1e-05
0.0149036 0.00119921 1e-05
0.0150318 0.00120011 1e-05
0.0151601 0.00120102 1e-05
0.0151845 0.00120119 1e-05
0.015209 0.00120136 1e-05
0.0152334 0.00120154 1e-05
0.0152579 0.00120171 1e-05
0.0152827 0.00120189 1e-05
0.0153874 0.00120264 1e-05
0.0154921 0.00120339 1e-05
0.0155969 0.00120414 1e-05
0.0157016 0.00120489 1e-05
0.0158063 0.00120565 1e-05
0.0159366 0.00120659 1e-05
0.0160668 0.00120754 1e-05
0.0161971 0.00120849 1e-05
0.0163274 0.00120944 1e-05
0.0164576 0.0012104 1e-05
0.0165889 0.00121137 1e-05
0.0167201 0.00121234 1e-05
0.0168514 0.00121331 1e-05
0.0169827 0.00121429 1e-05
0.0171139 0.00121527 1e-05
0.0172462 0.00121626 1e-05
0.0173785 0.00121725 1e-05
0.0175108 0.00121825 1e-05
0.0176431 0.00121925 1e-05
0.0177754 0.00122025 1e-05
0.0179087 0.00122127 1e-05
0.018042 0.00122228 1e-05
0.0181753 0.0012233 1e-05
0.0183087 0.00122432 1e-05
0.018442 0.00122535 1e-05
0.0185763 0.00122639 1e-05
0.0187107 0.00122742 1e-05
0.018845 0.00122847 1e-05
0.0189794 0.00122951 1e-05
0.0191137 0.00123056 1e-05
0.0192491 0.00123162 1e-05
0.0193845 0.00123268 1e-05
0.0195199 0.00123375 1e-05
0.0196553 0.00123481 1e-05
0.0197907 0.00123588 1e-05
0.0199272 0.00123697 1e-05
0.0200636 0.00123805 1e-05
0.0202001 0.00123913 1e-05
0.0203365 0.00124022 1e-05
0.020473 0.0012413 1e-05
0.0206105 0.0012424 1e-05
0.020748 0.0012435 1e-05
0.0208855 0.0012446 1e-05
0.021023 0.0012457 1e-05
0.0211606 0.0012468 1e-05
0.0212991 0.00124792 1e-05
0.0214377 0.00124904 1e-05
0.0215763 0.00125015 1e-05
0.0217149 0.00125127 1e-05
0.0218535 0.00125238 1e-05
0.0219931 0.00125351 1e-05
0.0221328 0.00125464 1e-05
0.0222724 0.00125577 1e-05
0.0224121 0.00125689 1e-05
0.0225517 0.00125802 1e-05
0.0226925 0.00125916 1e-05
0.0228332 0.0012603 1e-05
0.022974 0.00126143 1e-05
0.0231147 0.00126257 1e-05
0.0232555 0.0012637 1e-05
0.0233973 0.00126485 1e-05
0.0235391 0.00126599 1e-05
0.023681 0.00126713 1e-05
0.0238228 0.00126827 1e-05
0.0239647 0.00126941 1e-05
0.0241076 0.00127057 1e-05
0.0242505 0.00127172 1e-05
0.0243935 0.00127287 1e-05
0.0245364 0.00127402 1e-05
0.0246794 0.00127516 1e-05
0.0248234 0.00127633 1e-05
0.0249675 0.00127748 1e-05
0.0251115 0.00127864 1e-05
0.0252556 0.00127979 1e-05
[...]
POINT_DATA 12073
 FIELD attributes 1
U 3 12073 float
10.0004 	0.00735454 	0 10.0004 	0.00588363 	0 10.0003 	0.00441272 	0 10.0002 	0.00294182 	0 10.0001 	0.00147091 	0 10 	0 	0
10 	0.000904277 	0 10 	0.000723422 	0 10 	0.000542566 	0 10 	0.000361711 	0 10 	0.000180855 	0 10 	0 	0
10.0001 	0.00050351 	0 10.0001 	0.000402668 	0 10.0001 	0.000301826 	0 10 	0.000200984 	0 10 	0.000100141 	0 10 	0 	0
10 	0.000319681 	0 10 	0.000255745 	0 10 	0.000191809 	0 10 	0.000127873 	0 10 	6.39363e-05 	0 10 	0 	0
10 	0.00013768 	0 10 	0.000110144 	0 10 	8.2608e-05 	0 10 	5.5072e-05 	0 10 	2.7536e-05 	0 10 	0 	0
10 	2.83134e-05 	0 10 	2.26508e-05 	0 10 	1.69881e-05 	0 10 	1.13254e-05 	0 10 	5.66269e-06 	0 10 	0 	0
10 	-0.000173448 	0 10 	-0.000138758 	0 10 	-0.000104069 	0 10 	-6.93791e-05 	0 10 	-3.46895e-05 	0 10 	0 	0
10 	-0.000347604 	0 10 	-0.000278084 	0 10 	-0.000208563 	0 10 	-0.000139042 	0 10 	-6.95209e-05 	0 10 	0 	0
9.99999 	-0.00040766 	0 9.99999 	-0.000326128 	0 9.99999 	-0.000244596 	0 10 	-0.000163064 	0 10 	-8.1532e-05 	0 10 	0 	0
9.17388 	0.0871292 	0 9.13081 	0.0697034 	0 9.08741 	0.0522773 	0 9.04369 	0.0348509 	0 8.99963 	0.0174244 	0 8.95524 	0 	0
10.0004 	0.00735454 	0 10.0024 	0.0152341 	0 10.0045 	0.0222772 	0 10.0065 	0.0292758 	0 10.0085 	0.03623 	0 10.0135 	0.0464405 	0 10.0163 	0.0403457 	0 10.0207 	0.0403201 	0 10.0251 	0.0402945 	0 10.0295 	0.0402691 	0 10.0354 	0.0447424 	0 10.0382 	0.0381438 	0 10.0421 	0.0381282 	0 10.046 	0.0381126 	0 10.0499 	0.0380969 	0 10.0539 	0.0412056 	0 10.056 	0.0391817 	0 10.0584 	0.0405245 	0 10.0607 	0.0418689 	0 10.0631 	0.0432151 	0 10.0651 	0.045681 	0 10.0665 	0.0458139 	0 10.0677 	0.0470143 	0 10.0688 	0.0482158 	0 10.07 	0.0494183 	0 10.071 	0.0504349 	0 10.0711 	0.0505402 	0 10.0712 	0.0506455 	0 10.0713 	0.0507508 	0 10.0714 	0.0508561 	0 10.0715 	0.0509459 	0 10.0719 	0.0516238 	0 10.0723 	0.0522914 	0 10.0726 	0.0529596 	0 10.073 	0.0536284 	0 10.0733 	0.0541268 	0 10.073 	0.0544828 	0 10.0725 	0.0547287 	0 10.0719 	0.0549748 	0 10.0714 	0.055221 	0 10.0707 	0.055224 	0 10.07 	0.0554412 	0 10.0687 	0.0554848 	0 10.0674 	0.0555285 	0 10.066 	0.0555723 	0 10.0642 	0.0553441 	0 10.0636 	0.0555125 	0 10.0617 	0.0554613 	0 10.0598 	0.0554101 	0 10.0579 	0.0553589 	0 10.055 	0.0550216 	0 10.0547 	0.0551881 	0 10.0524 	0.0550994 	0 10.05 	0.0550108 	0 10.0476 	0.0549221 	0 10.0437 	0.0545386 	0 10.044 	0.0547405 	0 10.0413 	0.0546615 	0 10.0385 	0.0545824 	0 10.0358 	0.0545034 	0 10.0307 	0.0541262 	0 10.0318 	0.0543999 	0 10.0288 	0.0543667 	0 10.0258 	0.0543334 	0 10.0227 	0.0543002 	0 10.0164 	0.0539617 	0 10.0185 	0.0543382 	0 10.0152 	0.0543988 	0 10.012 	0.0544595 	0 10.0087 	0.0545202 	0 10.001 	0.0542841 	0 10.0043 	0.0548201 	0 10.0008 	0.0550176 	0 9.99733 	0.0552152 	0 9.99385 	0.0554128 	0 9.98471 	0.0553107 	0 9.98919 	0.0560848 	0 9.9856 	0.0566025 	0 9.98201 	0.0571203 	0 9.97842 	0.0576383 	0 9.96793 	0.0579304 	0 9.97388 	0.0591651 	0 9.97018 	0.0600548 	0 9.96648 	0.0609448 	0 9.96279 	0.0618352 	0 9.9508 	0.0623969 	0 9.95846 	0.0641406 	0 9.95516 	0.0661321 	0 9.95187 	0.0681239 	0 9.94861 	0.070116 	0 9.93579 	0.0720041 	0 9.94606 	0.0749226 	5.25073e-22 9.94462 	0.0776003 	6.14607e-21 9.9432 	0.0802786 	1.17639e-20 9.9418 	0.0829573 	1.73787e-20 9.92939 	0.0845692 	1.37183e-20 9.94232 	0.0865922 	1.14287e-19 9.94211 	0.0877284 	1.07348e-19 9.9419 	0.0888648 	1.00424e-19 9.9417 	0.0900012 	9.3514e-20 9.92927 	0.0899658 	-1.84094e-20 9.94323 	0.0901278 	-5.12764e-20 9.94309 	0.0896677 	-5.66552e-20 9.94294 	0.0892077 	-6.20313e-20 9.94279 	0.0887476 	-6.74046e-20 9.92958 	0.0879434 	-2.17222e-20 9.9434 	0.0872947 	-1.96947e-20 9.94209 	0.0860707 	-1.3319e-20 9.94078 	0.0848468 	-6.94429e-21 9.93946 	0.0836227 	-5.70666e-22 9.92472 	0.082371 	1.00896e-20 9.93833 	0.0817451 	-2.07944e-21 9.93586 	0.0804104 	-2.28629e-20 9.93337 	0.0790755 	-4.365e-20 9.93089 	0.0777403 	-6.44409e-20 9.91455 	0.0762058 	-9.68425e-20 9.92821 	0.0758359 	-1.57371e-19 9.92476 	0.0746465 	-1.43893e-19 9.9213 	0.0734568 	-1.30403e-19 9.91783 	0.0722667 	-1.169e-19 9.89993 	0.0706313 	-3.15273e-20 9.91384 	0.0704759 	6.61563e-20 9.90948 	0.0694401 	8.177e-20 9.90511 	0.068404 	9.73693e-20 9.90074 	0.0673675 	1.12954e-19 9.88122 	0.0657534 	3.9817e-20 9.8955 	0.0658137 	-1.01037e-19 9.89027 	0.0649406 	-1.08621e-19 9.88503 	0.064067 	-1.16184e-19 9.87978 	0.0631932 	-1.23729e-19 9.85856 	0.061654 	-1.6159e-22 9.87328 	0.0619686 	1.20794e-19 9.86719 	0.0612541 	1.11167e-19 9.86108 	0.0605392 	1.01524e-19 9.85497 	0.0598241 	9.18655e-20 9.83199 	0.0583297 	-2.29373e-20 9.84714 	0.0588678 	-1.14942e-19 9.8402 	0.0582746 	-1.40266e-19 9.83325 	0.0576811 	-1.65586e-19 9.8263 	0.0570873 	-1.909e-19 9.80156 	0.0556178 	-1.34335e-19 9.81704 	0.0563615 	-1.9373e-19 9.80928 	0.055876 	-1.80018e-19 9.80152 	0.0553902 	-1.66302e-19 9.79375 	0.0549041 	-1.52584e-19 9.76734 	0.053464 	-7.74906e-20 9.78297 	0.0544112 	-7.05549e-20 9.77445 	0.0540352 	-4.97259e-20 9.76592 	0.0536589 	-2.8898e-20 9.75738 	0.0532825 	-8.07102e-21 9.72952 	0.0518804 	7.03781e-21 9.74507 	0.0530244 	0 9.73585 	0.05276 	0 9.72662 	0.0524955 	0 9.71739 	0.0522307 	0 9.68837 	0.0508715 	0 9.70353 	0.0521858 	-9.29559e-21 9.69368 	0.0520249 	-3.02165e-20 9.68383 	0.0518638 	-5.11377e-20 9.67398 	0.0517026 	-7.20593e-20 9.64415 	0.0503883 	-9.99606e-20 9.65859 	0.0518332 	-1.37751e-19 9.64818 	0.0517652 	-1.38719e-19 9.63778 	0.0516972 	-1.39687e-19 9.62738 	0.0516291 	-1.40654e-19 9.59715 	0.0503715 	-1.06277e-19 9.61046 	0.0519102 	-2.29657e-20 9.59955 	0.0519273 	1.02169e-20 9.58864 	0.0519446 	4.34008e-20 9.57773 	0.051962 	7.65861e-20 9.5475 	0.0507745 	5.59586e-20 9.55934 	0.0523549 	9.4971e-20 9.54798 	0.0524475 	9.57105e-20 9.53662 	0.0525403 	9.64518e-20 9.52527 	0.0526333 	9.7195e-20 9.49546 	0.0515407 	6.2209e-20 9.5055 	0.0530987 	4.83851e-20 9.49377 	0.0532468 	3.51556e-20 9.48205 	0.0533951 	2.19257e-20 9.47034 	0.0535438 	8.69535e-21 9.44138 	0.0525677 	0 9.44932 	0.0540433 	-8.76766e-21 9.4373 	0.0542218 	-2.19707e-20 9.42529 	0.0544007 	-3.51732e-20 9.41328 	0.05458 	-4.83753e-20 9.38556 	0.053731 	-6.20427e-20 9.39117 	0.0550828 	-9.42584e-20 9.37892 	0.0552783 	-1.01981e-19 9.36668 	0.0554742 	-1.09707e-19 9.35444 	0.0556706 	-1.17436e-19 9.32827 	0.0549609 	-9.83923e-20 9.33141 	0.0561672 	-6.02623e-20 9.31898 	0.0563761 	-4.80075e-20 9.30657 	0.0565854 	-3.57469e-20 9.29416 	0.0567952 	-2.34805e-20 9.26979 	0.0562357 	-3.84008e-20 9.27038 	0.0572842 	-3.06747e-20 9.25784 	0.0575031 	-2.26447e-20 9.24531 	0.0577225 	-1.46144e-20 9.23279 	0.0579423 	-6.58367e-21 9.21039 	0.0575364 	-2.12327e-21 9.20844 	0.058418 	0 9.19583 	0.0586389 	0 9.18324 	0.0588604 	0 9.17066 	0.0590823 	0 9.15032 	0.0588225 	0 9.14593 	0.059539 	6.74363e-21 9.13331 	0.0597587 	1.45868e-20 9.12071 	0.0599789 	2.24295e-20 9.10811 	0.0601997 	3.02719e-20 9.08984 	0.0600771 	3.67454e-20 9.08318 	0.0606322 	2.71367e-20 9.07059 	0.0608409 	2.78428e-20 9.05802 	0.0610502 	2.85434e-20 9.04545 	0.06126 	2.92385e-20 9.02919 	0.0612529 	3.69397e-20 9.02048 	0.0616567 	3.10066e-20 9.00797 	0.0618471 	2.42078e-20 8.99547 	0.0620381 	1.74086e-20 8.98298 	0.0622296 	1.06091e-20 8.96861 	0.0623149 	2.7119e-21 8.95812 	0.0625927 	1.10471e-23 8.94572 	0.0627694 	-2.08992e-22 8.93332 	0.0629465 	-4.33396e-22 8.92094 	0.0631241 	-6.62184e-22 8.90829 	0.0632873 	-4.22496e-22 8.90624 	0.0633311 	-1.2803e-21 8.90392 	0.0633613 	-2.93302e-21 8.9016 	0.0633914 	-4.58559e-21 8.89928 	0.0634216 	-6.23799e-21 8.89693 	0.0634522 	-7.91225e-21 8.88693 	0.0635788 	-1.49608e-20 8.87694 	0.0637057 	-2.20067e-20 8.86696 	0.063833 	-2.90498e-20 8.85698 	0.0639605 	-3.60902e-20 8.8467 	0.0641358 	-4.09909e-20 8.83485 	0.0642281 	-4.4441e-20 8.82268 	0.0643612 	-4.45755e-20 8.81051 	0.0644947 	-4.47045e-20 8.79835 	0.0646286 	-4.4828e-20 8.78566 	0.0648721 	-3.71098e-20 8.77429 	0.0648872 	-2.87976e-20 8.76229 	0.0649947 	-2.14358e-20 8.7503 	0.0651025 	-1.40742e-20 8.73831 	0.0652108 	-6.71285e-21 8.72569 	0.0654901 	0 8.71472 	0.0654364 	0 8.70293 	0.0655276 	0 8.69114 	0.0656192 	0 8.67936 	0.0657112 	0 8.66693 	0.0660354 	4.03736e-22 8.65631 	0.0659371 	0 8.64474 	0.0660326 	0 8.63318 	0.0661285 	0 8.62162 	0.0662247 	0 8.60945 	0.0666084 	5.01883e-22 8.59912 	0.0664764 	5.91254e-21 8.58779 	0.0665739 	1.28447e-20 8.57646 	0.0666717 	1.97772e-20 8.56514 	0.0667698 	2.67098e-20 8.55329 	0.0671945 	3.5797e-20 8.54322 	0.066997 	5.9685e-20 8.53213 	0.0670529 	6.03537e-20 8.52105 	0.0671091 	6.10188e-20 8.50997 	0.0671656 	6.16803e-20 8.49849 	0.0675743 	3.54449e-20 8.48866 	0.067287 	2.60473e-20 8.47785 	0.067292 	1.91455e-20 8.46703 	0.0672972 	1.22438e-20 8.45622 	0.0673026 	5.34217e-21 8.44514 	0.0677017 	7.42425e-22 8.43552 	0.0673652 	4.43898e-21 8.42496 	0.0673527 	1.0185e-20 8.41441 	0.0673404 	1.59311e-20 8.40386 	0.0673282 	2.16773e-20 8.39322 	0.0677462 	2.50808e-20 8.38376 	0.0673706 	1.36967e-20 8.37347 	0.0673302 	1.40163e-20 8.36318 	0.0672898 	1.43364e-20 8.35289 	0.0672496 	1.46569e-20 8.34269 	0.0676547 	2.6721e-20 8.33338 	0.0672122 	6.05128e-20 8.32333 	0.0671231 	6.67247e-20 8.31328 	0.0670339 	7.29368e-20 8.30323 	0.0669448 	7.9149e-20 8.29348 	0.0673201 	5.72673e-20 8.28426 	0.0668244 	5.33426e-20 8.27444 	0.0667101 	5.28623e-20 8.26461 	0.0665957 	5.23818e-20 8.25478 	0.0664813 	5.19011e-20 8.2455 	0.06686 	5.33888e-20 8.23636 	0.0663416 	1.97482e-20 8.22675 	0.0662237 	-2.75176e-20 8.21714 	0.0661058 	-7.47833e-20 8.20753 	0.0659878 	-1.22049e-19 8.19869 	0.0663852 	-1.71433e-19 8.18962 	0.0658467 	-2.20244e-19 8.18023 	0.0657257 	-2.20606e-19 8.17084 	0.0656047 	-2.2097e-19 8.16145 	0.0654837 	-2.21334e-19 8.15307 	0.0658968 	-1.62987e-19 8.14407 	0.065327 	-9.18257e-20 8.1349 	0.0651952 	-5.59567e-20 8.12574 	0.0650632 	-2.00863e-20 8.11657 	0.0649312 	1.57856e-20 8.10865 	0.0653545 	-2.71748e-22 8.09973 	0.0647455 	-3.81125e-20 8.09079 	0.0645958 	-3.87712e-20 8.08184 	0.0644459 	-3.94313e-20 8.0729 	0.0642959 	-4.00928e-20 8.06541 	0.0647251 	-6.01417e-21 8.05655 	0.0640835 	1.17688e-20 8.04782 	0.0639276 	3.39615e-20 8.03909 	0.0637716 	5.61538e-20 8.03035 	0.0636154 	7.83457e-20 8.02329 	0.0640663 	1.00471e-19 8.01452 	0.0634017 	9.04508e-20 8.006 	0.0632481 	9.03864e-20 7.99747 	0.0630944 	9.03212e-20 7.98895 	0.0629405 	9.02552e-20 7.9823 	0.063419 	9.80381e-20 7.97363 	0.0627288 	7.30049e-20 7.96531 	0.0625719 	4.03044e-20 7.95699 	0.0624149 	7.60362e-21 7.94867 	0.0622578 	-2.50973e-20 7.94241 	0.0627565 	-5.23697e-20 7.93382 	0.0620415 	8.52167e-21 7.9257 	0.0618781 	1.97879e-20 7.91757 	0.0617145 	3.1056e-20 7.90943 	0.0615507 	4.23262e-20 7.90354 	0.062064 	-1.55412e-21 7.89501 	0.0613327 	5.23283e-20 7.88706 	0.0611673 	6.332e-20 7.87911 	0.0610018 	7.43133e-20 7.87115 	0.0608361 	8.53081e-20 7.86561 	0.0613656 	4.83706e-20 7.85712 	0.0606225 	4.65354e-20 7.84934 	0.0604625 	5.59451e-20 7.84156 	0.0603024 	6.53541e-20 7.83377 	0.0601422 	7.47625e-20 7.82863 	0.0606963 	9.05295e-20 7.82017 	0.059936 	7.85748e-20 7.81258 	0.0597729 	7.85035e-20 7.80499 	0.0596098 	7.84313e-20 7.79739 	0.0594465 	7.83583e-20 7.79266 	0.0600184 	9.07614e-20 7.78422 	0.0592356 	7.00326e-20 7.77681 	0.0590669 	4.92515e-20 7.76939 	0.0588981 	2.84699e-20 7.76197 	0.0587292 	7.68775e-21 7.75767 	0.0593223 	0 7.74922 	0.0585187 	-7.05376e-21 7.74201 	0.0583493 	-2.63958e-20 7.7348 	0.0581797 	-4.57373e-20 7.72758 	0.0580101 	-6.50784e-20 7.72376 	0.0586312 	-8.44697e-20 7.71535 	0.0577966 	-7.79202e-20 7.70836 	0.0576089 	-9.68456e-20 7.70137 	0.0574211 	-1.15769e-19 7.69437 	0.057233 	-1.34692e-19 7.69105 	0.0578648 	-1.67133e-19 7.68265 	0.0569923 	-1.39934e-19 7.67588 	0.0567856 	-1.38765e-19 7.66911 	0.0565787 	-1.37593e-19 7.66234 	0.0563717 	-1.36418e-19 7.65955 	0.0570214 	-1.63161e-19 7.65115 	0.0561167 	-1.25064e-19 7.64465 	0.0558967 	-8.71769e-20 7.63814 	0.0556765 	-4.92887e-20 7.63163 	0.0554561 	-1.13991e-20 7.62946 	0.0561268 	-8.7344e-21 7.62114 	0.0551745 	-5.18155e-20 7.61493 	0.0549143 	-3.32176e-20 7.60872 	0.0546538 	-1.4624e-20 7.6025 	0.0543931 	3.96552e-21 7.60095 	0.0550564 	7.21758e-20 7.59269 	0.0540427 	5.65326e-20 7.5868 	0.0537313 	1.99425e-20 7.5809 	0.0534196 	-1.66477e-20 7.57499 	0.0531076 	-5.32379e-20 7.57413 	0.0537618 	-7.47512e-20 7.56592 	0.0526913 	-5.69544e-20 7.56039 	0.0523377 	-3.94778e-20 7.55485 	0.0519838 	-2.20001e-20 7.5493 	0.0516297 	-4.52108e-21 7.5492 	0.0522857 	-5.48246e-21 7.54111 	0.0511518 	1.34729e-21 7.53598 	0.050747 	1.97288e-20 7.53085 	0.0503419 	3.81088e-20 7.5257 	0.0499365 	5.64875e-20 7.52642 	0.0505852 	5.6319e-20 7.51849 	0.0493716 	-6.03041e-20 7.51381 	0.0488968 	-7.07621e-20 7.50912 	0.0484216 	-8.12356e-20 7.50442 	0.0479461 	-9.17246e-20 7.50598 	0.0485677 	2.49602e-20 7.49826 	0.0472572 	8.69964e-20 7.49406 	0.0466942 	7.04097e-20 7.48984 	0.0461307 	5.38307e-20 7.4856 	0.0455669 	3.72593e-20 7.48804 	0.0461411 	-2.94716e-20 7.48056 	0.044714 	-2.61502e-20 7.47685 	0.0440432 	-3.43973e-20 7.47312 	0.043372 	-4.26409e-20 7.46937 	0.0427004 	-5.08809e-20 7.47269 	0.0432071 	-6.73098e-20 7.46548 	0.0416439 	-5.06777e-20 7.46228 	0.0408465 	-4.96573e-20 7.45905 	0.0400486 	-4.86313e-20 7.45591 	0.0392678 	-4.78471e-20 7.46 	0.0396726 	-6.37884e-20 7.45321 	0.0379836 	-4.76536e-20 7.45039 	0.0370186 	-4.64153e-20 7.44768 	0.0360763 	-4.56475e-20 7.44538 	0.0352046 	-4.67577e-20 7.45004 	0.035451 	-7.75276e-20 7.44375 	0.0336351 	-1.68569e-19 7.44126 	0.0324706 	-1.62369e-19 7.43908 	0.0313615 	-1.47867e-19 7.43767 	0.0303788 	-1.21268e-19 7.44285 	0.0304304 	4.10235e-21 7.4371 	0.0284634 	1.2049e-19 7.43493 	0.0270709 	1.36349e-19 7.43328 	0.0257652 	1.36977e-19 7.43281 	0.0246438 	1.20802e-19 7.43849 	0.0244626 	1.88863e-20 7.43329 	0.0223146 	1.30258e-21 7.43143 	0.0206623 	-7.26561e-21 7.43031 	0.0191266 	-1.37057e-20 7.43081 	0.0178344 	-2.04183e-20 7.43698 	0.0173807 	-2.80759e-20 7.43237 	0.0150192 	-7.87431e-20 7.43078 	0.0130763 	-9.22818e-20 7.43021 	0.0112784 	-9.29756e-20 7.43172 	0.00978515 	-7.85263e-20 7.43833 	0.00902525 	-2.76251e-20 7.43432 	0.00642348 	-1.97601e-20 7.43298 	0.00415836 	-1.68631e-20 7.43295 	0.00206087 	-1.64361e-20 7.43552 	0.000328509 	-1.89338e-20 7.44255 	-0.000784461 	-2.63991e-20 7.43916 	-0.00366556 	-7.58392e-20 7.43804 	-0.00627594 	-9.70042e-20 7.43853 	-0.00869184 	-9.7868e-20 7.44217 	-0.0106735 	-7.5557e-20 7.44955 	-0.0121418 	-2.58305e-20 7.44677 	-0.0152963 	-1.8104e-20 7.4458 	-0.018241 	-1.0571e-20 7.44678 	-0.0209623 	-3.24487e-21 7.45148 	-0.0231831 	0 7.45915 	-0.025006 	0 7.45696 	-0.0284312 	0 7.45609 	-0.0317182 	0 7.4575 	-0.0347729 	0 7.46324 	-0.0372994 	0 7.47109 	-0.0395642 	0 7.46944 	-0.0433595 	0 7.46858 	-0.0470891 	3.23509e-21 7.47035 	-0.0506189 	1.65273e-20 7.47708 	-0.053641 	4.1043e-20 7.48503 	-0.0565314 	6.84429e-20 7.48389 	-0.0608804 	1.51114e-19 7.48297 	-0.0652082 	2.24209e-19 7.48494 	-0.0693599 	2.07118e-19 7.49245 	-0.0729957 	9.93397e-20 7.50024 	-0.0765958 	-1.43468e-20 7.49936 	-0.0815742 	-1.74791e-19 7.49837 	-0.0865492 	-3.35224e-19 7.50076 	-0.0912885 	-3.55793e-19 7.50848 	-0.0955385 	-2.39062e-19 7.5161 	-0.0997856 	-1.22319e-19 7.51542 	-0.10534 	-2.38322e-19 7.51462 	-0.11089 	-3.54316e-19 7.51747 	-0.116177 	-3.33406e-19 7.52499 	-0.121077 	-1.72244e-19 7.5324 	-0.125974 	-1.10576e-20 7.53187 	-0.132107 	1.03014e-19 7.53121 	-0.138234 	2.17096e-19 7.53444 	-0.144095 	2.29739e-19 7.54162 	-0.149686 	1.40061e-19 7.54868 	-0.155272 	5.04153e-20 7.54821 	-0.162018 	8.84836e-20 7.54758 	-0.168758 	1.26605e-19 7.5511 	-0.175228 	1.18993e-19 7.55785 	-0.181532 	8.11445e-20 7.56447 	-0.187832 	4.32942e-20 7.56394 	-0.195223 	2.67064e-20 7.56325 	-0.202607 	1.01246e-20 7.56714 	-0.209719 	-2.89609e-21 7.5732 	-0.216771 	5.92654e-21 7.57927 	-0.223816 	1.6197e-20 7.57859 	-0.231886 	3.615e-21 7.57906 	-0.23989 	-4.36461e-21 7.58254 	-0.247745 	-1.27043e-21 7.58719 	-0.25558 	0 7.59261 	-0.263401 	0 7.59168 	-0.272192 	0 7.59322 	-0.280887 	1.00149e-20 7.59616 	-0.289521 	2.60581e-20 7.59933 	-0.298148 	4.45122e-20 7.60399 	-0.306774 	7.32464e-20 7.6027 	-0.316321 	2.73786e-19 7.60516 	-0.325776 	2.74086e-19 7.60747 	-0.335221 	2.72166e-19 7.60959 	-0.344655 	2.69862e-19 7.61287 	-0.354102 	1.23633e-19 7.61256 	-0.364422 	9.79867e-20 7.61431 	-0.374711 	7.09921e-20 7.61586 	-0.384988 	4.40637e-20 7.61719 	-0.395254 	1.72015e-20 7.61865 	-0.405521 	-6.94643e-21 7.61846 	-0.409414 	-2.2388e-20 7.61882 	-0.413308 	-2.07951e-20 7.61914 	-0.417201 	-1.91697e-20 7.61944 	-0.421091 	-1.75119e-20 7.61969 	-0.424666 	-1.5958e-20 7.61999 	-0.431896 	-1.9738e-20 7.62019 	-0.439119 	-2.35087e-20 7.62029 	-0.446335 	-2.727e-20 7.62029 	-0.453544 	-3.1022e-20 7.62132 	-0.460819 	-3.49728e-20 7.62054 	-0.472634 	6.6103e-22 7.62013 	-0.484495 	1.54548e-20 7.61947 	-0.496338 	3.04228e-20 7.61856 	-0.508163 	4.55649e-20 7.62019 	-0.520189 	-1.83575e-21 7.61761 	-0.532767 	5.54881e-20 7.61585 	-0.545431 	7.01778e-20 7.61399 	-0.558093 	7.83332e-20 7.61324 	-0.570853 	5.64044e-20 7.61381 	-0.583744 	-6.43987e-22 7.61012 	-0.597156 	5.74408e-20 7.6062 	-0.610551 	1.13692e-19 7.60325 	-0.624026 	1.22928e-19 7.60248 	-0.637709 	7.1387e-20 7.60145 	-0.651392 	1.97587e-20 7.59649 	-0.665603 	1.0973e-20 7.59124 	-0.679792 	2.16565e-21 7.58772 	-0.694146 	0 7.5852 	-0.70855 	0 7.58239 	-0.722958 	0 7.576 	-0.737912 	0 7.57047 	-0.752949 	0 7.56574 	-0.768062 	0 7.56072 	-0.783151 	3.76163e-22 7.55594 	-0.798198 	1.30169e-20 7.54935 	-0.811814 	3.12128e-21 7.54393 	-0.825514 	1.914e-20 7.53827 	-0.839197 	3.52e-20 7.53237 	-0.852861 	5.13011e-20 7.52722 	-0.864325 	6.48614e-20 7.52601 	-0.866791 	6.67846e-20 7.5248 	-0.869255 	6.87063e-20 7.52358 	-0.871719 	7.06264e-20 7.52235 	-0.874183 	7.25448e-20 7.52147 	-0.876703 	7.38566e-20 7.51308 	-0.892871 	4.30846e-20 7.50452 	-0.909005 	2.36878e-20 7.49562 	-0.925112 	3.9326e-21 7.4865 	-0.941207 	-1.22943e-20 7.47937 	-0.957641 	5.30491e-20 7.46844 	-0.974347 	3.66614e-20 7.45732 	-0.990977 	1.56548e-20 7.44623 	-1.00747 	-1.52884e-20 7.43709 	-1.02418 	-1.79664e-20 7.42757 	-1.04091 	-2.05535e-20 7.41452 	-1.05798 	5.16776e-20 7.40114 	-1.07502 	1.22836e-19 7.38949 	-1.09215 	1.15952e-19 7.37768 	-1.10906 	7.90071e-20 7.36558 	-1.1259 	2.30075e-20 7.35252 	-1.14063 	3.3404e-20 7.3407 	-1.15529 	3.52691e-20 7.32875 	-1.16993 	3.64507e-20 7.31653 	-1.18454 	3.76939e-20 7.30575 	-1.19715 	3.88209e-20 7.30302 	-1.20007 	3.87537e-20 7.30027 	-1.20299 	3.86881e-20 7.29751 	-1.20591 	3.8624e-20 7.29476 	-1.20882 	3.74811e-20 7.29208 	-1.21171 	3.20039e-20 7.27525 	-1.229 	3.95975e-20 7.25779 	-1.24604 	3.70229e-20 7.23994 	-1.26306 	3.45804e-20 7.2219 	-1.27989 	1.62203e-20 7.20363 	-1.29656 	-2.34232e-20 7.18448 	-1.314 	-1.44179e-20 7.16492 	-1.3314 	-5.43481e-21 7.14514 	-1.34834 	6.14214e-21 7.12436 	-1.36444 	1.05499e-20 7.10307 	-1.3806 	1.50524e-20 7.08767 	-1.39255 	1.89997e-20 7.07214 	-1.40412 	2.267e-20 7.05645 	-1.41548 	2.62049e-20 7.04055 	-1.42682 	2.97753e-20 7.02607 	-1.43701 	3.30193e-20 7.0193 	-1.44218 	3.76632e-20 7.01249 	-1.44735 	4.23277e-20 7.00565 	-1.45252 	4.70128e-20 6.99849 	-1.45759 	4.45147e-20 6.9908 	-1.46253 	2.93171e-20 6.96957 	-1.47919 	2.00701e-20 6.94602 	-1.495 	1.08912e-20 6.92207 	-1.5108 	1.68125e-21 6.89564 	-1.52577 	-1.38444e-20 6.86819 	-1.54063 	-3.09291e-20 6.84419 	-1.55643 	-2.37823e-20 6.81907 	-1.57188 	-2.12411e-20 6.79158 	-1.58641 	-3.15231e-20 6.76367 	-1.60091 	-4.19371e-20 6.73389 	-1.61491 	-5.68567e-20 6.72955 	-1.61726 	-5.57564e-20 6.72499 	-1.61951 	-5.3417e-20 6.72019 	-1.62164 	-4.97272e-20 6.71537 	-1.62376 	-4.60379e-20 6.71064 	-1.62584 	-4.24227e-20 6.687 	-1.63758 	-2.24063e-20 6.66307 	-1.64931 	-2.39782e-21 6.63887 	-1.66102 	1.76026e-20 6.61324 	-1.67212 	2.72837e-20 6.58599 	-1.68265 	2.63294e-20 6.55738 	-1.69628 	5.76566e-20 6.52835 	-1.70988 	8.88665e-20 6.49666 	-1.72214 	6.3804e-20 6.46251 	-1.73328 	9.99903e-21 6.42707 	-1.74417 	-5.01067e-20 6.41487 	-1.74884 	-5.48736e-20 6.40216 	-1.75322 	-5.