# vtk DataFile Version 2.0
track0
ASCII
DATASET POLYDATA
POINTS 12073 float
-0.0205 0.001 1e-05
-0.02052 0.000999985 1e-05
-0.02054 0.000999974 1e-05
-0.02056 0.000999965 1e-05
-0.02058 0.000999959 1e-05
-0.0206 0.000999956 1e-05
-0.0205 0.00367778 1e-05
-0.02052 0.00367778 1e-05
-0.02054 0.00367777 1e-05
-0.02056 0.00367777 1e-05
-0.02058 0.00367777 1e-05
-0.0206 0.00367777 1e-05
-0.0205 0.00635556 1e-05
-0.02052 0.00635555 1e-05
-0.02054 0.00635555 1e-05
-0.02056 0.00635555 1e-05
-0.02058 0.00635555 1e-05
-0.0206 0.00635555 1e-05
-0.0205 0.00903333 1e-05
-0.02052 0.00903333 1e-05
-0.02054 0.00903333 1e-05
-0.02056 0.00903333 1e-05
-0.02058 0.00903333 1e-05
-0.0206 0.00903333 1e-05
-0.0205 0.0117111 1e-05
-0.02052 0.0117111 1e-05
-0.02054 0.0117111 1e-05
-0.02056 0.0117111 1e-05
-0.02058 0.0117111 1e-05
-0.0206 0.0117111 1e-05
-0.0205 0.0143889 1e-05
-0.02052 0.0143889 1e-05
-0.02054 0.0143889 1e-05
-0.02056 0.0143889 1e-05
-0.02058 0.0143889 1e-05
-0.0206 0.0143889 1e-05
-0.0205 0.0170667 1e-05
-0.02052 0.0170667 1e-05
-0.02054 0.0170667 1e-05
-0.02056 0.0170667 1e-05
-0.02058 0.0170667 1e-05
-0.0206 0.0170667 1e-05
-0.0205 0.0197444 1e-05
-0.02052 0.0197444 1e-05
-0.02054 0.0197444 1e-05
-0.02056 0.0197444 1e-05
-0.02058 0.0197444 1e-05
-0.0206 0.0197444 1e-05
-0.0205 0.0224222 1e-05
-0.02052 0.0224222 1e-05
-0.02054 0.0224222 1e-05
-0.02056 0.0224222 1e-05
-0.02058 0.0224222 1e-05
-0.0206 0.0224222 1e-05
-0.0205 0.0251 1e-05
-0.02052 0.0250998 1e-05
-0.02054 0.0250997 1e-05
-0.02056 0.0250995 1e-05
-0.02058 0.0250995 1e-05
-0.0206 0.0250994 1e-05
-0.0205 0.001 1e-05
-0.0202034 0.00100022 1e-05
-0.0199069 0.00100067 1e-05
-0.0196103 0.00100133 1e-05
-0.0193137 0.0010022 1e-05
-0.0190172 0.00100327 1e-05
-0.0187132 0.00100468 1e-05
-0.0184093 0.00100591 1e-05
-0.0181054 0.00100713 1e-05
-0.0178015 0.00100835 1e-05
-0.0174976 0.00100957 1e-05
-0.0172058 0.00101087 1e-05
-0.016914 0.00101198 1e-05
-0.0166222 0.00101309 1e-05
-0.0163305 0.00101419 1e-05
-0.0160387 0.0010153 1e-05
-0.0157586 0.00101645 1e-05
-0.0154784 0.00101754 1e-05
-0.0151983 0.00101867 1e-05
-0.0149182 0.00101983 1e-05
-0.0146381 0.00102104 1e-05
-0.0143834 0.00102219 1e-05
-0.0141287 0.00102335 1e-05
-0.0138739 0.00102454 1e-05
-0.0136192 0.00102576 1e-05
-0.0134041 0.00102682 1e-05
-0.013382 0.00102693 1e-05
-0.0133598 0.00102704 1e-05
-0.0133377 0.00102715 1e-05
-0.0133156 0.00102726 1e-05
-0.0132934 0.00102737 1e-05
-0.0130353 0.00102868 1e-05
-0.0127771 0.00103 1e-05
-0.0125189 0.00103134 1e-05
-0.0122607 0.0010327 1e-05
-0.0120025 0.00103408 1e-05
-0.0117547 0.00103541 1e-05
-0.0115068 0.00103675 1e-05
-0.0112589 0.00103809 1e-05
-0.0110111 0.00103945 1e-05
-0.0107632 0.00104081 1e-05
-0.0105252 0.00104211 1e-05
-0.0102873 0.00104342 1e-05
-0.0100493 0.00104473 1e-05
-0.00981133 0.00104605 1e-05
-0.00957337 0.00104736 1e-05
-0.00934491 0.00104862 1e-05
-0.00911645 0.00104988 1e-05
-0.00888799 0.00105114 1e-05
-0.00865954 0.00105239 1e-05
-0.00843108 0.00105365 1e-05
-0.00821175 0.00105485 1e-05
-0.00799242 0.00105606 1e-05
-0.00777309 0.00105726 1e-05
-0.00755376 0.00105846 1e-05
-0.00733443 0.00105966 1e-05
-0.00712387 0.0010608 1e-05
-0.0069133 0.00106195 1e-05
-0.00670273 0.00106309 1e-05
-0.00649217 0.00106424 1e-05
-0.0062816 0.00106538 1e-05
-0.00607944 0.00106647 1e-05
-0.00587729 0.00106757 1e-05
-0.00567514 0.00106867 1e-05
-0.00547298 0.00106976 1e-05
-0.00527083 0.00107086 1e-05
-0.00507675 0.0010719 1e-05
-0.00488267 0.00107295 1e-05
-0.0046886 0.00107401 1e-05
-0.00449452 0.00107506 1e-05
-0.00430044 0.00107612 1e-05
-0.00411412 0.00107713 1e-05
-0.0039278 0.00107815 1e-05
-0.00374147 0.00107918 1e-05
-0.00355515 0.00108021 1e-05
-0.00336883 0.00108124 1e-05
-0.00318995 0.00108223 1e-05
-0.00301107 0.00108324 1e-05
-0.00283219 0.00108425 1e-05
-0.00265331 0.00108527 1e-05
-0.00247443 0.00108631 1e-05
-0.0023027 0.0010873 1e-05
-0.00213097 0.00108832 1e-05
-0.00195924 0.00108936 1e-05
-0.00178751 0.00109041 1e-05
-0.00161577 0.00109147 1e-05
-0.0014509 0.00109251 1e-05
-0.00128603 0.00109357 1e-05
-0.00112116 0.00109467 1e-05
-0.00095629 0.00109579 1e-05
-0.000791418 0.00109696 1e-05
-0.000633135 0.0010981 1e-05
-0.000474851 0.0010993 1e-05
-0.000316568 0.00110053 1e-05
-0.000158286 0.00110181 1e-05
0 0.00110313 1e-05
0.000105677 0.00110403 1e-05
0.000211355 0.00110495 1e-05
0.000317032 0.00110588 1e-05
0.000422709 0.00110683 1e-05
0.000528387 0.00110778 1e-05
0.000634886 0.00110875 1e-05
0.000741385 0.00110971 1e-05
0.000847885 0.00111067 1e-05
0.000954384 0.00111163 1e-05
0.00106088 0.00111258 1e-05
0.00116821 0.00111353 1e-05
0.00127554 0.00111447 1e-05
0.00138286 0.0011154 1e-05
0.00149019 0.00111632 1e-05
0.00159752 0.00111722 1e-05
0.00170568 0.00111812 1e-05
0.00181384 0.00111901 1e-05
0.001922 0.00111988 1e-05
0.00203016 0.00112074 1e-05
0.00213833 0.00112159 1e-05
0.00224733 0.00112243 1e-05
0.00235633 0.00112326 1e-05
0.00246533 0.00112408 1e-05
0.00257434 0.00112489 1e-05
0.00268334 0.00112568 1e-05
0.00279319 0.00112647 1e-05
0.00290304 0.00112725 1e-05
0.00301289 0.00112802 1e-05
0.00312274 0.00112878 1e-05
0.00323259 0.00112952 1e-05
0.00334329 0.00113026 1e-05
0.003454 0.001131 1e-05
0.0035647 0.00113172 1e-05
0.0036754 0.00113244 1e-05
0.00378611 0.00113315 1e-05
0.00389767 0.00113385 1e-05
0.00400924 0.00113455 1e-05
0.0041208 0.00113524 1e-05
0.00423237 0.00113592 1e-05
0.00434393 0.0011366 1e-05
0.00445636 0.00113727 1e-05
0.00456879 0.00113794 1e-05
0.00468123 0.00113861 1e-05
0.00479366 0.00113927 1e-05
0.00490609 0.00113992 1e-05
0.0050194 0.00114056 1e-05
0.0051327 0.00114121 1e-05
0.00524601 0.00114186 1e-05
0.00535931 0.0011425 1e-05
0.00547262 0.00114313 1e-05
0.00558681 0.00114376 1e-05
0.005701 0.00114439 1e-05
0.00581518 0.00114502 1e-05
0.00592937 0.00114565 1e-05
0.00604356 0.00114628 1e-05
0.00615863 0.00114689 1e-05
0.00627371 0.00114752 1e-05
0.00638878 0.00114814 1e-05
0.00650386 0.00114876 1e-05
0.00661893 0.00114938 1e-05
0.0067349 0.00114999 1e-05
0.00685087 0.00115061 1e-05
0.00696684 0.00115123 1e-05
0.00708281 0.00115185 1e-05
0.00719878 0.00115247 1e-05
0.00731565 0.00115309 1e-05
0.00743252 0.00115371 1e-05
0.00754939 0.00115434 1e-05
0.00766626 0.00115497 1e-05
0.00778313 0.00115559 1e-05
0.00790091 0.00115621 1e-05
0.00801869 0.00115685 1e-05
0.00813647 0.00115748 1e-05
0.00825425 0.00115812 1e-05
0.00837203 0.00115876 1e-05
0.00849073 0.00115939 1e-05
0.00860942 0.00116004 1e-05
0.00872812 0.0011607 1e-05
0.00884682 0.00116135 1e-05
0.00896551 0.001162 1e-05
0.00908513 0.00116265 1e-05
0.00920475 0.00116332 1e-05
0.00932437 0.00116399 1e-05
0.00944398 0.00116467 1e-05
0.0095636 0.00116534 1e-05
0.00968415 0.00116601 1e-05
0.0098047 0.0011667 1e-05
0.00992525 0.0011674 1e-05
0.0100458 0.00116809 1e-05
0.0101663 0.00116879 1e-05
0.0102878 0.00116949 1e-05
0.0104093 0.0011702 1e-05
0.0105308 0.00117092 1e-05
0.0106523 0.00117163 1e-05
0.0107738 0.00117236 1e-05
0.0108962 0.00117308 1e-05
0.0110186 0.00117382 1e-05
0.0111411 0.00117456 1e-05
0.0112635 0.0011753 1e-05
0.0113859 0.00117605 1e-05
0.0115093 0.0011768 1e-05
0.0116327 0.00117756 1e-05
0.0117561 0.00117833 1e-05
0.0118795 0.0011791 1e-05
0.0120028 0.00117987 1e-05
0.0121272 0.00118065 1e-05
0.0122515 0.00118144 1e-05
0.0123759 0.00118223 1e-05
0.0125002 0.00118303 1e-05
0.0126245 0.00118383 1e-05
0.0127498 0.00118463 1e-05
0.0128752 0.00118545 1e-05
0.0130005 0.00118627 1e-05
0.0131258 0.00118709 1e-05
0.0132511 0.00118792 1e-05
0.0133774 0.00118876 1e-05
0.0135036 0.0011896 1e-05
0.0136299 0.00119045 1e-05
0.0137562 0.0011913 1e-05
0.0138825 0.00119215 1e-05
0.0140098 0.00119302 1e-05
0.014137 0.00119389 1e-05
0.0142643 0.00119476 1e-05
0.0143915 0.00119564 1e-05
0.0145188 0.00119652 1e-05
0.0146471 0.00119741 1e-05
0.0147753 0.00119831 1e-05
0.0149036 0.00119921 1e-05
0.0150318 0.00120011 1e-05
0.0151601 0.00120102 1e-05
0.0151845 0.00120119 1e-05
0.015209 0.00120136 1e-05
0.0152334 0.00120154 1e-05
0.0152579 0.00120171 1e-05
0.0152827 0.00120189 1e-05
0.0153874 0.00120264 1e-05
0.0154921 0.00120339 1e-05
0.0155969 0.00120414 1e-05
0.0157016 0.00120489 1e-05
0.0158063 0.00120565 1e-05
0.0159366 0.00120659 1e-05
0.0160668 0.00120754 1e-05
0.0161971 0.00120849 1e-05
0.0163274 0.00120944 1e-05
0.0164576 0.0012104 1e-05
0.0165889 0.00121137 1e-05
0.0167201 0.00121234 1e-05
0.0168514 0.00121331 1e-05
0.0169827 0.00121429 1e-05
0.0171139 0.00121527 1e-05
0.0172462 0.00121626 1e-05
0.0173785 0.00121725 1e-05
0.0175108 0.00121825 1e-05
0.0176431 0.00121925 1e-05
0.0177754 0.00122025 1e-05
0.0179087 0.00122127 1e-05
0.018042 0.00122228 1e-05
0.0181753 0.0012233 1e-05
0.0183087 0.00122432 1e-05
0.018442 0.00122535 1e-05
0.0185763 0.00122639 1e-05
0.0187107 0.00122742 1e-05
0.018845 0.00122847 1e-05
0.0189794 0.00122951 1e-05
0.0191137 0.00123056 1e-05
0.0192491 0.00123162 1e-05
0.0193845 0.00123268 1e-05
0.0195199 0.00123375 1e-05
0.0196553 0.00123481 1e-05
0.0197907 0.00123588 1e-05
0.0199272 0.00123697 1e-05
0.0200636 0.00123805 1e-05
0.0202001 0.00123913 1e-05
0.0203365 0.00124022 1e-05
0.020473 0.0012413 1e-05
0.0206105 0.0012424 1e-05
0.020748 0.0012435 1e-05
0.0208855 0.0012446 1e-05
0.021023 0.0012457 1e-05
0.0211606 0.0012468 1e-05
0.0212991 0.00124792 1e-05
0.0214377 0.00124904 1e-05
0.0215763 0.00125015 1e-05
0.0217149 0.00125127 1e-05
0.0218535 0.00125238 1e-05
0.0219931 0.00125351 1e-05
0.0221328 0.00125464 1e-05
0.0222724 0.00125577 1e-05
0.0224121 0.00125689 1e-05
0.0225517 0.00125802 1e-05
0.0226925 0.00125916 1e-05
0.0228332 0.0012603 1e-05
0.022974 0.00126143 1e-05
0.0231147 0.00126257 1e-05
0.0232555 0.0012637 1e-05
0.0233973 0.00126485 1e-05
0.0235391 0.00126599 1e-05
0.023681 0.00126713 1e-05
0.0238228 0.00126827 1e-05
0.0239647 0.00126941 1e-05
0.0241076 0.00127057 1e-05
0.0242505 0.00127172 1e-05
0.0243935 0.00127287 1e-05
0.0245364 0.00127402 1e-05
0.0246794 0.00127516 1e-05
0.0248234 0.00127633 1e-05
0.0249675 0.00127748 1e-05
0.0251115 0.00127864 1e-05
0.0252556 0.00127979 1e-05
[...]
POINT_DATA 12073
 FIELD attributes 2
p 1 12073 float
-5.34723 -5.34392 -5.34061 -5.33731 -5.334 -5.3307
-5.50463 -5.50461 -5.50459 -5.50457 -5.50455 -5.50453
-5.68743 -5.68732 -5.6872 -5.68708 -5.68696 -5.68686
-5.79276 -5.79271 -5.79266 -5.79261 -5.79257 -5.79252
-5.85133 -5.85122 -5.85111 -5.85099 -5.85088 -5.85077
-5.87113 -5.87096 -5.87079 -5.87062 -5.87046 -5.87029
-5.85631 -5.85623 -5.85616 -5.85608 -5.856 -5.85592
-5.79628 -5.79623 -5.79619 -5.79614 -5.7961 -5.79605
-5.68123 -5.68123 -5.68123 -5.68124 -5.68124 -5.68124
-3.47106 -3.49038 -3.50958 -3.52864 -3.54757 -3.56636
-5.34723 -5.34645 -5.34277 -5.33901 -5.33516 -5.32674 -5.34026 -5.35481 -5.36936 -5.3839 -5.40782 -5.42881 -5.45789 -5.48696 -5.51604 -5.54788 -5.56248 -5.58308 -5.60367 -5.62427 -5.64645 -5.66338 -5.68227 -5.70115 -5.72004 -5.736 -5.73764 -5.73927 -5.74091 -5.74255 -5.74417 -5.76406 -5.78393 -5.80381 -5.82369 -5.84327 -5.85992 -5.87635 -5.89278 -5.90922 -5.92503 -5.93818 -5.951 -5.96382 -5.97664 -5.98883 -5.9996 -6.01003 -6.02046 -6.03089 -6.04077 -6.04986 -6.05855 -6.06725 -6.07594 -6.08411 -6.0917 -6.09882 -6.10594 -6.11305 -6.11964 -6.12576 -6.13133 -6.13691 -6.14248 -6.14754 -6.15211 -6.15594 -6.15977 -6.1636 -6.16688 -6.16962 -6.17153 -6.17344 -6.17535 -6.17692 -6.17787 -6.17748 -6.17709 -6.1767 -6.17618 -6.17558 -6.17442 -6.17325 -6.17209 -6.17248 -6.17339 -6.1724 -6.17142 -6.17045 -6.17138 -6.17583 -6.1866 -6.19738 -6.20817 -6.22663 -6.24668 -6.27615 -6.30562 -6.33509 -6.36622 -6.39657 -6.42865 -6.46074 -6.49282 -6.51908 -6.5411 -6.56114 -6.58118 -6.60122 -6.61705 -6.62968 -6.64108 -6.65247 -6.66387 -6.67375 -6.68119 -6.68765 -6.69411 -6.70058 -6.70705 -6.71155 -6.71489 -6.71822 -6.72156 -6.72558 -6.72889 -6.73091 -6.73293 -6.73495 -6.73717 -6.74017 -6.74172 -6.74327 -6.74482 -6.74553 -6.74765 -6.74809 -6.74853 -6.74897 -6.748 -6.74827 -6.74688 -6.7455 -6.74412 -6.74169 -6.74034 -6.73775 -6.73516 -6.73257 -6.72969 -6.72803 -6.72568 -6.72333 -6.72098 -6.71886 -6.71813 -6.71706 -6.716 -6.71493 -6.71419 -6.71471 -6.71502 -6.71532 -6.71563 -6.7161 -6.7175 -6.71875 -6.71999 -6.72123 -6.72251 -6.72436 -6.72618 -6.72799 -6.72981 -6.73167 -6.73382 -6.73617 -6.73852 -6.74087 -6.7434 -6.74609 -6.74923 -6.75237 -6.75551 -6.75902 -6.76265 -6.76693 -6.77121 -6.77549 -6.78028 -6.78515 -6.79077 -6.79639 -6.80201 -6.80819 -6.81437 -6.82129 -6.82821 -6.83514 -6.8426 -6.84996 -6.85801 -6.86606 -6.87412 -6.88264 -6.89106 -6.90006 -6.90906 -6.91806 -6.92744 -6.93681 -6.94663 -6.95645 -6.96627 -6.97637 -6.98661 -6.99718 -7.00774 -7.01831 -7.02902 -7.04012 -7.05139 -7.06266 -7.07393 -7.08522 -7.08746 -7.08972 -7.09199 -7.09425 -7.09655 -7.10625 -7.11595 -7.12565 -7.13535 -7.14509 -7.15773 -7.17039 -7.18305 -7.19571 -7.20844 -7.22171 -7.23502 -7.24834 -7.26166 -7.27507 -7.28898 -7.30297 -7.31696 -7.33095 -7.34508 -7.35963 -7.37429 -7.38895 -7.40361 -7.41843 -7.43353 -7.44877 -7.46401 -7.47925 -7.49469 -7.51023 -7.52594 -7.54165 -7.55736 -7.5733 -7.58917 -7.60525 -7.62133 -7.63741 -7.65376 -7.66992 -7.68629 -7.70267 -7.71904 -7.73572 -7.75212 -7.76873 -7.78535 -7.80196 -7.8189 -7.83549 -7.8523 -7.8691 -7.88591 -7.90305 -7.9198 -7.93679 -7.95377 -7.97076 -7.9881 -8.00506 -8.02225 -8.03944 -8.05662 -8.07417 -8.09137 -8.10878 -8.12619 -8.1436 -8.16136 -8.17878 -8.19638 -8.21399 -8.23159 -8.24952 -8.26712 -8.28492 -8.30272 -8.32052 -8.33866 -8.35648 -8.37454 -8.3926 -8.41066 -8.4291 -8.44722 -8.46561 -8.484 -8.50239 -8.52121 -8.53967 -8.55844 -8.57722 -8.596 -8.61526 -8.6341 -8.65334 -8.67257 -8.69181 -8.7116 -8.73092 -8.7507 -8.77048 -8.79026 -8.81069 -8.83056 -8.85099 -8.87141 -8.89184 -8.913 -8.93354 -8.95471 -8.97589 -8.99706 -9.01907 -9.04036 -9.06236 -9.08437 -9.10637 -9.12932 -9.15145 -9.17435 -9.19725 -9.22015 -9.24408 -9.26717 -9.29104 -9.31491 -9.33878 -9.3637 -9.38769 -9.4126 -9.43752 -9.46243 -9.48858 -9.51365 -9.53971 -9.56578 -9.59185 -9.61925 -9.64553 -9.67285 -9.70017 -9.7275 -9.75625 -9.78383 -9.81249 -9.84115 -9.86981 -9.89998 -9.92894 -9.95897 -9.989 -10.019 -10.0506 -10.081 -10.1124 -10.1438 -10.1752 -10.2082 -10.24 -10.2728 -10.3056 -10.3384 -10.3728 -10.406 -10.4402 -10.4744 -10.5086 -10.5444 -10.579 -10.6146 -10.6502 -10.6857 -10.7228 -10.7589 -10.7958 -10.8327 -10.8696 -10.908 -10.9455 -10.9836 -11.0218 -11.0601 -11.0997 -11.1385 -11.1778 -11.2172 -11.2567 -11.2973 -11.3374 -11.3777 -11.4181 -11.4586 -11.4998 -11.541 -11.5822 -11.6234 -11.6647 -11.7067 -11.7488 -11.7908 -11.8327 -11.8748 -11.9173 -11.9603 -12.0029 -12.0454 -12.0879 -12.1306 -12.1742 -12.2173 -12.26 -12.3027 -12.3453 -12.3893 -12.4326 -12.4752 -12.5174 -12.5594 -12.6032 -12.6462 -12.6881 -12.7291 -12.7698 -12.8126 -12.8549 -12.8955 -12.9349 -12.9739 -13.0154 -13.0566 -13.0957 -13.133 -13.1703 -13.2102 -13.2501 -13.2875 -13.3226 -13.3578 -13.396 -13.4343 -13.4696 -13.502 -13.5345 -13.5705 -13.6064 -13.6391 -13.6684 -13.6977 -13.7309 -13.7641 -13.7935 -13.8188 -13.8441 -13.8738 -13.9035 -13.9289 -13.9499 -13.9706 -13.9961 -14.0202 -14.0408 -14.0585 -14.074 -14.0947 -14.112 -14.1273 -14.1415 -14.1512 -14.1665 -14.1758 -14.185 -14.1943 -14.1991 -14.2056 -14.2079 -14.2104 -14.2128 -14.2141 -14.2134 -14.2116 -14.2098 -14.2079 -14.2062 -14.2035 -14.2008 -14.1981 -14.1955 -14.1904 -14.181 -14.1687 -14.1565 -14.1444 -14.125 -14.1116 -14.0917 -14.0708 -14.0458 -14.0161 -13.9936 -13.9708 -13.9396 -13.8995 -13.8595 -13.8272 -13.795 -13.7538 -13.7029 -13.6521 -13.6092 -13.5607 -13.507 -13.4531 -13.3909 -13.3419 -13.2849 -13.2279 -13.1711 -13.1234 -13.1135 -13.1036 -13.0937 -13.0838 -13.0722 -12.9992 -12.9245 -12.85 -12.7751 -12.688 -12.6097 -12.5289 -12.4424 -12.3429 -12.2433 -12.1525 -12.0618 -11.9581 -11.8495 -11.7376 -11.6496 -11.5513 -11.4523 -11.3533 -11.2679 -11.2489 -11.2298 -11.2107 -11.1912 -11.1701 -11.0484 -10.9244 -10.8007 -10.672 -10.5361 -10.4062 -10.2766 -10.1386 -9.99205 -9.84498 -9.74591 -9.64189 -9.53519 -9.4286 -9.33278 -9.28647 -9.24018 -9.19392 -9.14662 -9.09738 -8.9423 -8.78387 -8.62571 -8.46059 -8.29308 -8.12862 -7.96234 -7.79047 -7.61882 -7.44442 -7.41665 -7.38833 -7.35943 -7.33054 -7.30223 -7.15356 -7.00507 -6.85678 -6.70582 -6.55117 -6.36934 -6.18777 -6.00201 -5.81422 -5.62474 -5.55218 -5.47898 -5.40479 -5.33062 -5.25965 -5.14246 -5.02538 -4.90839 -4.78999 -4.66999 -4.47665 -4.28356 -4.08895 -3.89314 -3.69588 -3.60903 -3.52202 -3.43463 -3.34728 -3.26372 -3.1532 -3.04275 -2.93238 -2.82149 -2.70977 -2.51163 -2.31374 -2.11598 -1.91883 -1.72008 -1.64449 -1.56906 -1.49399 -1.41896 -1.34638 -1.22365 -1.10101 -0.978457 -0.856472 -0.734054 -0.537452 -0.341078 -0.146882 0.0458986 0.23961 0.286605 0.333404 0.379506 0.425596 0.470863 0.616713 0.762453 0.908081 1.05173 1.19563 1.38472 1.57319 1.75751 1.94163 2.12661 2.1368 2.14694 2.15685 2.16675 2.17663 2.34893 2.5211 2.69313 2.86138 3.02979 3.18022 3.32961 3.47505 3.62037 3.75909 3.78746 3.81583 3.84419 3.87189 3.89943 4.07044 4.23927 4.4076 4.57034 4.73423 4.83506 4.93514 5.03205 5.12893 5.22331 5.2857 5.34808 5.41044 5.47107 5.53131 5.68707 5.84275 5.99423 6.14161 6.2898 6.34951 6.40874 6.46591 6.52306 6.57954 6.66671 6.75385 6.84098 6.92546 7.00924 7.14906 7.28882 7.42374 7.55664 7.68881 7.71908 7.74905 7.77794 7.80682 7.83561 7.93591 8.0362 8.13649 8.23321 8.32864 8.45282 8.57664 8.69442 8.81221 8.92858 8.94262 8.95645 8.96973 8.98301 8.99629 9.09699 9.19769 9.2984 9.39443 9.48902 9.58974 9.68915 9.78371 9.8783 9.97416 9.98176 9.98935 9.99695 10.0042 10.0113 10.1112 10.2103 10.3094 10.4031 10.4957 10.5657 10.6347 10.7004 10.7662 10.8336 10.8563 10.8791 10.9018 10.9235 10.9448 11.0313 11.117 11.201 11.2807 11.3599 11.4099 11.4592 11.5062 11.5533 11.602 11.6308 11.6596 11.6885 11.7161 11.7432 11.8168 11.8903 11.9612 12.0291 12.0964 12.1377 12.1781 12.2169 12.2558 12.2965 12.322 12.3476 12.3731 12.3977 12.4216 12.4839 12.5459 12.6062 12.6638 12.7207 12.7642 12.8066 12.8475 12.8886 12.9329 12.9456 12.9583 12.9709 12.9833 12.9952 13.0475 13.0989 13.1503 13.1994 13.2474 13.2955 13.3428 13.3883 13.4338 13.4782 13.4876 13.4967 13.5056 13.5144 13.5236 13.5574 13.5912 13.625 13.6582 13.6901 13.7303 13.7705 13.8093 13.8468 13.8839 13.9207 13.9564 13.9914 14.0264 14.061 14.0654 14.0696 14.0738 14.078 14.0823 14.1109 14.1395 14.168 14.1964 14.2235 14.2542 14.2846 14.3146 14.3434 14.3721 14.4 14.4279 14.4547 14.4814 14.5076 14.5299 14.5514 14.5729 14.5944 14.6192 14.6217 14.6242 14.6267 14.6291 14.6316 14.6546 14.6776 14.7006 14.7235 14.7457 14.767 14.7881 14.8092 14.8298 14.8501 14.8696 14.8891 14.9082 14.927 14.9458 14.9637 14.9814 14.9989 15.0163 15.0335 15.05 15.0661 15.0822 15.0982 15.1142 15.1201 15.1258 15.1316 15.1373 15.1435 15.1526 15.1617 15.1708 15.1799 15.1888 15.2027 15.2166 15.2304 15.2443 15.2579 15.2707 15.2835 15.2964 15.3091 15.3218 15.3336 15.3455 15.3574 15.3692 15.381 15.392 15.4031 15.4141 15.4251 15.436 15.4463 15.4566 15.4668 15.4771 15.4874 15.497 15.5066 15.5162 15.5258 15.5354 15.5445 15.5534 15.5624 15.5714 15.5804 15.5889 15.5974 15.6059 15.6143 15.6228 15.6308 15.6388 15.6468 15.6548 15.6628 15.6639 15.6651 15.6663 15.6675 15.6687 15.6751 15.6815 15.6879 15.6943 15.7007 15.7079 15.7151 15.7223 15.7295 15.7368 15.7435 15.7503 15.7572 15.764 15.771 15.7773 15.7838 15.7903 15.7969 15.8035 15.8095 15.8156 15.8218 15.8281 15.8344 15.8401 15.8459 15.8519 15.8579 15.8639 15.8694 15.8749 15.8805 15.8863 15.8921 15.8973 15.9025 15.9079 15.9135 15.919 15.924 15.929 15.9341 15.9394 15.9447 15.9494 15.9542 15.9591 15.9642 15.9692 15.9738 15.9784 15.983 15.9879 15.9927 15.9971 16.0015 16.0059 16.0105 16.0152 16.0194 16.0236 16.0278 16.0322 16.0366 16.0406 16.0447 16.0488 16.0529 16.0571 16.061 16.0648 16.0687 16.0727 16.0767 16.0804 16.0841 16.0878 16.0916 16.0954 16.0989 16.1025 16.1061 16.1097 16.1134 16.1168 16.1203 16.1238 16.1272 16.1308 16.1341 16.1375 16.1409 16.1443 16.1478 16.1511 16.1544 16.1578 16.1612 16.1646 16.168 16.1715 16.1749 16.1783 16.1818 16.1854 16.189 16.1926 16.1962 16.1999 16.2038 16.2078 16.2118 16.2158 16.2197 16.2202 16.2207 16.2212 16.2216 16.2221 16.2263 16.2304 16.2345 16.2386 16.2428 16.2483 16.2539 16.2594 16.265 16.2707 16.2775 16.2843 16.291 16.2978 16.3048 16.3134 16.3222 16.3309 16.3396 16.349 16.358 16.3662 16.3743 16.3823 16.3904 16.3991 16.4078 16.4165 16.4239 16.4262 16.4285 16.4309 16.4332 16.4356 16.4359 16.4346 16.4333 16.4321 16.4307 16.4266 16.4222 16.4175 16.4127 16.3952 16.36 16.3237 16.2873 16.2508 16.2072 16.1613 16.1207 16.0811 16.0431 16.0078 15.9707 15.9338 15.8972 15.8608 15.8244 15.786 15.7475 15.7066 15.6633 15.6199 15.5743 15.5287 15.4816 15.4332 15.3847 15.3339 15.2831 15.2311 15.1781 15.125 15.0694 15.0138 14.9564 14.8977 14.8387 14.7771 14.7148 14.6509 14.5861 14.5204 14.4518 14.3819 14.311 14.2396 14.1667 14.0909 14.0127 13.9341 13.8556 13.7746 13.6901 13.6029 13.5157 13.4285 13.3393 13.2447 13.1479 13.0512 12.9544 12.8562 12.7506 12.6434 12.5362 12.429 12.3211 12.2083 12.0947 11.981 11.8674 11.729 11.7289 11.7287 11.7286 11.7285 11.7284 11.5973 11.4663 11.3352 11.2041 11.0718 10.9273 10.7815 10.6357 10.4899 10.3414 10.1815 10.019 9.8565 9.694 9.52751 9.35076 9.16913 8.9875 8.80587 8.61815 8.42181 8.22092 8.02002 7.81894 7.61339 7.39963 7.17162 6.94129 6.70688 6.4599 6.20269 5.95108 5.70256 5.45823 5.21929 4.96998 4.69148 4.37567 4.01552 3.6305 3.22936 2.8565 2.57775 2.39912 2.24406 2.08088 1.91673 1.46575 0.732525 0