# vtk DataFile Version 2.0
track0
ASCII
DATASET POLYDATA
POINTS 12065 float
-0.0205 0.001 1e-05
-0.02052 0.000999985 1e-05
-0.02054 0.000999974 1e-05
-0.02056 0.000999965 1e-05
-0.02058 0.000999959 1e-05
-0.0206 0.000999956 1e-05
-0.0205 0.00367778 1e-05
-0.02052 0.00367778 1e-05
-0.02054 0.00367777 1e-05
-0.02056 0.00367777 1e-05
-0.02058 0.00367777 1e-05
-0.0206 0.00367777 1e-05
-0.0205 0.00635556 1e-05
-0.02052 0.00635555 1e-05
-0.02054 0.00635555 1e-05
-0.02056 0.00635555 1e-05
-0.02058 0.00635555 1e-05
-0.0206 0.00635555 1e-05
-0.0205 0.00903333 1e-05
-0.02052 0.00903333 1e-05
-0.02054 0.00903333 1e-05
-0.02056 0.00903333 1e-05
-0.02058 0.00903333 1e-05
-0.0206 0.00903333 1e-05
-0.0205 0.0117111 1e-05
-0.02052 0.0117111 1e-05
-0.02054 0.0117111 1e-05
-0.02056 0.0117111 1e-05
-0.02058 0.0117111 1e-05
-0.0206 0.0117111 1e-05
-0.0205 0.0143889 1e-05
-0.02052 0.0143889 1e-05
-0.02054 0.0143889 1e-05
-0.02056 0.0143889 1e-05
-0.02058 0.0143889 1e-05
-0.0206 0.0143889 1e-05
-0.0205 0.0170667 1e-05
-0.02052 0.0170667 1e-05
-0.02054 0.0170667 1e-05
-0.02056 0.0170667 1e-05
-0.02058 0.0170667 1e-05
-0.0206 0.0170667 1e-05
-0.0205 0.0197444 1e-05
-0.02052 0.0197444 1e-05
-0.02054 0.0197444 1e-05
-0.02056 0.0197444 1e-05
-0.02058 0.0197444 1e-05
-0.0206 0.0197444 1e-05
-0.0205 0.0224222 1e-05
-0.02052 0.0224222 1e-05
-0.02054 0.0224222 1e-05
-0.02056 0.0224222 1e-05
-0.02058 0.0224222 1e-05
-0.0206 0.0224222 1e-05
-0.0205 0.0251 1e-05
-0.02052 0.0250998 1e-05
-0.02054 0.0250997 1e-05
-0.02056 0.0250995 1e-05
-0.02058 0.0250995 1e-05
-0.0206 0.0250994 1e-05
-0.0205 0.001 1e-05
-0.0202034 0.00100022 1e-05
-0.0199069 0.00100067 1e-05
-0.0196103 0.00100133 1e-05
-0.0193137 0.00100219 1e-05
-0.0190172 0.00100326 1e-05
-0.0187132 0.00100467 1e-05
-0.0184093 0.00100589 1e-05
-0.0181054 0.00100711 1e-05
-0.0178015 0.00100833 1e-05
-0.0174976 0.00100954 1e-05
-0.0172058 0.00101083 1e-05
-0.016914 0.00101194 1e-05
-0.0166222 0.00101304 1e-05
-0.0163305 0.00101413 1e-05
-0.0160387 0.00101523 1e-05
-0.0157586 0.00101637 1e-05
-0.0154784 0.00101745 1e-05
-0.0151983 0.00101857 1e-05
-0.0149182 0.00101972 1e-05
-0.0146381 0.00102091 1e-05
-0.0143748 0.00102209 1e-05
-0.0141115 0.00102327 1e-05
-0.0138482 0.00102449 1e-05
-0.0135849 0.00102574 1e-05
-0.0133625 0.00102682 1e-05
-0.0133487 0.00102689 1e-05
-0.0133349 0.00102695 1e-05
-0.0133211 0.00102702 1e-05
-0.0133073 0.00102709 1e-05
-0.0132934 0.00102716 1e-05
-0.0130353 0.00102845 1e-05
-0.0127771 0.00102975 1e-05
-0.0125189 0.00103107 1e-05
-0.0122607 0.00103241 1e-05
-0.0120025 0.00103376 1e-05
-0.0117547 0.00103507 1e-05
-0.0115068 0.00103638 1e-05
-0.0112589 0.0010377 1e-05
-0.0110111 0.00103903 1e-05
-0.0107632 0.00104036 1e-05
-0.0105252 0.00104164 1e-05
-0.0102873 0.00104292 1e-05
-0.0100493 0.0010442 1e-05
-0.00981133 0.00104547 1e-05
-0.00957337 0.00104675 1e-05
-0.00934491 0.00104797 1e-05
-0.00911645 0.0010492 1e-05
-0.00888799 0.00105042 1e-05
-0.00865954 0.00105164 1e-05
-0.00843108 0.00105285 1e-05
-0.00821175 0.00105401 1e-05
-0.00799242 0.00105517 1e-05
-0.00777309 0.00105632 1e-05
-0.00755376 0.00105748 1e-05
-0.00733443 0.00105862 1e-05
-0.00712387 0.00105971 1e-05
-0.0069133 0.00106081 1e-05
-0.00670273 0.0010619 1e-05
-0.00649216 0.00106298 1e-05
-0.0062816 0.00106406 1e-05
-0.00607944 0.00106509 1e-05
-0.00587729 0.00106612 1e-05
-0.00567514 0.00106714 1e-05
-0.00547298 0.00106816 1e-05
-0.00527083 0.00106918 1e-05
-0.00507675 0.00107015 1e-05
-0.00488267 0.00107112 1e-05
-0.0046886 0.00107208 1e-05
-0.00449452 0.00107304 1e-05
-0.00430044 0.001074 1e-05
-0.00411412 0.00107491 1e-05
-0.0039278 0.00107583 1e-05
-0.00374147 0.00107674 1e-05
-0.00355515 0.00107765 1e-05
-0.00336883 0.00107855 1e-05
-0.00318995 0.00107941 1e-05
-0.00301107 0.00108028 1e-05
-0.00283219 0.00108114 1e-05
-0.00265331 0.001082 1e-05
-0.00247443 0.00108286 1e-05
-0.0023027 0.00108368 1e-05
-0.00213097 0.00108451 1e-05
-0.00195924 0.00108533 1e-05
-0.0017875 0.00108616 1e-05
-0.00161577 0.00108698 1e-05
-0.0014509 0.00108776 1e-05
-0.00128603 0.00108855 1e-05
-0.00112116 0.00108935 1e-05
-0.000956289 0.00109015 1e-05
-0.000791418 0.00109095 1e-05
-0.000633135 0.00109172 1e-05
-0.000474851 0.00109249 1e-05
-0.000316567 0.00109327 1e-05
-0.000158284 0.00109406 1e-05
0 0.00109484 1e-05
0.000105677 0.00109537 1e-05
0.000211355 0.00109589 1e-05
0.000317032 0.00109642 1e-05
0.00042271 0.00109694 1e-05
0.000528387 0.00109746 1e-05
0.000634886 0.00109798 1e-05
0.000741385 0.00109849 1e-05
0.000847885 0.00109901 1e-05
0.000954384 0.00109952 1e-05
0.00106088 0.00110002 1e-05
0.00116821 0.00110052 1e-05
0.00127554 0.00110102 1e-05
0.00138286 0.00110151 1e-05
0.00149019 0.001102 1e-05
0.00159752 0.00110247 1e-05
0.00170568 0.00110295 1e-05
0.00181384 0.00110341 1e-05
0.001922 0.00110387 1e-05
0.00203016 0.00110431 1e-05
0.00213833 0.00110475 1e-05
0.00224733 0.00110518 1e-05
0.00235633 0.0011056 1e-05
0.00246533 0.00110602 1e-05
0.00257434 0.00110643 1e-05
0.00268334 0.00110682 1e-05
0.00279319 0.00110721 1e-05
0.00290304 0.00110759 1e-05
0.00301289 0.00110797 1e-05
0.00312274 0.00110833 1e-05
0.00323259 0.00110869 1e-05
0.00334329 0.00110904 1e-05
0.003454 0.00110939 1e-05
0.0035647 0.00110972 1e-05
0.0036754 0.00111005 1e-05
0.00378611 0.00111037 1e-05
0.00389767 0.00111068 1e-05
0.00400924 0.00111099 1e-05
0.0041208 0.00111129 1e-05
0.00423237 0.00111158 1e-05
0.00434393 0.00111186 1e-05
0.00445636 0.00111213 1e-05
0.00456879 0.0011124 1e-05
0.00468123 0.00111266 1e-05
0.00479366 0.00111291 1e-05
0.00490609 0.00111316 1e-05
0.0050194 0.00111339 1e-05
0.0051327 0.00111362 1e-05
0.00524601 0.00111384 1e-05
0.00535932 0.00111405 1e-05
0.00547262 0.00111426 1e-05
0.00558681 0.00111445 1e-05
0.005701 0.00111464 1e-05
0.00581518 0.00111483 1e-05
0.00592937 0.001115 1e-05
0.00604356 0.00111517 1e-05
0.00615863 0.00111532 1e-05
0.00627371 0.00111548 1e-05
0.00638878 0.00111562 1e-05
0.00650386 0.00111576 1e-05
0.00661893 0.00111589 1e-05
0.0067349 0.001116 1e-05
0.00685087 0.00111612 1e-05
0.00696684 0.00111622 1e-05
0.00708281 0.00111632 1e-05
0.00719878 0.00111641 1e-05
0.00731565 0.00111649 1e-05
0.00743252 0.00111656 1e-05
0.00754939 0.00111663 1e-05
0.00766626 0.00111669 1e-05
0.00778313 0.00111674 1e-05
0.00779683 0.00111674 1e-05
0.00781053 0.00111675 1e-05
0.00782423 0.00111675 1e-05
0.00783792 0.00111676 1e-05
0.00785153 0.00111676 1e-05
0.00795563 0.00111679 1e-05
0.00805973 0.00111682 1e-05
0.00816383 0.00111684 1e-05
0.00826793 0.00111685 1e-05
0.00837203 0.00111686 1e-05
0.00849073 0.00111686 1e-05
0.00860942 0.00111685 1e-05
0.00872812 0.00111683 1e-05
0.00884682 0.00111681 1e-05
0.00896551 0.00111677 1e-05
0.00908513 0.00111673 1e-05
0.00920475 0.00111667 1e-05
0.00932437 0.00111661 1e-05
0.00944398 0.00111655 1e-05
0.0095636 0.00111647 1e-05
0.00968415 0.00111637 1e-05
0.0098047 0.00111628 1e-05
0.00992525 0.00111617 1e-05
0.0100458 0.00111606 1e-05
0.0101663 0.00111594 1e-05
0.0102878 0.0011158 1e-05
0.0104093 0.00111566 1e-05
0.0105308 0.00111551 1e-05
0.0106523 0.00111535 1e-05
0.0107738 0.00111518 1e-05
0.0108962 0.00111499 1e-05
0.0110186 0.0011148 1e-05
0.0111411 0.0011146 1e-05
0.0112635 0.0011144 1e-05
0.0113859 0.00111418 1e-05
0.0115093 0.00111394 1e-05
0.0116327 0.00111371 1e-05
0.0117561 0.00111346 1e-05
0.0118795 0.00111321 1e-05
0.0120028 0.00111294 1e-05
0.0121272 0.00111265 1e-05
0.0122515 0.00111236 1e-05
0.0123759 0.00111207 1e-05
0.0125002 0.00111176 1e-05
0.0126245 0.00111145 1e-05
0.0127498 0.00111111 1e-05
0.0128752 0.00111077 1e-05
0.0130005 0.00111042 1e-05
0.0131258 0.00111006 1e-05
0.0132511 0.0011097 1e-05
0.0133774 0.00110931 1e-05
0.0135036 0.00110892 1e-05
0.0136299 0.00110851 1e-05
0.0137562 0.0011081 1e-05
0.0138825 0.00110768 1e-05
0.0140098 0.00110724 1e-05
0.014137 0.00110679 1e-05
0.0142643 0.00110634 1e-05
0.0143915 0.00110587 1e-05
0.0145188 0.0011054 1e-05
0.0146471 0.0011049 1e-05
0.0147753 0.0011044 1e-05
0.0149036 0.00110389 1e-05
0.0150318 0.00110337 1e-05
0.0151601 0.00110284 1e-05
0.0152893 0.00110229 1e-05
0.0154186 0.00110173 1e-05
0.0155478 0.00110116 1e-05
0.0156771 0.00110058 1e-05
0.0158063 0.00109999 1e-05
0.0159366 0.00109939 1e-05
0.0160668 0.00109878 1e-05
0.0161971 0.00109815 1e-05
0.0163274 0.00109751 1e-05
0.0164576 0.00109687 1e-05
0.0165889 0.00109621 1e-05
0.0167201 0.00109554 1e-05
0.0168514 0.00109486 1e-05
0.0169827 0.00109416 1e-05
0.0171139 0.00109346 1e-05
0.0172462 0.00109275 1e-05
0.0173785 0.00109202 1e-05
0.0175108 0.00109127 1e-05
0.0176431 0.00109052 1e-05
0.0177754 0.00108976 1e-05
0.0179087 0.00108899 1e-05
0.018042 0.00108821 1e-05
0.0181753 0.0010874 1e-05
0.0183087 0.00108659 1e-05
0.018442 0.00108577 1e-05
0.0185763 0.00108495 1e-05
0.0187107 0.0010841 1e-05
0.018845 0.00108324 1e-05
0.0189794 0.00108236 1e-05
0.0191137 0.00108149 1e-05
0.0192491 0.00108061 1e-05
0.0193845 0.0010797 1e-05
0.0195199 0.00107878 1e-05
0.0196553 0.00107784 1e-05
0.0197907 0.00107691 1e-05
0.0199272 0.00107597 1e-05
0.0200636 0.00107501 1e-05
0.0202001 0.00107402 1e-05
0.0203365 0.00107302 1e-05
0.020473 0.00107203 1e-05
0.0206105 0.00107103 1e-05
0.020748 0.00107001 1e-05
0.0208855 0.00106896 1e-05
0.021023 0.0010679 1e-05
0.0211606 0.00106685 1e-05
0.0212991 0.00106579 1e-05
0.0214377 0.00106471 1e-05
0.0215763 0.0010636 1e-05
0.0217149 0.00106248 1e-05
0.0218535 0.00106137 1e-05
0.0219931 0.00106025 1e-05
0.0221328 0.00105911 1e-05
0.0222724 0.00105794 1e-05
0.0224121 0.00105676 1e-05
0.0225517 0.00105558 1e-05
0.0226925 0.00105441 1e-05
0.0228332 0.0010532 1e-05
0.022974 0.00105197 1e-05
0.0231147 0.00105072 1e-05
0.0232555 0.00104948 1e-05
0.0233973 0.00104825 1e-05
0.0235391 0.00104698 1e-05
0.023681 0.00104568 1e-05
0.0238228 0.00104437 1e-05
0.0239647 0.00104307 1e-05
0.0241076 0.00104177 1e-05
0.0242505 0.00104044 1e-05
0.0243935 0.00103908 1e-05
0.0245364 0.00103771 1e-05
0.0246794 0.00103634 1e-05
0.0248234 0.00103498 1e-05
0.0249675 0.00103358 1e-05
0.0251115 0.00103215 1e-05
0.0252556 0.00103072 1e-05
[...]
POINT_DATA 12065
 FIELD attributes 1
U 3 12065 float
10.0004 	0.00734837 	0 10.0004 	0.00587869 	0 10.0003 	0.00440902 	0 10.0002 	0.00293935 	0 10.0001 	0.00146967 	0 10 	0 	0
10.0001 	0.000879079 	0 10 	0.000703263 	0 10 	0.000527447 	0 10 	0.000351631 	0 10 	0.000175816 	0 10 	0 	0
10.0001 	0.000467368 	0 10.0001 	0.000373705 	0 10.0001 	0.000280042 	0 10 	0.000186379 	0 10 	9.27157e-05 	0 10 	0 	0
10 	0.000267795 	0 10 	0.000214236 	0 10 	0.000160677 	0 10 	0.000107118 	0 10 	5.3559e-05 	0 10 	0 	0
10 	8.21478e-05 	0 10 	6.57183e-05 	0 10 	4.92887e-05 	0 10 	3.28591e-05 	0 10 	1.64296e-05 	0 10 	0 	0
10 	-2.46455e-05 	0 10 	-1.97164e-05 	0 10 	-1.47873e-05 	0 10 	-9.8582e-06 	0 10 	-4.9291e-06 	0 10 	0 	0
10 	-0.000214988 	0 10 	-0.00017199 	0 10 	-0.000128993 	0 10 	-8.59952e-05 	0 10 	-4.29976e-05 	0 10 	0 	0
10 	-0.00037692 	0 10 	-0.000301536 	0 10 	-0.000226152 	0 10 	-0.000150768 	0 10 	-7.53841e-05 	0 10 	0 	0
9.99999 	-0.000426042 	0 9.99999 	-0.000340834 	0 9.99999 	-0.000255625 	0 10 	-0.000170417 	0 10 	-8.52084e-05 	0 10 	0 	0
9.17387 	0.0871273 	0 9.1308 	0.0697018 	0 9.08741 	0.0522761 	0 9.04368 	0.0348501 	0 8.99963 	0.017424 	0 8.95524 	0 	0
10.0004 	0.00734837 	0 10.0024 	0.0152072 	0 10.0045 	0.0222296 	0 10.0065 	0.0292076 	0 10.0086 	0.0361413 	0 10.0136 	0.0463339 	0 10.0164 	0.0402153 	0 10.0208 	0.0401666 	0 10.0253 	0.0401181 	0 10.0297 	0.0400698 	0 10.0356 	0.0445289 	0 10.0385 	0.0378919 	0 10.0424 	0.0378495 	0 10.0464 	0.0378071 	0 10.0504 	0.0377646 	0 10.0545 	0.0408667 	0 10.0567 	0.0387906 	0 10.0591 	0.0401012 	0 10.0616 	0.0414135 	0 10.064 	0.0427274 	0 10.0661 	0.0451863 	0 10.0677 	0.0452985 	0 10.069 	0.0465014 	0 10.0703 	0.0477054 	0 10.0716 	0.0489105 	0 10.0728 	0.0499291 	0 10.0728 	0.0499929 	0 10.0729 	0.0500566 	0 10.073 	0.0501204 	0 10.0731 	0.0501841 	0 10.0731 	0.0502383 	0 10.0736 	0.0508671 	0 10.0742 	0.0514898 	0 10.0747 	0.052113 	0 10.0752 	0.0527368 	0 10.0757 	0.0531964 	0 10.0756 	0.0534947 	0 10.0752 	0.0536875 	0 10.0748 	0.0538803 	0 10.0745 	0.0540734 	0 10.074 	0.0540279 	0 10.0735 	0.0541763 	0 10.0724 	0.0541563 	0 10.0713 	0.0541363 	0 10.0702 	0.0541163 	0 10.0687 	0.0538272 	0 10.0683 	0.0539122 	0 10.0666 	0.0537834 	0 10.065 	0.0536545 	0 10.0634 	0.0535256 	0 10.0608 	0.0531105 	0 10.0608 	0.0531712 	0 10.0587 	0.0529831 	0 10.0567 	0.0527949 	0 10.0547 	0.0526067 	0 10.0511 	0.0521201 	0 10.0517 	0.0521823 	0 10.0494 	0.0519707 	0 10.047 	0.0517591 	0 10.0447 	0.0515474 	0 10.0401 	0.0510297 	0 10.0415 	0.0511161 	0 10.039 	0.0509041 	0 10.0364 	0.0506921 	0 10.0339 	0.05048 	0 10.0281 	0.0499492 	0 10.0305 	0.050069 	0 10.0279 	0.0498765 	0 10.0252 	0.0496839 	0 10.0225 	0.0494913 	0 10.0156 	0.0489744 	0 10.0192 	0.0491426 	0 10.0164 	0.048976 	0 10.0136 	0.0488094 	0 10.0108 	0.0486428 	0 10.0027 	0.0481354 	0 10.0075 	0.0483598 	0 10.0047 	0.0482713 	0 10.0019 	0.0481827 	0 9.99915 	0.0480942 	0 9.98983 	0.0476802 	0 9.99599 	0.0480121 	0 9.99323 	0.0479766 	0 9.99047 	0.0479411 	0 9.98772 	0.0479056 	0 9.97719 	0.0474884 	0 9.98476 	0.0478928 	0 9.98213 	0.0480951 	0 9.97949 	0.0482975 	0 9.97686 	0.0484998 	0 9.96521 	0.0483843 	0 9.97438 	0.0489755 	9.90218e-22 9.97251 	0.0491654 	6.64658e-21 9.97064 	0.0493553 	1.23027e-20 9.96878 	0.0495453 	1.79586e-20 9.95678 	0.0492169 	1.51587e-20 9.96736 	0.0495386 	1.06e-19 9.96582 	0.0493835 	9.85081e-20 9.96428 	0.0492284 	9.10147e-20 9.96275 	0.0490732 	8.35193e-20 9.95057 	0.0484541 	-1.68897e-20 9.96112 	0.0483766 	-4.58841e-20 9.95962 	0.0479942 	-5.10183e-20 9.95811 	0.0476117 	-5.61502e-20 9.95661 	0.0472292 	-6.12798e-20 9.94453 	0.0465731 	-2.37091e-20 9.95462 	0.0462606 	-2.09078e-20 9.95283 	0.0455526 	-1.45169e-20 9.95103 	0.0448446 	-8.1265e-21 9.94924 	0.0441365 	-1.73675e-21 9.93716 	0.0432302 	8.05781e-21 9.94682 	0.0428737 	-5.95977e-21 9.94472 	0.0419702 	-2.6661e-20 9.94262 	0.0410666 	-4.73647e-20 9.94051 	0.0401627 	-6.80709e-20 9.92835 	0.0389711 	-9.75554e-20 9.93749 	0.0387348 	-1.39639e-19 9.93499 	0.0378654 	-1.2591e-19 9.93248 	0.0369957 	-1.12173e-19 9.92997 	0.0361258 	-9.84267e-20 9.91769 	0.0348126 	-3.31153e-20 9.92616 	0.0347023 	4.06395e-20 9.92323 	0.0339195 	5.56792e-20 9.92029 	0.0331365 	7.07079e-20 9.91735 	0.0323532 	8.57257e-20 9.90501 	0.0310229 	4.0801e-20 9.91273 	0.030937 	-5.58547e-20 9.90937 	0.0301871 	-6.26644e-20 9.906 	0.029437 	-6.94571e-20 9.90263 	0.0286867 	-7.62329e-20 9.89032 	0.0273788 	-3.61579e-22 9.89716 	0.0272509 	7.1524e-20 9.89334 	0.0265109 	6.11471e-20 9.88952 	0.0257707 	5.07533e-20 9.88568 	0.0250303 	4.03426e-20 9.87347 	0.0237822 	-3.10413e-20 9.87926 	0.0235926 	-9.44004e-20 9.87494 	0.0228612 	-1.19087e-19 9.87062 	0.0221296 	-1.43768e-19 9.86629 	0.0213977 	-1.68442e-19 9.85427 	0.0202327 	-1.5032e-19 9.85878 	0.0199815 	-1.74775e-19 9.85395 	0.0192628 	-1.60971e-19 9.84912 	0.0185438 	-1.47162e-19 9.84428 	0.0178245 	-1.33348e-19 9.83263 	0.0167529 	-9.15431e-20 9.83559 	0.0164483 	-7.7334e-20 9.83026 	0.015746 	-5.6794e-20 9.82492 	0.0150435 	-3.6256e-20 9.81957 	0.0143407 	-1.57201e-20 9.80853 	0.0133611 	2.64755e-21 9.80964 	0.0129944 	0 9.80381 	0.0123019 	0 9.79797 	0.011609 	0 9.79213 	0.0109159 	0 9.78201 	0.0100224 	0 9.78089 	0.00957749 	-1.77432e-20 9.77458 	0.0088899 	-3.87818e-20 9.76826 	0.00820196 	-5.98224e-20 9.76193 	0.00751367 	-8.08651e-20 9.75311 	0.00671023 	-1.03054e-19 9.74933 	0.00616899 	-1.0987e-19 9.74255 	0.0054863 	-1.10674e-19 9.73575 	0.00480322 	-1.11471e-19 9.72895 	0.00411977 	-1.12262e-19 9.72185 	0.00342269 	-1.12373e-19 9.72135 	0.00336019 	-1.07655e-19 9.72051 	0.00328136 	-1.03897e-19 9.71967 	0.00320253 	-1.00139e-19 9.71883 	0.0031237 	-9.63812e-20 9.71799 	0.00304538 	-9.26488e-20 9.71152 	0.00244264 	-6.40583e-20 9.70504 	0.00183955 	-3.54766e-20 9.69856 	0.00123612 	-6.90364e-21 9.69207 	0.000632339 	2.16605e-20 9.67994 	-0.00022353 	5.65687e-20 9.67734 	-0.000676743 	5.76239e-20 9.66957 	-0.00135611 	5.88633e-20 9.6618 	-0.00203595 	6.01001e-20 9.65401 	-0.00271629 	6.13343e-20 9.63439 	-0.00390199 	6.44412e-20 9.63702 	-0.00413138 	5.08957e-20 9.62883 	-0.00480862 	3.73477e-20 9.62063 	-0.00548639 	2.37984e-20 9.61242 	-0.00616469 	1.02476e-20 9.58653 	-0.00755306 	-1.0177e-21 9.59406 	-0.0076061 	-9.67714e-21 9.58548 	-0.00828231 	-2.26134e-20 9.57689 	-0.00895909 	-3.55483e-20 9.56828 	-0.00963645 	-4.84818e-20 9.53665 	-0.0111725 	-6.14303e-20 9.54866 	-0.0111015 	-6.21579e-20 9.53972 	-0.0117783 	-7.02946e-20 9.53076 	-0.0124557 	-7.84275e-20 9.52179 	-0.0131337 	-8.65566e-20 9.48505 	-0.0147585 	-1.06339e-19 9.50102 	-0.0146173 	-1.61226e-19 9.49174 	-0.0152954 	-1.50661e-19 9.48245 	-0.0159741 	-1.40112e-19 9.47314 	-0.0166535 	-1.29579e-19 9.432 	-0.0183059 	-4.57949e-20 9.45134 	-0.0181463 	-2.9734e-20 9.44176 	-0.0188259 	-2.09535e-20 9.43215 	-0.0195063 	-1.21721e-20 9.42254 	-0.0201873 	-3.38969e-21 9.37775 	-0.0218106 	0 9.39987 	-0.021684 	0 9.39 	-0.0223666 	0 9.38012 	-0.02305 	0 9.37022 	-0.0237341 	0 9.32255 	-0.0252745 	0 9.34686 	-0.0252341 	2.11393e-21 9.33674 	-0.0259203 	1.02705e-20 9.32661 	-0.0266073 	1.84262e-20 9.31646 	-0.0272951 	2.65809e-20 9.26664 	-0.0286967 	4.59651e-20 9.29256 	-0.02879 	1.72085e-19 9.28222 	-0.0294786 	1.75367e-19 9.27186 	-0.0301679 	1.78666e-19 9.26149 	-0.0308581 	1.81985e-19 9.21021 	-0.0320688 	4.61811e-20 9.23723 	-0.0323368 	2.50993e-20 9.22669 	-0.0330263 	1.77633e-20 9.21614 	-0.0337167 	1.04263e-20 9.20463 	-0.0344142 	3.60588e-21 9.15346 	-0.0353839 	1.88807e-20 9.17868 	-0.0358736 	1.15895e-19 9.1704 	-0.0365498 	1.2378e-19 9.15967 	-0.0372405 	1.25226e-19 9.1441 	-0.0379336 	1.12314e-19 9.09657 	-0.0386389 	4.30268e-21 9.11847 	-0.0393469 	-1.10425e-19 9.11357 	-0.04004 	-1.40564e-19 9.1027 	-0.0407305 	-1.51879e-19 9.08377 	-0.0413671 	-1.42358e-19 9.0397 	-0.0418332 	-6.75874e-20 9.0585 	-0.0427358 	-1.97505e-19 9.05644 	-0.0434892 	-2.38272e-19 9.04544 	-0.0441794 	-2.40912e-19 9.02382 	-0.0447145 	-1.92629e-19 8.98299 	-0.0449675 	-5.19641e-20 8.99894 	-0.0460413 	-2.73103e-20 8.9992 	-0.0468921 	-1.22928e-20 8.9881 	-0.0475817 	-4.25262e-21 8.9644 	-0.0479775 	0 8.92657 	-0.0480433 	0 8.93992 	-0.0492653 	0 8.94205 	-0.0502439 	0 8.93086 	-0.0509328 	0 8.90561 	-0.051159 	2.15969e-21 8.87057 	-0.0510625 	5.82508e-21 8.88154 	-0.0524111 	2.33536e-21 8.88515 	-0.0535419 	0 8.8739 	-0.05423 	0 8.84758 	-0.054263 	2.60479e-21 8.81509 	-0.0540279 	6.27509e-21 8.82392 	-0.0554824 	2.78514e-21 8.82865 	-0.0567832 	1.46583e-21 8.81736 	-0.0574714 	8.72956e-21 8.79037 	-0.0572958 	2.69848e-20 8.76023 	-0.0569464 	4.74517e-20 8.76712 	-0.0584909 	1.86657e-19 8.7727 	-0.0599769 	3.16384e-19 8.76138 	-0.0606662 	3.20361e-19 8.73407 	-0.0602706 	1.8724e-19 8.70606 	-0.0598267 	4.80515e-20 8.71123 	-0.0614432 	2.78939e-20 8.71634 	-0.0630614 	7.738e-21 8.70482 	-0.0637081 	2.99643e-22 8.67874 	-0.0631891 	3.82398e-21 8.65267 	-0.0626697 	7.34816e-21 8.65629 	-0.0643404 	4.00992e-21 8.65985 	-0.0660127 	6.72689e-22 8.64874 	-0.0666277 	2.40095e-21 8.62442 	-0.0660493 	-1.89955e-21 8.60012 	-0.0654705 	-6.19901e-21 8.60237 	-0.0671803 	-5.43476e-20 8.60456 	-0.0688919 	-1.02501e-19 8.5939 	-0.0694768 	-1.0405e-19 8.57118 	-0.0688573 	-6.00249e-20 8.54847 	-0.0682373 	-1.59981e-20 8.54952 	-0.0699831 	9.36862e-20 8.5505 	-0.0717307 	2.03364e-19 8.54033 	-0.0722894 	2.12849e-19 8.51904 	-0.0716393 	1.21436e-19 8.49776 	-0.0709887 	3.00237e-20 8.49775 	-0.0727632 	1.73759e-20 8.49769 	-0.0745396 	4.7237e-21 8.48803 	-0.0750725 	2.54181e-22 8.46801 	-0.0743992 	5.40896e-21 8.44801 	-0.0737254 	1.05655e-20 8.44708 	-0.0755071 	4.33866e-21 8.44609 	-0.0772905 	-1.89447e-21 8.43696 	-0.0777983 	-2.25943e-20 8.41809 	-0.077124 	-7.79261e-20 8.39924 	-0.0764492 	-1.3326e-19 8.3975 	-0.0782286 	-2.77877e-19 8.3957 	-0.0800097 	-4.22488e-19 8.3871 	-0.0804959 	-4.05151e-19 8.36927 	-0.0798352 	-2.39354e-19 8.35145 	-0.0791741 	-7.35581e-20 8.349 	-0.0809455 	6.35625e-20 8.34623 	-0.0826622 	1.94799e-19 8.33778 	-0.0831032 	1.92036e-19 8.32153 	-0.082549 	9.99593e-20 8.30466 	-0.0819114 	4.37658e-22 8.30157 	-0.083672 	-9.82698e-20 8.29745 	-0.0851877 	-1.80317e-19 8.28913 	-0.0856405 	-1.90395e-19 8.27488 	-0.0852786 	-1.26883e-19 8.25885 	-0.0846707 	-4.11777e-20 8.2552 	-0.0864189 	-2.88578e-20 8.24999 	-0.0877371 	-1.66514e-20 8.24179 	-0.0882034 	-4.66431e-21 8.22927 	-0.0880346 	1.38727e-20 8.21402 	-0.0874609 	3.65838e-20 8.20986 	-0.0891965 	1.24198e-20 8.20378 	-0.0903228 	-3.0955e-21 8.1957 	-0.0908043 	-9.46377e-21 8.18469 	-0.0908273 	-5.52985e-21 8.17013 	-0.090291 	1.09614e-20 8.16553 	-0.0920143 	-7.44386e-21 8.15877 	-0.0929554 	-1.85649e-20 8.1508 	-0.0934536 	-2.55606e-20 8.1411 	-0.0936659 	-3.73904e-20 8.12718 	-0.0931695 	-6.11828e-20 8.12218 	-0.0948814 	5.80769e-20 8.11491 	-0.095645 	8.4679e-20 8.10702 	-0.0961613 	8.70984e-20 8.09846 	-0.0965595 	7.67665e-20 8.08512 	-0.0961051 	-2.5335e-20 8.07977 	-0.0978067 	7.52258e-20 8.07211 	-0.0984005 	8.33073e-20 8.06432 	-0.0989363 	8.65142e-20 8.05651 	-0.0994725 	8.97085e-20 8.04393 	-0.099106 	1.01041e-20 8.03804 	-0.100675 	-6.44758e-22 8.03035 	-0.101231 	-4.44416e-22 8.02264 	-0.101788 	-2.44101e-22 8.0149 	-0.102345 	-4.38133e-23 8.00357 	-0.10218 	1.70551e-20 7.99718 	-0.103566 	0 7.98956 	-0.104145 	0 7.98192 	-0.104724 	0 7.97425 	-0.105303 	0 7.96401 	-0.105337 	1.33391e-20 7.95724 	-0.106548 	0 7.94968 	-0.10715 	0 7.94211 	-0.107753 	0 7.9345 	-0.108356 	0 7.92522 	-0.108583 	0 7.91816 	-0.109629 	0 7.91066 	-0.110255 	0 7.90314 	-0.110883 	0 7.89559 	-0.11151 	0 7.88714 	-0.111927 	-5.24197e-21 7.8799 	-0.112814 	0 7.87244 	-0.113467 	0 7.86497 	-0.11412 	0 7.85746 	-0.114774 	0 7.84973 	-0.115377 	-2.60414e-21 7.84736 	-0.115655 	0 7.84494 	-0.115876 	0 7.84253 	-0.116098 	0 7.84011 	-0.11632 	0 7.83773 	-0.116538 	0 7.83256 	-0.116999 	0 7.82738 	-0.117459 	0 7.82219 	-0.11792 	0 7.81698 	-0.118381 	0 7.81236 	-0.118724 	0 7.80456 	-0.119541 	-9.06719e-21 7.79695 	-0.120252 	-1.95238e-20 7.7893 	-0.120963 	-2.99785e-20 7.78164 	-0.121674 	-4.04312e-20 7.77541 	-0.122098 	-5.08971e-20 7.76729 	-0.123098 	-4.66219e-20 7.7597 	-0.123838 	-4.58372e-20 7.75207 	-0.124579 	-4.50485e-20 7.74442 	-0.12532 	-4.42557e-20 7.73906 	-0.12561 	-4.9123e-20 7.73063 	-0.126789 	-3.77474e-20 7.72305 	-0.12756 	-2.63443e-20 7.71543 	-0.128332 	-1.49391e-20 7.70778 	-0.129104 	-3.53177e-21 7.70328 	-0.129266 	0 7.69452 	-0.13062 	-1.30182e-21 7.68694 	-0.131424 	-6.4391e-21 7.67932 	-0.132227 	-1.15753e-20 7.67167 	-0.133031 	-1.67103e-20 7.66799 	-0.133074 	-2.18211e-20 7.65891 	-0.134599 	-5.84149e-20 7.65132 	-0.135436 	-7.97694e-20 7.64369 	-0.136274 	-1.01126e-19 7.63641 	-0.137041 	-1.19193e-19 7.63317 	-0.137044 	-1.01535e-19 7.62402 	-0.138616 	-7.4298e-20 7.61614 	-0.139614 	-5.93917e-20 7.60849 	-0.140488 	-4.71415e-20 7.60207 	-0.141129 	-4.58515e-20 7.59873 	-0.14119 	-7.1865e-20 7.58959 	-0.142783 	-8.67888e-20 7.58134 	-0.143968 	-8.09402e-20 7.57366 	-0.144879 	-6.12274e-20 7.56807 	-0.145399 	-3.36911e-20 7.56463 	-0.145516 	1.91372e-21 7.55549 	-0.14713 	6.38977e-21 7.54686 	-0.148497 	7.15151e-21 7.53915 	-0.149446 	1.64125e-21 7.53436 	-0.149851 	0 7.53081 	-0.150025 	0 7.52165 	-0.151661 	0 7.51264 	-0.153208 	0 7.50488 	-0.154197 	0 7.50088 	-0.154492 	0 7.49721 	-0.154724 	0 7.48803 	-0.156384 	0 7.47878 	-0.158045 	0 7.47136 	-0.159039 	-1.68743e-20 7.46757 	-0.159328 	-3.57144e-20 7.46378 	-0.159618 	-5.45538e-20 7.45456 	-0.161304 	-3.39359e-20 7.44527 	-0.16299 	-1.33096e-20 7.43831 	-0.164015 	2.81463e-21 7.43439 	-0.164363 	7.13407e-21 7.43045 	-0.164712 	1.14533e-20 7.42119 	-0.166424 	4.58771e-20 7.41186 	-0.168136 	8.02988e-20 7.40533 	-0.169196 	8.79372e-20 7.40126 	-0.169603 	7.21105e-20 7.39718 	-0.17001 	5.62801e-20 7.38786 	-0.17175 	3.0513e-20 7.37847 	-0.17349 	4.73496e-21 7.37237 	-0.174586 	8.06524e-21 7.36814 	-0.175051 	1.79289e-20 7.36389 	-0.175516 	2.77943e-20 7.35451 	-0.177286 	9.46866e-20 7.34527 	-0.179019 	1.57722e-19 7.33952 	-0.180122 	1.55034e-19 7.33496 	-0.180713 	9.6336e-20 7.33054 	-0.181237 	3.027e-20 7.32108 	-0.183037 	2.14113e-20 7.31266 	-0.184642 	1.53823e-20 7.30677 	-0.185791 	1.59804e-20 7.30168 	-0.186592 	2.20926e-20 7.29708 	-0.187174 	3.1681e-20 7.28754 	-0.189005 	9.67107e-20 7.27991 	-0.190488 	1.24587e-19 7.27387 	-0.191683 	1.21802e-19 7.26823 	-0.192691 	9.84414e-20 7.26344 	-0.19333 	3.42772e-20 7.2538 	-0.195195 	2.57304e-20 7.24695 	-0.196558 	1.70341e-20 7.24075 	-0.197799 	8.30323e-21 7.23456 	-0.199013 	0 7.22957 	-0.199709 	0 7.22004 	-0.201568 	0 7.21371 	-0.202854 	0 7.20734 	-0.20414 	0 7.20092 	-0.205426 	0 7.1954 	-0.20631 	0 7.18667 	-0.208044 	0 7.18015 	-0.209376 	0 7.1736 	-0.210707 	0 7.167 	-0.212039 	0 7.16089 	-0.213135 	7.37469e-21 7.15291 	-0.214746 	5.42323e-21 7.14621 	-0.216122 	1.44466e-20 7.13946 	-0.217498 	2.34731e-20 7.13266 	-0.218874 	3.25029e-20 7.12598 	-0.22018 	4.21256e-20 7.12267 	-0.220852 	5.40228e-20 7.11975 	-0.221454 	5.56566e-20 7.11682 	-0.222057 	5.72849e-20 7.11388 	-0.22266 	5.89077e-20 7.11102 	-0.223245 	6.04783e-20 7.10688 	-0.224064 	6.32276e-20 7.10272 	-0.224883 	6.59688e-20 7.09854 	-0.225702 	6.87019e-20 7.09434 	-0.226521 	7.14269e-20 7.09088 	-0.227255 	8.10831e-20 7.08318 	-0.228802 	6.20971e-20 7.07584 	-0.230262 	4.98197e-20 7.06846 	-0.231722 	3.75175e-20 7.06102 	-0.233183 	2.51906e-20 7.05558 	-0.234413 	3.59545e-20 7.04693 	-0.236153 	3.24831e-20 7.03936 	-0.237657 	3.09399e-20 7.03174 	-0.239161 	2.93894e-20 7.02407 	-0.240665 	2.78316e-20 7.01972 	-0.241796 	3.66561e-20 7.01008 	-0.243727 	2.56361e-20 7.00227 	-0.245274 	2.45015e-20 6.99441 	-0.246821 	2.33594e-20 6.98691 	-0.248321 	2.38887e-20 6.98323 	-0.249398 	3.96817e-20 6.97313 	-0.25141 	5.47896e-20 6.96452 	-0.253108 	5.39536e-20 6.95641 	-0.254695 	4.75285e-20 6.95003 	-0.256086 	3.24434e-20 6.94608 	-0.25721 	5.52314e-21 6.93573 	-0.259254 	2.04307e-21 6.92606 	-0.261147 	-1.38998e-22 6.91767 	-0.262771 	-2.74371e-23 6.91243 	-0.264052 	0 6.90819 	-0.265219 	0 6.89757 	-0.267294 	0 6.88688 	-0.269369 	0 6.87854 	-0.270999 	-1.28595e-20 6.87404 	-0.272208 	-2.26785e-20 6.8695 	-0.273416 	-3.24921e-20 6.85861 	-0.275519 	-1.99719e-20 6.84764 	-0.277622 	-7.43982e-21 6.83963 	-0.279296 	3.17253e-21 6.83482 	-0.280543 	1.04912e-20 6.82996 	-0.281789 	1.78137e-20 6.81878 	-0.283918 	1.16757e-20 6.80753 	-0.286047 	5.54287e-21 6.79982 	-0.287768 	7.98916e-21 6.79469 	-0.289053 	2.89599e-20 6.78951 	-0.290338 	4.99305e-20 6.77803 	-0.292494 	2.78064e-20 6.76716 	-0.29458 	7.6864e-21 6.75967 	-0.296306 	-2.24563e-21 6.75362 	-0.297743 	-7.41467e-21 6.7481 	-0.299066 	-1.072e-20 6.73632 	-0.30125 	-6.17995e-20 6.72667 	-0.303202 	-8.90911e-20 6.71886 	-0.304958 	-9.60956e-20 6.71156 	-0.306602 	-9.02174e-20 6.7057 	-0.307956 	-5.02486e-20 6.69359 	-0.310161 	-9.10848e-20 6.6852 	-0.311971 	-8.86695e-20 6.67705 	-0.313748 	-8.26742e-20 6.66884 	-0.315525 	-7.66618e-20 6.66225 	-0.316975 	-4.1036e-20 6.65111 	-0.31906 	-6.71123e-20 6.64268 	-0.320853 	-5.72907e-20 6.63419 	-0.322647 	-4.74467e-20 6.62564 	-0.32444 	-3.75801e-20 6.61771 	-0.326098 	-1.48615e-20 6.61052 	-0.327468 	-1.29315e-20 6.60445 	-0.328719 	-1.09215e-20 6.59835 	-0.329971 	-8.91246e-21 6.59222 	-0.331222 	-6.90437e-21 6.58636 	-0.332411 	-4.99511e-21 6.58341 	-0.332977 	-3.90065e-21 6.58045 	-0.333543 	-2.806e-21 6.57748 	-0.334109 	-1.71115e-21 6.57451 	-0.334675 	-6.16101e-22 6.57188 	-0.335193 	0 6.56217 	-0.337063 	0 6.55254 	-0.338875 	0 6.54284 	-0.340688 	0 6.53307 	-0.3425 	0 6.52469 	-0.344108 	0 6.5141 	-0.346167 	-7.3586e-22 6.50407 	-0.347983 	-3.26522e-21 6.49396 	-0.3498 	-5.79259e-21 6.48388 	-0.351603 	-8.31215e-21 6.47616 	-0.353069 	-1.06843e-20 6.46489 	-0.355223 	1.48408e-20 6.45419 	-0.357132 	2.39812e-20 6.44367 	-0.358947 	2.69449e-20 6.43436 	-0.360587 	1.28591e-20 6.42624 	-0.362054 	-1.79017e-20 6.41455 	-0.3642 	-1.02315e-20 6.40289 	-0.366299 	-2.53934e-21 6.39195 	-0.36811 	5.30102e-21 6.38344 	-0.369579 	9.83672e-21 6.37492 	-0.371043 	1.4319e-20 6.36279 	-0.373176 	8.6557e-21 6.35057 	-0.37531 	2.98786e-21 6.33997 	-0.377105 	6.43689e-21 6.3311 	-0.378563 	1.92347e-20 6.32216 	-0.38002 	3.20339e-20 6.30959 	-0.38214 	3.90384e-20 6.29692 	-0.384259 	4.60403e-20 6.2867 	-0.386045 	3.45812e-20 6.2773 	-0.387529 	1.46395e-20 6.26795 	-0.38898 	-6.26257e-21 6.25493 	-0.391084 	1.16632e-20 6.2431 	-0.393019 	1.89557e-20 6.2325 	-0.394783 	1.54667e-20 6.22206 	-0.396468 	6.39427e-21 6.21228 	-0.397906 	-2.0414e-20 6.19887 	-0.399982 	-1.37976e-20 6.18792 	-0.401724 	-4.90018e-21 6.17689 	-0.403464 	3.99687e-21 6.16579 	-0.405205 	1.28935e-20 6.15515 	-0.406764 	1.72303e-20 6.14501 	-0.408274 	1.83029e-20 6.13596 	-0.409634 	1.91775e-20 6.12687 	-0.410993 	2.00563e-20 6.11772 	-0.412351 	2.09394e-20 6.10901 	-0.41364 	2.17811e-20 6.10664 	-0.414004 	2.24548e-20 6.10428 	-0.414369 	2.31293e-20 6.10191 	-0.414733 	2.38047e-20 6.09953 	-0.415098 	2.4481e-20 6.09719 	-0.415422 	2.12748e-20 6.08603 	-0.417147 	1.63672e-20 6.07469 	-0.418821 	1.14739e-20 6.06327 	-0.420496 	6.57751e-21 6.05179 	-0.42217 	1.67798e-21 6.0404 	-0.42361 	-5.73562e-21 6.02939 	-0.425524 	0 6.01762 	-0.42715 	0 6.00578 	-0.428776 	0 5.99392 	-0.430326 	-1.88168e-21 5.98219 	-0.431594 	-1.07022e-20 5.97088 	-0.433506 	-3.87422e-21 5.95914 	-0.43527 	1.3585e-21 5.94687 	-0.436842 	4.49994e-21 5.93473 	-0.438134 	1.4016e-20 5.92258 	-0.439346 	2.53251e-20 5.91084 	-0.441196 	4.40568e-20 5.89902 	-0.443044 	6.27909e-20 5.88667 	-0.444535 	6.40015e-20 5.87417 	-0.445686 	4.81104e-20 5.8616 	-0.446837 	3.22181e-20 5.84944 	-0.448619 	3.41376e-20 5.8372 	-0.4504 	3.60617e-20 5.82513 	-0.451836 	2.87051e-20 5.81229 	-0.452954 	1.45987e-20 5.79931 	-0.454039 	-1.98495e-22 5.78673 	-0.455749 	-2.39433e-20 5.77422 	-0.457255 	-3.69682e-20 5.76176 	-0.4586 	-4.15403e-20 5.74916 	-0.459913 	-4.38067e-20 5.73577 	-0.460927 	-2.45935e-20 5.72283 	-0.462497 	-7.19508e-22 5.71004 	-0.463765 	-6.17531e-21 5.69718 	-0.465032 	-1