# vtk DataFile Version 2.0
track0
ASCII
DATASET POLYDATA
POINTS 12065 float
-0.0205 0.001 1e-05
-0.02052 0.000999985 1e-05
-0.02054 0.000999974 1e-05
-0.02056 0.000999965 1e-05
-0.02058 0.000999959 1e-05
-0.0206 0.000999956 1e-05
-0.0205 0.00367778 1e-05
-0.02052 0.00367778 1e-05
-0.02054 0.00367777 1e-05
-0.02056 0.00367777 1e-05
-0.02058 0.00367777 1e-05
-0.0206 0.00367777 1e-05
-0.0205 0.00635556 1e-05
-0.02052 0.00635555 1e-05
-0.02054 0.00635555 1e-05
-0.02056 0.00635555 1e-05
-0.02058 0.00635555 1e-05
-0.0206 0.00635555 1e-05
-0.0205 0.00903333 1e-05
-0.02052 0.00903333 1e-05
-0.02054 0.00903333 1e-05
-0.02056 0.00903333 1e-05
-0.02058 0.00903333 1e-05
-0.0206 0.00903333 1e-05
-0.0205 0.0117111 1e-05
-0.02052 0.0117111 1e-05
-0.02054 0.0117111 1e-05
-0.02056 0.0117111 1e-05
-0.02058 0.0117111 1e-05
-0.0206 0.0117111 1e-05
-0.0205 0.0143889 1e-05
-0.02052 0.0143889 1e-05
-0.02054 0.0143889 1e-05
-0.02056 0.0143889 1e-05
-0.02058 0.0143889 1e-05
-0.0206 0.0143889 1e-05
-0.0205 0.0170667 1e-05
-0.02052 0.0170667 1e-05
-0.02054 0.0170667 1e-05
-0.02056 0.0170667 1e-05
-0.02058 0.0170667 1e-05
-0.0206 0.0170667 1e-05
-0.0205 0.0197444 1e-05
-0.02052 0.0197444 1e-05
-0.02054 0.0197444 1e-05
-0.02056 0.0197444 1e-05
-0.02058 0.0197444 1e-05
-0.0206 0.0197444 1e-05
-0.0205 0.0224222 1e-05
-0.02052 0.0224222 1e-05
-0.02054 0.0224222 1e-05
-0.02056 0.0224222 1e-05
-0.02058 0.0224222 1e-05
-0.0206 0.0224222 1e-05
-0.0205 0.0251 1e-05
-0.02052 0.0250998 1e-05
-0.02054 0.0250997 1e-05
-0.02056 0.0250995 1e-05
-0.02058 0.0250995 1e-05
-0.0206 0.0250994 1e-05
-0.0205 0.001 1e-05
-0.0202034 0.00100022 1e-05
-0.0199069 0.00100067 1e-05
-0.0196103 0.00100133 1e-05
-0.0193137 0.00100219 1e-05
-0.0190172 0.00100326 1e-05
-0.0187132 0.00100467 1e-05
-0.0184093 0.00100589 1e-05
-0.0181054 0.00100711 1e-05
-0.0178015 0.00100833 1e-05
-0.0174976 0.00100954 1e-05
-0.0172058 0.00101083 1e-05
-0.016914 0.00101194 1e-05
-0.0166222 0.00101304 1e-05
-0.0163305 0.00101413 1e-05
-0.0160387 0.00101523 1e-05
-0.0157586 0.00101637 1e-05
-0.0154784 0.00101745 1e-05
-0.0151983 0.00101857 1e-05
-0.0149182 0.00101972 1e-05
-0.0146381 0.00102091 1e-05
-0.0143748 0.00102209 1e-05
-0.0141115 0.00102327 1e-05
-0.0138482 0.00102449 1e-05
-0.0135849 0.00102574 1e-05
-0.0133625 0.00102682 1e-05
-0.0133487 0.00102689 1e-05
-0.0133349 0.00102695 1e-05
-0.0133211 0.00102702 1e-05
-0.0133073 0.00102709 1e-05
-0.0132934 0.00102716 1e-05
-0.0130353 0.00102845 1e-05
-0.0127771 0.00102975 1e-05
-0.0125189 0.00103107 1e-05
-0.0122607 0.00103241 1e-05
-0.0120025 0.00103376 1e-05
-0.0117547 0.00103507 1e-05
-0.0115068 0.00103638 1e-05
-0.0112589 0.0010377 1e-05
-0.0110111 0.00103903 1e-05
-0.0107632 0.00104036 1e-05
-0.0105252 0.00104164 1e-05
-0.0102873 0.00104292 1e-05
-0.0100493 0.0010442 1e-05
-0.00981133 0.00104547 1e-05
-0.00957337 0.00104675 1e-05
-0.00934491 0.00104797 1e-05
-0.00911645 0.0010492 1e-05
-0.00888799 0.00105042 1e-05
-0.00865954 0.00105164 1e-05
-0.00843108 0.00105285 1e-05
-0.00821175 0.00105401 1e-05
-0.00799242 0.00105517 1e-05
-0.00777309 0.00105632 1e-05
-0.00755376 0.00105748 1e-05
-0.00733443 0.00105862 1e-05
-0.00712387 0.00105971 1e-05
-0.0069133 0.00106081 1e-05
-0.00670273 0.0010619 1e-05
-0.00649216 0.00106298 1e-05
-0.0062816 0.00106406 1e-05
-0.00607944 0.00106509 1e-05
-0.00587729 0.00106612 1e-05
-0.00567514 0.00106714 1e-05
-0.00547298 0.00106816 1e-05
-0.00527083 0.00106918 1e-05
-0.00507675 0.00107015 1e-05
-0.00488267 0.00107112 1e-05
-0.0046886 0.00107208 1e-05
-0.00449452 0.00107304 1e-05
-0.00430044 0.001074 1e-05
-0.00411412 0.00107491 1e-05
-0.0039278 0.00107583 1e-05
-0.00374147 0.00107674 1e-05
-0.00355515 0.00107765 1e-05
-0.00336883 0.00107855 1e-05
-0.00318995 0.00107941 1e-05
-0.00301107 0.00108028 1e-05
-0.00283219 0.00108114 1e-05
-0.00265331 0.001082 1e-05
-0.00247443 0.00108286 1e-05
-0.0023027 0.00108368 1e-05
-0.00213097 0.00108451 1e-05
-0.00195924 0.00108533 1e-05
-0.0017875 0.00108616 1e-05
-0.00161577 0.00108698 1e-05
-0.0014509 0.00108776 1e-05
-0.00128603 0.00108855 1e-05
-0.00112116 0.00108935 1e-05
-0.000956289 0.00109015 1e-05
-0.000791418 0.00109095 1e-05
-0.000633135 0.00109172 1e-05
-0.000474851 0.00109249 1e-05
-0.000316567 0.00109327 1e-05
-0.000158284 0.00109406 1e-05
0 0.00109484 1e-05
0.000105677 0.00109537 1e-05
0.000211355 0.00109589 1e-05
0.000317032 0.00109642 1e-05
0.00042271 0.00109694 1e-05
0.000528387 0.00109746 1e-05
0.000634886 0.00109798 1e-05
0.000741385 0.00109849 1e-05
0.000847885 0.00109901 1e-05
0.000954384 0.00109952 1e-05
0.00106088 0.00110002 1e-05
0.00116821 0.00110052 1e-05
0.00127554 0.00110102 1e-05
0.00138286 0.00110151 1e-05
0.00149019 0.001102 1e-05
0.00159752 0.00110247 1e-05
0.00170568 0.00110295 1e-05
0.00181384 0.00110341 1e-05
0.001922 0.00110387 1e-05
0.00203016 0.00110431 1e-05
0.00213833 0.00110475 1e-05
0.00224733 0.00110518 1e-05
0.00235633 0.0011056 1e-05
0.00246533 0.00110602 1e-05
0.00257434 0.00110643 1e-05
0.00268334 0.00110682 1e-05
0.00279319 0.00110721 1e-05
0.00290304 0.00110759 1e-05
0.00301289 0.00110797 1e-05
0.00312274 0.00110833 1e-05
0.00323259 0.00110869 1e-05
0.00334329 0.00110904 1e-05
0.003454 0.00110939 1e-05
0.0035647 0.00110972 1e-05
0.0036754 0.00111005 1e-05
0.00378611 0.00111037 1e-05
0.00389767 0.00111068 1e-05
0.00400924 0.00111099 1e-05
0.0041208 0.00111129 1e-05
0.00423237 0.00111158 1e-05
0.00434393 0.00111186 1e-05
0.00445636 0.00111213 1e-05
0.00456879 0.0011124 1e-05
0.00468123 0.00111266 1e-05
0.00479366 0.00111291 1e-05
0.00490609 0.00111316 1e-05
0.0050194 0.00111339 1e-05
0.0051327 0.00111362 1e-05
0.00524601 0.00111384 1e-05
0.00535932 0.00111405 1e-05
0.00547262 0.00111426 1e-05
0.00558681 0.00111445 1e-05
0.005701 0.00111464 1e-05
0.00581518 0.00111483 1e-05
0.00592937 0.001115 1e-05
0.00604356 0.00111517 1e-05
0.00615863 0.00111532 1e-05
0.00627371 0.00111548 1e-05
0.00638878 0.00111562 1e-05
0.00650386 0.00111576 1e-05
0.00661893 0.00111589 1e-05
0.0067349 0.001116 1e-05
0.00685087 0.00111612 1e-05
0.00696684 0.00111622 1e-05
0.00708281 0.00111632 1e-05
0.00719878 0.00111641 1e-05
0.00731565 0.00111649 1e-05
0.00743252 0.00111656 1e-05
0.00754939 0.00111663 1e-05
0.00766626 0.00111669 1e-05
0.00778313 0.00111674 1e-05
0.00779683 0.00111674 1e-05
0.00781053 0.00111675 1e-05
0.00782423 0.00111675 1e-05
0.00783792 0.00111676 1e-05
0.00785153 0.00111676 1e-05
0.00795563 0.00111679 1e-05
0.00805973 0.00111682 1e-05
0.00816383 0.00111684 1e-05
0.00826793 0.00111685 1e-05
0.00837203 0.00111686 1e-05
0.00849073 0.00111686 1e-05
0.00860942 0.00111685 1e-05
0.00872812 0.00111683 1e-05
0.00884682 0.00111681 1e-05
0.00896551 0.00111677 1e-05
0.00908513 0.00111673 1e-05
0.00920475 0.00111667 1e-05
0.00932437 0.00111661 1e-05
0.00944398 0.00111655 1e-05
0.0095636 0.00111647 1e-05
0.00968415 0.00111637 1e-05
0.0098047 0.00111628 1e-05
0.00992525 0.00111617 1e-05
0.0100458 0.00111606 1e-05
0.0101663 0.00111594 1e-05
0.0102878 0.0011158 1e-05
0.0104093 0.00111566 1e-05
0.0105308 0.00111551 1e-05
0.0106523 0.00111535 1e-05
0.0107738 0.00111518 1e-05
0.0108962 0.00111499 1e-05
0.0110186 0.0011148 1e-05
0.0111411 0.0011146 1e-05
0.0112635 0.0011144 1e-05
0.0113859 0.00111418 1e-05
0.0115093 0.00111394 1e-05
0.0116327 0.00111371 1e-05
0.0117561 0.00111346 1e-05
0.0118795 0.00111321 1e-05
0.0120028 0.00111294 1e-05
0.0121272 0.00111265 1e-05
0.0122515 0.00111236 1e-05
0.0123759 0.00111207 1e-05
0.0125002 0.00111176 1e-05
0.0126245 0.00111145 1e-05
0.0127498 0.00111111 1e-05
0.0128752 0.00111077 1e-05
0.0130005 0.00111042 1e-05
0.0131258 0.00111006 1e-05
0.0132511 0.0011097 1e-05
0.0133774 0.00110931 1e-05
0.0135036 0.00110892 1e-05
0.0136299 0.00110851 1e-05
0.0137562 0.0011081 1e-05
0.0138825 0.00110768 1e-05
0.0140098 0.00110724 1e-05
0.014137 0.00110679 1e-05
0.0142643 0.00110634 1e-05
0.0143915 0.00110587 1e-05
0.0145188 0.0011054 1e-05
0.0146471 0.0011049 1e-05
0.0147753 0.0011044 1e-05
0.0149036 0.00110389 1e-05
0.0150318 0.00110337 1e-05
0.0151601 0.00110284 1e-05
0.0152893 0.00110229 1e-05
0.0154186 0.00110173 1e-05
0.0155478 0.00110116 1e-05
0.0156771 0.00110058 1e-05
0.0158063 0.00109999 1e-05
0.0159366 0.00109939 1e-05
0.0160668 0.00109878 1e-05
0.0161971 0.00109815 1e-05
0.0163274 0.00109751 1e-05
0.0164576 0.00109687 1e-05
0.0165889 0.00109621 1e-05
0.0167201 0.00109554 1e-05
0.0168514 0.00109486 1e-05
0.0169827 0.00109416 1e-05
0.0171139 0.00109346 1e-05
0.0172462 0.00109275 1e-05
0.0173785 0.00109202 1e-05
0.0175108 0.00109127 1e-05
0.0176431 0.00109052 1e-05
0.0177754 0.00108976 1e-05
0.0179087 0.00108899 1e-05
0.018042 0.00108821 1e-05
0.0181753 0.0010874 1e-05
0.0183087 0.00108659 1e-05
0.018442 0.00108577 1e-05
0.0185763 0.00108495 1e-05
0.0187107 0.0010841 1e-05
0.018845 0.00108324 1e-05
0.0189794 0.00108236 1e-05
0.0191137 0.00108149 1e-05
0.0192491 0.00108061 1e-05
0.0193845 0.0010797 1e-05
0.0195199 0.00107878 1e-05
0.0196553 0.00107784 1e-05
0.0197907 0.00107691 1e-05
0.0199272 0.00107597 1e-05
0.0200636 0.00107501 1e-05
0.0202001 0.00107402 1e-05
0.0203365 0.00107302 1e-05
0.020473 0.00107203 1e-05
0.0206105 0.00107103 1e-05
0.020748 0.00107001 1e-05
0.0208855 0.00106896 1e-05
0.021023 0.0010679 1e-05
0.0211606 0.00106685 1e-05
0.0212991 0.00106579 1e-05
0.0214377 0.00106471 1e-05
0.0215763 0.0010636 1e-05
0.0217149 0.00106248 1e-05
0.0218535 0.00106137 1e-05
0.0219931 0.00106025 1e-05
0.0221328 0.00105911 1e-05
0.0222724 0.00105794 1e-05
0.0224121 0.00105676 1e-05
0.0225517 0.00105558 1e-05
0.0226925 0.00105441 1e-05
0.0228332 0.0010532 1e-05
0.022974 0.00105197 1e-05
0.0231147 0.00105072 1e-05
0.0232555 0.00104948 1e-05
0.0233973 0.00104825 1e-05
0.0235391 0.00104698 1e-05
0.023681 0.00104568 1e-05
0.0238228 0.00104437 1e-05
0.0239647 0.00104307 1e-05
0.0241076 0.00104177 1e-05
0.0242505 0.00104044 1e-05
0.0243935 0.00103908 1e-05
0.0245364 0.00103771 1e-05
0.0246794 0.00103634 1e-05
0.0248234 0.00103498 1e-05
0.0249675 0.00103358 1e-05
0.0251115 0.00103215 1e-05
0.0252556 0.00103072 1e-05
[...]
POINT_DATA 12065
 FIELD attributes 2
p 1 12065 float
-4.89848 -4.89517 -4.89186 -4.88855 -4.88525 -4.88194
-5.05164 -5.05162 -5.05159 -5.05157 -5.05155 -5.05153
-5.22575 -5.22563 -5.2255 -5.22538 -5.22526 -5.22515
-5.31915 -5.3191 -5.31904 -5.31899 -5.31893 -5.31888
-5.36436 -5.36424 -5.36413 -5.36402 -5.3639 -5.36379
-5.37104 -5.37088 -5.37072 -5.37056 -5.3704 -5.37024
-5.34427 -5.3442 -5.34413 -5.34406 -5.34399 -5.34391
-5.27484 -5.2748 -5.27476 -5.27472 -5.27468 -5.27464
-5.15371 -5.15372 -5.15373 -5.15373 -5.15374 -5.15374
-2.94125 -2.96057 -2.97977 -2.99883 -3.01776 -3.03655
-4.89848 -4.89781 -4.89424 -4.89059 -4.88686 -4.87858 -4.89249 -4.9075 -4.92252 -4.93754 -4.96199 -4.98374 -5.01366 -5.04358 -5.0735 -5.10623 -5.12186 -5.14354 -5.16521 -5.18689 -5.21018 -5.22902 -5.24986 -5.27071 -5.29157 -5.30918 -5.31027 -5.31136 -5.31245 -5.31354 -5.31463 -5.33624 -5.35785 -5.37946 -5.40108 -5.42242 -5.44111 -5.45962 -5.47812 -5.49663 -5.51456 -5.53011 -5.54537 -5.56063 -5.57589 -5.5906 -5.60427 -5.61769 -5.63111 -5.64453 -5.65749 -5.67007 -5.68237 -5.69468 -5.70698 -5.71886 -5.73048 -5.74179 -5.7531 -5.76441 -5.77529 -5.78602 -5.79647 -5.80691 -5.81735 -5.82742 -5.83745 -5.84718 -5.8569 -5.86662 -5.87602 -5.88544 -5.89462 -5.9038 -5.91298 -5.92195 -5.93093 -5.93954 -5.94815 -5.95676 -5.96518 -5.97385 -5.98258 -5.99132 -6.00006 -6.00912 -6.01846 -6.02738 -6.0363 -6.04521 -6.05422 -6.06432 -6.07595 -6.08758 -6.09922 -6.11181 -6.12391 -6.13788 -6.15186 -6.16584 -6.17945 -6.19187 -6.20411 -6.21634 -6.22858 -6.23953 -6.24851 -6.25805 -6.26758 -6.27711 -6.28705 -6.29587 -6.3048 -6.31373 -6.32266 -6.33158 -6.34024 -6.34776 -6.35528 -6.3628 -6.36929 -6.37653 -6.38239 -6.38825 -6.39411 -6.39878 -6.40477 -6.40963 -6.4145 -6.41937 -6.42323 -6.42825 -6.43234 -6.43644 -6.44053 -6.44382 -6.44785 -6.45114 -6.45442 -6.45771 -6.46043 -6.46352 -6.46607 -6.46861 -6.47116 -6.47335 -6.47581 -6.47789 -6.47998 -6.48207 -6.48397 -6.48613 -6.48806 -6.48999 -6.49192 -6.49374 -6.49575 -6.49761 -6.49947 -6.50133 -6.50313 -6.50501 -6.50682 -6.50862 -6.51043 -6.51223 -6.51244 -6.51265 -6.51286 -6.51306 -6.51327 -6.51485 -6.51643 -6.51801 -6.51958 -6.52131 -6.52295 -6.52476 -6.52657 -6.52837 -6.53057 -6.53204 -6.53393 -6.53583 -6.53772 -6.54033 -6.54163 -6.54367 -6.54571 -6.54775 -6.55086 -6.55198 -6.55416 -6.55633 -6.5585 -6.56209 -6.56302 -6.56529 -6.56757 -6.56985 -6.57388 -6.57463 -6.57701 -6.5794 -6.58179 -6.58625 -6.58687 -6.58939 -6.59191 -6.59443 -6.59927 -6.59982 -6.60247 -6.60512 -6.60777 -6.61296 -6.61347 -6.61625 -6.61903 -6.62181 -6.62727 -6.62781 -6.63071 -6.63362 -6.63659 -6.6422 -6.64297 -6.64585 -6.64888 -6.65224 -6.65774 -6.65886 -6.66165 -6.66481 -6.66851 -6.67389 -6.67537 -6.67811 -6.68139 -6.68538 -6.69064 -6.69246 -6.69519 -6.6986 -6.70282 -6.70795 -6.7101 -6.71287 -6.71639 -6.7208 -6.72582 -6.72827 -6.73111 -6.73475 -6.7393 -6.74422 -6.74696 -6.74991 -6.75365 -6.75831 -6.76315 -6.76616 -6.76922 -6.77306 -6.77779 -6.78255 -6.78578 -6.78902 -6.79296 -6.79766 -6.80236 -6.8058 -6.80925 -6.81329 -6.81794 -6.82259 -6.82626 -6.82993 -6.83406 -6.83866 -6.84326 -6.84711 -6.85097 -6.85516 -6.85969 -6.86423 -6.86822 -6.8722 -6.87644 -6.88094 -6.88543 -6.88952 -6.89361 -6.8979 -6.90238 -6.90686 -6.91103 -6.91521 -6.91955 -6.92403 -6.92852 -6.93275 -6.93699 -6.94138 -6.94586 -6.95036 -6.95463 -6.95893 -6.96334 -6.96781 -6.97231 -6.97661 -6.98094 -6.98536 -6.98983 -6.99433 -6.99863 -7.00299 -7.00741 -7.01186 -7.01636 -7.02065 -7.02502 -7.02943 -7.03386 -7.03835 -7.04262 -7.04699 -7.05138 -7.05578 -7.06024 -7.06448 -7.06884 -7.0732 -7.07757 -7.08199 -7.0862 -7.09052 -7.09484 -7.09916 -7.10353 -7.10771 -7.11197 -7.11624 -7.1205 -7.1248 -7.12892 -7.13312 -7.13731 -7.14151 -7.14572 -7.14979 -7.15389 -7.158 -7.16211 -7.16623 -7.17021 -7.17421 -7.17822 -7.18222 -7.18623 -7.18749 -7.18876 -7.19002 -7.19129 -7.19253 -7.19516 -7.19779 -7.20042 -7.20306 -7.20569 -7.20946 -7.21322 -7.21698 -7.22074 -7.22451 -7.22814 -7.23176 -7.23538 -7.23899 -7.24262 -7.2461 -7.24954 -7.25299 -7.25644 -7.25987 -7.26318 -7.26642 -7.26966 -7.2729 -7.27611 -7.27923 -7.28223 -7.28523 -7.28822 -7.29117 -7.29406 -7.29683 -7.29957 -7.30229 -7.30497 -7.3076 -7.31014 -7.31261 -7.31504 -7.31743 -7.31979 -7.32208 -7.32426 -7.32636 -7.32843 -7.33049 -7.33253 -7.33438 -7.33612 -7.33784 -7.33956 -7.34129 -7.34279 -7.34414 -7.34548 -7.34684 -7.3482 -7.34934 -7.35027 -7.3512 -7.35216 -7.35312 -7.35385 -7.35434 -7.35482 -7.35534 -7.35587 -7.35617 -7.35617 -7.35617 -7.35622 -7.35627 -7.35608 -7.3556 -7.35508 -7.35463 -7.3541 -7.35339 -7.35246 -7.35139 -7.3504 -7.34926 -7.34798 -7.34658 -7.34492 -7.34336 -7.34155 -7.33967 -7.33778 -7.3355 -7.33331 -7.3308 -7.32828 -7.32577 -7.32294 -7.32 -7.31681 -7.31362 -7.31043 -7.30705 -7.3033 -7.2994 -7.2955 -7.2916 -7.28764 -7.28571 -7.28374 -7.28176 -7.27978 -7.27786 -7.27521 -7.27256 -7.26991 -7.26727 -7.26454 -7.25925 -7.25386 -7.24848 -7.24311 -7.23749 -7.23156 -7.22534 -7.21912 -7.21291 -7.20627 -7.19969 -7.19259 -7.1855 -7.17836 -7.17069 -7.16328 -7.15543 -7.14744 -7.13918 -7.13058 -7.12225 -7.1137 -7.10476 -7.09534 -7.08577 -7.07648 -7.06719 -7.05724 -7.04665 -7.03607 -7.02578 -7.01549 -7.00454 -6.99291 -6.98128 -6.96995 -6.95863 -6.94663 -6.93392 -6.92121 -6.9088 -6.89627 -6.88311 -6.86948 -6.85566 -6.84214 -6.82821 -6.81393 -6.79947 -6.78453 -6.76988 -6.75451 -6.73909 -6.72367 -6.70771 -6.69166 -6.67507 -6.65848 -6.6419 -6.6251 -6.61301 -6.60069 -6.58838 -6.57607 -6.56436 -6.55883 -6.55331 -6.54779 -6.54227 -6.53665 -6.51792 -6.49911 -6.48031 -6.46152 -6.44232 -6.42268 -6.40267 -6.38266 -6.36263 -6.34191 -6.32119 -6.3001 -6.27886 -6.25726 -6.2353 -6.21335 -6.19133 -6.16886 -6.14567 -6.12246 -6.09927 -6.07608 -6.05226 -6.02781 -6.00337 -5.97892 -5.95448 -5.92932 -5.9037 -5.87801 -5.85233 -5.82629 -5.79988 -5.77337 -5.74648 -5.71956 -5.69194 -5.66434 -5.63674 -5.60889 -5.58628 -5.56338 -5.54047 -5.51758 -5.49587 -5.48977 -5.48368 -5.47759 -5.47149 -5.46535 -5.43552 -5.40568 -5.37585 -5.34602 -5.3159 -5.28512 -5.25418 -5.22324 -5.19223 -5.16088 -5.12903 -5.09711 -5.06512 -5.03282 -5.00043 -4.96753 -4.93464 -4.90153 -4.86815 -4.83477 -4.80086 -4.76696 -4.73274 -4.69844 -4.66413 -4.62928 -4.59426 -4.55913 -4.52399 -4.48881 -4.45303 -4.41703 -4.38105 -4.34508 -4.3091 -4.29785 -4.28657 -4.27528 -4.264 -4.25291 -4.22741 -4.20191 -4.17642 -4.15094 -4.12533 -4.08787 -4.05042 -4.01298 -3.97554 -3.93786 -3.89971 -3.86159 -3.82351 -3.7853 -3.74701 -3.70825 -3.66949 -3.63076 -3.59196 -3.55316 -3.51386 -3.47458 -3.43518 -3.3959 -3.35664 -3.31688 -3.27707 -3.23724 -3.19743 -3.15775 -3.12079 -3.08381 -3.04683 -3.00986 -2.97433 -2.97082 -2.9673 -2.96379 -2.96027 -2.95675 -2.91616 -2.8756 -2.83504 -2.79449 -2.75385 -2.7128 -2.67195 -2.63111 -2.59023 -2.54929 -2.50798 -2.46669 -2.42558 -2.3844 -2.34321 -2.30166 -2.26012 -2.21852 -2.17712 -2.13571 -2.09395 -2.05215 -2.01031 -1.96848 -1.92687 -1.88489 -1.84287 -1.80085 -1.75884 -1.71682 -1.7168 -1.71678 -1.71676 -1.71674 -1.71672 -1.67451 -1.6323 -1.5901 -1.54791 -1.5056 -1.46301 -1.42068 -1.37836 -1.33599 -1.29354 -1.25086 -1.20819 -1.16578 -1.12328 -1.08078 -1.03805 -0.995318 -0.952503 -0.909971 -0.867453 -0.824709 -0.781894 -0.739045 -0.696199 -0.653614 -0.620244 -0.586818 -0.553395 -0.519973 -0.487211 -0.477629 -0.468048 -0.458467 -0.448886 -0.439274 -0.396265 -0.353329 -0.310397 -0.267468 -0.22436 -0.181125 -0.138098 -0.0951613 -0.0520854 -0.00892581 0.0343331 0.0775883 0.120757 0.16395 0.207153 0.250444 0.293777 0.337326 0.380732 0.424022 0.467384 0.511017 0.554662 0.598304 0.641857 0.657028 0.672288 0.687548 0.702807 0.717936 0.746515 0.775092 0.803669 0.832245 0.861 0.905146 0.949142 0.993137 1.03723 1.08161 1.126 1.17036 1.21459 1.25922 1.30386 1.34849 1.39313 1.43813 1.48307 1.52802 1.57295 1.61819 1.66362 1.70905 1.75441 1.78645 1.8188 1.85116 1.88351 1.91511 1.92875 1.9424 1.95604 1.96968 1.98346 2.02978 2.07608 2.12239 2.16871 2.21566 2.2625 2.30936 2.35623 2.40368 2.45125 2.4987 2.54616 2.59412 2.64237 2.69065 2.7388 2.78736 2.83629 2.88522 2.9343 2.96918 3.00457 3.03996 3.07536 3.1095 3.12411 3.13872 3.15333 3.16794 3.18276 3.23327 3.28386 3.33444 3.38513 3.43663 3.488 3.53944 3.59107 3.64363 3.69625 3.74872 3.80119 3.85457 3.9083 3.96214 4.01584 4.07043 4.12517 4.17992 4.23486 4.24594 4.25724 4.26854 4.27984 4.29097 4.33564 4.3803 4.42497 4.46963 4.51516 4.57205 4.62928 4.68663 4.74482 4.80339 4.86183 4.92026 4.97962 5.03975 5.1 5.16009 5.22116 5.28248 5.3438 5.40538 5.41252 5.41978 5.42707 5.43435 5.44155 5.49702 5.55248 5.60793 5.66348 5.72014 5.78402 5.84807 5.91265 5.97839 6.04432 6.11006 6.17608 6.24308 6.31017 6.37802 6.41108 6.44462 6.4783 6.51197 6.54414 6.57943 6.61471 6.64999 6.68542 6.72146 6.79097 6.86103 6.93124 7.00258 7.07437 7.14569 7.21718 7.28975 7.36244 7.43599 7.46616 7.49664 7.52728 7.55792 7.58745 7.63105 7.67465 7.71824 7.76209 7.80647 7.88121 7.95602 8.03155 8.10786 8.1845 8.25328 8.32247 8.39201 8.46154 8.52634 8.53471 8.54308 8.55146 8.55987 8.56834 8.6458 8.72344 8.80107 8.87913 8.95769 9.03569 9.11377 9.19216 9.27054 9.3494 9.35857 9.36775 9.37693 9.38612 9.39525 9.46477 9.53428 9.60379 9.67335 9.74312 9.82161 9.90008 9.97841 10.0567 10.1354 10.15 10.1647 10.1792 10.1938 10.2083 10.2718 10.3354 10.3989 10.4622 10.5255 10.6028 10.68 10.7566 10.8332 10.9099 10.924 10.9381 10.952 10.966 10.98 11.0418 11.1037 11.1655 11.2268 11.2878 11.3622 11.4365 11.5097 11.583 11.6558 11.6696 11.6834 11.6969 11.7105 11.7242 11.7824 11.8407 11.899 11.9566 12.0136 12.0834 12.1533 12.2217 12.29 12.3578 12.3772 12.3964 12.4153 12.4343 12.4537 12.501 12.5484 12.5957 12.6424 12.6884 12.7525 12.8166 12.8795 12.9415 13.0032 13.039 13.0744 13.1092 13.1441 13.1817 13.2058 13.2299 13.254 13.2779 13.3013 13.3586 13.4157 13.4725 13.5278 13.5828 13.6365 13.6897 13.7419 13.794 13.8454 13.8604 13.875 13.8895 13.9041 13.9193 13.954 13.9886 14.0232 14.0576 14.0911 14.1376 14.1839 14.2299 14.2745 14.3188 14.3618 14.4045 14.4461 14.4876 14.5285 14.5578 14.5862 14.6146 14.643 14.6761 14.6852 14.6943 14.7034 14.7126 14.7215 14.7576 14.7935 14.8294 14.8652 14.9002 14.9336 14.9669 14.9999 15.0325 15.065 15.096 15.127 15.1576 15.1874 15.2172 15.2456 15.2745 15.3038 15.3331 15.3621 15.3891 15.4131 15.437 15.4609 15.4829 15.4978 15.5153 15.5326 15.5499 15.5802 15.5857 15.5912 15.5966 15.6021 15.6082 15.6271 15.6442 15.661 15.677 15.6698 15.6588 15.648 15.6376 15.6261 15.6144 15.5996 15.5846 15.5714 15.5605 15.5496 15.5357 15.521 15.5053 15.4894 15.4723 15.4514 15.4283 15.4052 15.382 15.3583 15.3519 15.3452 15.3385 15.3318 15.3247 15.3012 15.2777 15.2541 15.2305 15.2059 15.1693 15.132 15.0947 15.0573 15.0181 14.975 14.931 14.8866 14.841 14.7945 14.7441 14.6936 14.6413 14.5867 14.5322 14.4736 14.4149 14.3541 14.2912 14.2283 14.1612 14.094 14.0242 13.9522 13.88 13.8035 13.726 13.6467 13.5662 13.4845 13.3984 13.3098 13.2203 13.1306 13.0382 12.9408 12.84 12.7393 12.6385 12.5354 12.4247 12.3115 12.1983 12.0851 11.9706 11.8493 11.7267 11.6041 11.4814 11.338 11.3344 11.3307 11.327 11.3233 11.3196 11.1818 11.0439 10.9059 10.7679 10.6283 10.4716 10.3134 10.1552 9.99694 9.8358 9.66221 9.48316 9.30407 9.12495 8.93832 8.74217 8.54377 8.34535 8.14692 7.94583 7.73766 7.50705 7.27474 7.03772 6.78031 6.51392 6.26193 6.01602 5.77827 5.55374 5.32126 5.04214 4.71396 4.32447 3.89522 3.45033 3.05028 2.77625 2.63352 2.5299 2.42221 2.31322 1.80461 0.901567 0