y,nut_ML,nut_RNG
0.0508,1.99637e-05,1.6141e-07
