y,U_ML_0,U_ML_1,U_ML_2,U_RNG_0,U_RNG_1,U_RNG_2
0.0508,46.8423,-0.182026,0,48.3577,-0.21531,0
