y,U_ML_0,U_ML_1,U_ML_2,U_RNG_0,U_RNG_1,U_RNG_2
0,0,0,0,0,0,0
1.15767e-05,0.84382,-0.00201532,-1.81892e-22,0.31479,-0.000535281,-5.2352e-25
2.48888e-05,1.48769,-0.00498782,1.3196e-22,0.574101,-0.00234949,-3.04832e-24
4.02163e-05,1.97062,-0.00785646,-5.21964e-22,0.747803,-0.00517652,-2.30233e-24
5.78882e-05,2.33874,-0.0110356,-2.73439e-22,0.868572,-0.0088482,1.62298e-24
7.82917e-05,2.6431,-0.0151635,5.56614e-22,0.965408,-0.0135137,1.14859e-24
0.000101883,2.9078,-0.0207698,-1.10435e-21,1.05109,-0.0193011,-1.04666e-23
0.000129201,3.14277,-0.0281753,5.39773e-22,1.13188,-0.0263553,-1.65367e-23
0.000160882,3.35485,-0.037684,-3.21288e-21,1.21145,-0.0348738,-4.68524e-23
0.000197681,3.5511,-0.0497087,-2.07508e-21,1.2924,-0.0451079,3.63104e-23
0.000240493,3.73803,-0.0647691,3.82694e-21,1.37686,-0.057365,-3.90573e-23
0.000290379,3.92095,-0.0834573,7.23298e-21,1.46679,-0.0720155,4.34309e-23
0.000348605,4.10446,-0.106451,-1.14303e-21,1.5642,-0.0895042,1.40078e-22
0.000416677,4.29308,-0.134547,-5.95153e-21,1.67129,-0.110365,-6.85843e-23
0.000496392,4.49169,-0.16869,-9.18109e-21,1.79057,-0.135236,2.53658e-23
0.000589899,4.70554,-0.210015,-3.71598e-22,1.92504,-0.164883,1.26756e-24
0.000699764,4.94026,-0.259875,5.43631e-21,2.07838,-0.20022,4.6335e-22
0.000829066,5.20182,-0.319785,-1.56891e-22,2.25514,-0.242336,3.09372e-24
0.000981493,5.49742,-0.391394,3.30243e-20,2.46105,-0.292531,-1.29376e-22
0.00116147,5.83736,-0.476736,1.83755e-22,2.70352,-0.352348,-1.14191e-24
0.00137434,6.23569,-0.578394,-2.82435e-20,2.99213,-0.423609,-4.05223e-22
0.00162648,6.70885,-0.699034,1.26292e-19,3.33953,-0.50847,-2.45642e-21
0.00192562,7.27695,-0.841262,7.1947e-20,3.76262,-0.609447,-1.66311e-21
0.00228106,7.96965,-1.00839,-7.07731e-20,4.28423,-0.72936,1.86207e-21
0.00270401,8.76858,-1.1906,2.90869e-20,4.88901,-0.861269,1.51881e-22
0.00308362,9.59063,-1.36604,4.489e-20,5.51445,-0.98964,-1.26414e-21
0.00344943,10.407,-1.5287,-1.77739e-19,6.14029,-1.11032,7.49664e-21
0.0038084,11.2428,-1.68423,8.74032e-20,6.78545,-1.22727,-6.66806e-21
0.00416715,12.1125,-1.83527,-8.70971e-20,7.46146,-1.34239,5.20004e-21
0.00453208,13.03,-1.98383,-1.66704e-19,8.18141,-1.45744,8.2994e-21
0.00490948,14.0103,-2.13174,9.42355e-20,8.96016,-1.57392,-4.14983e-21
0.00530563,15.0707,-2.28036,-2.06194e-20,9.8147,-1.69315,2.77243e-21
0.00572698,16.2318,-2.43046,1.86564e-19,10.7644,-1.81616,-1.38807e-20
0.00618017,17.5155,-2.58219,-6.84857e-20,11.8313,-1.94363,5.61903e-21
0.00667222,18.8883,-2.72922,-7.14595e-20,12.9944,-2.07084,3.08515e-21
0.0071306,20.2645,-2.86232,7.07596e-20,14.1865,-2.18973,-5.38952e-21
0.00758188,21.6184,-2.98067,-6.62263e-20,15.3889,-2.29892,7.03127e-21
0.00802708,22.9636,-3.0866,-2.22101e-20,16.6148,-2.40016,1.59478e-21
0.00846704,24.296,-3.18057,4.56476e-20,17.861,-2.49347,-3.90769e-21
0.00890252,25.6099,-3.26299,6.81546e-20,19.1237,-2.57885,-5.72001e-21
0.00933414,26.8954,-3.33426,-4.36645e-22,20.3978,-2.65631,1.46405e-23
0.00976245,28.1435,-3.39495,-2.4171e-20,21.6775,-2.72584,7.2454e-22
0.0101879,29.3483,-3.4456,0,22.9555,-2.7875,0
0.0106109,30.5033,-3.48662,0,24.2232,-2.84137,0
0.0110319,31.5987,-3.51855,-5.57934e-21,25.4709,-2.88764,1.23658e-21
0.011451,32.6231,-3.54244,1.21775e-20,26.6873,-2.92657,-1.78813e-21
0.0118686,33.5658,-3.5595,5.41759e-21,27.8599,-2.95855,-1.22305e-21
0.0122849,34.42,-3.57084,-1.23393e-20,28.9762,-2.98407,1.80179e-21
0.0127,35.1716,-3.57717,1.43999e-21,30.0057,-3.00341,-3.96808e-22
0.0130748,35.8186,-3.57943,-9.30193e-21,30.9297,-3.01749,1.5258e-21
0.0134728,36.3956,-3.57858,-3.76686e-20,31.7848,-3.02798,7.5447e-21
0.0138957,36.9254,-3.57509,-1.4092e-20,32.5963,-3.0358,3.76392e-21
0.0143452,37.4063,-3.56923,6.30099e-20,33.3554,-3.04123,-1.49594e-20
0.0148233,37.8412,-3.5612,2.37289e-20,34.0595,-3.04456,-5.4161e-21
0.0153318,38.2369,-3.55102,4.12436e-21,34.7122,-3.04602,-1.04644e-22
0.0158732,38.6017,-3.53866,1.24396e-21,35.3222,-3.04573,-3.48651e-22
0.0164499,38.9443,-3.52401,-2.93517e-20,35.9002,-3.0437,7.44719e-21
0.0170647,39.2722,-3.50685,1.44673e-20,36.4574,-3.03984,-7.38513e-21
0.0177206,39.5903,-3.4869,8.77509e-20,37.0031,-3.03398,-3.51956e-20
0.018421,39.9025,-3.46393,4.13748e-20,37.5452,-3.0259,-2.03877e-20
0.0191698,40.2116,-3.43765,-6.99714e-20,38.089,-3.01554,2.4654e-20
0.0199712,40.5233,-3.40727,-4.85986e-20,38.6467,-3.00275,2.22031e-20
0.0209503,40.8518,-3.37063,-4.42741e-20,39.2445,-2.98599,2.86314e-20
0.0220143,41.1946,-3.32722,-3.03549e-20,39.8786,-2.96405,2.60515e-20
0.0231718,41.5386,-3.27784,2.90056e-20,40.5268,-2.93696,-2.13403e-20
0.0244326,41.8804,-3.22218,2.72378e-20,41.1842,-2.90438,-2.17729e-20
0.0258078,42.217,-3.15986,3.24505e-21,41.8453,-2.86565,3.52352e-21
0.0273099,42.5452,-3.09043,1.92619e-22,42.5037,-2.82002,2.82015e-23
0.0289533,42.8619,-3.01338,-2.66976e-20,43.1507,-2.76654,3.94465e-20
0.0307544,43.1638,-2.92818,1.70756e-20,43.7756,-2.70419,-3.7987e-20
0.0327322,43.4461,-2.83443,1.0586e-20,44.365,-2.63187,-1.28196e-21
0.0349085,43.7031,-2.73183,-2.78024e-20,44.9032,-2.54855,6.85413e-20
0.0373085,43.9295,-2.62031,1.33598e-20,45.3732,-2.45348,-3.35458e-20
0.0399613,44.1213,-2.49996,8.67049e-21,45.7591,-2.34656,-2.55453e-20
0.0429011,44.277,-2.37101,-1.48045e-21,46.05,-2.2286,-1.27957e-21
0.0461675,44.3983,-2.23438,-4.78205e-22,46.2451,-2.10176,2.26725e-20
0.0498071,44.4899,-2.0905,-1.58962e-21,46.3577,-1.96828,-2.60871e-20
0.0538744,44.5595,-1.94071,1.34923e-22,46.4146,-1.83105,-2.38672e-20
0.0584337,44.6146,-1.78687,-4.79222e-23,46.4452,-1.69153,1.29812e-20
0.0631441,44.6603,-1.63603,-1.0319e-22,46.4671,-1.55467,-6.76041e-22
0.0680914,44.6951,-1.48866,1.93055e-21,46.4799,-1.42042,1.27384e-20
0.0732937,44.7027,-1.34235,1.49501e-21,46.4642,-1.28664,6.06407e-21
0.0787704,44.6209,-1.19275,8.35825e-22,46.3395,-1.14778,3.2568e-21
0.0845614,44.2417,-1.03104,-9.57382e-22,45.8207,-0.992541,-4.18693e-21
0.0903998,43.3281,-0.86383,-4.64231e-21,44.5626,-0.824225,-1.70038e-20
0.0945097,42.0726,-0.721634,1.08568e-21,42.8367,-0.678845,4.27318e-21
0.0979158,40.7304,-0.608179,2.52237e-21,41.04,-0.566252,9.47538e-21
0.100739,39.3809,-0.511997,-7.41243e-22,39.3011,-0.472648,-2.78874e-21
0.103078,38.0427,-0.428716,-5.06816e-22,37.6313,-0.392659,-1.68984e-21
0.105017,36.7183,-0.35665,-4.97127e-22,36.0283,-0.324971,-1.86035e-21
0.106624,35.4003,-0.293447,8.79404e-22,34.4872,-0.267061,3.27342e-21
0.107956,34.0909,-0.238476,-4.65972e-22,33.0044,-0.217932,-1.33543e-21
0.10906,32.7937,-0.190928,3.39437e-21,31.578,-0.176391,1.17514e-20
0.109974,31.5084,-0.150126,6.14082e-21,30.2069,-0.14163,2.13988e-20
0.110733,30.2358,-0.115554,-6.37762e-22,28.8898,-0.11283,-2.17578e-21
0.111361,28.9765,-0.086691,-3.97717e-21,27.6247,-0.08923,-1.38361e-20
0.111882,27.7356,-0.0630415,-2.76367e-21,26.4083,-0.0700898,-9.35964e-21
0.112314,26.5232,-0.0441684,-7.2805e-22,25.236,-0.0547105,-2.66922e-21
0.112671,25.3427,-0.0295185,2.80544e-21,24.1024,-0.042453,9.56239e-21
0.112968,24.186,-0.018451,-6.84721e-22,23.0011,-0.032751,-2.01073e-21
0.113214,23.0388,-0.0103417,7.51052e-22,21.9251,-0.0251162,2.26016e-21
0.113417,21.8882,-0.00462651,3.43272e-21,20.8671,-0.0191374,1.10137e-20
0.113586,20.7225,-0.000822107,8.21036e-22,19.8193,-0.0144754,2.77942e-21
0.113726,19.5307,0.0014987,-1.46236e-21,18.7731,-0.0108539,-4.38568e-21
0.113842,18.2994,0.00270171,-1.00179e-21,17.7189,-0.00805104,-3.25914e-21
0.113938,17.014,0.0031,6.77492e-22,16.6454,-0.0058904,1.92221e-21
0.114018,15.6596,0.00295726,-2.19141e-21,15.5381,-0.0042325,-5.78937e-21
0.114084,14.2157,0.00248346,-1.24224e-21,14.3774,-0.0029679,-3.45594e-21
0.114139,12.6465,0.00182825,1.09712e-21,13.1335,-0.00201145,2.92817e-21
0.114184,10.9041,0.00110639,1.06844e-21,11.7572,-0.00129833,2.82341e-21
0.114222,8.94763,0.000447925,1.54272e-21,10.1533,-0.000781136,4.11315e-21
0.114253,6.76146,1.06849e-05,-3.38728e-22,8.08882,-0.000414039,-1.23827e-21
0.114279,4.21807,-7.94843e-05,5.07689e-23,4.92514,-0.000171379,2.2825e-22
0.1143,0,0,0,0,0,0
