/*--------------------------------*- C++ -*----------------------------------*\
| =========                 |                                                 |
| \\      /  F ield         | OpenFOAM: The Open Source CFD Toolbox           |
|  \\    /   O peration     | Version:  2312                                  |
|   \\  /    A nd           | Website:  www.openfoam.com                      |
|    \\/     M anipulation  |                                                 |
\*---------------------------------------------------------------------------*/
FoamFile
{
    version     2.0;
    format      ascii;
    arch        "LSB;label=64;scalar=64";
    class       volScalarField;
    location    "10";
    object      p;
}
// * * * * * * * * * * * * * * * * * * * * * * * * * * * * * * * * * * * * * //

dimensions      [0 2 -2 0 0 0 0];

internalField   nonuniform List<scalar> 
404911
(
0.166851
0.166537
0.166484
0.166675
0.167176
0.166842
0.166619
0.166672
0.166675
0.166675
0.169642
0.168928
0.168062
0.167573
0.167152
0.166875
0.170727
0.17002
0.169215
0.168475
0.172013
0.171349
0.170533
0.173382
0.172729
0.172109
0.174696
0.174064
0.173458
0.176581
0.176021
0.175354
0.174689
0.173981
0.177198
0.17658
0.175919
0.179044
0.178423
0.177774
0.177173
0.179912
0.179488
0.178935
0.178364
0.1779
0.180502
0.179954
0.179406
0.178832
0.181663
0.181049
0.180432
0.17992
0.181887
0.181466
0.18672
0.165951
0.166972
0.166623
0.168711
0.167988
0.170758
0.169927
0.169201
0.172039
0.171376
0.170573
0.173365
0.172474
0.174697
0.174167
0.173257
0.176072
0.175426
0.174623
0.173874
0.177267
0.17656
0.178527
0.177545
0.179598
0.17921
0.178284
0.1808
0.179936
0.182013
0.181131
0.180468
0.182445
0.181728
0.186728
0.187285
0.186509
0.1893
0.188518
0.187833
0.190671
0.189887
0.189163
0.191896
0.191347
0.190557
0.191893
0.0627077
0.0620035
0.0613115
0.0663486
0.0654716
0.0644906
0.0637979
0.0631196
0.0624807
0.0619186
0.0610715
0.0683684
0.0676828
0.0659375
0.0649271
0.0640154
0.0635131
0.0629061
0.0622586
0.0596319
0.0709217
0.0701509
0.069419
0.0687225
0.0681147
0.0675795
0.0665957
0.0654726
0.0645142
0.063942
0.0633283
0.0625861
0.0616351
0.0605526
0.0597666
0.0591755
0.0730091
0.0721006
0.0712136
0.0704069
0.0696784
0.0690164
0.0684117
0.0678421
0.0671675
0.0661322
0.0652037
0.0644909
0.0638438
0.0630919
0.0598554
0.075515
0.0743981
0.0733329
0.0723284
0.0713779
0.070563
0.0698722
0.0692495
0.0686452
0.0680273
0.0673156
0.0665178
0.0657174
0.0649932
0.0644512
0.0770949
0.0761601
0.0749713
0.0738761
0.0728351
0.0717312
0.0707795
0.0700284
0.0694844
0.0689083
0.0682745
0.067592
0.0668522
0.0661135
0.0654087
0.0647926
0.0797758
0.0786759
0.0776877
0.0766668
0.0754435
0.0743877
0.0733486
0.0721802
0.0711194
0.0702736
0.0697847
0.0692081
0.0685739
0.0678943
0.0671795
0.0664557
0.0657982
0.0835117
0.0824422
0.0815404
0.080373
0.0792356
0.078206
0.0772173
0.0760512
0.0749663
0.073816
0.0725754
0.0715107
0.0707302
0.070168
0.0695724
0.0689196
0.068238
0.0675118
0.0852749
0.0842982
0.0831249
0.082097
0.0809901
0.0798275
0.0787926
0.0776637
0.0766032
0.0754402
0.0743234
0.0730149
0.0717852
0.0711704
0.0706045
0.0699761
0.069306
0.0686204
0.0876568
0.0868308
0.0860246
0.0850461
0.0838537
0.0827171
0.0816173
0.0804476
0.0793673
0.0782397
0.0771219
0.0760384
0.074907
0.0737025
0.0724758
0.0716398
0.0710807
0.0704679
0.0891252
0.0882299
0.0873932
0.0866198
0.0855904
0.0844639
0.0833861
0.0822388
0.0810929
0.0800053
0.07887
0.077769
0.0766062
0.075552
0.0745187
0.0733505
0.0722834
0.0912865
0.0904872
0.0896479
0.0888648
0.0880429
0.0872006
0.0862225
0.0851381
0.0840016
0.082888
0.0817463
0.0805734
0.07949
0.0784005
0.0772507
0.0761526
0.0752274
0.0934762
0.0924904
0.0916883
0.0911265
0.0904114
0.089568
0.0887075
0.0878861
0.086961
0.0858907
0.0847275
0.083493
0.0822983
0.0811051
0.0801519
0.0790001
0.0777659
0.07678
0.0964005
0.095506
0.0942666
0.0931573
0.092127
0.0917867
0.0910471
0.0902225
0.0893963
0.0886297
0.0878562
0.0866808
0.0854069
0.0841143
0.08284
0.0815967
0.0806329
0.0796836
0.0983508
0.0976746
0.0970438
0.0963705
0.0952235
0.0939949
0.0928445
0.0923279
0.0917019
0.0908766
0.0899906
0.08926
0.0887469
0.087506
0.0859972
0.0846285
0.0834895
0.0821759
0.0996119
0.0988136
0.0981409
0.0975315
0.0969732
0.0960173
0.0949335
0.0937834
0.092841
0.0922651
0.0912699
0.0903422
0.0897365
0.0892515
0.088106
0.0865515
0.0850419
0.0839987
0.101689
0.100866
0.100016
0.0992173
0.0985901
0.0978854
0.0972096
0.0965902
0.0957656
0.0948211
0.0935751
0.09284
0.0919852
0.0909987
0.0901394
0.0896344
0.0886728
0.0871609
0.103152
0.102134
0.101317
0.10056
0.0996576
0.0989713
0.0984512
0.0975336
0.0967748
0.0963494
0.0958263
0.0949238
0.0938438
0.0928051
0.0917583
0.0907929
0.0900386
0.0890735
0.106204
0.105299
0.104016
0.102864
0.101897
0.101235
0.100405
0.0996278
0.0989176
0.0980415
0.0970568
0.0966873
0.0962557
0.0956699
0.0948597
0.0937576
0.0925283
0.0914702
0.107591
0.106907
0.106264
0.105075
0.103883
0.102903
0.102007
0.101226
0.100435
0.0995867
0.0986721
0.0976556
0.0971394
0.0966318
0.0960197
0.0952832
0.0943466
0.109485
0.108822
0.108111
0.107538
0.106971
0.105978
0.104763
0.103797
0.102935
0.102016
0.1011
0.100281
0.0992902
0.0982589
0.0977157
0.0971331
0.0964599
0.0956974
0.110835
0.110088
0.109416
0.108653
0.107999
0.107469
0.106491
0.105501
0.104629
0.103721
0.10289
0.101922
0.10095
0.0998788
0.0989736
0.0982921
0.0976738
0.0969875
0.112027
0.111363
0.110708
0.110055
0.109204
0.108346
0.10767
0.10695
0.106046
0.105446
0.104805
0.103819
0.102717
0.101693
0.100619
0.0997778
0.0989672
0.0982433
0.113946
0.113242
0.112589
0.111962
0.111342
0.1108
0.110074
0.10904
0.107979
0.10714
0.106277
0.105774
0.105219
0.104635
0.103552
0.102425
0.101386
0.10048
0.115748
0.115074
0.114401
0.11378
0.113161
0.112569
0.111928
0.111266
0.110683
0.109688
0.10869
0.107738
0.106667
0.106123
0.105549
0.10486
0.103965
0.103017
0.116941
0.116235
0.115542
0.114915
0.114304
0.113733
0.113211
0.112667
0.111777
0.1109
0.11012
0.109322
0.108295
0.107193
0.106591
0.105985
0.105272
0.104469
0.118784
0.118075
0.117361
0.116686
0.116015
0.115394
0.114809
0.114266
0.113801
0.113388
0.112519
0.111669
0.110765
0.109817
0.109056
0.10805
0.1072
0.106518
0.119936
0.119227
0.1185
0.117831
0.117135
0.116456
0.11584
0.115271
0.11474
0.114261
0.113837
0.113171
0.112368
0.111463
0.110418
0.109659
0.108721
0.107861
0.121286
0.120412
0.119599
0.118944
0.11829
0.117551
0.116831
0.116235
0.115697
0.11517
0.114643
0.11409
0.113442
0.112675
0.111819
0.110965
0.110113
0.109204
0.122808
0.121974
0.120916
0.119945
0.119454
0.118847
0.11801
0.117106
0.11658
0.116115
0.115594
0.115032
0.114425
0.113757
0.113019
0.112251
0.111399
0.110593
0.124756
0.124115
0.123484
0.122814
0.12175
0.120695
0.120134
0.119613
0.118757
0.117763
0.117032
0.116589
0.116052
0.11546
0.114822
0.114171
0.113455
0.112634
0.126036
0.125316
0.124622
0.123931
0.123163
0.12227
0.121416
0.120797
0.120376
0.119544
0.118557
0.117703
0.11715
0.116562
0.115925
0.11529
0.114624
0.11394
0.127331
0.126641
0.125872
0.125167
0.124296
0.123341
0.122474
0.12181
0.121237
0.120731
0.120107
0.119264
0.118434
0.117748
0.117098
0.11645
0.115754
0.115129
0.128596
0.127884
0.127165
0.126431
0.125799
0.124948
0.123787
0.122617
0.122114
0.121606
0.121061
0.120451
0.119739
0.119018
0.118314
0.117636
0.11697
0.13061
0.129948
0.129203
0.128473
0.127697
0.126935
0.126358
0.125574
0.124424
0.123006
0.12246
0.122001
0.121476
0.120881
0.120225
0.11956
0.118831
0.118117
0.131942
0.131245
0.130543
0.129851
0.129081
0.128224
0.12732
0.126668
0.126064
0.125012
0.123549
0.122826
0.122451
0.121956
0.121375
0.120753
0.120096
0.119429
0.133084
0.132469
0.131841
0.13121
0.130596
0.129814
0.128881
0.128033
0.127099
0.126493
0.12576
0.124697
0.123506
0.123042
0.122517
0.121931
0.121287
0.120616
0.134859
0.134281
0.133647
0.133056
0.132476
0.131923
0.131444
0.130718
0.129689
0.128671
0.127675
0.126875
0.126391
0.125456
0.124424
0.12377
0.123151
0.122513
0.136002
0.1354
0.134804
0.134218
0.13364
0.133083
0.132567
0.132145
0.131491
0.130409
0.129342
0.128223
0.127182
0.126794
0.126129
0.125265
0.124498
0.123727
0.137156
0.136542
0.135939
0.135349
0.13476
0.134195
0.133649
0.133125
0.132663
0.132201
0.131442
0.129987
0.12894
0.127749
0.127241
0.126638
0.125876
0.125182
0.138333
0.137696
0.137074
0.13647
0.135877
0.135293
0.134738
0.134199
0.133625
0.133015
0.132462
0.13197
0.130733
0.129599
0.128535
0.127878
0.127213
0.126487
0.139519
0.138916
0.138224
0.137601
0.13697
0.136379
0.135813
0.135277
0.134774
0.134197
0.133317
0.132618
0.132124
0.131278
0.130177
0.129343
0.128595
0.141335
0.140697
0.140044
0.139417
0.138755
0.138109
0.137439
0.13683
0.136298
0.135807
0.135374
0.135046
0.134122
0.133268
0.132336
0.13171
0.130872
0.130052
0.142446
0.141829
0.141213
0.140584
0.139972
0.139348
0.138656
0.137848
0.137172
0.136717
0.136307
0.135901
0.135569
0.134906
0.133894
0.132929
0.132211
0.131469
0.143606
0.142972
0.142342
0.141736
0.141109
0.140525
0.139986
0.139426
0.138485
0.137626
0.137158
0.13678
0.136334
0.135859
0.135259
0.134416
0.133571
0.132789
0.144784
0.144126
0.143477
0.142844
0.142219
0.141604
0.141046
0.140561
0.140185
0.139442
0.13846
0.137784
0.137305
0.136794
0.136232
0.135586
0.134874
0.134125
0.146021
0.145316
0.144621
0.143969
0.14331
0.142671
0.142057
0.141498
0.140997
0.140538
0.139958
0.139202
0.138477
0.137877
0.137293
0.136676
0.136038
0.135304
0.147337
0.146569
0.145806
0.145103
0.144415
0.143747
0.143092
0.142462
0.141886
0.14137
0.140859
0.140303
0.139672
0.139025
0.138409
0.13781
0.137187
0.136543
0.148731
0.147971
0.147096
0.14626
0.145497
0.144823
0.144172
0.143492
0.142806
0.142211
0.141728
0.141251
0.14073
0.140149
0.139541
0.138941
0.138328
0.137706
0.150034
0.149401
0.148706
0.147728
0.146573
0.145814
0.145192
0.144627
0.143941
0.143106
0.142416
0.142087
0.141703
0.141214
0.140659
0.140075
0.139474
0.138872
0.151897
0.151313
0.150683
0.150121
0.1496
0.148805
0.147503
0.146248
0.145474
0.145108
0.144707
0.143926
0.143208
0.142636
0.142249
0.141758
0.141198
0.14061
0.140027
0.153056
0.152484
0.151886
0.15132
0.150777
0.150381
0.149789
0.148648
0.147522
0.146587
0.145721
0.14537
0.144809
0.144048
0.143396
0.142891
0.142347
0.141776
0.153616
0.153039
0.152467
0.151894
0.151382
0.150953
0.150544
0.14997
0.148512
0.147522
0.146744
0.145949
0.145573
0.14491
0.144178
0.143558
0.142938
0.155408
0.154808
0.154195
0.153608
0.153023
0.152447
0.151905
0.151441
0.151062
0.150465
0.149263
0.14833
0.147469
0.146666
0.146098
0.145484
0.144828
0.144192
0.156539
0.155921
0.155321
0.154743
0.154165
0.153585
0.152981
0.15235
0.151833
0.151497
0.150984
0.14991
0.149034
0.14805
0.147411
0.146762
0.146104
0.145389
0.157617
0.156991
0.156411
0.155843
0.155283
0.154729
0.154182
0.15357
0.152693
0.152054
0.151811
0.151495
0.150571
0.149742
0.148848
0.148087
0.147422
0.146758
0.158016
0.157382
0.156884
0.156352
0.155811
0.155282
0.154809
0.154413
0.15345
0.152697
0.152104
0.151758
0.15112
0.150297
0.149524
0.148772
0.148067
0.159683
0.158626
0.157782
0.157386
0.156882
0.156324
0.155783
0.155343
0.155041
0.154033
0.153219
0.152581
0.152118
0.151512
0.150828
0.150112
0.149402
0.162827
0.161701
0.160571
0.159447
0.158475
0.157974
0.157448
0.156845
0.15618
0.155713
0.15547
0.154638
0.1537
0.153173
0.152637
0.152027
0.151339
0.150682
0.164111
0.163482
0.162445
0.161305
0.160114
0.159203
0.158592
0.158071
0.157475
0.156672
0.156088
0.155827
0.155324
0.154484
0.15381
0.153205
0.152586
0.16527
0.16463
0.16389
0.16286
0.161855
0.160611
0.159662
0.159133
0.158692
0.158249
0.157486
0.156823
0.156239
0.155771
0.155112
0.154429
0.153784
0.167265
0.166527
0.165853
0.165204
0.164458
0.163481
0.162538
0.16155
0.160323
0.159684
0.159121
0.15869
0.15817
0.157544
0.156885
0.156323
0.155679
0.155052
0.168521
0.167787
0.167012
0.16639
0.165844
0.165235
0.164428
0.163495
0.162504
0.16134
0.160739
0.160076
0.159134
0.158494
0.158048
0.157508
0.156945
0.156336
0.17003
0.169073
0.168371
0.167642
0.167026
0.166595
0.166122
0.165415
0.164624
0.163631
0.162723
0.161921
0.161087
0.16019
0.159195
0.158645
0.158162
0.157589
0.171647
0.170907
0.169965
0.169119
0.168466
0.167853
0.167271
0.166958
0.166426
0.16565
0.164716
0.1638
0.162996
0.162174
0.161272
0.160224
0.159494
0.158882
0.173678
0.172972
0.172265
0.171508
0.170756
0.169934
0.169181
0.168531
0.167959
0.167483
0.166924
0.166269
0.165564
0.164782
0.16418
0.163367
0.162447
0.161279
0.160341
0.174901
0.174242
0.173569
0.172902
0.172181
0.171413
0.170645
0.169795
0.169165
0.168564
0.167983
0.167372
0.166818
0.166237
0.165487
0.164702
0.163969
0.163058
0.162157
0.175537
0.174865
0.174098
0.173475
0.172763
0.172008
0.17123
0.170471
0.169742
0.169049
0.16848
0.167874
0.167274
0.16664
0.165931
0.165205
0.164409
0.163596
0.177031
0.176297
0.175558
0.17478
0.174067
0.173316
0.172544
0.171853
0.171145
0.170316
0.169599
0.168886
0.168375
0.167768
0.167111
0.166426
0.165713
0.178411
0.177693
0.176979
0.17621
0.17542
0.174666
0.173943
0.173214
0.172435
0.171698
0.170849
0.170189
0.169526
0.168937
0.168309
0.167649
0.166896
0.179888
0.179012
0.178337
0.177559
0.176849
0.17604
0.175318
0.174617
0.173882
0.173044
0.172262
0.171423
0.170794
0.170167
0.169518
0.168886
0.168227
0.181861
0.181176
0.180498
0.179682
0.17886
0.178087
0.177396
0.176572
0.175893
0.175214
0.174504
0.17375
0.172836
0.172003
0.171416
0.170785
0.170108
0.169466
0.183245
0.182516
0.181738
0.181016
0.180165
0.179369
0.178615
0.17783
0.177043
0.176442
0.175787
0.175148
0.174404
0.17359
0.172756
0.172083
0.171401
0.18464
0.183916
0.183175
0.182353
0.181454
0.180562
0.179832
0.179173
0.178373
0.177634
0.17702
0.176327
0.175684
0.175036
0.174226
0.173454
0.17274
0.186021
0.185283
0.184587
0.18382
0.182818
0.181872
0.181033
0.180164
0.179635
0.178955
0.178292
0.177655
0.177002
0.176257
0.175566
0.174823
0.174081
0.187444
0.186694
0.185924
0.185096
0.184352
0.183302
0.182371
0.181467
0.180798
0.180116
0.179563
0.178917
0.17825
0.177588
0.176868
0.176174
0.175453
0.188801
0.1881
0.187352
0.186604
0.185763
0.184873
0.183918
0.182934
0.181886
0.181349
0.180863
0.180236
0.179528
0.178851
0.178183
0.177489
0.176782
0.190161
0.189359
0.188686
0.187975
0.187256
0.186442
0.185483
0.184566
0.183675
0.182757
0.182051
0.181534
0.180914
0.180159
0.179462
0.17878
0.178097
0.190855
0.189898
0.18934
0.188588
0.187877
0.187031
0.186192
0.185358
0.18432
0.1834
0.182634
0.182071
0.181442
0.180759
0.180057
0.179351
0.192821
0.191798
0.190822
0.190068
0.189152
0.188449
0.18766
0.186755
0.185852
0.184954
0.18404
0.183244
0.182674
0.182051
0.181372
0.195376
0.194758
0.193724
0.192631
0.191628
0.190725
0.189831
0.189307
0.188431
0.18739
0.186316
0.185358
0.184689
0.183974
0.183313
0.182664
0.196749
0.196099
0.195463
0.194499
0.193442
0.192505
0.191423
0.190549
0.189739
0.189052
0.188126
0.186911
0.185705
0.185164
0.184585
0.183977
0.198079
0.19749
0.196878
0.196033
0.195114
0.194154
0.193296
0.19253
0.191583
0.190577
0.189794
0.189092
0.187872
0.186727
0.185848
0.1853
0.2001
0.19941
0.198735
0.198133
0.197635
0.196706
0.195818
0.194941
0.194152
0.193281
0.192406
0.191324
0.190246
0.189686
0.188769
0.187782
0.201337
0.200615
0.199973
0.199394
0.198795
0.198157
0.197295
0.196474
0.195709
0.195026
0.194189
0.193323
0.192263
0.191244
0.190368
0.189639
0.202731
0.201882
0.201091
0.200451
0.199948
0.199386
0.19862
0.197884
0.197133
0.196489
0.195934
0.195359
0.194379
0.193281
0.192198
0.191157
0.204311
0.203367
0.202426
0.201439
0.200913
0.200452
0.199896
0.19919
0.198463
0.197758
0.197212
0.19668
0.196152
0.195403
0.194224
0.193145
0.205937
0.205077
0.204158
0.203285
0.202381
0.201593
0.201077
0.200495
0.199792
0.199031
0.198278
0.197701
0.197189
0.196604
0.195861
0.194926
0.207553
0.206772
0.205864
0.204983
0.204147
0.203406
0.202647
0.201943
0.201237
0.200429
0.19958
0.198784
0.198313
0.197706
0.197085
0.208938
0.208352
0.207573
0.206658
0.205773
0.204913
0.204181
0.203491
0.202793
0.202013
0.201249
0.200329
0.199449
0.198932
0.198317
0.197694
0.210165
0.209554
0.208979
0.208259
0.207445
0.206528
0.205786
0.204948
0.204323
0.203588
0.202878
0.202154
0.201275
0.20036
0.199666
0.198938
0.211362
0.210751
0.21014
0.209563
0.208878
0.208071
0.207324
0.206551
0.205815
0.205099
0.204413
0.203761
0.203106
0.20219
0.201236
0.212355
0.211483
0.210882
0.210329
0.209595
0.208815
0.208032
0.207323
0.20664
0.205963
0.205203
0.204472
0.203686
0.202886
0.214857
0.213699
0.212592
0.2118
0.211063
0.210313
0.209523
0.208804
0.208082
0.207419
0.206759
0.205922
0.205143
0.216993
0.21642
0.215637
0.214752
0.213629
0.212681
0.211896
0.211072
0.210292
0.20954
0.208767
0.208067
0.207343
0.206516
0.218261
0.217599
0.21697
0.216263
0.215379
0.214463
0.213547
0.212619
0.211828
0.211015
0.210176
0.209443
0.208732
0.208003
0.219591
0.218959
0.218272
0.217506
0.21689
0.216097
0.215223
0.214305
0.213452
0.212683
0.211753
0.210863
0.210155
0.209424
0.220797
0.220294
0.219725
0.219054
0.218323
0.217568
0.216823
0.215962
0.215053
0.214216
0.213486
0.212543
0.211686
0.210845
0.221863
0.221392
0.220997
0.220526
0.219872
0.219226
0.218399
0.217627
0.2167
0.215706
0.214842
0.214121
0.213273
0.212453
0.222914
0.222377
0.221921
0.221745
0.221312
0.220697
0.220013
0.219367
0.218582
0.217604
0.216343
0.215479
0.214763
0.222509
0.222285
0.221639
0.22085
0.220273
0.21967
0.218533
0.217194
0.216157
0.223232
0.223069
0.222492
0.221661
0.220882
0.220312
0.219413
0.218174
0.224673
0.22393
0.223702
0.223385
0.222619
0.221703
0.220933
0.22692
0.226076
0.225118
0.224425
0.224061
0.223386
0.222537
0.22702
0.2263
0.225547
0.224841
0.224191
0.2301
0.22888
0.22758
0.22709
0.226376
0.225659
0.236148
0.235575
0.232452
0.231306
0.227793
0.236424
0.235649
0.234877
0.234178
0.23347
0.229724
0.237663
0.234465
0.233769
0.23306
0.23201
0.238325
0.236522
0.234799
0.013075
0.0123281
0.0116543
0.0181866
0.0172853
0.0162624
0.0153307
0.014364
0.0134268
0.0125824
0.0118516
0.00891704
0.0225364
0.0215984
0.0205189
0.0195305
0.0185299
0.0175511
0.0165799
0.0156137
0.0146288
0.0136627
0.0127598
0.0119381
0.0111071
0.0101924
0.00933057
0.025966
0.0249623
0.0239139
0.0228727
0.0218478
0.0208047
0.0197925
0.018809
0.0178516
0.0169036
0.0159372
0.0148755
0.0138162
0.012867
0.0120195
0.011191
0.0103414
0.00949248
0.0086374
0.00762833
0.00652134
0.00543605
0.0296844
0.0286096
0.0274358
0.0263016
0.0252154
0.0241789
0.0231596
0.0221213
0.0210699
0.0200384
0.019058
0.0181296
0.0172392
0.0163521
0.0153236
0.0140314
0.0128615
0.0120935
0.0113039
0.010485
0.00964089
0.00876182
0.00781018
0.0334674
0.0323587
0.0313117
0.0301754
0.0289948
0.0277223
0.0265113
0.0254311
0.0244468
0.0234629
0.0224212
0.0213078
0.0202246
0.0192478
0.0183506
0.0175455
0.0168307
0.0157509
0.0142177
0.0128633
0.0121975
0.0114535
0.0106486
0.00982156
0.00903692
0.0363145
0.0350114
0.0339482
0.0328438
0.0317911
0.0306629
0.0295819
0.0281603
0.0267883
0.0255776
0.0247148
0.0238234
0.022812
0.0215191
0.0202919
0.0193573
0.0185199
0.0177488
0.0170733
0.016024
0.0144837
0.013095
0.0124091
0.011653
0.0108522
0.0401958
0.0383465
0.0364495
0.0354716
0.0344247
0.0332337
0.0322509
0.0314934
0.0303169
0.0288808
0.0273266
0.0257437
0.0250314
0.0242749
0.0234516
0.0220038
0.0203862
0.0194232
0.0186377
0.0178455
0.0170539
0.0161868
0.0147899
0.013542
0.0127088
0.0440536
0.0423068
0.0405522
0.0386403
0.0368862
0.0360272
0.0351477
0.0337432
0.0324942
0.0320018
0.0310563
0.029675
0.0281697
0.0265942
0.0253538
0.024784
0.0240501
0.0224116
0.0206112
0.01957
0.0187606
0.017907
0.0170211
0.0160436
0.0149765
0.0492495
0.0482093
0.0463878
0.0446745
0.0427558
0.0407741
0.0388278
0.0375471
0.0364783
0.0356732
0.034302
0.0328701
0.032369
0.031708
0.0305908
0.0292006
0.0276372
0.0260505
0.0251209
0.0242245
0.0227513
0.0209422
0.0198674
0.0189281
0.0180178
0.0170929
0.0526215
0.0517339
0.050731
0.0498643
0.0486263
0.046845
0.0452448
0.0430507
0.0410837
0.039594
0.0383854
0.0369502
0.0356991
0.0343843
0.0333765
0.0326938
0.0320068
0.0311602
0.0300459
0.0286234
0.0269819
0.0256526
0.0242049
0.0226085
0.0212879
0.0201278
0.0191634
0.0540766
0.0531424
0.0522265
0.0513081
0.0503132
0.0490747
0.0471506
0.0457896
0.0439397
0.0420959
0.040523
0.0390863
0.0376382
0.0361772
0.0344563
0.033758
0.033092
0.0323594
0.0315305
0.030594
0.029426
0.0279165
0.0263761
0.0247993
0.0230049
0.0592203
0.0583558
0.0567724
0.055096
0.0538848
0.0526597
0.0519163
0.0508434
0.0494956
0.0480143
0.0464514
0.0448268
0.0432044
0.0414287
0.0398611
0.0382647
0.0366631
0.0348592
0.034177
0.0335257
0.0328023
0.0320445
0.0312706
0.0303384
0.0287538
0.060945
0.0596631
0.0588585
0.0578347
0.0564881
0.0552569
0.0537463
0.0526415
0.0515477
0.0501574
0.0486559
0.0473295
0.0456419
0.0440285
0.0422918
0.0405967
0.0389019
0.0371971
0.0354833
0.0347024
0.0339968
0.0332973
0.0325643
0.0318327
0.0642485
0.0635657
0.0628503
0.0616408
0.0603519
0.0594716
0.0586246
0.0574689
0.0561273
0.0548406
0.0536117
0.0523699
0.0510528
0.0492983
0.0481879
0.0465069
0.0449247
0.0431878
0.0413207
0.0395014
0.0376682
0.0360833
0.0352628
0.0344504
0.0336943
0.0662607
0.0654414
0.06465
0.0639788
0.0633499
0.0622891
0.0611775
0.0603368
0.0597458
0.0583233
0.0570527
0.0557873
0.0545563
0.0532834
0.0520269
0.0507556
0.0491285
0.0476849
0.045862
0.0441254
0.0422657
0.0401392
0.0377265
0.0366813
0.0356855
0.0682708
0.0674528
0.0666912
0.0658643
0.0650309
0.0642731
0.0635232
0.0627058
0.0619047
0.0612046
0.0604154
0.0591107
0.0579298
0.0567308
0.0553978
0.0542643
0.0528764
0.0516749
0.0502791
0.0486899
0.0470384
0.0452805
0.0434427
0.0412477
0.039085
0.0711322
0.0703184
0.0694435
0.0686748
0.0679082
0.0671512
0.0663119
0.0653722
0.0645436
0.0637632
0.0631
0.0624607
0.0618832
0.0610531
0.0597994
0.0587139
0.0576208
0.0563287
0.0553972
0.054099
0.0524696
0.0512946
0.0497885
0.0482247
0.0466274
0.0448238
0.0733522
0.0724662
0.0715006
0.0706528
0.0698397
0.0690412
0.0683386
0.0676538
0.0669128
0.0658003
0.0647857
0.0640007
0.0635018
0.0629043
0.0622722
0.0614773
0.0603342
0.0595619
0.0586992
0.0574198
0.0567394
0.0556656
0.0538757
0.052402
0.0509748
0.0494052
0.0757131
0.0747776
0.0737347
0.0727831
0.0718624
0.0709648
0.0701561
0.0693985
0.0687194
0.068111
0.0675859
0.066586
0.0653545
0.0644829
0.0639528
0.0633295
0.0625842
0.0616292
0.0605557
0.0597022
0.0589376
0.0580566
0.0572766
0.0564856
0.0549962
0.0535016
0.0520504
0.0781386
0.0771878
0.0761729
0.0751648
0.0741118
0.0730805
0.0721304
0.0712396
0.070414
0.06968
0.069018
0.0684162
0.0678603
0.0671588
0.0660844
0.0651676
0.064485
0.0638515
0.0630759
0.0620786
0.0605245
0.0597551
0.0591035
0.0583391
0.0576184
0.0569084
0.0559782
0.0797157
0.0786534
0.0776751
0.0766574
0.0755977
0.0744368
0.0733594
0.0723357
0.0713719
0.0705536
0.0698739
0.0692553
0.0686525
0.0680319
0.0673305
0.0665207
0.0657072
0.0649923
0.0644417
0.0636736
0.0624486
0.0611978
0.0601196
0.059437
0.058659
0.057872
0.0823479
0.0813045
0.0802112
0.0791888
0.0781179
0.0771393
0.0761636
0.0749202
0.0737484
0.0726691
0.0715705
0.0706235
0.0700154
0.0694888
0.0689083
0.0682743
0.0675864
0.0668507
0.0661101
0.0654078
0.0647775
0.0640319
0.062899
0.0616346
0.0606362
0.0598017
0.0848278
0.0839092
0.0828812
0.0818836
0.0808118
0.0797275
0.0785411
0.0776031
0.0765875
0.0754608
0.0743428
0.0732204
0.0720968
0.0709847
0.0702562
0.0697824
0.0692102
0.068574
0.0678892
0.0671706
0.0664536
0.0657269
0.0649467
0.0641187
0.0631856
0.0621039
0.0864382
0.0854614
0.0845249
0.0835116
0.0824027
0.0814727
0.0802789
0.079121
0.0781129
0.0770906
0.0760002
0.0748782
0.0736859
0.0724756
0.0713931
0.0707193
0.0701668
0.0695715
0.0689234
0.0682178
0.0674827
0.0667731
0.0659941
0.0652295
0.0644112
0.0888383
0.0878998
0.0870306
0.0861543
0.085257
0.0842825
0.0830113
0.0819856
0.0808918
0.0797581
0.0786816
0.0776321
0.0765453
0.0753987
0.0742326
0.0729221
0.0717202
0.0711555
0.0706062
0.0699797
0.0693225
0.0686018
0.0678467
0.0670859
0.0663446
0.06558
0.0911218
0.090247
0.0893487
0.0884876
0.0876241
0.0867779
0.0860071
0.0850418
0.0837622
0.0826309
0.0815122
0.0803536
0.0792579
0.0781948
0.0771116
0.0759851
0.0748863
0.0736821
0.0723842
0.0716395
0.071123
0.070451
0.0697217
0.0689831
0.0682454
0.0674435
0.0934353
0.0925594
0.0916223
0.0907568
0.0898915
0.0890806
0.0882321
0.0873771
0.0865761
0.0855644
0.0843919
0.0833026
0.0821593
0.0810215
0.0799
0.0788044
0.0777142
0.0765475
0.0755011
0.0745703
0.0734461
0.0724003
0.0717002
0.0709241
0.0701723
0.0694008
0.0686426
0.0949245
0.0939721
0.0930409
0.092081
0.0912546
0.0904489
0.0896646
0.0888845
0.0880018
0.0871097
0.0861345
0.0850528
0.0839413
0.0827913
0.0816247
0.0804955
0.0794302
0.0783055
0.0771803
0.0760723
0.0751447
0.0741333
0.0731225
0.0722475
0.0713917
0.0706174
0.0972285
0.0963951
0.0955543
0.0945763
0.0935054
0.0924741
0.0916817
0.0910423
0.0902933
0.0895262
0.0886682
0.0878159
0.0869093
0.0858451
0.0846624
0.0833905
0.0821523
0.0810188
0.0801599
0.0787969
0.077801
0.0767511
0.0757159
0.0746971
0.0736551
0.0727504
0.0985877
0.0977854
0.0970315
0.0962741
0.0954229
0.0941474
0.0929369
0.0921362
0.0917089
0.0910192
0.0901896
0.0893425
0.0885853
0.0879115
0.0866737
0.0852896
0.0839724
0.0826781
0.0813883
0.0806554
0.0795667
0.0783774
0.0773371
0.0763325
0.0752624
0.100687
0.0999014
0.0991022
0.0983238
0.0976024
0.0969736
0.0964179
0.0951929
0.0937969
0.0928163
0.0923306
0.0917652
0.0908727
0.0899771
0.0892429
0.0886625
0.0874623
0.085838
0.0844529
0.0834075
0.0821184
0.0811042
0.0800156
0.0789821
0.0779183
0.102132
0.101238
0.100406
0.099618
0.0988336
0.0981336
0.0975091
0.096967
0.0959967
0.0947016
0.0936655
0.0928854
0.0922769
0.0913676
0.0903498
0.0897274
0.0892585
0.088091
0.0864118
0.0850228
0.0839595
0.0827437
0.0816394
0.0804862
0.0794992
0.104581
0.10362
0.102657
0.101722
0.100871
0.100056
0.0992538
0.0985878
0.0979152
0.0972259
0.0966049
0.0957322
0.0947449
0.0936636
0.0928362
0.0919806
0.090856
0.0901112
0.0896727
0.0883155
0.0870135
0.0858278
0.0845867
0.0834224
0.0822295
0.106202
0.105268
0.104294
0.103195
0.102138
0.101319
0.100542
0.0996552
0.0989633
0.0983904
0.0974785
0.0968103
0.0963227
0.0957348
0.0948979
0.0938893
0.0928802
0.091726
0.0907601
0.0900552
0.0889582
0.0875961
0.0864867
0.0852871
0.0840305
0.108279
0.107542
0.106794
0.106057
0.105208
0.103917
0.102623
0.101783
0.101171
0.100389
0.0995396
0.0988448
0.0979556
0.0971327
0.0966887
0.0962276
0.0956311
0.0948781
0.0938212
0.09259
0.0915246
0.0905835
0.0895046
0.0882658
0.0871393
0.109597
0.108906
0.108169
0.107484
0.106845
0.106338
0.105176
0.103825
0.102807
0.102007
0.101252
0.100385
0.0995021
0.0985223
0.0976968
0.0971602
0.0966447
0.0959968
0.0952318
0.0942948
0.09331
0.0923036
0.0912992
0.0900492
0.111574
0.110885
0.110171
0.109464
0.108761
0.108078
0.107507
0.106955
0.106015
0.104843
0.103847
0.102927
0.102012
0.101112
0.100136
0.0991334
0.0982943
0.0977229
0.0971292
0.0964371
0.0956564
0.0948312
0.0939535
0.0929926
0.0921275
0.112823
0.11211
0.111449
0.11078
0.110068
0.109382
0.10861
0.107975
0.107396
0.106518
0.10558
0.104739
0.103877
0.10287
0.101954
0.100851
0.0997263
0.0990204
0.0983637
0.0976876
0.0969727
0.0961719
0.0954036
0.0945381
0.114697
0.114019
0.113338
0.112654
0.112008
0.111356
0.110687
0.110009
0.109196
0.108361
0.107669
0.106916
0.106101
0.105438
0.104803
0.103848
0.102759
0.101651
0.100539
0.0997718
0.099053
0.0982983
0.0975267
0.0967717
0.0959985
0.115948
0.115224
0.11454
0.113886
0.113203
0.112572
0.111945
0.111316
0.110722
0.109946
0.108942
0.10802
0.107193
0.106355
0.105798
0.105225
0.104532
0.103563
0.102425
0.101413
0.10051
0.0996573
0.0988882
0.0981241
0.117845
0.117148
0.116429
0.115724
0.115039
0.11439
0.113757
0.113134
0.112543
0.111904
0.111232
0.110547
0.1096
0.108649
0.107657
0.106734
0.106159
0.105564
0.10484
0.103936
0.102969
0.102053
0.101134
0.100299
0.0995026
0.119049
0.118327
0.117615
0.116924
0.116222
0.115535
0.114897
0.11428
0.113709
0.113173
0.112569
0.111719
0.110913
0.110099
0.109252
0.108262
0.107279
0.106639
0.105994
0.105269
0.104408
0.103481
0.102638
0.101767
0.120276
0.119549
0.118797
0.11807
0.117377
0.116686
0.11601
0.11539
0.114798
0.114249
0.113764
0.113259
0.112429
0.111556
0.110674
0.109807
0.109005
0.108055
0.10726
0.106515
0.105752
0.104912
0.104074
0.103232
0.122298
0.121588
0.120816
0.120005
0.119251
0.118518
0.117839
0.117146
0.116467
0.115844
0.115269
0.114727
0.114233
0.113754
0.113052
0.112246
0.111355
0.110375
0.109577
0.108673
0.10783
0.107061
0.106266
0.105392
0.104611
0.123584
0.12288
0.122159
0.121326
0.120469
0.119644
0.118962
0.118306
0.117576
0.116857
0.11625
0.115702
0.115162
0.114622
0.114057
0.1134
0.112628
0.111796
0.11093
0.110067
0.109198
0.108377
0.107619
0.106847
0.124986
0.124195
0.123494
0.122796
0.121965
0.120931
0.120061
0.119472
0.118859
0.118069
0.117206
0.116613
0.116127
0.115593
0.115021
0.114405
0.113728
0.112987
0.11222
0.111407
0.110581
0.109753
0.10893
0.108127
0.126202
0.125512
0.124771
0.12409
0.123449
0.12278
0.121735
0.120762
0.120141
0.119573
0.118754
0.117776
0.117075
0.116599
0.116056
0.115458
0.114807
0.114139
0.113409
0.112621
0.111866
0.111073
0.110258
0.128165
0.127503
0.1268
0.126047
0.12533
0.124637
0.123945
0.123169
0.122272
0.121424
0.120794
0.1203
0.119547
0.118564
0.117733
0.117155
0.116564
0.115932
0.11528
0.114592
0.113867
0.113106
0.112355
0.111592
0.129509
0.128746
0.128041
0.127334
0.126617
0.125878
0.125177
0.124338
0.12339
0.122518
0.12183
0.121249
0.120724
0.120087
0.119258
0.118439
0.117748
0.117096
0.116441
0.115775
0.115084
0.114349
0.113599
0.112844
0.130701
0.13004
0.129321
0.128617
0.127895
0.127163
0.126422
0.125766
0.1249
0.123776
0.122757
0.122152
0.121627
0.121073
0.120449
0.119743
0.119016
0.118316
0.11763
0.11695
0.116265
0.115571
0.114837
0.132606
0.131962
0.131278
0.130588
0.129898
0.129199
0.12848
0.127707
0.12694
0.126315
0.125528
0.124372
0.123196
0.122523
0.12203
0.12149
0.120886
0.120222
0.119555
0.118839
0.118139
0.117469
0.116787
0.116031
0.133838
0.133149
0.13252
0.131883
0.131203
0.130514
0.129817
0.129078
0.12824
0.127373
0.12668
0.12605
0.125058
0.123838
0.122957
0.12249
0.121978
0.121383
0.120752
0.12009
0.119405
0.118707
0.118014
0.117325
0.134927
0.134318
0.133696
0.133073
0.132458