# vtk DataFile Version 2.0
track0
ASCII
DATASET POLYDATA
POINTS 12045 float
-0.0205 0.001 1e-05
-0.02052 0.000999985 1e-05
-0.02054 0.000999974 1e-05
-0.02056 0.000999965 1e-05
-0.02058 0.000999959 1e-05
-0.0206 0.000999956 1e-05
-0.0205 0.00367778 1e-05
-0.02052 0.00367778 1e-05
-0.02054 0.00367777 1e-05
-0.02056 0.00367777 1e-05
-0.02058 0.00367777 1e-05
-0.0206 0.00367777 1e-05
-0.0205 0.00635556 1e-05
-0.02052 0.00635555 1e-05
-0.02054 0.00635555 1e-05
-0.02056 0.00635555 1e-05
-0.02058 0.00635555 1e-05
-0.0206 0.00635555 1e-05
-0.0205 0.00903333 1e-05
-0.02052 0.00903333 1e-05
-0.02054 0.00903333 1e-05
-0.02056 0.00903333 1e-05
-0.02058 0.00903333 1e-05
-0.0206 0.00903333 1e-05
-0.0205 0.0117111 1e-05
-0.02052 0.0117111 1e-05
-0.02054 0.0117111 1e-05
-0.02056 0.0117111 1e-05
-0.02058 0.0117111 1e-05
-0.0206 0.0117111 1e-05
-0.0205 0.0143889 1e-05
-0.02052 0.0143889 1e-05
-0.02054 0.0143889 1e-05
-0.02056 0.0143889 1e-05
-0.02058 0.0143889 1e-05
-0.0206 0.0143889 1e-05
-0.0205 0.0170667 1e-05
-0.02052 0.0170667 1e-05
-0.02054 0.0170667 1e-05
-0.02056 0.0170667 1e-05
-0.02058 0.0170667 1e-05
-0.0206 0.0170667 1e-05
-0.0205 0.0197444 1e-05
-0.02052 0.0197444 1e-05
-0.02054 0.0197444 1e-05
-0.02056 0.0197444 1e-05
-0.02058 0.0197444 1e-05
-0.0206 0.0197444 1e-05
-0.0205 0.0224222 1e-05
-0.02052 0.0224222 1e-05
-0.02054 0.0224222 1e-05
-0.02056 0.0224222 1e-05
-0.02058 0.0224222 1e-05
-0.0206 0.0224222 1e-05
-0.0205 0.0251 1e-05
-0.02052 0.0250998 1e-05
-0.02054 0.0250997 1e-05
-0.02056 0.0250995 1e-05
-0.02058 0.0250995 1e-05
-0.0206 0.0250994 1e-05
-0.0205 0.001 1e-05
-0.0202034 0.00100022 1e-05
-0.0199069 0.00100067 1e-05
-0.0196103 0.00100132 1e-05
-0.0193137 0.00100219 1e-05
-0.0190172 0.00100326 1e-05
-0.0187132 0.00100466 1e-05
-0.0184093 0.00100588 1e-05
-0.0181054 0.0010071 1e-05
-0.0178015 0.00100832 1e-05
-0.0174976 0.00100953 1e-05
-0.0172058 0.00101083 1e-05
-0.016914 0.00101193 1e-05
-0.0166222 0.00101303 1e-05
-0.0163305 0.00101413 1e-05
-0.0160387 0.00101522 1e-05
-0.0157586 0.00101636 1e-05
-0.0154784 0.00101744 1e-05
-0.0151983 0.00101856 1e-05
-0.0149182 0.00101971 1e-05
-0.0146381 0.0010209 1e-05
-0.0143744 0.00102208 1e-05
-0.0141108 0.00102327 1e-05
-0.0138471 0.00102449 1e-05
-0.0135835 0.00102574 1e-05
-0.0133608 0.00102682 1e-05
-0.0133473 0.00102688 1e-05
-0.0133338 0.00102695 1e-05
-0.0133204 0.00102702 1e-05
-0.0133069 0.00102708 1e-05
-0.0132934 0.00102715 1e-05
-0.0130353 0.00102844 1e-05
-0.0127771 0.00102974 1e-05
-0.0125189 0.00103106 1e-05
-0.0122607 0.0010324 1e-05
-0.0120025 0.00103375 1e-05
-0.0117547 0.00103505 1e-05
-0.0115068 0.00103637 1e-05
-0.0112589 0.00103769 1e-05
-0.0110111 0.00103901 1e-05
-0.0107632 0.00104034 1e-05
-0.0105252 0.00104162 1e-05
-0.0102873 0.0010429 1e-05
-0.0100493 0.00104417 1e-05
-0.00981133 0.00104545 1e-05
-0.00957337 0.00104673 1e-05
-0.00934491 0.00104795 1e-05
-0.00911645 0.00104917 1e-05
-0.00888799 0.00105039 1e-05
-0.00865954 0.0010516 1e-05
-0.00843108 0.00105282 1e-05
-0.00821175 0.00105397 1e-05
-0.00799242 0.00105513 1e-05
-0.00777309 0.00105628 1e-05
-0.00755376 0.00105743 1e-05
-0.00733443 0.00105858 1e-05
-0.00712387 0.00105966 1e-05
-0.0069133 0.00106075 1e-05
-0.00670273 0.00106184 1e-05
-0.00649216 0.00106292 1e-05
-0.0062816 0.001064 1e-05
-0.00607944 0.00106502 1e-05
-0.00587729 0.00106605 1e-05
-0.00567514 0.00106707 1e-05
-0.00547298 0.00106808 1e-05
-0.00527083 0.00106909 1e-05
-0.00507675 0.00107005 1e-05
-0.00488267 0.00107102 1e-05
-0.0046886 0.00107198 1e-05
-0.00449452 0.00107293 1e-05
-0.00430044 0.00107388 1e-05
-0.00411412 0.00107479 1e-05
-0.0039278 0.00107569 1e-05
-0.00374147 0.00107659 1e-05
-0.00355515 0.00107749 1e-05
-0.00336883 0.00107839 1e-05
-0.00318995 0.00107924 1e-05
-0.00301107 0.00108009 1e-05
-0.00283219 0.00108094 1e-05
-0.00265331 0.00108179 1e-05
-0.00247443 0.00108263 1e-05
-0.0023027 0.00108343 1e-05
-0.00213097 0.00108424 1e-05
-0.00195924 0.00108504 1e-05
-0.0017875 0.00108585 1e-05
-0.00161577 0.00108665 1e-05
-0.0014509 0.00108741 1e-05
-0.00128603 0.00108817 1e-05
-0.00112116 0.00108893 1e-05
-0.000956289 0.00108969 1e-05
-0.000791418 0.00109045 1e-05
-0.000633135 0.00109118 1e-05
-0.000474851 0.00109191 1e-05
-0.000316567 0.00109264 1e-05
-0.000158284 0.00109337 1e-05
0 0.00109409 1e-05
0.000105677 0.00109457 1e-05
0.000211355 0.00109505 1e-05
0.000317032 0.00109553 1e-05
0.00042271 0.001096 1e-05
0.000528387 0.00109647 1e-05
0.000634886 0.00109694 1e-05
0.000741385 0.0010974 1e-05
0.000847885 0.00109787 1e-05
0.000954384 0.00109832 1e-05
0.00106088 0.00109878 1e-05
0.00116821 0.00109924 1e-05
0.00127554 0.00109969 1e-05
0.00138286 0.00110013 1e-05
0.00149019 0.00110057 1e-05
0.00159752 0.001101 1e-05
0.00170568 0.00110143 1e-05
0.00181384 0.00110186 1e-05
0.001922 0.00110227 1e-05
0.00203016 0.00110268 1e-05
0.00213833 0.00110308 1e-05
0.00224733 0.00110347 1e-05
0.00235633 0.00110386 1e-05
0.00246533 0.00110423 1e-05
0.00257434 0.0011046 1e-05
0.00268334 0.00110496 1e-05
0.00279319 0.00110531 1e-05
0.00290304 0.00110566 1e-05
0.00301289 0.001106 1e-05
0.00312274 0.00110633 1e-05
0.00323259 0.00110666 1e-05
0.00334329 0.00110697 1e-05
0.003454 0.00110728 1e-05
0.0035647 0.00110759 1e-05
0.0036754 0.00110788 1e-05
0.00378611 0.00110817 1e-05
0.00389767 0.00110845 1e-05
0.00400924 0.00110872 1e-05
0.0041208 0.00110899 1e-05
0.00423237 0.00110925 1e-05
0.00434393 0.0011095 1e-05
0.00445636 0.00110975 1e-05
0.00456879 0.00110998 1e-05
0.00468123 0.00111022 1e-05
0.00479366 0.00111044 1e-05
0.00490609 0.00111066 1e-05
0.0050194 0.00111086 1e-05
0.0051327 0.00111106 1e-05
0.00524601 0.00111126 1e-05
0.00535932 0.00111144 1e-05
0.00547262 0.00111162 1e-05
0.00558681 0.00111179 1e-05
0.005701 0.00111196 1e-05
0.00581518 0.00111211 1e-05
0.00592937 0.00111226 1e-05
0.00604356 0.00111241 1e-05
0.00615863 0.00111254 1e-05
0.00627371 0.00111267 1e-05
0.00638878 0.00111279 1e-05
0.00650386 0.0011129 1e-05
0.00661893 0.00111301 1e-05
0.0067349 0.00111311 1e-05
0.00685087 0.0011132 1e-05
0.00696684 0.00111328 1e-05
0.00708281 0.00111336 1e-05
0.00719878 0.00111343 1e-05
0.00727459 0.00111347 1e-05
0.0073504 0.0011135 1e-05
0.0074262 0.00111354 1e-05
0.00750201 0.00111357 1e-05
0.00757515 0.00111359 1e-05
0.00761675 0.00111361 1e-05
0.00765834 0.00111362 1e-05
0.00769994 0.00111363 1e-05
0.00774154 0.00111364 1e-05
0.00778313 0.00111365 1e-05
0.00790091 0.00111367 1e-05
0.00801869 0.00111369 1e-05
0.00813647 0.0011137 1e-05
0.00825425 0.0011137 1e-05
0.00837203 0.00111369 1e-05
0.00849073 0.00111367 1e-05
0.00860942 0.00111365 1e-05
0.00872812 0.00111362 1e-05
0.00884682 0.00111358 1e-05
0.00896551 0.00111354 1e-05
0.00908513 0.00111347 1e-05
0.00920475 0.00111341 1e-05
0.00932437 0.00111334 1e-05
0.00944398 0.00111326 1e-05
0.0095636 0.00111318 1e-05
0.00968415 0.00111307 1e-05
0.0098047 0.00111297 1e-05
0.00992525 0.00111285 1e-05
0.0100458 0.00111273 1e-05
0.0101663 0.00111261 1e-05
0.0102878 0.00111246 1e-05
0.0104093 0.00111231 1e-05
0.0105308 0.00111216 1e-05
0.0106523 0.001112 1e-05
0.0107738 0.00111183 1e-05
0.0108962 0.00111163 1e-05
0.0110186 0.00111144 1e-05
0.0111411 0.00111125 1e-05
0.0112635 0.00111104 1e-05
0.0113859 0.00111083 1e-05
0.0115093 0.00111059 1e-05
0.0116327 0.00111035 1e-05
0.0117561 0.00111011 1e-05
0.0118795 0.00110986 1e-05
0.0120028 0.0011096 1e-05
0.0121272 0.00110932 1e-05
0.0122515 0.00110904 1e-05
0.0123759 0.00110876 1e-05
0.0125002 0.00110846 1e-05
0.0126245 0.00110816 1e-05
0.0127498 0.00110783 1e-05
0.0128752 0.0011075 1e-05
0.0130005 0.00110717 1e-05
0.0131258 0.00110683 1e-05
0.0132511 0.00110648 1e-05
0.0133774 0.0011061 1e-05
0.0135036 0.00110573 1e-05
0.0136299 0.00110535 1e-05
0.0137562 0.00110496 1e-05
0.0138825 0.00110456 1e-05
0.0140098 0.00110414 1e-05
0.014137 0.00110372 1e-05
0.0142643 0.00110329 1e-05
0.0143915 0.00110285 1e-05
0.0145188 0.0011024 1e-05
0.0146471 0.00110193 1e-05
0.0147753 0.00110146 1e-05
0.0149036 0.00110098 1e-05
0.0150318 0.00110049 1e-05
0.0151601 0.00109999 1e-05
0.0152893 0.00109948 1e-05
0.0154186 0.00109896 1e-05
0.0155478 0.00109843 1e-05
0.0156771 0.00109789 1e-05
0.0158063 0.00109734 1e-05
0.0159366 0.00109678 1e-05
0.0160668 0.00109621 1e-05
0.0161971 0.00109562 1e-05
0.0163274 0.00109504 1e-05
0.0164576 0.00109444 1e-05
0.0165889 0.00109383 1e-05
0.0167201 0.0010932 1e-05
0.0168514 0.00109257 1e-05
0.0169827 0.00109193 1e-05
0.0171139 0.00109128 1e-05
0.0172462 0.00109062 1e-05
0.0173785 0.00108995 1e-05
0.0175108 0.00108927 1e-05
0.0176431 0.00108857 1e-05
0.0177754 0.00108787 1e-05
0.0179087 0.00108717 1e-05
0.018042 0.00108645 1e-05
0.0181753 0.00108571 1e-05
0.0183087 0.00108496 1e-05
0.018442 0.00108421 1e-05
0.0185763 0.00108346 1e-05
0.0187107 0.00108269 1e-05
0.018845 0.0010819 1e-05
0.0189794 0.0010811 1e-05
0.0191137 0.0010803 1e-05
0.0192491 0.0010795 1e-05
0.0193845 0.00107867 1e-05
0.0195199 0.00107783 1e-05
0.0196553 0.00107698 1e-05
0.0197907 0.00107613 1e-05
0.0199272 0.00107528 1e-05
0.0200636 0.0010744 1e-05
0.0202001 0.00107351 1e-05
0.0203365 0.00107261 1e-05
0.020473 0.00107171 1e-05
0.0206105 0.0010708 1e-05
0.020748 0.00106988 1e-05
0.0208855 0.00106893 1e-05
0.021023 0.00106798 1e-05
0.0211606 0.00106703 1e-05
0.0212991 0.00106608 1e-05
0.0214377 0.0010651 1e-05
0.0215763 0.0010641 1e-05
0.0217149 0.0010631 1e-05
0.0218535 0.0010621 1e-05
0.0219931 0.0010611 1e-05
0.0221328 0.00106007 1e-05
0.0222724 0.00105902 1e-05
0.0224121 0.00105796 1e-05
0.0225517 0.00105691 1e-05
0.0226925 0.00105586 1e-05
0.0228332 0.00105478 1e-05
0.022974 0.00105368 1e-05
0.0231147 0.00105257 1e-05
0.0232555 0.00105147 1e-05
0.0233973 0.00105036 1e-05
0.0235391 0.00104924 1e-05
0.023681 0.00104808 1e-05
0.0238228 0.00104692 1e-05
0.0239647 0.00104576 1e-05
0.0241076 0.00104461 1e-05
0.0242505 0.00104343 1e-05
0.0243935 0.00104222 1e-05
0.0245364 0.00104101 1e-05
0.0246794 0.0010398 1e-05
0.0248234 0.00103859 1e-05
0.0249675 0.00103736 1e-05
0.0251115 0.0010361 1e-05
0.0252556 0.00103483 1e-05
[...]
POINT_DATA 12045
 FIELD attributes 2
p 1 12045 float
-5.05018 -5.04686 -5.04355 -5.04023 -5.03692 -5.03361
-5.2024 -5.20238 -5.20236 -5.20234 -5.20232 -5.20229
-5.37625 -5.37613 -5.376 -5.37588 -5.37576 -5.37565
-5.46924 -5.46918 -5.46913 -5.46908 -5.46902 -5.46897
-5.514 -5.51389 -5.51377 -5.51366 -5.51355 -5.51344
-5.52028 -5.52012 -5.51996 -5.5198 -5.51963 -5.51947
-5.49315 -5.49308 -5.49301 -5.49293 -5.49286 -5.49279
-5.42345 -5.42341 -5.42337 -5.42333 -5.42329 -5.42325
-5.30209 -5.3021 -5.30211 -5.30211 -5.30212 -5.30213
-3.08947 -3.1088 -3.128 -3.14707 -3.166 -3.1848
-5.05018 -5.04947 -5.04586 -5.04217 -5.03839 -5.03002 -5.04388 -5.05886 -5.07385 -5.08883 -5.11326 -5.13505 -5.165 -5.19495 -5.2249 -5.25767 -5.27335 -5.29507 -5.31679 -5.33852 -5.36187 -5.3808 -5.40174 -5.42268 -5.44362 -5.46132 -5.46239 -5.46345 -5.46452 -5.46558 -5.46665 -5.48834 -5.51004 -5.53173 -5.55343 -5.57485 -5.59366 -5.61227 -5.63088 -5.64949 -5.66753 -5.68321 -5.6986 -5.714 -5.72939 -5.74423 -5.75806 -5.77165 -5.78523 -5.79882 -5.81196 -5.82473 -5.83724 -5.84976 -5.86227 -5.87436 -5.88624 -5.89781 -5.90939 -5.92096 -5.93211 -5.94317 -5.95395 -5.96473 -5.97551 -5.98593 -5.99636 -6.00653 -6.01669 -6.02686 -6.0367 -6.04664 -6.05639 -6.06613 -6.07588 -6.08541 -6.09503 -6.10437 -6.11372 -6.12307 -6.1322 -6.1416 -6.15114 -6.16068 -6.17022 -6.17991 -6.18982 -6.19946 -6.2091 -6.21874 -6.22821 -6.23821 -6.24907 -6.25993 -6.27079 -6.28188 -6.29195 -6.30282 -6.31369 -6.32456 -6.33498 -6.34445 -6.35346 -6.36246 -6.37147 -6.37965 -6.38688 -6.39512 -6.40336 -6.4116 -6.42055 -6.42874 -6.43736 -6.44598 -6.4546 -6.46333 -6.47149 -6.47866 -6.48583 -6.49299 -6.4993 -6.50604 -6.51149 -6.51694 -6.5224 -6.52679 -6.53245 -6.53706 -6.54168 -6.54629 -6.54996 -6.55485 -6.55884 -6.56284 -6.56683 -6.57002 -6.57394 -6.57712 -6.58031 -6.58349 -6.58607 -6.58899 -6.59137 -6.59374 -6.59612 -6.59813 -6.60032 -6.60216 -6.60401 -6.60585 -6.60751 -6.60934 -6.61097 -6.61259 -6.61422 -6.61576 -6.6174 -6.61893 -6.62046 -6.62198 -6.62348 -6.62446 -6.62539 -6.62632 -6.62725 -6.62815 -6.62866 -6.62918 -6.62969 -6.6302 -6.63075 -6.63209 -6.63347 -6.63485 -6.63623 -6.6378 -6.63896 -6.64034 -6.64172 -6.6431 -6.6449 -6.64586 -6.64728 -6.6487 -6.65012 -6.65226 -6.65301 -6.65454 -6.65607 -6.6576 -6.66021 -6.66078 -6.66244 -6.6641 -6.66575 -6.66883 -6.66919 -6.67094 -6.67269 -6.67444 -6.67796 -6.67811 -6.67997 -6.68183 -6.68368 -6.68766 -6.68767 -6.68967 -6.69166 -6.69366 -6.69807 -6.69799 -6.70013 -6.70227 -6.70441 -6.70919 -6.70905 -6.71133 -6.71361 -6.71589 -6.72098 -6.72084 -6.72326 -6.72568 -6.72825 -6.73346 -6.73362 -6.73593 -6.73849 -6.74148 -6.74664 -6.74714 -6.74937 -6.75208 -6.75544 -6.76053 -6.76139 -6.76358 -6.76643 -6.77012 -6.77513 -6.77634 -6.77854 -6.78153 -6.7855 -6.79043 -6.79199 -6.79422 -6.79737 -6.80156 -6.80642 -6.8083 -6.81062 -6.81391 -6.81829 -6.82307 -6.82528 -6.82771 -6.83113 -6.83566 -6.84039 -6.8429 -6.84546 -6.84902 -6.85366 -6.85835 -6.86113 -6.86392 -6.86763 -6.87228 -6.87693 -6.87997 -6.88301 -6.88685 -6.89148 -6.89612 -6.89941 -6.9027 -6.90666 -6.9113 -6.91594 -6.91947 -6.92301 -6.92709 -6.93172 -6.93635 -6.94011 -6.94387 -6.94805 -6.95266 -6.95727 -6.96122 -6.96517 -6.96943 -6.97402 -6.9786 -6.9827 -6.98679 -6.99114 -6.99573 -7.00032 -7.00453 -7.00875 -7.01317 -7.01779 -7.02241 -7.02671 -7.03105 -7.03554 -7.04017 -7.04483 -7.04921 -7.05365 -7.05821 -7.06286 -7.06756 -7.07202 -7.07654 -7.08115 -7.08584 -7.09058 -7.09509 -7.09968 -7.10434 -7.10904 -7.11382 -7.11837 -7.12302 -7.12772 -7.13244 -7.13724 -7.14182 -7.14652 -7.15124 -7.15597 -7.16079 -7.16539 -7.17012 -7.17486 -7.17959 -7.18442 -7.18904 -7.19377 -7.19851 -7.20325 -7.20806 -7.21269 -7.21742 -7.22215 -7.22687 -7.23165 -7.23629 -7.24099 -7.2457 -7.2504 -7.25514 -7.25976 -7.26443 -7.2691 -7.27377 -7.27846 -7.28304 -7.28766 -7.29228 -7.29689 -7.30152 -7.30383 -7.30615 -7.30847 -7.31079 -7.31306 -7.3153 -7.31754 -7.31978 -7.32203 -7.32428 -7.32875 -7.33322 -7.3377 -7.34217 -7.34666 -7.35104 -7.35542 -7.3598 -7.36418 -7.36858 -7.37286 -7.37713 -7.3814 -7.38567 -7.38996 -7.39413 -7.39827 -7.40241 -7.40655 -7.41071 -7.41475 -7.41874 -7.42272 -7.42671 -7.4307 -7.43459 -7.4384 -7.44222 -7.44603 -7.44983 -7.45354 -7.45719 -7.46081 -7.46442 -7.46802 -7.47154 -7.475 -7.47841 -7.48179 -7.48515 -7.48846 -7.49171 -7.49488 -7.498 -7.5011 -7.50416 -7.5072 -7.5101 -7.51292 -7.51574 -7.51853 -7.52132 -7.52393 -7.52643 -7.52893 -7.53143 -7.53392 -7.53623 -7.53839 -7.54056 -7.54272 -7.5449 -7.54688 -7.54868 -7.55048 -7.5523 -7.55412 -7.55575 -7.55716 -7.55856 -7.56 -7.56145 -7.56271 -7.56369 -7.56467 -7.5657 -7.56671 -7.56753 -7.56813 -7.56866 -7.56925 -7.56976 -7.57012 -7.57031 -7.57037 -7.57049 -7.57046 -7.57033 -7.5701 -7.56964 -7.56926 -7.56866 -7.568 -7.56734 -7.56634 -7.56541 -7.5642 -7.56299 -7.56178 -7.56029 -7.55872 -7.55692 -7.55512 -7.55333 -7.55135 -7.54908 -7.54666 -7.54425 -7.54184 -7.53934 -7.53713 -7.53486 -7.53258 -7.53031 -7.52815 -7.52735 -7.52655 -7.52575 -7.52495 -7.52412 -7.52045 -7.51675 -7.51305 -7.50936 -7.50552 -7.50129 -7.49687 -7.49246 -7.48806 -7.48336 -7.47856 -7.4734 -7.46824 -7.46309 -7.45748 -7.45207 -7.44615 -7.44022 -7.43419 -7.42773 -7.42153 -7.41499 -7.40825 -7.40123 -7.39394 -7.38692 -7.37974 -7.37216 -7.36411 -7.35596 -7.34807 -7.34019 -7.33171 -7.32266 -7.31361 -7.30484 -7.29608 -7.28671 -7.27673 -7.26676 -7.25707 -7.24739 -7.2371 -7.22617 -7.21524 -7.20461 -7.1939 -7.1826 -7.17082 -7.15891 -7.1473 -7.13537 -7.12307 -7.11053 -7.09761 -7.085 -7.07179 -7.05846 -7.04514 -7.0312 -7.01742 -7.00303 -6.98865 -6.97427 -6.95956 -6.94443 -6.92896 -6.9135 -6.89805 -6.88255 -6.88018 -6.87776 -6.87534 -6.87293 -6.87053 -6.8565 -6.84247 -6.82844 -6.81442 -6.80017 -6.78286 -6.76532 -6.74778 -6.73026 -6.7122 -6.69404 -6.67536 -6.65669 -6.63787 -6.6185 -6.59923 -6.57966 -6.55984 -6.53953 -6.51898 -6.49854 -6.4781 -6.45703 -6.43529 -6.41354 -6.39191 -6.37029 -6.348 -6.32505 -6.30209 -6.27926 -6.25638 -6.23278 -6.20873 -6.18456 -6.16052 -6.13602 -6.11119 -6.08627 -6.06087 -6.03554 -6.00946 -5.98339 -5.95732 -5.93097 -5.91066 -5.89001 -5.86938 -5.84874 -5.82917 -5.82231 -5.81544 -5.80857 -5.8017 -5.79476 -5.76633 -5.73785 -5.70938 -5.68092 -5.65207 -5.62264 -5.59291 -5.56319 -5.53336 -5.50304 -5.47241 -5.44163 -5.41066 -5.37925 -5.34767 -5.31578 -5.28391 -5.2516 -5.21877 -5.18593 -5.1528 -5.11968 -5.08601 -5.05193 -5.01786 -4.98348 -4.94881 -4.91382 -4.87877 -4.84346 -4.8078 -4.77157 -4.73535 -4.69913 -4.66279 -4.64544 -4.62791 -4.61038 -4.59286 -4.57585 -4.55589 -4.53593 -4.51597 -4.49601 -4.47583 -4.43742 -4.39887 -4.36033 -4.3218 -4.28261 -4.24319 -4.20355 -4.16382 -4.1237 -4.08329 -4.04268 -4.00209 -3.96108 -3.91952 -3.87795 -3.83619 -3.79443 -3.75209 -3.70942 -3.66672 -3.62382 -3.58054 -3.53702 -3.4935 -3.4497 -3.40551 -3.36088 -3.31626 -3.27165 -3.22947 -3.22898 -3.2285 -3.22801 -3.22752 -3.22703 -3.18143 -3.13584 -3.09026 -3.0447 -2.99863 -2.95227 -2.90566 -2.85906 -2.81219 -2.76493 -2.71755 -2.67019 -2.62251 -2.57431 -2.52609 -2.47774 -2.4294 -2.38053 -2.33144 -2.2823 -2.23303 -2.18338 -2.13356 -2.08376 -2.03379 -1.99918 -1.96429 -1.9294 -1.89452 -1.861 -1.84496 -1.82893 -1.81289 -1.79686 -1.78068 -1.72931 -1.6779 -1.62649 -1.57508 -1.5231 -1.47105 -1.41895 -1.36679 -1.31421 -1.26151 -1.20873 -1.15597 -1.10287 -1.04953 -0.996169 -0.942714 -0.889054 -0.835176 -0.781308 -0.727322 -0.685315 -0.643041 -0.600773 -0.558512 -0.517997 -0.505444 -0.492892 -0.48034 -0.467789 -0.455149 -0.400159 -0.345159 -0.29017 -0.235171 -0.179756 -0.124297 -0.0688425 -0.013387 0.0423702 0.0981908 0.154074 0.209946 0.266033 0.322142 0.378289 0.434511 0.490894 0.547336 0.603768 0.660215 0.682431 0.704718 0.727003 0.749287 0.771137 0.805669 0.840198 0.874724 0.909245 0.94392 1.00093 1.05788 1.11482 1.17185 1.22902 1.28621 1.34339 1.40056 1.45777 1.51502 1.57231 1.62962 1.68697 1.7443 1.80157 1.8392 1.87685 1.9145 1.95214 1.98866 2.00862 2.02857 2.04852 2.06846 2.08844 2.1459 2.20327 2.26063 2.31799 2.37541 2.43282 2.49022 2.54746 2.60463 2.66186 2.71909 2.77628 2.83341 2.8905 2.94747 2.9836 3.01964 3.05567 3.0917 3.12682 3.14788 3.16894 3.19 3.21105 3.23208 3.28891 3.34559 3.40227 3.45889 3.51546 3.572 3.62853 3.68482 3.74092 3.79706 3.85317 3.90915 3.96501 4.02087 4.07658 4.09824 4.1198 4.14135 4.1629 4.18416 4.21817 4.25218 4.28618 4.32017 4.35405 4.40936 4.46443 4.51946 4.57428 4.62908 4.6838 4.73852 4.79298 4.8471 4.90126 4.95448 5.00739 5.06026 5.11313 5.16462 5.16578 5.16693 5.16809 5.16924 5.17039 5.22373 5.27706 5.33039 5.38368 5.4367 5.4896 5.5425 5.59501 5.64724 5.69951 5.75166 5.80366 5.85541 5.90715 5.95864 5.98148 6.00416 6.0268 6.04945 6.07192 6.10043 6.12893 6.15744 6.18592 6.21421 6.26494 6.31541 6.36584 6.41595 6.46598 6.51587 6.56575 6.61523 6.66442 6.71357 6.75428 6.79467 6.83499 6.87531 6.91538 6.92371 6.93204 6.94037 6.94868 6.95693 7.00504 7.05302 7.101 7.14879 7.19627 7.24365 7.29102 7.33798 7.38451 7.43104 7.47748 7.52349 7.56939 7.61529 7.66116 7.66225 7.66334 7.66442 7.6655 7.66658 7.71079 7.75501 7.79923 7.84334 7.88703 7.93168 7.97633 8.02053 8.06431 8.10808 8.15174 8.19507 8.23818 8.28129 8.32426 8.33113 8.33794 8.34472 8.35151 8.35831 8.39395 8.42959 8.46523 8.50078 8.53595 8.57775 8.61954 8.6609 8.70185 8.74277 8.78356 8.82411 8.86436 8.9046 8.94459 8.9569 8.96908 8.98121 8.99335 9.00561 9.03294 9.06027 9.0876 9.11486 9.14181 9.1807 9.21947 9.25807 9.29615 9.33419 9.37207 9.40986 9.44723 9.48455 9.52158 9.54155 9.56129 9.58099 9.60068 9.62087 9.63761 9.65434 9.67107 9.68776 9.70427 9.74026 9.77598 9.8117 9.8471 9.88231 9.91731 9.95231 9.98693 10.0212 10.0554 10.0875 10.1192 10.1508 10.1824 10.2159 10.2175 10.219 10.2206 10.2221 10.2237 10.2566 10.2895 10.3224 10.3552 10.3876 10.4198 10.4519 10.4838 10.5153 10.5467 10.5779 10.609 10.6398 10.6706 10.7011 10.721 10.7406 10.7603 10.7799 10.8007 10.8108 10.8208 10.8309 10.841 10.851 10.8803 10.9095 10.9387 10.9678 10.9967 11.0252 11.0537 11.0819 11.1099 11.1378 11.1653 11.1929 11.2203 11.2476 11.2747 11.2994 11.3237 11.3479 11.3721 11.3997 11.4009 11.4022 11.4034 11.4046 11.4059 11.4319 11.4579 11.484 11.51 11.5371 11.5639 11.5872 11.6089 11.6268 11.6426 11.6577 11.6728 11.6979 11.7331 11.7682 11.8028 11.8318 11.8468 11.8617 11.8663 11.8681 11.872 11.8766 11.8811 11.886 11.8901 11.8943 11.8985 11.9031 11.9104 11.9231 11.9352 11.9473 11.9588 11.97 11.9804 11.9908 11.9993 12.0065 12.0134 12.0186 12.0228 12.0268 12.0308 12.0355 12.0358 12.0361 12.0365 12.0368 12.0371 12.0389 12.0405 12.042 12.0433 12.0433 12.0418 12.0401 12.0368 12.0319 12.027 12.0203 12.0134 12.0046 11.9949 11.9843 11.9726 11.9585 11.9444 11.9303 11.9129 11.9126 11.9123 11.9121 11.9118 11.9115 11.891 11.8704 11.8498 11.829 11.8059 11.7798 11.7522 11.7235 11.6925 11.6608 11.6259 11.5909 11.5529 11.5117 11.4705 11.4257 11.3793 11.3304 11.281 11.2288 11.1721 11.1115 11.0509 10.9903 10.9292 10.9202 10.9108 10.9013 10.8919 10.8821 10.8194 10.7567 10.6939 10.631 10.5651 10.482 10.3952 10.3083 10.2199 10.1274 10.0295 9.9296 9.82566 9.71546 9.60435 9.4872 9.36998 9.24694 9.11831 8.98956 8.85425 8.71848 8.57111 8.4157 8.25846 8.09372 7.92748 7.76002 7.5921 7.42219 7.24325 7.03508 6.82695 6.61888 6.39562 6.1659 5.94971 5.73347 5.51718 5.30237 5.26778 5.22607 5.18437 5.14267 5.09878 4.835 4.57084 4.30633 4.04147 3.73454 3.39628 3.13373 2.87046 2.60652 2.49406 2.41174 1.97571 1.54458 0.932136 0