# vtk DataFile Version 2.0
track0
ASCII
DATASET POLYDATA
POINTS 12045 float
-0.0205 0.001 1e-05
-0.02052 0.000999985 1e-05
-0.02054 0.000999974 1e-05
-0.02056 0.000999965 1e-05
-0.02058 0.000999959 1e-05
-0.0206 0.000999956 1e-05
-0.0205 0.00367778 1e-05
-0.02052 0.00367778 1e-05
-0.02054 0.00367777 1e-05
-0.02056 0.00367777 1e-05
-0.02058 0.00367777 1e-05
-0.0206 0.00367777 1e-05
-0.0205 0.00635556 1e-05
-0.02052 0.00635555 1e-05
-0.02054 0.00635555 1e-05
-0.02056 0.00635555 1e-05
-0.02058 0.00635555 1e-05
-0.0206 0.00635555 1e-05
-0.0205 0.00903333 1e-05
-0.02052 0.00903333 1e-05
-0.02054 0.00903333 1e-05
-0.02056 0.00903333 1e-05
-0.02058 0.00903333 1e-05
-0.0206 0.00903333 1e-05
-0.0205 0.0117111 1e-05
-0.02052 0.0117111 1e-05
-0.02054 0.0117111 1e-05
-0.02056 0.0117111 1e-05
-0.02058 0.0117111 1e-05
-0.0206 0.0117111 1e-05
-0.0205 0.0143889 1e-05
-0.02052 0.0143889 1e-05
-0.02054 0.0143889 1e-05
-0.02056 0.0143889 1e-05
-0.02058 0.0143889 1e-05
-0.0206 0.0143889 1e-05
-0.0205 0.0170667 1e-05
-0.02052 0.0170667 1e-05
-0.02054 0.0170667 1e-05
-0.02056 0.0170667 1e-05
-0.02058 0.0170667 1e-05
-0.0206 0.0170667 1e-05
-0.0205 0.0197444 1e-05
-0.02052 0.0197444 1e-05
-0.02054 0.0197444 1e-05
-0.02056 0.0197444 1e-05
-0.02058 0.0197444 1e-05
-0.0206 0.0197444 1e-05
-0.0205 0.0224222 1e-05
-0.02052 0.0224222 1e-05
-0.02054 0.0224222 1e-05
-0.02056 0.0224222 1e-05
-0.02058 0.0224222 1e-05
-0.0206 0.0224222 1e-05
-0.0205 0.0251 1e-05
-0.02052 0.0250998 1e-05
-0.02054 0.0250997 1e-05
-0.02056 0.0250995 1e-05
-0.02058 0.0250995 1e-05
-0.0206 0.0250994 1e-05
-0.0205 0.001 1e-05
-0.0202034 0.00100022 1e-05
-0.0199069 0.00100067 1e-05
-0.0196103 0.00100132 1e-05
-0.0193137 0.00100219 1e-05
-0.0190172 0.00100326 1e-05
-0.0187132 0.00100466 1e-05
-0.0184093 0.00100588 1e-05
-0.0181054 0.0010071 1e-05
-0.0178015 0.00100832 1e-05
-0.0174976 0.00100953 1e-05
-0.0172058 0.00101083 1e-05
-0.016914 0.00101193 1e-05
-0.0166222 0.00101303 1e-05
-0.0163305 0.00101413 1e-05
-0.0160387 0.00101522 1e-05
-0.0157586 0.00101636 1e-05
-0.0154784 0.00101744 1e-05
-0.0151983 0.00101856 1e-05
-0.0149182 0.00101971 1e-05
-0.0146381 0.0010209 1e-05
-0.0143744 0.00102208 1e-05
-0.0141108 0.00102327 1e-05
-0.0138471 0.00102449 1e-05
-0.0135835 0.00102574 1e-05
-0.0133608 0.00102682 1e-05
-0.0133473 0.00102688 1e-05
-0.0133338 0.00102695 1e-05
-0.0133204 0.00102702 1e-05
-0.0133069 0.00102708 1e-05
-0.0132934 0.00102715 1e-05
-0.0130353 0.00102844 1e-05
-0.0127771 0.00102974 1e-05
-0.0125189 0.00103106 1e-05
-0.0122607 0.0010324 1e-05
-0.0120025 0.00103375 1e-05
-0.0117547 0.00103505 1e-05
-0.0115068 0.00103637 1e-05
-0.0112589 0.00103769 1e-05
-0.0110111 0.00103901 1e-05
-0.0107632 0.00104034 1e-05
-0.0105252 0.00104162 1e-05
-0.0102873 0.0010429 1e-05
-0.0100493 0.00104417 1e-05
-0.00981133 0.00104545 1e-05
-0.00957337 0.00104673 1e-05
-0.00934491 0.00104795 1e-05
-0.00911645 0.00104917 1e-05
-0.00888799 0.00105039 1e-05
-0.00865954 0.0010516 1e-05
-0.00843108 0.00105282 1e-05
-0.00821175 0.00105397 1e-05
-0.00799242 0.00105513 1e-05
-0.00777309 0.00105628 1e-05
-0.00755376 0.00105743 1e-05
-0.00733443 0.00105858 1e-05
-0.00712387 0.00105966 1e-05
-0.0069133 0.00106075 1e-05
-0.00670273 0.00106184 1e-05
-0.00649216 0.00106292 1e-05
-0.0062816 0.001064 1e-05
-0.00607944 0.00106502 1e-05
-0.00587729 0.00106605 1e-05
-0.00567514 0.00106707 1e-05
-0.00547298 0.00106808 1e-05
-0.00527083 0.00106909 1e-05
-0.00507675 0.00107005 1e-05
-0.00488267 0.00107102 1e-05
-0.0046886 0.00107198 1e-05
-0.00449452 0.00107293 1e-05
-0.00430044 0.00107388 1e-05
-0.00411412 0.00107479 1e-05
-0.0039278 0.00107569 1e-05
-0.00374147 0.00107659 1e-05
-0.00355515 0.00107749 1e-05
-0.00336883 0.00107839 1e-05
-0.00318995 0.00107924 1e-05
-0.00301107 0.00108009 1e-05
-0.00283219 0.00108094 1e-05
-0.00265331 0.00108179 1e-05
-0.00247443 0.00108263 1e-05
-0.0023027 0.00108343 1e-05
-0.00213097 0.00108424 1e-05
-0.00195924 0.00108504 1e-05
-0.0017875 0.00108585 1e-05
-0.00161577 0.00108665 1e-05
-0.0014509 0.00108741 1e-05
-0.00128603 0.00108817 1e-05
-0.00112116 0.00108893 1e-05
-0.000956289 0.00108969 1e-05
-0.000791418 0.00109045 1e-05
-0.000633135 0.00109118 1e-05
-0.000474851 0.00109191 1e-05
-0.000316567 0.00109264 1e-05
-0.000158284 0.00109337 1e-05
0 0.00109409 1e-05
0.000105677 0.00109457 1e-05
0.000211355 0.00109505 1e-05
0.000317032 0.00109553 1e-05
0.00042271 0.001096 1e-05
0.000528387 0.00109647 1e-05
0.000634886 0.00109694 1e-05
0.000741385 0.0010974 1e-05
0.000847885 0.00109787 1e-05
0.000954384 0.00109832 1e-05
0.00106088 0.00109878 1e-05
0.00116821 0.00109924 1e-05
0.00127554 0.00109969 1e-05
0.00138286 0.00110013 1e-05
0.00149019 0.00110057 1e-05
0.00159752 0.001101 1e-05
0.00170568 0.00110143 1e-05
0.00181384 0.00110186 1e-05
0.001922 0.00110227 1e-05
0.00203016 0.00110268 1e-05
0.00213833 0.00110308 1e-05
0.00224733 0.00110347 1e-05
0.00235633 0.00110386 1e-05
0.00246533 0.00110423 1e-05
0.00257434 0.0011046 1e-05
0.00268334 0.00110496 1e-05
0.00279319 0.00110531 1e-05
0.00290304 0.00110566 1e-05
0.00301289 0.001106 1e-05
0.00312274 0.00110633 1e-05
0.00323259 0.00110666 1e-05
0.00334329 0.00110697 1e-05
0.003454 0.00110728 1e-05
0.0035647 0.00110759 1e-05
0.0036754 0.00110788 1e-05
0.00378611 0.00110817 1e-05
0.00389767 0.00110845 1e-05
0.00400924 0.00110872 1e-05
0.0041208 0.00110899 1e-05
0.00423237 0.00110925 1e-05
0.00434393 0.0011095 1e-05
0.00445636 0.00110975 1e-05
0.00456879 0.00110998 1e-05
0.00468123 0.00111022 1e-05
0.00479366 0.00111044 1e-05
0.00490609 0.00111066 1e-05
0.0050194 0.00111086 1e-05
0.0051327 0.00111106 1e-05
0.00524601 0.00111126 1e-05
0.00535932 0.00111144 1e-05
0.00547262 0.00111162 1e-05
0.00558681 0.00111179 1e-05
0.005701 0.00111196 1e-05
0.00581518 0.00111211 1e-05
0.00592937 0.00111226 1e-05
0.00604356 0.00111241 1e-05
0.00615863 0.00111254 1e-05
0.00627371 0.00111267 1e-05
0.00638878 0.00111279 1e-05
0.00650386 0.0011129 1e-05
0.00661893 0.00111301 1e-05
0.0067349 0.00111311 1e-05
0.00685087 0.0011132 1e-05
0.00696684 0.00111328 1e-05
0.00708281 0.00111336 1e-05
0.00719878 0.00111343 1e-05
0.00727459 0.00111347 1e-05
0.0073504 0.0011135 1e-05
0.0074262 0.00111354 1e-05
0.00750201 0.00111357 1e-05
0.00757515 0.00111359 1e-05
0.00761675 0.00111361 1e-05
0.00765834 0.00111362 1e-05
0.00769994 0.00111363 1e-05
0.00774154 0.00111364 1e-05
0.00778313 0.00111365 1e-05
0.00790091 0.00111367 1e-05
0.00801869 0.00111369 1e-05
0.00813647 0.0011137 1e-05
0.00825425 0.0011137 1e-05
0.00837203 0.00111369 1e-05
0.00849073 0.00111367 1e-05
0.00860942 0.00111365 1e-05
0.00872812 0.00111362 1e-05
0.00884682 0.00111358 1e-05
0.00896551 0.00111354 1e-05
0.00908513 0.00111347 1e-05
0.00920475 0.00111341 1e-05
0.00932437 0.00111334 1e-05
0.00944398 0.00111326 1e-05
0.0095636 0.00111318 1e-05
0.00968415 0.00111307 1e-05
0.0098047 0.00111297 1e-05
0.00992525 0.00111285 1e-05
0.0100458 0.00111273 1e-05
0.0101663 0.00111261 1e-05
0.0102878 0.00111246 1e-05
0.0104093 0.00111231 1e-05
0.0105308 0.00111216 1e-05
0.0106523 0.001112 1e-05
0.0107738 0.00111183 1e-05
0.0108962 0.00111163 1e-05
0.0110186 0.00111144 1e-05
0.0111411 0.00111125 1e-05
0.0112635 0.00111104 1e-05
0.0113859 0.00111083 1e-05
0.0115093 0.00111059 1e-05
0.0116327 0.00111035 1e-05
0.0117561 0.00111011 1e-05
0.0118795 0.00110986 1e-05
0.0120028 0.0011096 1e-05
0.0121272 0.00110932 1e-05
0.0122515 0.00110904 1e-05
0.0123759 0.00110876 1e-05
0.0125002 0.00110846 1e-05
0.0126245 0.00110816 1e-05
0.0127498 0.00110783 1e-05
0.0128752 0.0011075 1e-05
0.0130005 0.00110717 1e-05
0.0131258 0.00110683 1e-05
0.0132511 0.00110648 1e-05
0.0133774 0.0011061 1e-05
0.0135036 0.00110573 1e-05
0.0136299 0.00110535 1e-05
0.0137562 0.00110496 1e-05
0.0138825 0.00110456 1e-05
0.0140098 0.00110414 1e-05
0.014137 0.00110372 1e-05
0.0142643 0.00110329 1e-05
0.0143915 0.00110285 1e-05
0.0145188 0.0011024 1e-05
0.0146471 0.00110193 1e-05
0.0147753 0.00110146 1e-05
0.0149036 0.00110098 1e-05
0.0150318 0.00110049 1e-05
0.0151601 0.00109999 1e-05
0.0152893 0.00109948 1e-05
0.0154186 0.00109896 1e-05
0.0155478 0.00109843 1e-05
0.0156771 0.00109789 1e-05
0.0158063 0.00109734 1e-05
0.0159366 0.00109678 1e-05
0.0160668 0.00109621 1e-05
0.0161971 0.00109562 1e-05
0.0163274 0.00109504 1e-05
0.0164576 0.00109444 1e-05
0.0165889 0.00109383 1e-05
0.0167201 0.0010932 1e-05
0.0168514 0.00109257 1e-05
0.0169827 0.00109193 1e-05
0.0171139 0.00109128 1e-05
0.0172462 0.00109062 1e-05
0.0173785 0.00108995 1e-05
0.0175108 0.00108927 1e-05
0.0176431 0.00108857 1e-05
0.0177754 0.00108787 1e-05
0.0179087 0.00108717 1e-05
0.018042 0.00108645 1e-05
0.0181753 0.00108571 1e-05
0.0183087 0.00108496 1e-05
0.018442 0.00108421 1e-05
0.0185763 0.00108346 1e-05
0.0187107 0.00108269 1e-05
0.018845 0.0010819 1e-05
0.0189794 0.0010811 1e-05
0.0191137 0.0010803 1e-05
0.0192491 0.0010795 1e-05
0.0193845 0.00107867 1e-05
0.0195199 0.00107783 1e-05
0.0196553 0.00107698 1e-05
0.0197907 0.00107613 1e-05
0.0199272 0.00107528 1e-05
0.0200636 0.0010744 1e-05
0.0202001 0.00107351 1e-05
0.0203365 0.00107261 1e-05
0.020473 0.00107171 1e-05
0.0206105 0.0010708 1e-05
0.020748 0.00106988 1e-05
0.0208855 0.00106893 1e-05
0.021023 0.00106798 1e-05
0.0211606 0.00106703 1e-05
0.0212991 0.00106608 1e-05
0.0214377 0.0010651 1e-05
0.0215763 0.0010641 1e-05
0.0217149 0.0010631 1e-05
0.0218535 0.0010621 1e-05
0.0219931 0.0010611 1e-05
0.0221328 0.00106007 1e-05
0.0222724 0.00105902 1e-05
0.0224121 0.00105796 1e-05
0.0225517 0.00105691 1e-05
0.0226925 0.00105586 1e-05
0.0228332 0.00105478 1e-05
0.022974 0.00105368 1e-05
0.0231147 0.00105257 1e-05
0.0232555 0.00105147 1e-05
0.0233973 0.00105036 1e-05
0.0235391 0.00104924 1e-05
0.023681 0.00104808 1e-05
0.0238228 0.00104692 1e-05
0.0239647 0.00104576 1e-05
0.0241076 0.00104461 1e-05
0.0242505 0.00104343 1e-05
0.0243935 0.00104222 1e-05
0.0245364 0.00104101 1e-05
0.0246794 0.0010398 1e-05
0.0248234 0.00103859 1e-05
0.0249675 0.00103736 1e-05
0.0251115 0.0010361 1e-05
0.0252556 0.00103483 1e-05
[...]
POINT_DATA 12045
 FIELD attributes 1
U 3 12045 float
10.0004 	0.00731827 	0 10.0004 	0.00585462 	0 10.0003 	0.00439096 	0 10.0002 	0.00292731 	0 10.0001 	0.00146365 	0 10 	0 	0
10.0001 	0.000879228 	0 10 	0.000703382 	0 10 	0.000527537 	0 10 	0.000351691 	0 10 	0.000175846 	0 10 	0 	0
10.0001 	0.000466165 	0 10.0001 	0.000372742 	0 10.0001 	0.000279318 	0 10 	0.000185894 	0 10 	9.24696e-05 	0 10 	0 	0
10 	0.000266122 	0 10 	0.000212898 	0 10 	0.000159673 	0 10 	0.000106449 	0 10 	5.32244e-05 	0 10 	0 	0
10 	8.04553e-05 	0 10 	6.43642e-05 	0 10 	4.82732e-05 	0 10 	3.21821e-05 	0 10 	1.60911e-05 	0 10 	0 	0
10 	-2.61904e-05 	0 10 	-2.09523e-05 	0 10 	-1.57143e-05 	0 10 	-1.04762e-05 	0 10 	-5.23809e-06 	0 10 	0 	0
10 	-0.000216131 	0 10 	-0.000172905 	0 10 	-0.000129679 	0 10 	-8.64526e-05 	0 10 	-4.32263e-05 	0 10 	0 	0
10 	-0.000377839 	0 10 	-0.000302271 	0 10 	-0.000226704 	0 10 	-0.000151136 	0 10 	-7.55679e-05 	0 10 	0 	0
9.99999 	-0.000427564 	0 9.99999 	-0.000342052 	0 9.99999 	-0.000256539 	0 10 	-0.000171026 	0 10 	-8.55129e-05 	0 10 	0 	0
9.17387 	0.0870992 	0 9.1308 	0.0696794 	0 9.08741 	0.0522592 	0 9.04368 	0.0348389 	0 8.99962 	0.0174184 	0 8.95524 	0 	0
10.0004 	0.00731827 	0 10.0024 	0.0151683 	0 10.0045 	0.0221869 	0 10.0065 	0.0291612 	0 10.0085 	0.0360916 	0 10.0135 	0.0463065 	0 10.0163 	0.0402053 	0 10.0207 	0.0401633 	0 10.0252 	0.0401216 	0 10.0296 	0.04008 	0 10.0356 	0.0445403 	0 10.0384 	0.0378992 	0 10.0424 	0.0378547 	0 10.0464 	0.0378102 	0 10.0504 	0.0377657 	0 10.0545 	0.0408668 	0 10.0567 	0.0387881 	0 10.0592 	0.0400967 	0 10.0616 	0.041407 	0 10.064 	0.0427188 	0 10.0662 	0.0451768 	0 10.0677 	0.0452875 	0 10.0691 	0.0464897 	0 10.0704 	0.047693 	0 10.0717 	0.0488975 	0 10.0729 	0.0499158 	0 10.0729 	0.0499777 	0 10.073 	0.0500397 	0 10.0731 	0.0501017 	0 10.0731 	0.0501637 	0 10.0732 	0.0502164 	0 10.0737 	0.0508424 	0 10.0743 	0.0514624 	0 10.0748 	0.052083 	0 10.0753 	0.0527041 	0 10.0758 	0.0531612 	0 10.0757 	0.0534561 	0 10.0753 	0.0536457 	0 10.075 	0.0538353 	0 10.0747 	0.0540251 	0 10.0741 	0.0539764 	0 10.0737 	0.0541205 	0 10.0726 	0.0540962 	0 10.0715 	0.054072 	0 10.0704 	0.0540477 	0 10.0689 	0.0537542 	0 10.0685 	0.0538334 	0 10.0669 	0.0536989 	0 10.0653 	0.0535644 	0 10.0637 	0.0534297 	0 10.0611 	0.0530087 	0 10.0611 	0.0530615 	0 10.0591 	0.0528657 	0 10.0571 	0.0526698 	0 10.0551 	0.0524738 	0 10.0515 	0.0519788 	0 10.0521 	0.0520301 	0 10.0498 	0.0518076 	0 10.0475 	0.051585 	0 10.0452 	0.0513623 	0 10.0406 	0.0508324 	0 10.0421 	0.0509028 	0 10.0396 	0.0506747 	0 10.037 	0.0504466 	0 10.0345 	0.0502184 	0 10.0288 	0.0496695 	0 10.0313 	0.0497653 	0 10.0286 	0.0495479 	0 10.026 	0.0493304 	0 10.0233 	0.0491129 	0 10.0165 	0.0485674 	0 10.0201 	0.048698 	0 10.0174 	0.0484924 	0 10.0147 	0.0482868 	0 10.0119 	0.0480811 	0 10.0039 	0.0475292 	0 10.0087 	0.0476938 	0 10.006 	0.047539 	0 10.0033 	0.0473841 	0 10.0005 	0.0472292 	0 9.99132 	0.0467379 	0 9.9975 	0.0469656 	0 9.99482 	0.0468119 	0 9.99214 	0.0466582 	0 9.98946 	0.0465045 	0 9.97904 	0.0459542 	0 9.98659 	0.0461723 	0 9.98398 	0.0461499 	0 9.98137 	0.0461276 	0 9.97876 	0.0461052 	0 9.96716 	0.0457581 	0 9.97618 	0.0460605 	9.35855e-22 9.97418 	0.0459352 	6.08177e-21 9.97219 	0.0458098 	1.12278e-20 9.97019 	0.0456843 	1.6374e-20 9.95814 	0.045106 	1.39011e-20 9.96839 	0.0452266 	9.5666e-20 9.96661 	0.0449193 	8.8802e-20 9.96482 	0.0446119 	8.19343e-20 9.96304 	0.0443045 	7.5063e-20 9.95078 	0.0436215 	-1.51999e-20 9.96089 	0.0435749 	-4.12277e-20 9.95914 	0.043268 	-4.58693e-20 9.9574 	0.042961 	-5.05093e-20 9.95566 	0.042654 	-5.51476e-20 9.94358 	0.0420712 	-2.17063e-20 9.95324 	0.0418617 	-1.91011e-20 9.95134 	0.0412903 	-1.32949e-20 9.94944 	0.0407188 	-7.48926e-21 9.94753 	0.0401472 	-1.68403e-21 9.93566 	0.0393534 	7.14641e-21 9.9449 	0.0390394 	-5.7818e-21 9.94279 	0.0382253 	-2.46448e-20 9.94068 	0.037411 	-4.35099e-20 9.93856 	0.0365965 	-6.23771e-20 9.92678 	0.0355129 	-8.89862e-20 9.93545 	0.0352675 	-1.25673e-19 9.93299 	0.0344455 	-1.13138e-19 9.93052 	0.0336233 	-1.00595e-19 9.92805 	0.0328009 	-8.8044e-20 9.91626 	0.031587 	-3.03188e-20 9.9242 	0.0314651 	3.47938e-20 9.92134 	0.0307227 	4.84589e-20 9.91848 	0.02998 	6.21146e-20 9.91561 	0.0292371 	7.57607e-20 9.90387 	0.0280008 	3.72937e-20 9.911 	0.0279201 	-4.69731e-20 9.90775 	0.0272149 	-5.31232e-20 9.9045 	0.0265095 	-5.92588e-20 9.90125 	0.0258038 	-6.53799e-20 9.88966 	0.0245799 	-3.43433e-22 9.89585 	0.0244608 	6.09701e-20 9.89219 	0.0237629 	5.14461e-20 9.88853 	0.0230647 	4.19076e-20 9.88487 	0.0223662 	3.23545e-20 9.87352 	0.0211909 	-2.90344e-20 9.87857 	0.0210068 	-8.43778e-20 9.87446 	0.020316 	-1.06846e-19 9.87034 	0.0196248 	-1.29309e-19 9.86622 	0.0189335 	-1.51766e-19 9.85519 	0.0178388 	-1.38473e-19 9.8589 	0.0175859 	-1.57842e-19 9.8543 	0.0169067 	-1.4525e-19 9.84971 	0.0162273 	-1.32654e-19 9.8451 	0.0155475 	-1.20054e-19 9.83457 	0.0145494 	-8.46711e-20 9.83666 	0.0142344 	-7.11057e-20 9.83159 	0.0135717 	-5.23881e-20 9.82651 	0.0129088 	-3.36722e-20 9.82143 	0.0122456 	-1.49581e-20 9.81163 	0.0113466 	2.06316e-21 9.8118 	0.0109641 	0 9.80626 	0.0103134 	0 9.80072 	0.00966242 	0 9.79517 	0.00901116 	0 9.78639 	0.00820672 	0 9.78429 	0.0077429 	-1.68331e-20 9.77829 	0.00709883 	-3.60181e-20 9.77228 	0.00645445 	-5.52048e-20 9.76627 	0.00580976 	-7.43933e-20 9.75886 	0.00510077 	-9.41894e-20 9.75635 	0.00476423 	-9.78589e-20 9.75217 	0.00435057 	-9.83464e-20 9.74799 	0.00393676 	-9.88317e-20 9.7438 	0.00352281 	-9.93148e-20 9.73975 	0.00312331 	-9.97788e-20 9.73742 	0.00289478 	-1.00449e-19 9.7351 	0.00266619 	-1.01119e-19 9.73276 	0.00243756 	-1.0179e-19 9.73043 	0.00220889 	-1.0246e-19 9.72584 	0.00187847 	-1.02452e-19 9.72096 	0.00133729 	-7.61198e-20 9.71399 	0.000702763 	-4.6668e-20 9.70701 	6.78481e-05 	-1.72256e-20 9.70002 	-0.000567455 	1.22071e-20 9.6844 	-0.00158232 	5.05642e-20 9.68494 	-0.00186776 	5.14615e-20 9.67754 	-0.00249659 	5.26174e-20 9.67012 	-0.00312583 	5.37712e-20 9.6627 	-0.00375549 	5.49227e-20 9.64042 	-0.00501465 	5.82075e-20 9.64625 	-0.00507473 	4.58679e-20 9.63844 	-0.00569773 	3.35256e-20 9.63061 	-0.00632119 	2.11822e-20 9.62278 	-0.0069451 	8.83766e-21 9.59417 	-0.00840436 	-1.08669e-21 9.60499 	-0.00828229 	-8.32144e-21 9.59679 	-0.00890002 	-2.0103e-20 9.58857 	-0.00951825 	-3.18834e-20 9.58035 	-0.010137 	-4.36627e-20 9.5459 	-0.0117446 	-5.54576e-20 9.5613 	-0.0114908 	-5.53291e-20 9.55274 	-0.0121055 	-6.27945e-20 9.54416 	-0.0127207 	-7.02568e-20 9.53557 	-0.0133365 	-7.7716e-20 9.49589 	-0.0150382 	-9.68117e-20 9.51537 	-0.0147033 	-1.52703e-19 9.50648 	-0.0153153 	-1.43088e-19 9.49756 	-0.0159278 	-1.33486e-19 9.48864 	-0.0165408 	-1.23898e-19 9.4444 	-0.0182766 	-4.21681e-20 9.4674 	-0.0179119 	-2.69571e-20 9.45819 	-0.0185207 	-1.89015e-20 9.44896 	-0.0191301 	-1.08452e-20 9.43972 	-0.01974 	-2.78803e-21 9.39166 	-0.0214525 	0 9.41757 	-0.0211067 	0 9.40808 	-0.0217134 	0 9.39857 	-0.0223207 	0 9.38904 	-0.0229287 	0 9.33791 	-0.0245673 	0 9.36614 	-0.0242876 	1.63851e-21 9.35639 	-0.024894 	9.13388e-21 9.34662 	-0.0255012 	1.66285e-20 9.33683 	-0.026109 	2.41223e-20 9.28337 	-0.0276254 	4.23416e-20 9.31334 	-0.0274611 	1.62833e-19 9.30335 	-0.0280676 	1.65799e-19 9.29335 	-0.0286748 	1.6878e-19 9.28333 	-0.0292827 	1.71776e-19 9.22825 	-0.0306247 	4.25349e-20 9.25941 	-0.0306185 	2.2746e-20 9.24921 	-0.0312236 	1.6043e-20 9.239 	-0.0318295 	9.33906e-21 9.22625 	-0.0324644 	3.83938e-21 9.17274 	-0.0335577 	1.78446e-20 9.20062 	-0.0337844 	1.06519e-19 9.19421 	-0.0343485 	1.16811e-19 9.18381 	-0.0349522 	1.18052e-19 9.1669 	-0.0355932 	1.02835e-19 9.11701 	-0.0364206 	4.06487e-21 9.14153 	-0.0368652 	-1.00893e-19 9.13857 	-0.0374321 	-1.31707e-19 9.12801 	-0.0380332 	-1.42098e-19 9.10765 	-0.0386296 	-1.30981e-19 9.06122 	-0.039212 	-6.26415e-20 9.08259 	-0.0398541 	-1.8145e-19 9.08251 	-0.0404667 	-2.22302e-19 9.07182 	-0.041065 	-2.24601e-19 9.04866 	-0.0415722 	-1.76611e-19 9.00552 	-0.0419325 	-4.79257e-20 9.02395 	-0.0427512 	-2.53291e-20 9.02625 	-0.0434466 	-1.11181e-20 9.01544 	-0.044042 	-3.72202e-21 8.9901 	-0.0444218 	0 8.95006 	-0.044583 	0 8.96576 	-0.0455574 	0 8.96997 	-0.046367 	0 8.95906 	-0.0469594 	0 8.9321 	-0.0471806 	2.05941e-21 8.89494 	-0.047166 	5.4265e-21 8.90814 	-0.048276 	2.21626e-21 8.91385 	-0.0492254 	0 8.90287 	-0.0498147 	0 8.87477 	-0.0498522 	2.45601e-21 8.84029 	-0.049684 	5.82735e-21 8.85121 	-0.0509101 	2.6166e-21 8.85805 	-0.0520187 	1.24075e-21 8.84702 	-0.0526052 	7.95057e-21 8.81821 	-0.0524407 	2.48909e-20 8.78619 	-0.0521407 	4.36745e-20 8.79505 	-0.0534651 	1.71282e-19 8.80271 	-0.0547478 	2.91702e-19 8.79165 	-0.0553314 	2.9522e-19 8.76249 	-0.0549515 	1.718e-19 8.73274 	-0.0545397 	4.41956e-20 8.73973 	-0.0559446 	2.56827e-20 8.74668 	-0.057351 	7.17099e-21 8.73538 	-0.0578925 	2.9416e-22 8.70769 	-0.0573892 	3.53658e-21 8.68002 	-0.0568855 	6.77884e-21 8.68534 	-0.0583564 	3.70105e-21 8.6906 	-0.0598289 	6.24083e-22 8.67967 	-0.0603402 	2.16279e-21 8.65388 	-0.0597619 	-1.82745e-21 8.6281 	-0.0591832 	-5.8167e-21 8.63191 	-0.0607053 	-4.99694e-20 8.63567 	-0.062229 	-9.41259e-20 8.62515 	-0.06271 	-9.54959e-20 8.60108 	-0.0620724 	-5.50999e-20 8.57704 	-0.0614342 	-1.4702e-20 8.57951 	-0.0629962 	8.61876e-20 8.58192 	-0.0645597 	1.87072e-19 8.57185 	-0.0650125 	1.95747e-19 8.54936 	-0.064331 	1.11719e-19 8.52688 	-0.0636491 	2.76904e-20 8.52817 	-0.0652479 	1.61145e-20 8.5294 	-0.0668483 	4.53504e-21 8.51981 	-0.0672744 	5.32114e-22 8.49874 	-0.066555 	5.23415e-21 8.47768 	-0.0658351 	9.93799e-21 8.47794 	-0.0674568 	4.30248e-21 8.47813 	-0.06908 	-1.33822e-21 8.46903 	-0.0694794 	-2.12305e-20 8.44924 	-0.0687358 	-7.21489e-20 8.42947 	-0.0679917 	-1.2307e-19 8.42881 	-0.0696204 	-2.56327e-19 8.42809 	-0.0712508 	-3.8958e-19 8.4195 	-0.0716255 	-3.74195e-19 8.40087 	-0.0708766 	-2.21451e-19 8.38225 	-0.0701271 	-6.87098e-20 8.38079 	-0.0717543 	5.74386e-20 8.37925 	-0.0733803 	1.83334e-19 8.3709 	-0.0737015 	1.80895e-19 8.35361 	-0.0729953 	9.20896e-20 8.33604 	-0.0722539 	3.63392e-22 8.33387 	-0.0738741 	-9.06666e-20 8.33082 	-0.0753152 	-1.70323e-19 8.32261 	-0.0756429 	-1.79763e-19 8.30748 	-0.0751053 	-1.16465e-19 8.29086 	-0.0743802 	-3.74386e-20 8.28806 	-0.0759894 	-2.60084e-20 8.28377 	-0.0772448 	-1.46777e-20 8.2757 	-0.0775806 	-3.59837e-21 8.26244 	-0.0772158 	1.41436e-20 8.24668 	-0.0765137 	3.50925e-20 8.24333 	-0.0781103 	1.2899e-20 8.23805 	-0.0791834 	-2.47047e-21 8.23012 	-0.0795292 	-8.36819e-21 8.21848 	-0.0793384 	-3.17006e-21 8.20351 	-0.0786641 	1.20215e-20 8.19967 	-0.0802477 	-4.80873e-21 8.1936 	-0.0811434 	-1.58455e-20 8.1858 	-0.0815008 	-2.2348e-20 8.17557 	-0.081483 	-3.46732e-20 8.16132 	-0.0808399 	-5.66962e-20 8.15704 	-0.0824103 	5.36781e-20 8.15036 	-0.0831347 	8.79988e-20 8.14268 	-0.083505 	9.04705e-20 8.13368 	-0.083658 	7.14067e-20 8.12008 	-0.083049 	-2.3096e-20 8.11542 	-0.0846063 	7.00894e-20 8.10829 	-0.0851662 	8.68281e-20 8.10073 	-0.0855509 	9.01073e-20 8.09278 	-0.0858718 	8.79825e-20 8.07978 	-0.0852991 	1.04453e-20 8.07477 	-0.0868442 	-6.82842e-22 8.06733 	-0.087247 	-4.80651e-22 8.05987 	-0.0876473 	-2.50733e-22 8.05239 	-0.0880479 	-2.08386e-23 8.04039 	-0.0875981 	1.84123e-20 8.03478 	-0.0889683 	0 8.02744 	-0.0893854 	0 8.02007 	-0.0898027 	0 8.01269 	-0.0902203 	0 8.00188 	-0.0899537 	1.53023e-20 7.99581 	-0.0911542 	0 7.98855 	-0.0915896 	0 7.98128 	-0.0920252 	0 7.97398 	-0.092461 	0 7.96421 	-0.0923738 	0 7.9578 	-0.0934125 	0 7.95062 	-0.0938674 	0 7.94343 	-0.0943225 	0 7.93622 	-0.0947778 	0 7.92736 	-0.0948658 	-8.38882e-21 7.9207 	-0.0957507 	0 7.9136 	-0.0962262 	0 7.90648 	-0.096702 	0 7.89934 	-0.0971781 	0 7.89128 	-0.0974371 	-1.01735e-20 7.88446 	-0.0981758 	0 7.87742 	-0.098673 	0 7.87037 	-0.0991705 	0 7.8633 	-0.0996683 	0 7.85593 	-0.100094 	-3.43483e-21 7.85242 	-0.100439 	-4.50623e-21 7.84887 	-0.100705 	-9.86902e-21 7.84531 	-0.10097 	-1.52321e-20 7.84175 	-0.101235 	-2.05956e-20 7.83825 	-0.101495 	-2.58461e-20 7.83471 	-0.101752 	-3.06771e-20 7.83116 	-0.102009 	-3.55077e-20 7.8276 	-0.102267 	-4.03379e-20 7.82404 	-0.102524 	-4.51679e-20 7.82087 	-0.102704 	-5.00012e-20 7.81362 	-0.103319 	-4.84905e-20 7.80649 	-0.103865 	-4.78466e-20 7.79935 	-0.104411 	-4.71999e-20 7.79218 	-0.104957 	-4.65504e-20 7.78618 	-0.105273 	-4.85715e-20 7.77866 	-0.106052 	-3.79673e-20 7.77158 	-0.106623 	-2.73496e-20 7.76447 	-0.107194 	-1.67305e-20 7.75734 	-0.107766 	-6.10995e-21 7.75217 	-0.107959 	0 7.74438 	-0.108898 	-2.65711e-21 7.73733 	-0.109496 	-7.5312e-21 7.73025 	-0.110093 	-1.24045e-20 7.72316 	-0.110691 	-1.72771e-20 7.71877 	-0.110769 	-2.21151e-20 7.71071 	-0.111865 	-5.18998e-20 7.70368 	-0.11249 	-7.19403e-20 7.69663 	-0.113115 	-9.19826e-20 7.68956 	-0.11374 	-1.12026e-19 7.68595 	-0.113709 	-1.03605e-19 7.6776 	-0.114957 	-8.04809e-20 7.67059 	-0.115611 	-6.91853e-20 7.66356 	-0.116265 	-5.78831e-20 7.6565 	-0.116919 	-4.65743e-20 7.65364 	-0.116786 	-6.96087e-20 7.64506 	-0.118164 	-8.38401e-20 7.63801 	-0.118868 	-6.60701e-20 7.63099 	-0.119553 	-4.73648e-20 7.62454 	-0.120127 	-2.65912e-20 7.62181 	-0.120009 	7.14884e-21 7.61325 	-0.121401 	1.15676e-20 7.60589 	-0.12227 	8.60365e-21 7.59887 	-0.122987 	3.47416e-21 7.5932 	-0.123451 	0 7.5904 	-0.123385 	0 7.58186 	-0.124791 	0 7.57418 	-0.125822 	0 7.56715 	-0.126571 	0 7.56224 	-0.126931 	0 7.55936 	-0.126917 	0 7.55084 	-0.12834 	0 7.54284 	-0.129529 	-6.54286e-21 7.53579 	-0.130311 	-2.44644e-20 7.53161 	-0.130573 	-4.2441e-20 7.52865 	-0.130613 	-6.04419e-20 7.52013 	-0.132053 	-4.10087e-20 7.51179 	-0.133397 	-2.0913e-20 7.50473 	-0.134215 	2.77487e-21 7.50126 	-0.134383 	8.96901e-21 7.4982 	-0.134477 	1.31298e-20 7.48968 	-0.135937 	4.60588e-20 7.4811 	-0.137397 	7.8986e-20 7.47428 	-0.138221 	9.602e-20 7.47113 	-0.138368 	8.09298e-20 7.46797 	-0.138515 	6.58381e-20 7.45944 	-0.139996 	4.15259e-20 7.45085 	-0.141478 	1.7205e-20 7.44444 	-0.14233 	2.79066e-21 7.44118 	-0.142531 	1.22503e-20 7.43792 	-0.142732 	2.17108e-20 7.42936 	-0.144236 	8.5805e-20 7.42075 	-0.145741 	1.49902e-19 7.41474 	-0.146623 	1.50574e-19 7.41136 	-0.146878 	8.71225e-20 7.40798 	-0.147133 	2.36698e-20 7.39939 	-0.148661 	1.50221e-20 7.39076 	-0.15019 	6.37806e-21 7.38512 	-0.151104 	6.53891e-21 7.38162 	-0.151413 	1.57686e-20 7.3781 	-0.151721 	2.49995e-20 7.36948 	-0.153275 	8.75747e-20 7.36081 	-0.154829 	1.50153e-19 7.35553 	-0.155777 	1.50859e-19 7.35189 	-0.156139 	8.89573e-20 7.34823 	-0.156502 	2.70536e-20 7.33957 	-0.158082 	1.86622e-20 7.33137 	-0.159573 	1.02577e-20 7.32621 	-0.160533 	1.75577e-21 7.32213 	-0.161061 	0 7.31832 	-0.161477 	0 7.30961 	-0.163085 	0 7.30213 	-0.16447 	0 7.29685 	-0.165471 	0 7.29229 	-0.166181 	0 7.28832 	-0.166649 	0 7.27955 	-0.168286 	0 7.27277 	-0.16957 	0 7.26737 	-0.170612 	0 7.26232 	-0.171501 	4.73684e-21 7.25818 	-0.172023 	2.07785e-20 7.24933 	-0.173689 	3.06555e-21 7.24324 	-0.174873 	7.18643e-21 7.23769 	-0.175958 	1.58787e-20 7.23216 	-0.177024 	2.47279e-20 7.22784 	-0.177598 	3.77204e-20 7.21913 	-0.179257 	1.1951e-19 7.21347 	-0.180383 	1.2405e-19 7.20778 	-0.181509 	1.28567e-19 7.20205 	-0.182635 	1.33061e-19 7.19726 	-0.183377 	5.23411e-20 7.18924 	-0.184932 	1.24141e-19 7.18343 	-0.1861 	1.12093e-19 7.17758 	-0.187268 	1.00021e-19 7.1717 	-0.188435 	8.79269e-20 7.16638 	-0.189361 	3.90677e-20 7.15903 	-0.190814 	3.41844e-20 7.15306 	-0.192023 	3.46746e-20 7.14705 	-0.193233 	3.517e-20 7.14099 	-0.194443 	3.56708e-20 7.13515 	-0.19555 	4.43209e-20 7.13003 	-0.19658 	4.70728e-20 7.12548 	-0.197507 	4.51499e-20 7.12091 	-0.198435 	4.32179e-20 7.11632 	-0.199362 	4.1277e-20 7.11192 	-0.200245 	3.94212e-20 7.11021 	-0.200577 	3.9181e-20 7.10849 	-0.200909 	3.89405e-20 7.10677 	-0.201241 	3.86995e-20 7.10505 	-0.201574 	3.84582e-20 7.10364 	-0.201873 	3.94099e-20 7.09699 	-0.203196 	3.45214e-20 7.09048 	-0.204487 	2.78978e-20 7.08392 	-0.205778 	2.12827e-20 7.07732 	-0.207068 	1.46762e-20 7.07216 	-0.208202 	1.07552e-21 7.06463 	-0.209691 	-2.56589e-22 7.05792 	-0.211023 	-1.80547e-22 7.05117 	-0.212354 	-1.04477e-22 7.04437 	-0.213685 	-2.83796e-23 7.04021 	-0.214737 	0 7.03177 	-0.216392 	-4.06819e-21 7.02486 	-0.217763 	-1.78887e-20 7.01789 	-0.219134 	-3.17033e-20 7.01088 	-0.220506 	-4.55118e-20 7.00773 	-0.221476 	-5.58387e-20 6.99842 	-0.223282 	-4.36665e-20 6.99122 	-0.224705 	-2.84453e-20 6.98404 	-0.226116 	-1.31142e-20 6.9777 	-0.227437 	5.63333e-22 6.97468 	-0.228416 	7.91969e-21 6.96516 	-0.230254 	1.52319e-21 6.95698 	-0.231848 	7.96723e-21 6.94957 	-0.233297 	2.19626e-20 6.94427 	-0.23453 	3.96298e-20 6.941 	-0.235553 	6.08548e-20 6.93126 	-0.237424 	3.87266e-20 6.92207 	-0.239186 	1.84842e-20 6.91443 	-0.240673 	3.0685e-21 6.91018 	-0.241817 	-2.50246e-21 6.90666 	-0.242884 	-5.84609e-21 6.89669 	-0.244786 	-5.76316e-20 6.88664 	-0.246688 	-1.09418e-19 6.87912 	-0.248187 	-1.11153e-19 6.87538 	-0.249295 	-7.04456e-20 6.87161 	-0.250404 	-2.97381e-20 6.86139 	-0.252336 	-7.1071e-20 6.8511 	-0.254269 	-1.12412e-19 6.84385 	-0.25581 	-1.11841e-19 6.83985 	-0.256959 	-6.84984e-20 6.83581 	-0.258108 	-2.51547e-20 6.82534 	-0.26007 	-6.8667e-20 6.81479 	-0.262032 	-1.12185e-19 6.80781 	-0.263615 	-1.07548e-19 6.80353 	-0.264803 	-5.84126e-20 6.79921 	-0.26599 	-9.27327e-21 6.78848 	-0.26798 	-6.49173e-21 6.77818 	-0.269922 	-3.68366e-21 6.77144 	-0.271514 	-6.72594e-22 6.76639 	-0.27282 	0 6.76178 	-0.274044 	0 6.75078 	-0.276062 	0 6.74164 	-0.277894 	0 6.73463 	-0.279517 	0 6.72838 	-0.281005 	0 6.72348 	-0.282264 	0 6.71219 	-0.284308 	0 6.70424 	-0.286028 	-2.60368e-21 6.69694 	-0.28768 	-5.75566e-21 6.68958 	-0.289332 	-8.90915e-21 6.68427 	-0.290642 	-1.2555e-21 6.67348 	-0.292637 	-4.77119e-20 6.66594 	-0.294317 	-4.44484e-20 6.65834 	-0.295997 	-4.11624e-20 6.65069 	-0.297676 	-3.78539e-20 6.64412 	-0.299172 	-7.41172e-21 6.63455 	-0.301047 	-7.2258e-21 6.62672 	-0.302753 	1.5252e-21 6.61882 	-0.304459 	1.02776e-20 6.61086 	-0.306164 	1.90313e-20 6.60299 	-0.307846 	2.68862e-20 6.60158 	-0.30812 	2.98754e-20 6.6004 	-0.308372 	2.98983e-20 6.59922 	-0.308624 	2.99207e-20 6.59804 	-0.308877 	2.99428e-20 6.59686 	-0.309126 	2.99643e-20 6.58949 	-0.310601 	3.12573e-20 6.58207 	-0.312076 	3.25439e-20 6.5746 	-0.313551 	3.38242e-20 6.56708 	-0.315026 	3.50981e-20 6.56046 	-0.316387 	4.07002e-20 6.55106 	-0.318262 	4.27041e-20 6.54206 	-0.32001 	4.05081e-20 6.533 	-0.321758 	3.83173e-20 6.52387 	-0.323506 	3.61318e-20 6.51675 	-0.325007 	1.83088e-20 6.50641 	-0.327051 	3.64733e-20 6.49706 	-0.328819 	3.03865e-20 6.48764 	-0.330586 	2.43119e-20 6.47873 	-0.332286 	1.3284e-20 6.47186 	-0.333739 	-1.56204e-20 6.46107 	-0.335814 	-8.44597e-21 6.45081 	-0.337738 	-6.00426e-21 6.44102 	-0.339524 	-7.9349e-21 6.43296 	-0.341101 	-8.18614e-21 6.42573 	-0.342574 	-7.58784e-21 6.41457 	-0.344661 	-6.20436e-21 6.40332 	-0.346748 	-4.81288e-21 6.39345 	-0.348521 	6.52944e-22 6.38593 	-0.350011 	5.94073e-21 6.37835 	-0.3515 	1.12323e-20 6.3668 	-0.353597 	6.94446e-21 6.35516 	-0.355694 	2.66072e-21 6.34551 	-0.357499 	0 6.33763 	-0.359003 	0 6.32969 	-0.360507 	0 6.31773 	-0.362612 	0 6.30591 	-0.364691 	0 6.29653 	-0.366489 	0 6.28802 	-0.368067 	0 6.2797 	-0.369582 	0 6.26734 	-0.371692 	0 6.25648 	-0.373626 	2.63754e-21 6.24672 	-0.37543 	7.22818e-21 6.23707 	-0.37719 	1.18239e-20 6.22838 	-0.378713 	1.64349e-20 6.21583 	-0.3808 	1.31587e-20 6.20575 	-0.382608 	1.40027e-20 6.1956 	-0.384415 	1.4853e-20 6.18537 	-0.386221 	1.57095e-20 6.17568 	-0.387888 	1.74903e-20 6.16671 	-0.389375 	8.24062e-21 6.15881 	-0.39074 	3.71422e-21 6.15087 	-0.392106 	-8.0459e-22 6.14288 	-0.393471 	-5.31577e-21 6.13527 	-0.394766 	-9.58843e-21 6.13268 	-0.395223 	-1.11423e-20 6.13008 	-0.39568 	-1.26955e-20 6.12748 	-0.396137 	-1.42478e-20 6.12488 	-0.396594 	-1.57995e-20 6.12231 	-0.39701 	-1.88109e-20 6.11204 	-0.398867 	-2.28814e-20 6.10158 	-0.400677 	-2.22608e-20 6.09105 	-0.402486 	-2.16606e-20 6.08045 	-0.404295 	-2.10811e-20 6.06997 	-0.4059 	-6.02377e-21 6.05976 	-0.407942 