/*--------------------------------*- C++ -*----------------------------------*\
| =========                 |                                                 |
| \\      /  F ield         | OpenFOAM: The Open Source CFD Toolbox           |
|  \\    /   O peration     | Version:  2312                                  |
|   \\  /    A nd           | Website:  www.openfoam.com                      |
|    \\/     M anipulation  |                                                 |
\*---------------------------------------------------------------------------*/
FoamFile
{
    version     2.0;
    format      ascii;
    arch        "LSB;label=64;scalar=64";
    class       volScalarField;
    location    "190";
    object      nut_ML_ND;
}
// * * * * * * * * * * * * * * * * * * * * * * * * * * * * * * * * * * * * * //

dimensions      [0 0 0 0 0 0 0];

internalField   nonuniform List<scalar> 
404911
(
0.319175
0.47668
0.0910571
0.0739043
0.476826
0.485034
0.509391
0.0746297
0.0739846
0.0739
0.458409
0.46395
0.493672
0.460567
0.470134
0.0834454
0.452584
0.473938
0.441206
0.416166
0.439785
0.491003
0.408791
0.47899
0.567932
0.472703
0.501687
0.574074
0.570043
0.0938809
0.516414
0.570204
0.524029
0.49231
0.352855
0.544012
0.478911
0.185079
0.348908
0.538791
0.485396
0.0765244
0.355824
0.556322
0.54002
0.338643
0.196788
0.537517
0.509945
0.330015
0.11322
0.327891
0.353265
0.0770612
0.0954366
0.0965117
0.0739043
0.430447
0.413408
0.379519
0.519334
0.566513
0.543572
0.580042
0.573628
0.565579
0.570321
0.531322
0.569318
0.581357
0.573119
0.585897
0.57383
0.577547
0.585049
0.525262
0.0848953
0.538636
0.579424
0.572177
0.580318
0.566962
0.585171
0.57441
0.571166
0.578812
0.526608
0.578595
0.344131
0.566795
0.540964
0.0749748
0.577432
0.56321
0.565035
0.578057
0.572988
0.573702
0.58057
0.533287
0.311906
0.577816
0.569464
0.334273
0.343523
0.40482
0.514876
0.492883
0.511821
0.533806
0.543336
0.538322
0.538476
0.531629
0.08172
0.477914
0.535278
0.0815237
0.353204
0.550319
0.545584
0.547001
0.542758
0.472992
0.339566
0.515529
0.536331
0.5447
0.552164
0.406741
0.477233
0.372671
0.553465
0.552719
0.54802
0.547566
0.530633
0.528661
0.526576
0.376579
0.352865
0.514923
0.540763
0.547098
0.547641
0.549993
0.55125
0.555719
0.500963
0.407936
0.551242
0.55166
0.543578
0.386662
0.430883
0.388963
0.525169
0.550697
0.556372
0.553912
0.549763
0.547171
0.548592
0.549774
0.551103
0.552103
0.550174
0.548361
0.54215
0.517534
0.510955
0.505373
0.504415
0.453441
0.502916
0.429738
0.370478
0.550517
0.547428
0.547881
0.547852
0.546896
0.545312
0.541994
0.532226
0.51817
0.526487
0.454418
0.510454
0.500244
0.449507
0.533037
0.528637
0.522895
0.381949
0.554312
0.548893
0.547847
0.545186
0.543506
0.539348
0.529795
0.3269
0.367095
0.530544
0.508701
0.513813
0.529218
0.531485
0.530684
0.517661
0.531057
0.527463
0.525775
0.419685
0.554229
0.54842
0.547506
0.545711
0.533207
0.473855
0.39463
0.487924
0.522115
0.553761
0.570752
0.5618
0.533497
0.532682
0.546012
0.535892
0.542792
0.54286
0.562163
0.551574
0.547058
0.537279
0.51474
0.323233
0.337378
0.520271
0.566952
0.554068
0.57029
0.573524
0.572759
0.570452
0.556281
0.547282
0.54216
0.566344
0.566952
0.529392
0.371982
0.548365
0.530517
0.32253
0.444677
0.546363
0.569384
0.549199
0.572735
0.573609
0.574801
0.575443
0.574992
0.572633
0.572086
0.570184
0.540064
0.504274
0.430797
0.371704
0.486018
0.481548
0.52767
0.551674
0.525832
0.569892
0.573019
0.573238
0.573514
0.572533
0.574597
0.575761
0.574176
0.556845
0.484098
0.374919
0.388245
0.273485
0.507807
0.54671
0.554356
0.568027
0.567732
0.571365
0.573723
0.574376
0.573238
0.571915
0.571054
0.573171
0.574694
0.550736
0.517258
0.453857
0.517454
0.352321
0.366132
0.388509
0.511866
0.545323
0.577069
0.579445
0.571376
0.572097
0.573918
0.573337
0.572408
0.571988
0.572936
0.573422
0.568475
0.516311
0.546127
0.485138
0.353623
0.526745
0.561138
0.547203
0.567577
0.568451
0.564729
0.582475
0.572229
0.572979
0.572382
0.580619
0.580285
0.57061
0.57205
0.568084
0.50959
0.519069
0.498721
0.55052
0.570539
0.577698
0.580142
0.573081
0.573709
0.571028
0.582886
0.579764
0.584359
0.583997
0.578481
0.574251
0.560043
0.543498
0.530638
0.36657
0.371938
0.521057
0.555666
0.572608
0.581691
0.584111
0.582057
0.577016
0.580633
0.5795
0.584486
0.576262
0.578152
0.574953
0.567998
0.563004
0.479921
0.347482
0.510195
0.563019
0.567029
0.568527
0.572389
0.581025
0.577422
0.581473
0.585133
0.584453
0.584154
0.580009
0.576407
0.572079
0.565994
0.557319
0.513765
0.389854
0.396447
0.466436
0.492306
0.565928
0.569825
0.578651
0.577467
0.579715
0.582884
0.584168
0.585615
0.584649
0.583634
0.578036
0.561735
0.542753
0.548455
0.504234
0.509402
0.558084
0.555025
0.570514
0.57801
0.581056
0.580797
0.579959
0.582647
0.578979
0.581518
0.585176
0.583917
0.58018
0.576079
0.558894
0.513364
0.43793
0.550069
0.572435
0.568939
0.580542
0.579215
0.581477
0.582588
0.578746
0.576488
0.577151
0.577577
0.58005
0.580607
0.580075
0.562806
0.554018
0.511451
0.508764
0.566361
0.56586
0.575921
0.581859
0.583955
0.580796
0.582805
0.582818
0.580351
0.575517
0.577303
0.580561
0.575244
0.576833
0.562728
0.549722
0.358867
0.533525
0.572139
0.579413
0.583113
0.584062
0.584854
0.584275
0.577011
0.585338
0.58545
0.5818
0.579203
0.574373
0.571484
0.560238
0.551712
0.514627
0.350019
0.503774
0.551886
0.57196
0.58061
0.583121
0.584466
0.582375
0.583032
0.58529
0.585004
0.584932
0.584106
0.582978
0.579198
0.546187
0.563544
0.535593
0.352032
0.367839
0.532003
0.570917
0.56858
0.580362
0.583336
0.584189
0.585065
0.585563
0.583367
0.585661
0.58236
0.581419
0.58187
0.579624
0.573569
0.548356
0.507617
0.503934
0.559784
0.573501
0.580693
0.582753
0.583749
0.584085
0.584872
0.581998
0.585533
0.585591
0.585463
0.580743
0.578658
0.573179
0.560595
0.542377
0.351354
0.396853
0.535851
0.574072
0.58019
0.582055
0.583515
0.58413
0.584229
0.584164
0.585046
0.582201
0.583033
0.582958
0.584137
0.579264
0.574419
0.550529
0.517377
0.487332
0.563426
0.576143
0.581891
0.582909
0.583865
0.584287
0.584319
0.584354
0.584305
0.58468
0.585125
0.584963
0.584076
0.580462
0.564333
0.537282
0.50433
0.535566
0.575616
0.579552
0.582042
0.583198
0.584262
0.584531
0.584488
0.584412
0.584411
0.584439
0.584286
0.583869
0.582575
0.57667
0.565854
0.547232
0.500831
0.542222
0.569214
0.57992
0.583954
0.58377
0.584671
0.58526
0.585379
0.584781
0.584394
0.584445
0.584254
0.583524
0.580125
0.57468
0.563814
0.524297
0.343929
0.406744
0.556846
0.579841
0.580997
0.58273
0.584783
0.584664
0.58542
0.583609
0.583791
0.585088
0.584375
0.583906
0.583114
0.579475
0.560872
0.548173
0.510775
0.451102
0.56201
0.577385
0.582996
0.584724
0.584929
0.584888
0.584764
0.585428
0.584154
0.585376
0.585162
0.583828
0.582275
0.579407
0.561858
0.544224
0.341432
0.525474
0.568164
0.575957
0.582266
0.5847
0.584976
0.584928
0.584857
0.584706
0.58484
0.58522
0.585274
0.58421
0.582235
0.574077
0.565779
0.540597
0.333481
0.528077
0.572994
0.580545
0.583141
0.584747
0.582761
0.583063
0.58559
0.585014
0.584747
0.584483
0.584238
0.583654
0.581528
0.575654
0.561594
0.516986
0.399769
0.54612
0.573183
0.580154
0.583696
0.584934
0.585338
0.583461
0.583942
0.585712
0.585229
0.584794
0.584251
0.583377
0.580563
0.568428
0.552658
0.51167
0.507829
0.5635
0.569703
0.576777
0.583371
0.58553
0.585738
0.585722
0.583834
0.584458
0.585625
0.585539
0.584502
0.583473
0.580286
0.568425
0.544927
0.329845
0.526284
0.572676
0.580742
0.582307
0.584195
0.585529
0.583923
0.58467
0.584005
0.585739
0.584613
0.585573
0.585559
0.583532
0.580065
0.565336
0.528918
0.32988
0.416343
0.554636
0.576246
0.580279
0.582878
0.584028
0.585055
0.583766
0.585072
0.585132
0.584694
0.585723
0.584613
0.583981
0.583856
0.577576
0.566336
0.521676
0.429354
0.560236
0.5778
0.582097
0.583204
0.584112
0.584567
0.585132
0.583854
0.584751
0.585208
0.585469
0.585769
0.584973
0.582571
0.576958
0.558277
0.512629
0.440609
0.560922
0.577918
0.582574
0.583451
0.58393
0.584406
0.584759
0.585109
0.585708
0.584755
0.585713
0.585609
0.585308
0.581078
0.570841
0.552257
0.347751
0.450352
0.561346
0.577787
0.582416
0.583572
0.583837
0.584142
0.584518
0.584997
0.585294
0.585515
0.585546
0.585141
0.583604
0.580741
0.566299
0.528744
0.339674
0.530149
0.569275
0.576605
0.581728
0.583158
0.583881
0.584119
0.584366
0.584682
0.585652
0.585564
0.585732
0.585653
0.582521
0.580471
0.565428
0.522949
0.390941
0.537032
0.576007
0.581804
0.582042
0.583017
0.583965
0.584378
0.584474
0.58448
0.584942
0.585716
0.585591
0.584488
0.584048
0.580863
0.564382
0.524472
0.421209
0.561188
0.575897
0.579204
0.582939
0.583437
0.584229
0.58507
0.585202
0.584783
0.584491
0.584751
0.585256
0.5833
0.581352
0.577797
0.564782
0.522048
0.453359
0.562987
0.578537
0.583459
0.584374
0.584283
0.58417
0.585186
0.583968
0.5845
0.585248
0.584746
0.5844
0.584057
0.582772
0.57671
0.566005
0.518532
0.434099
0.562246
0.578014
0.583081
0.584544
0.584637
0.584531
0.584452
0.585375
0.584428
0.584913
0.585211
0.584635
0.583987
0.582447
0.575996
0.565078
0.51734
0.415651
0.56077
0.576589
0.582395
0.584313
0.584662
0.584773
0.584784
0.584675
0.584827
0.585229
0.585426
0.584803
0.583989
0.581355
0.575804
0.560294
0.516403
0.435528
0.561664
0.57671
0.58228
0.584227
0.584639
0.584891
0.584997
0.584998
0.584859
0.584715
0.584721
0.584549
0.583853
0.581053
0.570448
0.55122
0.354717
0.524497
0.562616
0.576691
0.582181
0.584409
0.584903
0.585111
0.585383
0.585456
0.585394
0.585097
0.584842
0.584506
0.583835
0.580993
0.570819
0.548935
0.347053
0.524101
0.563706
0.575765
0.582169
0.584969
0.585533
0.585574
0.585703
0.585299
0.585
0.585575
0.585417
0.58468
0.583923
0.580972
0.570578
0.549219
0.344717
0.359291
0.539073
0.56409
0.574561
0.581758
0.582283
0.584093
0.584846
0.584891
0.584872
0.585203
0.585184
0.585693
0.585503
0.58409
0.580879
0.567734
0.546476
0.345207
0.361604
0.55075
0.57127
0.571263
0.581008
0.584415
0.583451
0.585736
0.584453
0.584239
0.584393
0.584243
0.585137
0.585112
0.584259
0.580273
0.567575
0.52775
0.550377
0.570937
0.580397
0.583322
0.584425
0.58495
0.585782
0.581894
0.58313
0.584239
0.583559
0.584129
0.585869
0.584306
0.577781
0.567113
0.523243
0.346755
0.542914
0.570374
0.581012
0.583881
0.58464
0.584947
0.585245
0.585712
0.584759
0.582672
0.582623
0.584876
0.585926
0.584152
0.576793
0.56395
0.515211
0.333025
0.544085
0.569697
0.581139
0.584013
0.584703
0.585215
0.585484
0.585558
0.585657
0.584896
0.583719
0.584769
0.58591
0.584517
0.577569
0.560624
0.515363
0.335951
0.543474
0.5683
0.580896
0.583991
0.58471
0.585202
0.58576
0.585089
0.585431
0.585617
0.585661
0.585752
0.585944
0.583779
0.57643
0.558941
0.354093
0.55566
0.567905
0.580412
0.583877
0.584698
0.585017
0.585422
0.584884
0.585443
0.585685
0.585748
0.585726
0.585314
0.582438
0.57215
0.551343
0.347134
0.349193
0.553532
0.581954
0.583936
0.584684
0.585052
0.585263
0.585526
0.584553
0.585224
0.585633
0.585664
0.584334
0.580873
0.569514
0.547648
0.337688
0.341338
0.506682
0.571295
0.579152
0.584872
0.584911
0.58513
0.585563
0.585735
0.585722
0.585142
0.585727
0.585835
0.584275
0.578351
0.568348
0.543583
0.325556
0.508573
0.569984
0.573032
0.581392
0.585466
0.585289
0.585301
0.585656
0.585142
0.585659
0.585718
0.585775
0.58569
0.584424
0.577524
0.564285
0.520106
0.515694
0.556787
0.576893
0.583483
0.585396
0.585684
0.585659
0.585602
0.585736
0.585704
0.585492
0.585225
0.585248
0.582739
0.576615
0.560186
0.51462
0.344241
0.526837
0.565713
0.577065
0.57994
0.580831
0.582255
0.584373
0.585816
0.585566
0.584638
0.58429
0.585639
0.585491
0.581955
0.570486
0.552067
0.343647
0.366771
0.545886
0.572094
0.58155
0.581374
0.582229
0.567265
0.575475
0.585306
0.584316
0.585587
0.585747
0.585699
0.585419
0.581073
0.566326
0.546385
0.330086
0.430558
0.565134
0.561456
0.575974
0.582098
0.583922
0.584689
0.581336
0.569778
0.585226
0.585236
0.585751
0.585042
0.584203
0.580947
0.569024
0.547415
0.336065
0.504597
0.571486
0.571873
0.580635
0.58429
0.584866
0.58395
0.585787
0.585709
0.58241
0.58543
0.585205
0.584255
0.583546
0.581473
0.571006
0.550017
0.342334
0.402546
0.534967
0.574795
0.579051
0.580345
0.585242
0.58498
0.580048
0.585845
0.582558
0.583698
0.584109
0.584022
0.583272
0.585081
0.580628
0.570632
0.50857
0.340489
0.487773
0.568356
0.568803
0.581043
0.581629
0.585342
0.58154
0.569312
0.577185
0.585691
0.58393
0.585654
0.585204
0.584427
0.582983
0.57984
0.567226
0.53934
0.331231
0.554476
0.579337
0.583004
0.583156
0.585775
0.580596
0.56982
0.57331
0.581505
0.585717
0.585662
0.585046
0.58371
0.581843
0.574177
0.564487
0.522299
0.315295
0.543799
0.580917
0.581904
0.583207
0.585856
0.572831
0.57094
0.580489
0.581339
0.585317
0.585622
0.585567
0.583933
0.581784
0.574412
0.56035
0.515138
0.536672
0.579151
0.581496
0.583464
0.585921
0.57746
0.566799
0.574958
0.584338
0.584491
0.585659
0.585729
0.584468
0.582065
0.574528
0.555675
0.511467
0.532969
0.558665
0.579212
0.583819
0.585898
0.572661
0.56733
0.573102
0.579205
0.584247
0.585725
0.585756
0.584595
0.58104
0.573879
0.553044
0.34584
0.462552
0.561155
0.574466
0.580584
0.583917
0.585803
0.580227
0.570353
0.577237
0.582282
0.585658
0.585566
0.584561
0.584435
0.58033
0.56724
0.545159
0.33679
0.494784
0.566767
0.574366
0.580683
0.582968
0.585786
0.573014
0.573461
0.579333
0.584996
0.58571
0.584819
0.583177
0.583971
0.578226
0.567342
0.524475
0.500011
0.57979
0.585382
0.583348
0.583287
0.585713
0.579394
0.570694
0.576823
0.58469
0.585427
0.584528
0.585433
0.583499
0.577477
0.563696
0.515329
0.502389
0.58167
0.585923
0.584116
0.583184
0.585695
0.574859
0.576501
0.584221
0.585735
0.585421
0.584482
0.585428
0.583166
0.57686
0.561136
0.515931
0.499379
0.581067
0.585521
0.585081
0.58346
0.58464
0.578761
0.578166
0.58359
0.585704
0.585113
0.584259
0.585086
0.582078
0.574924
0.557769
0.355751
0.498514
0.578861
0.583933
0.583837
0.584085
0.58416
0.58566
0.582441
0.583504
0.585368
0.584533
0.583758
0.584854
0.581631
0.570027
0.548724
0.348884
0.542506
0.579132
0.571519
0.582003
0.58493
0.585733
0.585722
0.585805
0.585627
0.585216
0.58433
0.585359
0.584101
0.581022
0.568048
0.544137
0.339288
0.520394
0.537074
0.579559
0.585466
0.584989
0.575755
0.582163
0.585803
0.584955
0.58422
0.585281
0.583315
0.577128
0.561546
0.529431
0.338423
0.519329
0.568064
0.574492
0.584285
0.575634
0.572766
0.578221
0.585592
0.585358
0.584594
0.583294
0.583037
0.576186
0.557996
0.510711
0.542727
0.546799
0.568018
0.574546
0.581265
0.577161
0.57317
0.579308
0.584788
0.585551
0.584636
0.585182
0.5814
0.574106
0.554703
0.506979
0.534288
0.57578
0.578764
0.572501
0.575653
0.585718
0.577898
0.580826
0.585823
0.585107
0.584265
0.582018
0.58081
0.567372
0.548798
0.348075
0.523695
0.572018
0.566154
0.573999
0.571663
0.574626
0.584324
0.585591
0.58543
0.583908
0.583294
0.578989
0.574129
0.555609
0.54161
0.348963
0.356442
0.526152
0.560951
0.577193
0.572837
0.572269
0.573732
0.576437
0.580465
0.575648
0.573676
0.576002
0.580719
0.571084
0.545274
0.483428
0.352946
0.540664
0.566841
0.569859
0.582737
0.574905
0.574961
0.577693
0.583548
0.581728
0.577385
0.573733
0.569891
0.566949
0.514763
0.534216
0.366132
0.544907
0.561532
0.573298
0.582568
0.577291
0.579347
0.578931
0.580351
0.580967
0.574432
0.570843
0.570344
0.568012
0.51193
0.429999
0.513248
0.562835
0.517412
0.556962
0.575311
0.584402
0.582063
0.58346
0.583662
0.582075
0.57886
0.577567
0.571848
0.552574
0.508547
0.335199
0.508628
0.498857
0.535409
0.571017
0.569884
0.576051
0.580819
0.575816
0.576257
0.577809
0.580017
0.573375
0.568706
0.553341
0.526676
0.497821
0.342747
0.398
0.518942
0.570553
0.575604
0.575414
0.580305
0.581397
0.577356
0.574007
0.571542
0.567761
0.549402
0.552892
0.517771
0.339057
0.535201
0.432609
0.556738
0.572022
0.577144
0.581083
0.578356
0.57511
0.574488
0.574384
0.572311
0.56933
0.551049
0.535439
0.355281
0.343642
0.530668
0.555784
0.518612
0.551532
0.575303
0.582062
0.58072
0.575625
0.574359
0.57181
0.568236
0.561916
0.563097
0.515781
0.370129
0.503379
0.539547
0.553057
0.372725
0.525892
0.570659
0.578743
0.577864
0.575184
0.573394
0.572237
0.555481
0.572898
0.561025
0.516061
0.333173
0.512566
0.358333
0.525439
0.543822
0.575016
0.576194
0.57494
0.571298
0.568174
0.541369
0.563142
0.543414
0.376312
0.331259
0.400159
0.40083
0.520306
0.540884
0.533897
0.574889
0.574435
0.572293
0.556836
0.574022
0.563499
0.518097
0.338153
0.542978
0.558805
0.489976
0.522641
0.561631
0.534236
0.529698
0.572739
0.571056
0.556016
0.57159
0.55271
0.513197
0.324883
0.534585
0.555709
0.409992
0.429304
0.534357
0.563996
0.547011
0.540324
0.526268
0.529791
0.572511
0.553538
0.396772
0.315337
0.531593
0.408942
0.483121
0.48175
0.521277
0.555739
0.545855
0.564072
0.521935
0.502867
0.57369
0.55749
0.422658
0.312448
0.526896
0.375177
0.406857
0.450417
0.492742
0.542167
0.566134
0.573038
0.549482
0.516064
0.577114
0.542537
0.478671
0.336388
0.530538
0.545069
0.408864
0.412293
0.386367
0.47869
0.557681
0.559087
0.520911
0.577751
0.577631
0.544033
0.483589
0.319263
0.13065
0.543594
0.553769
0.468886
0.50534
0.367651
0.518206
0.54054
0.51502
0.504888
0.580813
0.548345
0.556552
0.511418
0.521101
0.519051
0.570605
0.526304
0.516364
0.519948
0.536797
0.556948
0.562326
0.514165
0.496458
0.571988
0.576485
0.5674
0.503089
0.0742495
0.516711
0.560781
0.517054
0.511215
0.56861
0.546747
0.340263
0.328456
0.374183
0.342586
0.562885
0.562362
0.492676
0.370097
0.332952
0.55864
0.562645
0.519597
0.342774
0.34438
0.540949
0.559355
0.563061
0.497412
0.334741
0.540617
0.212123
0.320694
0.533911
0.5243
0.552874
0.553066
0.544489
0.546039
0.523546
0.525946
0.542951
0.527282
0.514634
0.427331
0.310289
0.0740703
0.443912
0.622762
0.746319
0.73698
0.517604
0.647378
0.722172
0.746481
0.738934
0.716306
0.690518
0.672462
0.679739
0.490333
0.565292
0.637344
0.685612
0.714657
0.73336
0.741929
0.737124
0.728139
0.713687
0.703775
0.691762
0.688538
0.686656
0.680743
0.489023
0.538758
0.605392
0.630866
0.650086
0.668112
0.689568
0.713215
0.732226
0.737624
0.729622
0.715979
0.705895
0.70155
0.698886
0.694077
0.687458
0.662281
0.621792
0.667455
0.682625
0.702016
0.485147
0.51768
0.576058
0.589212
0.60011
0.620676
0.638851
0.648904
0.657921
0.684434
0.713094
0.727997
0.727355
0.714222
0.651826
0.679819
0.70141
0.693994
0.682653
0.668884
0.642376
0.618886
0.623588
0.500749
0.533305
0.557049
0.569445
0.58021
0.586078
0.5877
0.604814
0.62504
0.638702
0.641212
0.644962
0.684221
0.709103
0.716105
0.712427
0.705427
0.65549
0.684786
0.689015
0.683456
0.672898
0.654126
0.627946
0.586333
0.520865
0.564691
0.574932
0.577769
0.564621
0.563658
0.469686
0.496449
0.463759
0.612533
0.625147
0.636562
0.636837
0.64018
0.683438
0.695311
0.697114
0.696727
0.697043
0.648761
0.667542
0.689622
0.682628
0.670615
0.641709
0.380631
0.517506
0.563531
0.564663
0.581762
0.580675
0.586435
0.579883
0.575979
0.581828
0.587234
0.56271
0.630414
0.636749
0.420536
0.625807
0.487387
0.681187
0.691006
0.700776
0.70394
0.650464
0.66636
0.689178
0.672614
0.423304
0.536695
0.563957
0.574113
0.582207
0.584135
0.585968
0.580958
0.590429
0.591019
0.581339
0.58456
0.589401
0.597407
0.584915
0.58749
0.544148
0.623567
0.620762
0.677257
0.684953
0.68981
0.694272
0.694121
0.669671
0.512659
0.44665
0.534325
0.573648
0.580329
0.579695
0.582773
0.583421
0.584457
0.585399
0.582105
0.588823
0.594841
0.585392
0.583372
0.590681
0.58961
0.60097
0.617362
0.64449
0.64058
0.663494
0.668411
0.672522
0.660602
0.625965
0.407963
0.515763
0.563943
0.567252
0.571609
0.58179
0.581239
0.584751
0.584052
0.58441
0.581161
0.582986
0.585393
0.588064
0.591407
0.593609
0.594493
0.595671
0.59351
0.588412
0.581788
0.597356
0.621227
0.645204
0.649337
0.577594
0.499422
0.543034
0.574403
0.563998
0.575877
0.581614
0.581522
0.585567
0.58318
0.582557
0.581714
0.583442
0.584709
0.584939
0.584695
0.588525
0.59037
0.591636
0.592807
0.593557
0.587966
0.578956
0.51435
0.508226
0.493817
0.350194
0.497634
0.398181
0.518993
0.564973
0.579936
0.582111
0.584378
0.583851
0.585124
0.585017
0.584691
0.584474
0.584622
0.585128
0.585217
0.585197
0.585026
0.586716
0.588392
0.589177
0.589577
0.587556
0.583276
0.507528
0.387867
0.47102
0.516931
0.578021
0.581808
0.580744
0.579061
0.582278
0.58583
0.586132
0.586487
0.586035
0.584997
0.584911
0.585563
0.585423
0.584668
0.584667
0.583532
0.583564
0.584504
0.583094
0.582386
0.568213
0.527164
0.527051
0.579564
0.571604
0.582299
0.584665
0.583762
0.582596
0.577777
0.58316
0.58557
0.585946
0.58548
0.585999
0.584847
0.586473
0.586551
0.586388
0.585138
0.583456
0.581128
0.575767
0.572092
0.573888
0.55905
0.513565
0.529688
0.578776
0.589356
0.588806
0.588764
0.587106
0.585222
0.583206
0.582636
0.581407
0.585115
0.585932
0.586074
0.583029
0.583161
0.585965
0.586312
0.585955
0.584694
0.582318
0.578678
0.573982
0.543031
0.550183
0.515299
0.538263
0.584057
0.581874
0.586905
0.587845
0.588092
0.587459
0.586302
0.584848
0.584797
0.585078
0.583849
0.584912
0.585344
0.584829
0.583573
0.585494
0.586091
0.585324
0.583306
0.5812
0.576348
0.565131
0.526049
0.347173
0.497494
0.53839
0.582982
0.582895
0.587382
0.587118
0.587364
0.587175
0.587031
0.586152
0.585732
0.58552
0.585634
0.585927
0.584616
0.584291
0.58505
0.586123
0.586025
0.585839
0.585621
0.58353
0.579855
0.572807
0.534565
0.493207
0.495817
0.536513
0.58325
0.581939
0.585811
0.587006
0.587401
0.587027
0.586363
0.585295
0.584297
0.584293
0.584522
0.584611
0.585062
0.585951
0.58594
0.585172
0.584599
0.584233
0.585742
0.585667
0.583197
0.577909
0.558227
0.513429
0.497248
0.556845
0.584535
0.579764
0.584643
0.586075
0.5869
0.58636
0.585178
0.584265
0.583613
0.583063
0.58331
0.584004
0.5844
0.584647
0.584962
0.585587
0.585916
0.584955
0.579959
0.580251
0.577982
0.570596
0.561234
0.515937
0.350377
0.491177
0.55175
0.584486
0.587917
0.586508
0.586089
0.58645
0.586159
0.584729
0.58381
0.583475
0.583556
0.583692
0.583503
0.58389
0.584591
0.585156
0.585699
0.5859
0.586076
0.585644
0.581563
0.576973
0.567047
0.538633
0.537272
0.336843
0.527229
0.581853
0.580498
0.586297
0.586987
0.586829
0.586376
0.584477
0.583047
0.58303
0.583299
0.583593
0.583933
0.58415
0.584224
0.584461
0.584938
0.585589
0.585702
0.583817
0.583263
0.580292
0.572549
0.551644
0.550259
0.507149
0.519244
0.572267
0.584403
0.587136
0.587218
0.587441
0.586657
0.584741
0.581779
0.58006
0.580673
0.582167
0.583271
0.583956
0.584399
0.584567
0.584592
0.584633
0.584981
0.585848
0.584202
0.581905
0.579884
0.564213
0.549868
0.504947
0.499395
0.556796
0.582186
0.584766
0.586602
0.587375
0.586816
0.584429
0.58186
0.579399
0.577271
0.577163
0.578709
0.581287
0.583086
0.583992
0.584447
0.584632
0.584766
0.58518
0.585975
0.58483
0.581345
0.576615
0.56456
0.513761
0.523448
0.576886
0.584386
0.587036
0.587803
0.586615
0.583134
0.579358
0.576981
0.575767
0.57474
0.574187
0.575261
0.577582
0.580612
0.582824
0.58383
0.584321
0.584814
0.585696
0.585696
0.584115
0.578044
0.561108
0.53216
0.511736
0.568962
0.575535
0.584136
0.587488
0.586718
0.583043
0.577757
0.573098
0.571337
0.571136
0.570876
0.570763
0.57188
0.574156
0.577314
0.580852
0.583023
0.584169
0.585309
0.585891
0.584406
0.581611
0.5767
0.561949
0.474912
0.489757
0.549908
0.576817
0.581437
0.586202
0.587302
0.584327
0.579393
0.573765
0.568943
0.566414
0.566039
0.566774
0.568007
0.569546
0.572072
0.575791
0.579338
0.582324
0.584749
0.58596
0.584611
0.581673
0.577628
0.56992
0.520133
0.489037
0.545848
0.576064
0.580029
0.583823
0.586439
0.586077
0.581526
0.576312
0.571561
0.567697
0.564968
0.563429
0.563605
0.565317
0.568381
0.572257
0.576392
0.581054
0.584291
0.586072
0.584681
0.582531
0.576507
0.555146
0.538777
0.403532
0.519017
0.57108
0.581111
0.584211
0.585122
0.586731
0.584783
0.579294
0.574256
0.57033
0.567503
0.565673
0.564454
0.56362
0.564638
0.568043
0.573481
0.57935
0.583791
0.586281
0.584558
0.581231
0.574857
0.550447
0.540289
0.453151
0.500882
0.560849
0.574483
0.58436
0.586295
0.586794
0.586278
0.583455
0.577995
0.573006
0.569595
0.567614
0.566708
0.566062
0.565941
0.56626
0.568708
0.57434
0.580727
0.585523
0.586396
0.583674
0.575462
0.551217
0.539724
0.446771
0.544405
0.578745
0.584508
0.586918
0.587569
0.586088
0.583439
0.580348
0.57621
0.572563
0.569772
0.567964
0.567553
0.568273
0.568561
0.569218
0.571307
0.576217
0.58292
0.586636
0.586416
0.582837
0.577492
0.545454
0.450857
0.496282
0.569443
0.582437
0.585767
0.587602
0.586128
0.582948
0.579752
0.576822
0.574593
0.571919
0.570059
0.568555
0.568317
0.569895
0.572563
0.574415
0.576205
0.580932
0.585465
0.587094
0.58436
0.579258
0.558253
0.52061
0.532448
0.575263
0.584076
0.585985
0.587218
0.583671
0.57934
0.575909
0.573624
0.571846
0.571361
0.570493
0.570227
0.569286
0.57035
0.574384
0.578911
0.582255
0.585421
0.586745
0.585784
0.580646
0.563735
0.544611
0.447933
0.45645
0.552456
0.581484
0.584803
0.586294
0.586753
0.581939
0.576418
0.572755
0.570883
0.569643
0.569281
0.569857
0.570445
0.571427
0.572269
0.575357
0.58082
0.584568
0.586727
0.586066
0.582594
0.578454
0.565042
0.468661
0.523146
0.572048
0.581793
0.585081
0.587098
0.586218
0.580893
0.574206
0.570671
0.568455
0.567534
0.567919
0.569024
0.570778
0.573013
0.57611
0.578776
0.582335
0.585889
0.586922
0.584535
0.579909
0.564825
0.536598
0.356766
0.502971
0.569721
0.582796
0.586071
0.58783
0.587329
0.583452
0.577906
0.571702
0.567994
0.566042
0.565381
0.565664
0.567489
0.570027
0.573119
0.577589
0.582016
0.584906
0.586763
0.58601
0.582394
0.569875
0.542581
0.396436
0.549659
0.572676
0.583768
0.586939
0.587946
0.586021
0.581822
0.575231
0.569531
0.566169
0.564493
0.563954
0.564481
0.565941
0.569198
0.572968
0.577371
0.582197
0.585829
0.586326
0.582741
0.577288
0.564146
0.517067
0.504362
0.569464
0.582266
0.586744
0.587998
0.586624
0.584227
0.580348
0.575256
0.569845
0.565925
0.564266
0.563954
0.564311
0.565688
0.568889
0.573696
0.578153
0.582949
0.586211
0.586157
0.581614
0.566609
0.534011
0.356464
0.539283
0.576387
0.584054
0.587327
0.587254
0.584718
0.581571
0.577738
0.574154
0.570902
0.567847
0.565545
0.564965
0.565691
0.567222
0.56988
0.574593
0.580441
0.58432
0.586707
0.58517
0.578855
0.560681
0.516415
0.502442
0.568989
0.58151
0.585403
0.587641
0.586043
0.582388
0.578511
0.575057
0.572047
0.57038
0.569467
0.568165
0.567548
0.568078
0.570414
0.573644
0.577261
0.581935
0.586177
0.58681
0.583207
0.578095
0.557606
0.384158
0.539518
0.576528
0.58357
0.586453
0.587357
0.584762
0.580716
0.576827
0.573493
0.570588
0.568597
0.568312
0.568808
0.569496
0.570835
0.573207
0.577424
0.58161
0.584754
0.586908
0.585333
0.579395
0.561921
0.528832
0.502298
0.568784
0.58133
0.585253
0.587354
0.58645
0.583208
0.579204
0.575593
0.572725
0.570238
0.56829
0.567299
0.567871
0.569648
0.572448
0.575137
0.578729
0.583103
0.586291
0.586618
0.582706
0.577579
0.559285
0.388549
0.53714
0.577097
0.584089
0.586239
0.587536
0.585265
0.581243
0.577451
0.574476
0.572296
0.570426
0.568618
0.567646
0.567858
0.569605
0.57281
0.577058
0.580697
0.58409
0.586568
0.585392
0.581643
0.561288
0.528346
0.550237
0.573268
0.584357
0.587343
0.587225
0.58406
0.57979
0.575993
0.573352
0.57163
0.570574
0.569649
0.568757
0.56868
0.570063
0.573338
0.57814
0.582605
0.585523
0.586606
0.583278
0.57631
0.563586
0.416621
0.495609
0.568857
0.582133
0.586708
0.588062
0.586521
0.582972
0.578513
0.574791
0.572384
0.570983
0.570188
0.569905
0.569955
0.570218
0.571394
0.574009
0.578367
0.583788
0.58636
0.586176
0.581265
0.561473
0.534313
0.355074
0.507813
0.571772
0.583806
0.587873
0.587816
0.585578
0.581877
0.577282
0.573514
0.571292
0.570264
0.569873
0.569801
0.570135
0.571073
0.572747
0.575436
0.579335
0.583466
0.586439
0.585534
0.580448
0.555687
0.412688
0.520002
0.57503
0.584609
0.588174
0.586728
0.583498
0.579964
0.575934
0.572267
0.569919
0.569014
0.5692
0.5697
0.570299
0.571407
0.57347
0.576827
0.580893
0.5847
0.586644
0.583616
0.576856
0.547059
0.371725
0.54839
0.573557
0.584834
0.588017
0.585744
0.581576
0.577601
0.574212
0.571354
0.56914
0.567826
0.567777
0.568976
0.570383
0.571855
0.573998
0.577517
0.582095
0.585775
0.58597
0.581912
0.565279
0.530314
0.498753
0.564273
0.579845
0.586415
0.587722
0.584652
0.580175
0.575971
0.572739
0.570445
0.569008
0.568045
0.56745
0.567909
0.569805
0.572121
0.574783
0.578202
0.582548
0.58617
0.585099
0.576583
0.563548
0.399784
0.51626
0.572716
0.583887
0.587641
0.587059
0.583681
0.579186
0.57482
0.571482
0.569401
0.568427
0.568195
0.568346
0.568719
0.56978
0.572008
0.575191
0.57942
0.583526
0.586458
0.584107
0.576123
0.543928
0.357451
0.54856
0.571498
0.583691
0.587628
0.586406
0.58232
0.57783
0.573817
0.570427
0.567987
0.56715
0.567466
0.568192
0.569198
0.570541
0.572534
0.575624
0.57984
0.584305
0.586573
0.582707
0.571076
0.533391
0.492202
0.567967
0.581457
0.586409
0.587815
0.585718
0.581343
0.576345
0.572312
0.569412
0.567142
0.565809
0.565953
0.567197
0.568812
0.570685
0.573076
0.576473
0.58092
0.585185
0.586191
0.58206
0.565312
0.520749
0.519318
0.573721
0.583729
0.586709
0.587474
0.584787
0.580478
0.575264
0.57076
0.56766
0.565939
0.564964
0.564674
0.565487
0.567663
0.570343
0.573274
0.577099
0.581794
0.585717
0.585248
0.576922
0.564219
0.408256
0.536759
0.578461
0.584522
0.587667
0.586765
0.583114
0.578778
0.574224
0.569847
0.566325
0.56418
0.56355
0.564019
0.564693
0.566357
0.569536
0.573443
0.577828
0.582891
0.586445
0.584984
0.575661
0.542945
0.359155
0.548556
0.572235
0.58447
0.587757
0.586315
0.582432
0.577776
0.573575
0.569857
0.566342
0.563691
0.562357
0.562551
0.564107
0.566224
0.569325
0.573657
0.579039
0.584089
0.586634
0.582089
0.574793
0.534965
0.424107
0.56685
0.582395
0.587153
0.587799
0.585202
0.581503
0.577331
0.57334
0.570099
0.567429
0.56472
0.562714
0.561942
0.562872
0.565766
0.569811
0.574619
0.580203
0.585482
0.586139
0.581676
0.560006
0.517773
0.497126
0.57049
0.58203
0.587084
0.587716
0.584782
0.580751
0.576876
0.57337
0.570387
0.568121
0.566323
0.564537
0.56305
0.563065
0.565279
0.569794
0.575769
0.581869
0.586244
0.585347
0.576713
0.56278
0.403835
0.505786
0.572173
0.583462
0.58711
0.587678
0.584825
0.580521
0.576485
0.573366
0.570856
0.568822
0.567092
0.565763
0.565045
0.564895
0.566443
0.570374
0.57659
0.583332
0.586762
0.583262
0.577051
0.540039
0.536509
0.578345
0.585161
0.587984
0.587305
0.584725
0.580611
0.576229
0.573011
0.570973
0.569486
0.568083
0.566495
0.565462
0.566005
0.56804
0.5717
0.577603
0.584151
0.586666