/*--------------------------------*- C++ -*----------------------------------*\
| =========                 |                                                 |
| \\      /  F ield         | OpenFOAM: The Open Source CFD Toolbox           |
|  \\    /   O peration     | Version:  2312                                  |
|   \\  /    A nd           | Website:  www.openfoam.com                      |
|    \\/     M anipulation  |                                                 |
\*---------------------------------------------------------------------------*/
FoamFile
{
    version     2.0;
    format      ascii;
    arch        "LSB;label=64;scalar=64";
    class       volScalarField;
    location    "190";
    object      omega;
}
// * * * * * * * * * * * * * * * * * * * * * * * * * * * * * * * * * * * * * //

dimensions      [0 0 -1 0 0 0 0];

internalField   nonuniform List<scalar> 
404911
(
212.487
143.384
3432.87
1536.57
124.246
138.58
106.724
602.49
340.897
281.61
213.857
275.25
127.725
192.876
385.8
1098.45
203.786
118.299
137.129
229.421
344.416
155.992
529.681
301.606
104.677
906.64
226.708
81.0766
101.327
968.048
213.334
71.3231
155.764
233.932
175.669
73.3477
146.241
399.797
186.774
71.09
162.318
1001.7
186.294
70.4309
62.7322
353.623
305.785
71.0036
68.6598
421.65
376.847
328.727
124.131
1321.06
325.083
565.982
9402.12
89.3467
296.506
197.228
135.819
76.7849
154.323
48.7653
74.97
115.014
89.6157
307.511
93.5319
45.2653
84.5027
28.9683
73.4947
54.6805
33.2592
581.515
2261.92
214.406
47.5854
71.0693
37.5604
80.9347
26.3325
56.555
62.9472
39.1009
179.026
34.82
1119.85
56.1845
85.6223
2947.86
33.7026
51.1768
61.763
40.6426
55.6072
45.3409
33.1123
204.345
586.305
34.7092
44.5175
433.992
1132.81
392.303
157.28
570.498
239.65
174.481
123.613
124.987
116.832
129.095
2187.54
408.382
134.23
4446.57
497.047
102.744
104.355
104.86
107.774
168.04
1197.09
219.703
127.015
118.412
106.359
421.499
382.542
419.709
105.094
98.3058
105.892
98.5319
139.183
136.453
91.1193
189.56
1071.42
215.433
117.41
104.248
105.482
105.76
109.816
103.329
421.874
365.437
104.268
95.884
111.168
1684.68
190.089
882.787
171.068
100.814
91.3057
99.5768
99.4226
105.277
109.356
109.241
105.004
100.806
99.933
97.8696
106.303
167.599
305.518
488.775
358.121
333.29
355.629
349.606
424.142
105.448
109.642
102.84
102.626
100.958
106.943
114.962
117.523
115.654
203.239
605.662
377.084
324.97
328.108
175.206
285.474
454.065
362.299
95.9774
101.122
99.1676
106.002
110.531
114.295
139.58
1055.53
883.686
171.098
484.455
263.454
206.423
200.004
186.367
358.862
257.627
308.168
366.571
369.824
92.8004
103.975
108.267
106.072
124.776
392.94
755.371
495.854
192.968
116.909
83.4538
105.596
203.77
201.7
143.081
212.21
164.093
136.03
85.7737
106.989
107.663
122.181
203.053
1094.24
1110.66
193.949
71.52
105.203
79.2196
74.6943
82.6195
88.4474
131.101
148.742
180.109
95.9302
85.1941
231.788
387.539
97.4292
130.613
1000.67
364.142
96.4953
63.2922
121.738
73.0721
72.5263
70.8054
74.1639
77.1101
90.0133
80.4986
78.0829
165.53
306.004
371.871
434.783
332.808
372.911
128.689
91.8009
215.289
76.4606
73.3703
82.1021
72.4331
79.5037
83.4944
71.5984
73.0715
103.32
287.567
346.782
378.007
1578.59
267.309
104.647
86.1124
56.5977
65.8566
72.6813
77.3215
72.033
72.1537
70.0317
73.6549
75.6401
72.1301
147.067
311.546
348.242
161.754
923.959
876.813
781.23
214.483
118.878
39.0047
36.6912
72.9588
75.8395
73.8809
68.671
67.4601
66.3486
71.052
73.0209
96.7343
278.907
115.321
447.535
1004.23
168.78
84.2296
131.399
73.8833
72.8779
67.199
29.9686
68.9169
64.8512
68.688
36.5489
35.3592
71.5957
76.8036
87.8671
287.035
179.652
371.856
93.5451
65.7184
45.1196
38.9485
66.9103
59.4208
60.8414
30.1269
41.0578
27.3827
28.5037
37.5821
46.6637
76.3882
108.234
115.334
899.396
1034.37
180.222
85.9427
57.3959
33.2958
29.3151
35.921
52.7681
36.8811
37.1308
25.7224
51.5976
44.5625
55.0427
64.4859
70.5924
309.782
780.711
262.306
82.7248
64.7084
68.4108
65.5932
40.2574
56.5666
39.0988
26.8541
27.3504
26.5576
34.4265
45.5814
67.215
84.3958
75.0045
190.884
609.849
997.41
789.805
248.366
95.909
73.7658
43.0377
54.6084
47.468
38.7598
33.4327
24.676
26.5361
27.0756
40.6791
73.699
98.783
79.826
343.196
339.513
100.519
115.212
71.2617
50.6857
37.9008
41.125
47.7446
38.9105
57.1607
43.0117
26.9088
29.1554
36.7778
46.4848
74.6112
187.761
869.66
116.167
68.4903
80.1304
40.4082
41.1735
38.0185
36.5402
52.0342
63.2545
60.9323
58.3449
44.0709
40.6475
38.7508
82.6441
85.6214
219.892
335.922
78.7712
86.1431
60.1739
35.9514
28.739
36.6158
33.4378
36.9435
45.1249
65.2708
56.5779
42.0892
64.1389
53.5061
90.1002
99.3906
872.859
166.162
62.9051
46.5279
32.6926
30.7701
27.9187
27.9558
47.7855
24.892
24.3431
34.2764
40.4019
62.1258
72.8631
94.5767
95.4455
192.624
1066.52
364.485
102.805
65.94
39.862
31.3002
28.0336
34.3865
33.7114
26.0636
25.4566
24.4887
26.2914
28.6096
36.0278
94.4416
57.2227
108.072
898.465
1023.86
153.613
63.1423
75.0279
38.8856
30.22
27.9693
26.0413
24.8237
33.3624
23.9328
32.8188
34.6132
31.3838
35.5963
47.4397
85.1135
204.18
341.384
87.5981
62.2987
40.2474
31.9612
28.7167
27.6498
26.151
34.4414
25.3235
24.5608
24.7078
38.5302
43.5235
56.595
76.2768
103.909
892.016
1037.59
156.264
65.144
49.8173
35.8918
30.0779
27.788
27.1595
27.2014
25.1675
34.0923
33.2787
33.8891
29.3363
40.7651
51.5551
104.552
181.603
803.962
93.4968
65.2096
44.3909
33.6503
29.3511
27.3548
27.173
26.9077
26.6716
25.5108
24.3367
25.4176
27.9386
35.0717
72.0041
120.756
231.251
185.269
70.7097
63.9617
43.4209
33.0662
28.3989
27.009
26.583
26.6238
26.5274
25.8339
25.8323
26.7808
29.4629
45.1037
69.4865
93.9717
408.148
162.499
89.8463
72.8604
39.7371
32.3226
27.4386
25.7626
24.6659
25.8733
26.0274
25.4157
25.8274
27.3539
34.7978
48.4086
67.1546
162.596
1011.22
1053.29
110.106
59.2711
55.8504
42.4462
29.6742
27.2121
24.6771
32.447
31.861
24.8322
25.1457
26.2799
27.9246
35.3563
81.2276
92.9893
360.932
830.523
98.5586
63.6112
38.7353
31.3701
28.2779
26.2571
26.1118
24.4159
31.3274
26.2936
24.1503
26.4643
28.7433
33.9787
75.578
97.293
955.807
205.356
81.6177
65.4369
39.1875
30.7741
28.8085
27.0154
26.1905
26.247
25.3935
24.2739
24.0558
26.3757
29.0398
48.471
57.6303
102.585
995.384
192.693
69.6576
47.6751
35.2083
29.4585
34.2462
34.707
24.7952
26.0321
25.9159
25.6515
26.0141
27.2037
30.2807
43.8144
65.1953
180.553
935.257
127.752
68.362
47.0239
32.9253
28.7089
26.7562
32.4447
32.9252
23.9402
25.0368
25.2013
25.946
27.3493
31.7431
61.935
81.8322
348.763
342.078
87.1495
78.0288
57.7059
33.4984
27.117
25.4982
24.7475
32.3406
31.5023
22.2306
24.1393
26.595
27.6808
32.6149
60.4864
96.2748
902.649
198.582
69.8638
48.2777
36.1925
30.0458
26.6937
33.2925
31.8118
33.4444
24.3814
31.0889
26.4905
24.8048
28.0309
33.3412
67.2793
136.449
1034.37
953.806
113.864
64.4508
48.5266
34.0932
29.5158
26.4187
32.1845
30.717
31.8078
32.4766
23.1953
29.616
31.5395
28.3511
40.4783
61.5547
160.788
946.528
104.866
63.9995
41.5534
32.2908
28.6452
26.9301
26.0244
31.6529
32.3652
31.7778
29.293
23.7298
26.7121
30.3008
42.4507
71.6949
325.912
930.978
103.623
64.5752
39.2163
31.52
28.1946
26.7164
26.2481
26.1774
24.2034
20.0683
27.3775
28.2581
26.9694
33.9641
58.6603
83.3164
803.994
926.615
100.511
63.4613
39.0516
30.7877
28.1496
26.7562
26.4781
26.0477
25.7919
24.7269
21.0889
29.1561
33.9272
36.4654
68.5425
135.775
1032.46
196.447
85.9059
65.0888
40.3186
31.6019
27.8055
26.4991
26.2088
26.1544
23.6393
21.2164
22.2786
24.3217
33.5284
36.6443
69.718
157.764
1054.96
176.349
70.5456
51.2871
39.2129
32.038
27.847
25.8667
25.6542
26.3661
24.9616
20.9729
25.9311
31.1367
29.8614
35.3085
72.6184
153.176
1004.54
105.681
74.4896
59.2009
36.8178
31.6085
27.6713
25.0005
24.391
25.1504
26.2188
24.7821
24.0758
30.771
36.2892
44.2643
70.9884
166.708
883.532
102.728
65.5256
39.852
32.5298
29.4425
27.5131
24.7334
29.8288
28.1101
24.3832
25.0842
25.8647
26.7614
29.4813
46.5073
64.4489
177.229
949.163
103.032
65.3187
39.2466
31.1644
28.9216
26.8609
26.2254
24.2035
30.2955
28.857
24.9414
26.0577
27.5691
30.4609
49.2757
67.407
192.11
950.531
106.607
68.7121
39.5197
30.6444
28.5107
26.7898
25.8474
26.2479
26.0009
25.0604
23.8828
25.8141
27.5144
33.0643
49.8715
74.4281
330.529
883.104
99.5255
65.9476
38.8595
30.0539
27.7927
26.4351
26.12
25.8676
26.38
26.0702
25.4677
26.1882
27.6787
33.1973
64.111
94.8704
885.681
207.101
96.5269
64.535
38.4413
29.6974
26.8812
25.8366
25.2999
25.4427
25.1489
25.5775
25.468
26.2211
27.6652
33.1947
61.3273
96.6836
969.322
211.115
93.0378
62.7548
38.2815
29.7251
25.8057
24.834
24.2921
21.3575
20.78
21.9207
24.8202
26.5975
27.4899
33.043
62.3804
94.8125
937.351
1076.77
130.847
88.3557
63.6601
35.9185
35.131
33.5356
20.709
21.1429
21.1955
22.9423
23.5
24.684
25.2173
27.6052
32.8056
66.0494
105.425
923.27
964.076
99.4383
62.9223
71.5711
36.4891
27.47
31.1757
26.2253
21.9812
21.9163
21.7431
21.1022
22.9545
30.2341
27.8531
34.6123
62.485
143.002
104.191
64.1884
37.0311
29.7094
27.034
26.0765
23.3181
17.4451
20.7236
23.3882
21.1348
19.8524
24.0234
27.8697
41.0827
60.1392
152.74
899.512
103.285
62.1457
33.749
27.916
26.5687
25.9758
25.6842
22.9844
21.7969
20.3339
20.3277
23.4036
23.8435
28.7961
44.614
67.0381
193.704
940.606
95.7982
58.9134
31.7273
27.2406
26.6465
25.4653
24.9227
25.1056
22.7272
22.0049
21.3076
23.1871
24.0028
28.4112
43.5861
71.6035
335.166
1038.32
94.5309
60.2496
31.5328
26.845
26.2243
25.5581
23.3547
20.6673
21.7424
22.0595
23.4522
26.1632
24.4754
29.3753
47.4065
76.9936
749.292
87.6849
67.388
33.4794
27.1014
25.9326
25.9466
25.5662
20.3322
23.8651
24.9497
22.6882
24.0107
25.523
31.3282
59.7069
93.5326
851.322
657.558
112.964
33.4062
27.4865
25.9728
25.7187
25.8325
25.3375
19.7141
23.561
24.3209
24.7614
26.8243
33.2861
64.7275
96.5962
950.313
2071.07
237.246
70.0203
45.9166
27.2714
25.9477
25.8756
24.9308
23.7739
24.2439
20.4195
25.6459
24.0367
27.4817
38.2541
61.9764
111.633
999.456
191.472
55.3538
58.2579
36.8023
26.3297
26.2129
25.8489
24.7265
20.9692
23.7612
24.5994
22.9687
24.1094
26.8556
40.8029
65.4535
173.458
177.189
74.1771
41.3926
30.0493
27.2821
26.3767
25.5735
25.6973
23.37
24.6985
23.8312
29.3149
25.8419
29.5412
42.7315
68.8288
190.118
1083.99
147.88
65.4607
41.5134
36.8562
39.2303
40.6382
34.3349
25.1482
22.8286
20.1482
19.3793
22.5246
25.1409
31.5867
60.8544
83.2939
752.838
854.557
101.43
57.2066
32.369
34.2648
35.3086
73.8116
71.0308
34.4097
21.2087
24.3603
26.743
23.7167
25.9956
33.7963
70.1448
91.2215
882.71
726.574
69.6828
97.4203
50.9812
35.5757
33.9165
31.6455
38.0405
77.393
36.1048
24.1686
27.1787
32.3012
33.0134
38.9985
66.4345
93.8658
892.596
342.298
65.3488
65.8264
40.6557
33.0689
33.5179
40.5868
31.0388
29.4095
39.8039
31.4405
32.3276
34.0242
34.2789
38.6279
72.8041
100.388
928.826
909.426
150.404
66.2924
50.9336
42.8184
31.9365
24.8815
17.397
30.0268
50.9242
41.0689
35.292
33.4414
34.0637
26.5316
37.2354
66.6443
220.004
936.285
797.489
77.8391
80.5631
46.8997
41.6767
32.2644
19.4075
10.9352
15.3623
28.7996
38.0344
26.646
26.5892
27.2514
29.1349
34.2091
62.6013
108.287
965.18
134.291
61.5356
42.3848
40.3005
30.4873
18.5979
11.2882
13.2635
19.6164
29.6819
23.4669
26.7858
27.7651
29.5638
47.2732
58.4103
151.184
1088.32
162.085
61.9005
54.3981
43.6355
30.3783
12.944
11.9623
18.9293
19.4122
25.8867
28.3412
24.7852
27.1984
29.3501
45.77
64.8199
187.766
166.015
66.3112
58.9115
45.5302
31.6013
16.5042
9.93042
14.3964
24.2353
23.178
29.4048
24.2287
26.5083
28.9085
45.1906
68.9453
330.526
142.036
118.535
68.0159
43.7516
31.9908
12.9778
10.3298
13.4531
17.4312
22.9202
27.3305
24.0494
27.1558
31.5502
47.1061
73.1509
764.501
850.344
88.3427
75.1946
57.8646
41.8723
30.6145
18.4673
11.697
16.3095
20.6675
27.9337
30.4709
31.7645
27.7855
34.2708
64.851
97.8114
867.505
805.651
96.8372
79.0799
58.3777
43.7192
30.3401
12.7532
13.4068
17.8638
25.6497
30.1871
31.8213
33.6886
28.2983
38.3203
60.7986
163.87
747.095
81.1284
55.9752
50.1884
44.0583
32.5775
17.4069
11.6042
15.437
24.3255
32.9417
33.2689
25.8686
28.3354
39.5192
64.8807
196.884
760.408
82.3585
55.5515
48.447
45.3318
32.7777
13.7136
15.1384
24.4925
30.5456
32.1001
33.19
25.6813
29.0599
41.6574
69.4755
197.857
771.675
86.1798
54.4231
42.0528
42.9587
37.1938
15.845
15.9747
22.2161
30.5224
32.3595
33.372
26.413
30.5291
47.1747
74.4384
753.269
779.334
84.8271
56.0539
46.8917
42.3268
38.0976
31.3014
19.0484
20.8921
33.045
34.1331
34.1966
26.4784
30.3023
58.6747
93.0821
857.828
197.445
85.4546
101.639
51.7284
37.2132
27.7923
26.4522
29.6029
32.0376
33.3173
33.7997
26.0562
27.1453
30.3304
58.9473
97.0598
933.812
250.496
178.432
54.8746
34.354
25.3251
13.8877
18.7288
28.8594
33.7051
33.7672
25.957
28.001
36.4362
65.2138
133.47
1066.6
235.086
103.075
70.9989
40.1331
14.043
12.4902
15.9434
27.7576
33.1078
33.8914
33.8712
28.4237
37.4771
62.4035
171.068
193.289
184.084
98.6948
73.0326
43.6102
14.6832
12.6458
17.1025
24.3758
33.1577
33.5141
26.6943
32.0044
44.4202
64.2639
192.998
208.702
73.6427
65.8805
77.3447
59.7236
28.4424
14.7913
17.8387
29.5303
34.5878
34.8758
36.9869
35.4773
68.6794
83.6531
741.518
211.861
75.9933
91.8765
72.8771
81.8219
68.6831
33.898
30.5812
31.3849
36.5199
35.3312
46.0986
60.66
100.346
107.479
932.689
1054.36
188.802
91.3531
53.8285
71.5362
78.5935
79.8447
66.8006
41.7618
61.9592
68.3161
56.8795
37.9894
67.4031
116.726
373.762
1100.91
119.806
67.1357
72.964
34.0198
68.3761
70.7551
61.6954
34.3673
38.6
51.3258
65.3477
74.8957
77.1233
167.27
152.757
869.41
113.279
79.306
53.7677
33.0811
57.5886
54.0665
59.3027
51.0664
42.2999
58.9866
66.7475
71.4705
83.4051
207.177
699.127
192.7
76.4017
276.403
105.27
56.0368
31.7986
41.9309
39.2378
38.2194
38.4421
40.9915
39.2787
56.9593
92.9989
201.314
3967.04
202.138
430.182
154.622
84.4821
80.7807
58.9912
45.4434
71.1317
70.0656
54.1492
39.5671
61.1259
71.104
102.19
191.339
675.596
944.839
513.7
214.08
79.059
64.7316
67.6156
44.2911
42.5421
61.382
70.516
76.8669
75.8051
120.106
112.795
218.585
1062.49
109.853
334.698
112.219
75.5351
60.6109
41.6933
51.1364
71.2563
73.251
70.2477
78.9993
69.2405
109.313
139.904
1285.04
1051.78
124.81
82.765
223.763
138.066
76.1882
41.3168
44.1047
69.7256
73.6835
73.1297
79.4637
93.1296
81.8243
214.176
1117.98
457.828
119.349
85.6681
371.555
229.548
90.6091
53.0426
57.5169
73.4418
77.5334
77.4477
107.469
70.2821
91.1484
222.988
1010.23
427.131
359.055
267.269
162.106
69.1522
69.4807
70.2277
80.8215
81.4542
126.489
86.2661
137.033
1020.51
591.673
401.278
341.684
291.568
132.96
216.014
73.6892
71.7509
79.9359
107.902
72.0048
94.7722
213.644
1036.64
111.432
85.965
384.294
279.716
93.0801
224.397
274.552
82.633
90.798
125.95
89.2017
119.075
407.995
1095.16
120.214
90.6802
389.624
364.53
191.372
91.483
132.946
156.724
244.053
243.263
96.3605
131.876
1070.76
1019.73
119.245
425.891
379.874
390.79
272.993
119.893
170.702
89.882
247.439
388.668
99.897
139.767
1155.38
1083.74
118.648
440.06
380.979
390.355
363.088
127.893
102.86
79.3526
152.875
393.976
105.221
212.816
1205.28
1035.33
128.615
98.4437
402.856
365.406
399.248
362.279
84.0968
92.4283
237.033
99.9329
116.856
216.328
1312.09
1315.54
1025.54
102.647
95.6734
381.783
379.542
494.298
238.728
135.409
256.744
403.381
121.785
233.964
102.344
410.385
367.078
373.558
91.1897
400.033
411.122
432.573
404.617
105.803
92.3108
364.532
437.933
105.802
124.211
188.79
1043.78
6163.47
479.456
91.6779
377.07
410.163
130.38
266.842
2697.33
1976.83
380.103
657.743
122.684
144.145
1023.98
359.232
648.519
124.639
137.133
452.51
709.158
483.017
152.918
120.366
160.591
1022.71
1030.44
184.427
1822.37
696.761
399.716
228.524
108.749
103.548
131.003
132.501
519.274
172.976
113.084
254.159
557.826
1348.35
1185.74
6309.42
365.248
1435.71
575.584
603.961
1236.8
470.125
292.408
214.957
223.186
239.777
260.476
286.678
525.563
1224.89
453.223
260.406
181.654
173.439
160.288
154.321
168.218
198.662
233.09
264.35
282.55
313.603
352.8
394.756
1118.96
405.108
179.76
156.172
140.925
142.542
144.065
144.442
149.259
155.487
174.247
186.59
214.158
251.234
293.675
321.332
358.161
391.975
454.415
607.896
710.611
1429.04
812.608
369.832
161.494
139.102
132.808
124.989
124.449
131.952
139.966
142.806
145.121
147.608
157.494
151.931
498.836
558.167
261.956
301.837
311.371
356.564
390.427
484.495
1012.37
410.247
196.372
136.85
119.538
105.717
103.971
106.256
110.592
121.428
125.687
133.514
138.299
142.738
141.397
144.248
149.921
143.176
464.691
554.251
231.709
284.94
318.379
369.321
452.465
1643.16
293.015
102.294
72.7188
68.542
94.0391
99.7801
437.576
478.479
562.92
93.8216
116.447
124.648
118.233
121.329
118.573
135.466
140.337
137.256
132.469
440.139
540.001
231.025
287.216
365.405
781.134
1356.02
273.342
122.356
110.121
59.4285
66.9375
61.7102
90.0686
107.257
92.4732
90.6227
232.013
98.3846
112.871
867.758
139.147
554.618
117.754
137.333
152.598
164.068
500.69
554.705
272.318
653.673
1116.31
217.194
147.288
97.5189
45.9926
40.7318
37.2455
57.4303
48.7057
50.5286
89.2768
90.6018
84.0743
89.1501
198.517
221.139
336.858
133.413
202.468
128.878
142.801
151.296
169.219
211.863
506.173
299.771
1209.41
210.464
115.495
76.9849
63.5189
38.397
37.8709
36.99
36.1884
47.343
49.6462
40.9595
79.79
97.2113
74.9561
93.8907
89.1766
91.5756
80.8186
126.721
97.7593
133.784
157.983
263.435
508.603
952.99
278.511
92.1791
94.66
98.622
54.2135
51.5207
32.212
32.6317
32.4938
45.5818
40.2338
37.5627
34.547
31.5729
33.5744
37.3839
41.9902
57.4745
86.1374
139.426
105.825
107.3
111.416
143.806
412.864
1015.58
138.723
72.0011
100.101
72.2219
47.9649
51.2607
30.5978
36.9995
39.8476
44.5211
40.407
38.7941
38.1496
38.2074
32.5706
32.5776
35.4323
39.6059
46.3809
65.2429
93.6396
446.374
407.79
522.469
4367.07
654.718
1252.69
206.293
92.0208
54.5597
43.2025
35.7251
40.4958
36.4463
36.8262
38.7346
40.8339
40.6399
39.2962
38.8912
39.3718
38.2467
35.8454
37.1129
42.2684
49.8387
61.8663
73.9276
435.608
1500.85
1143.43
238.14
88.5634
50.6151
42.0249
47.2669
41.0071
30.4761
29.6551
31.7727
34.941
39.4487
41.55
37.3195
36.7988
40.2236
39.8671
41.3745
42.063
48.4145
59.462
65.6485
110.661
322.773
334.836
106.418
143.512
101.165
77.2338
46.0099
36.6023
47.2949
36.1519
31.7107
28.2126
26.8454
27.6003
23.1587
30.9012
29.8665
30.2671
35.6905
39.9005
46.3742
60.4468
62.3052
64.0714
105.305
345.172
315.361
110.085
76.9653
69.8805
48.7395
44.4344
41.1766
39.9718
32.9614
36.8283
32.2694
30.8597
28.9597
20.9774
20.6669
26.1671
27.8715
31.1023
34.4703
40.6999
52.54
65.8985
120.643
94.1713
338.015
278.175
90.1043
94.5009
73.3593
49.7451
40.2225
36.0673
33.0587
32.3207
28.2852
25.849
31.9384
31.7361
34.3915
22.5627
20.8544
24.442
27.5371
32.0461
35.8067
40.5449
59.1087
86.0831
157.27
707.736
1017.63
266.738
86.8979
84.7577
52.6273
43.7253
38.1534
34.258
29.9695
25.0288
22.1489
20.0181
19.7752
22.2151
30.9618
33.306
33.2225
28.7283
26.5469
26.2401
23.4874
34.5295
45.8184
69.5159
140.109
300.124
995.119
260.153
79.132
79.9435
49.8885
37.0266
31.0362
26.5843
24.9827
23.3056
20.5756
18.3983
17.4292
17.1543
17.7982
20.0864
22.2426
24.7459
28.1357
32.9539
23.33
24.5934
35.5552
56.0939
125.5
327.539
887.44
157.097
76.2
83.8288
51.1003
36.7147
28.8834
23.2376
20.4357
19.1475
18.8698
18.8365
17.9065
17.1541
16.8427
17.1039
17.5779
18.6464
19.5998
21.196
27.9878
29.1147
36.1421
54.3306
83.29
215.139
1204.83
1086.85
171.261
73.2645
56.4939
44.1452
36.6438
30.8033
23.3343
19.1999
17.477
17.0779
17.3332
17.9773
17.915
17.5144
17.3115
17.5637
18.924
20.7603
24.5353
22.7602
30.1848
40.2784
60.8771
100.765
96.9032
1386.36
291.13
79.257
84.2147
49.9804
36.0166
30.741
25.2886
20.3104
17.6181
16.6942
16.5023
16.6757
17.0537
17.4202
17.4064
17.2362
17.3672
18.4683
22.2521
30.496
36.4463
45.0106
62.8134
96.7511
95.72
315.007
335.23
103.353
68.2958
48.3288
38.1019
31.4698
25.6194
21.7876
18.2067
16.5601
16.292
16.5181
16.6722
16.9177
17.1802
17.3095
17.3819
17.5943
18.4056
21.1343
27.7852
34.0352
43.0615
69.4596
93.7491
328.16
863.008
140.622
66.6471
56.0184
39.9076
33.4047
26.9205
21.709
18.4432
16.6452
15.3936
15.3574
15.8184
16.4423
16.7288
17.0159
17.321
17.6467
18.1607
19.3939
22.4315
29.9149
41.2129
58.4231
74.72
279.993
282.172
77.0379
51.8749
35.45
29.6213
24.5901
20.3185
16.8312
15.0893
14.3825
13.9331
13.7296
14.3222
15.0751
15.8586
16.5591
17.1006
17.6708
18.594
21.2748
25.8327
32.0536
56.1852
97.1039
174.17
335.803
88.8821
81.106
44.8266
30.391
23.4309
19.6358
15.5636
12.9364
12.095
12.0372
11.8829
11.8262
12.4158
13.5128
14.6715
15.8629
16.7443
17.6574
19.8612
24.295
30.9039
39.8621
59.8709
85.817
690.884
812.159
128.943
67.6149
55.3232
33.1085
25.0478
19.5907
16.1719
13.1548
10.8546
9.82728
9.72966
10.0329
10.5204
11.195
12.3262
14.0136
15.7049
17.0504
18.953
22.041
30.693
40.1035
56.5733
71.3768
281.054
817.43
140.941
70.1547
60.8502
38.6934
29.37
21.1646
16.751
13.9743
11.9151
10.2344
9.16652
8.63144
8.72023
9.38809
10.6128
12.2974
14.1567
16.512
19.5252
23.9562
31.1849
37.3588
63.4914
108.936
148.08
947.114
293.285
85.4346
60.8688
39.8378
33.0248
25.4035
19.0549
14.9887
12.9173
11.4001
10.219
9.40872
8.96779
8.6882
9.09617
10.4597
12.8007
15.9061
19.2552
24.5507
31.66
43.7065
64.306
104.753
130.649
783.113
657.302
111.116
83.0965
44.9186
32.2647
26.796
21.8735
17.3407
14.0237
12.1511
11.0051
10.174
9.70576
9.35542
9.47604
9.69928
10.7196
13.2053
16.7911
21.8638
27.8736
36.525
66.0513
102.958
127.71
771.29
149.896
68.0549
44.478
32.3403
25.3578
21.9913
18.2684
14.9006
12.821
11.7291
10.8542
10.1449
9.74683
9.92663
10.2091
10.8451
11.8991
14.4093
18.9471
23.9642
30.851
43.4692
62.7447
115.229
766.886
654.835
80.7423
55.5529
36.2259
26.8894
20.8607
17.2785
15.4246
13.4292
11.9481
10.9329
10.4719
9.97517
9.81171
10.2503
11.3601
12.8035
14.2437
17.3117
21.5673
28.9773
39.3718
63.0216
104.637
265.987
162.219
69.4948
46.3206
34.3063
23.8973
17.8579
14.5664
12.8014
12.0844
11.1409
10.694
10.3385
10.3844
10.0254
10.3443
11.7889
14.0066
17.052
21.4451
28.8683
33.3725
55.3154
99.8716
137.205
807.775
824.001
114.725
56.8954
40.5487
32.5458
22.8762
16.5464
13.0556
11.3574
10.6839
10.2968
10.0513
10.0795
10.2833
10.8382
11.377
12.7781
15.3176
18.0518
22.2492
29.3888
39.6201
54.6259
80.8468
716.507
232.3
77.0918
56.9886
38.7009
29.9141
22.5564
16.2013
12.3071
10.785
9.89041
9.49509
9.54097
9.79032
10.2821
11.1893
12.9991
14.8253
17.0504
20.0364
24.5777
31.9966
47.1989
86.4641
156.128
1080.67
616.471
77.0202
51.357
36.1529
28.7492
24.8581
19.3026
14.5116
11.3419
10.0208
9.23975
8.94982
8.91973
9.34773
10.0254
11.005
12.9667
15.7143
18.2708
21.6661
26.4897
35.2274
70.5554
128.458
772.162
126.53
79.5184
43.2824
32.2059
25.2436
20.4695
17.0848
13.1634
10.4664
9.21799
8.70452
8.51865
8.74311
9.07262
9.97867
11.1644
12.8739
15.4001
18.9879
24.6149
33.0983
49.071
67.5957
295.195
599.234
78.5555
49.1226
32.0626
25.3576
21.3047
18.4379
15.2959
12.6485
10.4613
9.06728
8.62163
8.5677
8.69352
9.11453
10.142
11.8483
13.6185
16.4478
20.2488
26.1241
37.5314
73.0773
129.36
876.773
152.136
65.42
39.8838
29.3431
22.7863
19.058
16.3808
13.7741
11.8199
10.5372
9.53121
8.82025
8.78132
9.06763
9.64457
10.7181
12.5871
15.3909
18.0031
22.1568
29.8543
49.5133
85.9636
281.304
608.408
77.5516
51.3257
35.1595
26.0825
20.4002
16.7666
14.2439
12.4704
11.0149
10.2189
9.89244
9.43001
9.24152
9.51626
10.5009
12.0704
13.8557
16.4814
20.9194
25.6175
35.7858
51.5961
86.8589
768.775
152.012
65.8966
42.0191
31.6571
24.0599
18.8561
15.4354
13.1541
11.5997
10.4619
9.67848
9.4884
9.56955
9.69529
10.115
11.0218
12.953
15.4984
18.0513
21.9661
30.0799
48.2748
85.8522
159.746
624.745
78.2525
53.2908
36.1462
27.8696
21.2518
17.2964
14.3652
12.3896
11.1161
10.1859
9.53547
9.19143
9.33223
9.88037
10.8016
11.6925
13.1685
15.648
19.4635
24.3929
34.8529
50.3459
78.2982
728.69
158.598
63.2368
41.4961
33.6847
25.4789
19.5577
15.6825
13.262
11.7314
10.7974
10.1532
9.59014
9.29012
9.35258
9.93665
11.1153
12.8084
14.4238
16.5667
20.0921
27.2101
35.9203
84.0721
154.191
125.17
77.6291
40.463
30.3029
23.4707
18.4059
14.8059
12.4926
11.1743
10.4263
10.047
9.8036
9.59609
9.61718
10.1264
11.316
13.293
15.6277
18.2388
22.5938
31.4093
51.7486
68.696
596.474
649.958
75.3041
47.3829
32.7052
26.3767
21.8294
17.5524
14.1319
11.9683
10.778
10.1665
9.84455
9.74069
9.80028
9.94674
10.4284
11.4627
13.287
16.5119
19.7747
24.0965
35.2828
80.193
133.95
891.806
614.185
77.9028
41.5938
29.1656
24.4184
20.8567
16.9289
13.5365
11.4619
10.409
9.93297
9.74611
9.68331
9.76787
10.103
10.7517
11.8613
13.6902
16.1565
19.9039
25.5731
36.593
85.5824
552.128
262.187
72.0274
39.1946
27.6556
21.874
18.643
15.8179
12.9516
10.9892
10.0006
9.59991
9.56732
9.66437
9.81702
10.1885
10.9747
12.4297
14.5231
17.3745
21.8138
30.3721
48.0915
96.9689
685.393
125.474
76.2446
38.5892
26.2762
20.5243
16.9098
14.2456
12.1474
10.6144
9.71191
9.30417
9.22964
9.48773
9.86282
10.3379
11.1386
12.6774
15.3347
19.1134
25.1882
34.0922
74.1441
147.882
622.852
85.5475
55.817
32.404
24.1433
19.3121
15.7983
13.2284
11.4063
10.2138
9.57461
9.26555
9.12926
9.23162
9.73561
10.4461
11.4056
12.8721
15.4048
19.7466
27.8005
51.0606
70.2484
622.836
278.041
72.603
39.9327
28.0108
22.107
18.2426
15.087
12.6445
10.9456
9.87291
9.35603
9.21151
9.26208
9.41156
9.74802
10.4512
11.5796
13.4929
16.0279
20.1202
29.725
52.1436
102.898
871.612
121.619
80.8949
41.1696
27.861
21.2186
17.0115
14.1304
12.0498
10.5611
9.52334
9.04735
9.00995
9.15919
9.44377
9.89897
10.6024
11.7581
13.6909
16.7777
22.1469
32.4958
64.1871
140.564
658.764
78.2916
49.5319
32.1139
25.4441
20.3481
16.3322
13.2899
11.3002
10.0592
9.23303
8.74658
8.66818
8.92509
9.34318
9.90397
10.7213
12.0658
14.3114
17.8549
24.2733
33.946
74.4561
276.235
272.165
71.5657
40.8302
31.4884
23.9332
19.3223
15.7751
12.7546
10.6921
9.42622
8.7598
8.43627
8.35295
8.54434
9.12029
9.90038
10.8433
12.3192
14.7897
18.6167
27.0569
50.0482
69.8865
605.838
166.26
60.014
37.7893
27.8778
21.6974
17.5993
14.5825
12.1503
10.3052
9.02071
8.24939
7.98035
8.11108
8.34499
8.86882
9.81946
11.0686
12.7625
15.6109
20.4819
27.4904
53.631
108.093
886.078
131.606
84.6174
39.7996
27.1799
21.2249
17.0572
13.9529
11.7407
10.1589
8.95405
8.1231
7.67942
7.67853
8.11795
8.8004
9.84294
11.3353
13.5965
16.7989
22.3354
34.7421
53.3027
120.787
821.037
81.6788
47.5367
31.5526
24.6
19.8554
16.401
13.6251
11.5439
10.1304
9.17777
8.34704
7.774
7.54735
7.80053
8.66232
9.9817
11.7455
14.3436
18.7581
25.534
35.6704
84.5448
263.632
636.708
74.9553
48.5161
31.581
24.3585
19.5767
15.9539
13.3288
11.4455
10.1517
9.32429
8.75472
8.22704
7.81078
7.88624
8.61981
10.1021
12.3378
15.4277
20.0617
28.1353
53.0257
73.4491
645.67
582.796
76.9025
43.0978
31.6337
24.6002
19.641
15.8136
13.0821
11.344
10.2305
9.51444
8.96374
8.54778
8.33604
8.34184
8.9635
10.4003
12.8699
16.7053
22.2224
32.937
49.4327
116.747
169.595
61.828
36.9814
27.7729
23.3331
19.5413
15.855
12.9293
11.1296
10.1795
9.65229
9.23399
8.76865
8.46793
8.66229
9.38396
10.7739
13.3025
17.4212
23.9785
36.6492
78.0558
160.384
162.033
58.7864
36.6521
28.5559
22.3076
18.5147
15.5747
12.9002
10.9775
9.9825
9.59121
9.37861
9.13665
8.89269
9.01388
9.77601
11.24
13.5818
17.7283
25.3426
36.2941
85.3736
558.434
134.701
85.2893
40.376
26.7877
21.0354
17.6274
14.898
12.7288
10.9746
9.81573
9.34642
9.27192
9.29614
9.32715
9.5671
10.2772
11.7659
14.1201
17.7618
24.9466
48.2857
85.7819
596.034
131.257
54.4831
33.0369
25.0999
20.1141
16.5464
14.0364
12.217
10.8882
9.86679
9.18116
8.98128
9.16162
9.42635
9.8527
10.6444
12.0713
14.4437
18.0291
25.1564
41.2714
92.0874
731.034
122.61
52.9098
32.2116
24.5317
19.6569
16.0293
13.4133
11.6656
10.5032
9.83129
9.37485
9.02321
8.99929
9.3866
9.95333
10.8485
12.3023
14.6291
17.8488
24.6273
44.2346
79.8569
833.809
793.906
85.6129
48.2356
31.3433
24.1352
19.3235
15.6163
12.9498
11.2222
10.1457
9.5459
9.30298
9.22111
9.19252
9.37016
9.95644
10.9458
12.5547
14.9989
18.6546
24.6139
42.604
108.812
611.596
80.6122
54.5327
31.7103
23.7302
18.8618
15.1574
12.4781
10.8052
9.80715
9.26526
9.04939
9.05041
9.16576
9.42432
9.9631
10.9393
12.5781
15.2218
19.3873
26.3182
46.1534
115.527
600.262
76.4563
39.214
27.3231
21.8923
17.9828
14.5868
11.9316
10.2704
9.35845
8.83844
8.61878
8.66638
8.93135
9.32489
9.92743
10.9127
12.545
15.1568
19.5049
28.7979
47.1793
121.828
270.543
69.0959
37.5265
26.8488
21.0491
17.1705
14.0304
11.4156
9.60726
8.66486
8.18533
7.84349
7.85658
8.26334
8.98445
9.80057
10.8597
12.543
15.1709
19.5418
29.5173
63.0812
166.188
163.59
58.4808
34.8629
25.4263
20.247
16.5954
13.5566
11.1168
9.1158
7.80047
7.23895
7.04858
6.9778
7.38487
8.25583
9.4699
10.786
12.584
15.4125
19.7837
30.1015
65.3766
533.489
167.71
58.9974
34.7852
24.6624
19.1972
15.8282
13.092
10.9359
9.17575
7.57008
6.51036
6.1478
6.24146
6.71401
7.65514
9.04032
10.7209
12.7642
15.8098
20.6976
30.7405
69.367
568.176
136.56
58.4329
34.8501
24.2011
18.3528
14.7346
12.3457
10.6429
9.35596
8.11613
6.73086
5.8885
5.77215
6.2254
7.27681
8.78409
10.6425
13.0422
16.3811
22.2054
32.1892
70.3941
597.002
123.648
54.1077
31.835
22.56
17.2919
13.8862
11.7245
10.3144
9.30732
8.50449
7.57102
6.44608
5.89729
6.08583
7.02395
8.57361
10.5811
13.2483
16.7218
23.289
39.3645
71.9898
663.059
129.054
54.2748
30.6872
21.1956
16.0795
13.014
11.1844
10.0278
9.16005
8.49341
7.99963
7.43142
6.72829
6.6069
7.23976
8.62651
10.5624
13.2545
17.2391
23.8029
42.0476
104.359
855.539
120.967
55.9027
33.0299
21.7702
15.6227
12.392
10.7206
9.77456
9.0666
8.35137
7.77692
7.5799
7.55862
7.50426
7.95456
9.07105
10.8678
13.4261
17.2636
24.5831
44.2309
115.049
783.368
78.276
49.8415
34.4068
22.0078
15.5158
12.0736
10.3998
9.55128
9.00808
8.49557
7.8012
7.37124
7.46689
8.0147
8.67959
9.68022
11.3492
13.9128
17.549
24.411
44.7555
118.165
600.111
94.1984
52.2139
28.1132
19.6274
14.2328
11.5663
10.1489
9.37409
8.87998
8.50509
8.15452
7.64463
7.47486
7.9366
8.91184
10.1282
11.8644
14.4893
18.4642
25.041
43.8651
123.979
606.436
76.6391
40.1344
25.6583
18.1297
13.2806
10.7393
9.71108
9.15367
8.72698
8.32073
8.00601
7.92241
7.8521
8.12108
8.98425
10.3339
12.3316
15.1969
19.6894
28.8443
47.066
115.206
280.084
72.7445
39.0814
26.3136
18.3168
13.0444
10.4323
9.31785
8.83866
8.51513
8.13788
7.68831
7.50505
7.77549
8.36442
9.17353
10.5061
12.6955
15.9854
21.0645
31.2968
62.1814
143.399
156.838
61.5401
38.2598
26.7603