/*--------------------------------*- C++ -*----------------------------------*\
| =========                 |                                                 |
| \\      /  F ield         | OpenFOAM: The Open Source CFD Toolbox           |
|  \\    /   O peration     | Version:  2312                                  |
|   \\  /    A nd           | Website:  www.openfoam.com                      |
|    \\/     M anipulation  |                                                 |
\*---------------------------------------------------------------------------*/
FoamFile
{
    version     2.0;
    format      ascii;
    arch        "LSB;label=64;scalar=64";
    class       volScalarField;
    location    "190";
    object      p;
}
// * * * * * * * * * * * * * * * * * * * * * * * * * * * * * * * * * * * * * //

dimensions      [0 2 -2 0 0 0 0];

internalField   nonuniform List<scalar> 
404911
(
8.67091
8.67078
8.67118
8.6709
8.67071
8.67085
8.67096
8.67095
8.67092
8.67091
8.67157
8.67094
8.67069
8.67101
8.671
8.67097
8.67144
8.67136
8.67114
8.6711
8.67159
8.6713
8.67113
8.67206
8.6717
8.67035
8.67251
8.67232
8.67212
8.67316
8.67293
8.67277
8.6726
8.67257
8.67332
8.67319
8.67304
8.67384
8.67366
8.67351
8.67341
8.6741
8.67398
8.67383
8.67365
8.67337
8.67424
8.67412
8.67397
8.67383
8.67449
8.67439
8.67426
8.67412
8.67455
8.67449
8.67527
8.67013
8.67035
8.67051
8.67099
8.67097
8.67153
8.67128
8.67111
8.67166
8.67159
8.67142
8.67208
8.67175
8.67249
8.67228
8.67206
8.67289
8.67273
8.67255
8.6723
8.67328
8.67314
8.67364
8.67346
8.67396
8.67382
8.67364
8.67424
8.67408
8.6745
8.67437
8.67423
8.67462
8.67449
8.67525
8.6754
8.67525
8.67589
8.67571
8.67555
8.67626
8.67609
8.67588
8.67658
8.67642
8.67624
8.67659
8.64599
8.64573
8.64559
8.64703
8.64686
8.64637
8.6464
8.64612
8.64589
8.6457
8.64544
8.64762
8.64741
8.64697
8.64669
8.64645
8.64628
8.64606
8.64583
8.64525
8.64847
8.64821
8.64798
8.64776
8.64756
8.64741
8.64715
8.64686
8.6466
8.64644
8.6462
8.64594
8.6457
8.64545
8.64529
8.64516
8.64906
8.64879
8.64855
8.64828
8.64805
8.64786
8.64767
8.64751
8.64732
8.64705
8.64677
8.64658
8.64638
8.64613
8.64533
8.64969
8.64942
8.64917
8.64885
8.64858
8.64835
8.64814
8.64796
8.64778
8.64758
8.64739
8.64714
8.64689
8.64668
8.64652
8.64999
8.64987
8.64958
8.64931
8.64899
8.64869
8.64842
8.64822
8.64806
8.64786
8.64766
8.64746
8.64724
8.64702
8.64678
8.6466
8.65078
8.65042
8.65009
8.6499
8.64969
8.64942
8.64915
8.64884
8.64853
8.64831
8.64814
8.64795
8.64775
8.64755
8.64735
8.64713
8.6469
8.6517
8.65145
8.65117
8.65088
8.65059
8.6503
8.65008
8.64982
8.64955
8.64925
8.64895
8.64864
8.64842
8.64824
8.64804
8.64784
8.64765
8.64748
8.6521
8.65188
8.65158
8.65131
8.65105
8.65076
8.65049
8.65021
8.64995
8.64971
8.64941
8.64904
8.64872
8.64853
8.64836
8.64816
8.64798
8.64775
8.65274
8.65251
8.65226
8.652
8.65171
8.65145
8.65122
8.65095
8.65065
8.65035
8.65009
8.64984
8.64955
8.64923
8.6489
8.64866
8.64849
8.64831
8.65313
8.65292
8.65269
8.65243
8.65215
8.65186
8.65161
8.65136
8.6511
8.6508
8.65051
8.65025
8.64998
8.64971
8.64947
8.64914
8.64879
8.65371
8.65352
8.65328
8.65307
8.65285
8.65258
8.6523
8.65203
8.65179
8.65154
8.65124
8.65094
8.65066
8.65039
8.65011
8.64985
8.64962
8.65419
8.65403
8.65381
8.65369
8.65348
8.65324
8.65298
8.6527
8.65245
8.65219
8.65194
8.65168
8.65137
8.65105
8.65079
8.65052
8.65021
8.64997
8.65475
8.65448
8.65431
8.65413
8.65391
8.65381
8.65361
8.65337
8.65312
8.65286
8.65264
8.65237
8.6521
8.6518
8.65149
8.65118
8.65089
8.65067
8.65536
8.65513
8.65491
8.65476
8.65447
8.6542
8.654
8.65387
8.65371
8.65348
8.65322
8.65297
8.65284
8.65258
8.65226
8.65194
8.65166
8.65135
8.65566
8.65547
8.65524
8.65503
8.65483
8.65458
8.65432
8.65413
8.65394
8.65381
8.65357
8.65329
8.65308
8.65296
8.65276
8.65245
8.65212
8.65177
8.65626
8.65605
8.65575
8.65557
8.65536
8.65512
8.65491
8.65472
8.6545
8.6543
8.65409
8.65393
8.65371
8.65346
8.65318
8.65305
8.65283
8.65258
8.65655
8.6564
8.65615
8.65593
8.65568
8.65544
8.65527
8.65501
8.65478
8.65464
8.65447
8.65428
8.65406
8.65385
8.65364
8.65338
8.65317
8.65297
8.65704
8.65686
8.6567
8.65656
8.6563
8.65611
8.65586
8.65561
8.65539
8.65512
8.65486
8.65473
8.65458
8.65441
8.65422
8.654
8.65374
8.65352
8.65745
8.65723
8.65714
8.6569
8.6567
8.65648
8.65626
8.65603
8.65577
8.65552
8.65526
8.65498
8.65484
8.65466
8.65451
8.65432
8.65409
8.65794
8.65775
8.65758
8.65732
8.6572
8.65701
8.65683
8.65664
8.65643
8.6562
8.65594
8.65566
8.65539
8.65512
8.65497
8.6548
8.65462
8.65442
8.6582
8.65804
8.65784
8.6577
8.6575
8.65734
8.65714
8.65698
8.65681
8.65661
8.65639
8.65613
8.65583
8.65555
8.65529
8.65509
8.65492
8.65476
8.65854
8.65835
8.65818
8.65802
8.65782
8.6576
8.65743
8.65728
8.65711
8.65698
8.65682
8.65657
8.65631
8.65602
8.65574
8.65552
8.65526
8.65507
8.65897
8.6588
8.65865
8.65848
8.65831
8.65816
8.65799
8.65775
8.65751
8.65735
8.65719
8.65706
8.65691
8.65674
8.65648
8.6562
8.65593
8.65565
8.65941
8.65926
8.65909
8.6589
8.65877
8.6586
8.65843
8.65826
8.65811
8.65789
8.65767
8.65748
8.65727
8.65714
8.65698
8.65682
8.65655
8.65635
8.65966
8.65951
8.65936
8.65919
8.65903
8.65888
8.65873
8.65858
8.65839
8.65815
8.65798
8.65781
8.6576
8.65739
8.65723
8.65707
8.65689
8.65668
8.6601
8.65995
8.65977
8.65961
8.65945
8.65929
8.65913
8.65898
8.65883
8.6587
8.65851
8.65832
8.65812
8.6579
8.65773
8.65753
8.65728
8.65722
8.66035
8.66022
8.66005
8.65988
8.6597
8.65954
8.65938
8.65923
8.65908
8.65893
8.65879
8.65862
8.65844
8.65824
8.65803
8.65788
8.65768
8.65749
8.66063
8.66049
8.66033
8.66015
8.65997
8.65979
8.65963
8.65948
8.65933
8.65918
8.65902
8.65887
8.6587
8.65853
8.65834
8.65815
8.65797
8.65779
8.66092
8.66072
8.66059
8.66042
8.66024
8.66007
8.65988
8.65972
8.65958
8.65943
8.65928
8.65913
8.65897
8.6588
8.65864
8.65844
8.65825
8.65809
8.6613
8.66124
8.66105
8.66083
8.66065
8.66049
8.66034
8.66021
8.66003
8.65986
8.65969
8.65955
8.6594
8.65925
8.65908
8.65891
8.65874
8.65856
8.6617
8.66145
8.66131
8.66114
8.66095
8.66077
8.66061
8.66046
8.66034
8.66018
8.66001
8.65983
8.65967
8.65952
8.65936
8.65919
8.65904
8.65887
8.66198
8.66181
8.66163
8.66145
8.66125
8.66104
8.66086
8.66071
8.66057
8.66044
8.6603
8.66013
8.65996
8.6598
8.65964
8.65949
8.65934
8.65916
8.66219
8.66209
8.66192
8.66174
8.66158
8.6614
8.66117
8.66094
8.66082
8.66069
8.66055
8.6604
8.66025
8.66009
8.65992
8.65976
8.65961
8.66271
8.66247
8.66236
8.6622
8.66203
8.66186
8.66172
8.66155
8.66132
8.66107
8.66093
8.6608
8.66066
8.66052
8.66036
8.66021
8.66005
8.6599
8.66292
8.66281
8.66265
8.6625
8.66233
8.66214
8.66196
8.66182
8.6617
8.6615
8.6612
8.66105
8.66093
8.66079
8.66064
8.66049
8.66034
8.66019
8.66319
8.66307
8.66291
8.66279
8.66264
8.66248
8.6623
8.66211
8.66192
8.66181
8.66167
8.66144
8.66121
8.66107
8.66093
8.66078
8.66063
8.66047
8.66366
8.66345
8.6633
8.66317
8.66303
8.6629
8.66279
8.66264
8.66245
8.66225
8.66206
8.66191
8.6618
8.6616
8.66139
8.66122
8.66107
8.66091
8.66388
8.66371
8.66358
8.66342
8.66328
8.66314
8.66301
8.6629
8.66278
8.6626
8.6624
8.66219
8.66201
8.66189
8.66173
8.66155
8.66137
8.66121
8.66414
8.66399
8.66383
8.66369
8.66354
8.66339
8.66324
8.66311
8.663
8.6629
8.66278
8.66257
8.66237
8.66215
8.66201
8.66185
8.66169
8.66152
8.66433
8.6643
8.66411
8.66396
8.66381
8.66366
8.66351
8.66337
8.66323
8.6631
8.66299
8.66289
8.66271
8.66253
8.66232
8.66216
8.66199
8.66181
8.66471
8.66458
8.66441
8.66424
8.66408
8.66394
8.66379
8.66364
8.66351
8.66337
8.66322
8.66308
8.66297
8.66282
8.66264
8.66248
8.6623
8.66518
8.66496
8.66484
8.66466
8.66452
8.66436
8.66421
8.66407
8.66392
8.66377
8.66364
8.66354
8.6634
8.66324
8.66307
8.66293
8.66277
8.66262
8.66538
8.66524
8.66509
8.66495
8.66479
8.66464
8.66449
8.66432
8.66417
8.66403
8.66389
8.66376
8.66365
8.66353
8.66338
8.6632
8.66305
8.66289
8.66568
8.66552
8.66536
8.66521
8.66506
8.66492
8.66478
8.66465
8.66447
8.6643
8.66415
8.66402
8.66388
8.66375
8.66362
8.66348
8.66332
8.66317
8.66593
8.6658
8.66566
8.66548
8.66534
8.66518
8.66504
8.66491
8.6648
8.66465
8.66448
8.6643
8.66416
8.66401
8.66387
8.66372
8.66359
8.66343
8.66625
8.66607
8.66594
8.66579
8.66564
8.66547
8.66532
8.66518
8.66504
8.66491
8.66479
8.66463
8.66446
8.66431
8.66416
8.66403
8.66386
8.66372
8.66655
8.66639
8.66624
8.66609
8.66595
8.66579
8.66562
8.66546
8.66531
8.66518
8.66504
8.6649
8.66476
8.6646
8.66446
8.6643
8.66415
8.66399
8.66684
8.6667
8.66653
8.66638
8.66622
8.66609
8.66594
8.66576
8.66558
8.66543
8.6653
8.66517
8.66503
8.66489
8.66474
8.6646
8.66444
8.66428
8.66714
8.66696
8.66686
8.66667
8.66649
8.66633
8.6662
8.66607
8.66589
8.6657
8.66553
8.66542
8.6653
8.66516
8.66502
8.66488
8.66474
8.66461
8.66756
8.66741
8.66724
8.66713
8.66701
8.66684
8.66665
8.66644
8.6663
8.66619
8.66606
8.66587
8.6657
8.66555
8.66543
8.6653
8.66516
8.66503
8.66489
8.66781
8.6677
8.66755
8.66736
8.66725
8.66713
8.667
8.66683
8.66662
8.66646
8.66631
8.66619
8.66604
8.66587
8.66572
8.66558
8.66545
8.66533
8.66796
8.66779
8.66765
8.66751
8.66737
8.66724
8.66714
8.667
8.6668
8.66663
8.66647
8.6663
8.66618
8.66603
8.66588
8.66574
8.66561
8.66838
8.66822
8.66807
8.66791
8.66776
8.66762
8.66748
8.66736
8.66726
8.66714
8.66696
8.66678
8.66661
8.66644
8.6663
8.66616
8.66603
8.66588
8.66869
8.66851
8.66836
8.6682
8.66804
8.66789
8.66774
8.66759
8.66746
8.66737
8.66726
8.66709
8.66693
8.66675
8.66659
8.66645
8.66631
8.66617
8.66892
8.66881
8.66864
8.66849
8.66833
8.66818
8.66803
8.66788
8.6677
8.66756
8.66747
8.66738
8.66723
8.66706
8.6669
8.66676
8.66659
8.66646
8.66909
8.66892
8.66877
8.66862
8.66846
8.66831
8.66818
8.66805
8.66786
8.66769
8.66756
8.66747
8.66734
8.66719
8.66704
8.66688
8.66674
8.66947
8.66924
8.66905
8.66892
8.66876
8.6686
8.66845
8.66831
8.6682
8.668
8.66783
8.66769
8.66758
8.66745
8.66731
8.66717
8.66703
8.66993
8.66978
8.66964
8.66942
8.6692
8.66906
8.66891
8.66874
8.66856
8.66843
8.66832
8.66815
8.66797
8.66783
8.66771
8.66758
8.66744
8.66729
8.67021
8.67008
8.66991
8.66975
8.66955
8.66936
8.6692
8.66905
8.66889
8.66871
8.66855
8.66843
8.6683
8.66813
8.66798
8.66783
8.66772
8.67047
8.67033
8.67016
8.67001
8.66986
8.66966
8.66947
8.66932
8.66919
8.66904
8.66887
8.66871
8.66855
8.66842
8.66827
8.66811
8.66797
8.67091
8.67075
8.67059
8.67044
8.67027
8.67011
8.67
8.66981
8.66959
8.66943
8.66928
8.66915
8.66901
8.66886
8.6687
8.66855
8.6684
8.66825
8.67121
8.67103
8.67084
8.6707
8.67054
8.67034
8.67024
8.67018
8.66996
8.66973
8.66959
8.66943
8.66923
8.6691
8.66899
8.66885
8.66871
8.66855
8.67145
8.6713
8.67112
8.67097
8.67081
8.67064
8.67043
8.67038
8.67034
8.67009
8.66991
8.66975
8.66959
8.66941
8.66924
8.66911
8.66899
8.66886
8.67179
8.67165
8.67146
8.67128
8.67109
8.67091
8.67078
8.67057
8.67039
8.67027
8.67017
8.67005
8.66991
8.66976
8.66959
8.66942
8.66927
8.66913
8.6724
8.6722
8.67195
8.67181
8.67161
8.67141
8.67119
8.67098
8.6709
8.67079
8.67062
8.67048
8.67036
8.67022
8.6701
8.66995
8.66977
8.66958
8.66941
8.67265
8.67252
8.67232
8.67214
8.67195
8.67174
8.67153
8.67131
8.67113
8.67102
8.6709
8.67079
8.67065
8.67053
8.67038
8.67022
8.67008
8.66989
8.66973
8.67262
8.67264
8.67247
8.6723
8.67209
8.67185
8.67165
8.67148
8.67135
8.67121
8.67108
8.67094
8.67079
8.67065
8.67051
8.67036
8.67019
8.67003
8.67307
8.67287
8.67275
8.67261
8.67243
8.6722
8.67195
8.67179
8.67168
8.67152
8.67137
8.67121
8.67108
8.67094
8.67079
8.67064
8.67048
8.6735
8.67326
8.67306
8.67287
8.67273
8.67256
8.67232
8.67213
8.67199
8.67186
8.67168
8.67154
8.67137
8.67123
8.67108
8.67093
8.67077
8.67394
8.67368
8.67347
8.67323
8.67305
8.6729
8.67274
8.67253
8.67235
8.67218
8.67202
8.67184
8.67168
8.67153
8.67139
8.67122
8.67107
8.67437
8.67428
8.67411
8.67393
8.67368
8.67345
8.67326
8.67311
8.67295
8.67275
8.67256
8.67238
8.67219
8.672
8.67184
8.67167
8.67152
8.67137
8.67466
8.67456
8.6744
8.67427
8.67409
8.67387
8.67364
8.67348
8.67331
8.67313
8.67293
8.67274
8.67255
8.67236
8.67217
8.67199
8.67182
8.67482
8.67472
8.67462
8.67453
8.67438
8.6742
8.67399
8.6738
8.67363
8.67345
8.67326
8.67306
8.67287
8.67269
8.6725
8.67232
8.67214
8.67502
8.67492
8.67478
8.67468
8.67459
8.67446
8.67427
8.67411
8.67395
8.67378
8.67358
8.67339
8.6732
8.673
8.67282
8.67264
8.67247
8.67533
8.67513
8.67499
8.67482
8.67474
8.67468
8.67455
8.6744
8.67423
8.67405
8.67389
8.67371
8.67352
8.67334
8.67317
8.67298
8.6728
8.67571
8.67552
8.67529
8.67509
8.67495
8.67489
8.6748
8.67467
8.6745
8.67433
8.67418
8.67401
8.67383
8.67366
8.67349
8.67331
8.67314
8.67618
8.67587
8.67567
8.67546
8.67528
8.67515
8.67505
8.67494
8.6748
8.67463
8.67445
8.67429
8.67414
8.67397
8.67381
8.67364
8.67346
8.67623
8.67606
8.67588
8.67567
8.67551
8.67532
8.67517
8.67506
8.67491
8.67474
8.67456
8.67441
8.67426
8.67411
8.67394
8.67378
8.67652
8.67649
8.67625
8.67606
8.67585
8.67569
8.67551
8.67535
8.67518
8.67503
8.67487
8.6747
8.67455
8.67439
8.67424
8.67715
8.67699
8.67678
8.6766
8.67644
8.67625
8.67606
8.6759
8.6757
8.67549
8.6753
8.67512
8.675
8.67484
8.67468
8.67454
8.67767
8.67746
8.67717
8.67697
8.67679
8.67664
8.67644
8.67627
8.67609
8.6759
8.67567
8.67542
8.67519
8.67509
8.67498
8.67481
8.67819
8.67795
8.67771
8.67743
8.67719
8.67703
8.67689
8.67671
8.6765
8.67629
8.67609
8.67593
8.67566
8.6754
8.67527
8.6751
8.67901
8.67876
8.67846
8.67821
8.67799
8.67771
8.67746
8.67725
8.67709
8.67691
8.67672
8.67648
8.6762
8.67611
8.67591
8.67567
8.67936
8.67917
8.67893
8.67866
8.67842
8.67821
8.67794
8.67772
8.67749
8.67732
8.67717
8.67697
8.67671
8.67644
8.67621
8.6761
8.67985
8.67958
8.67931
8.67912
8.67888
8.67864
8.6784
8.67818
8.67796
8.67776
8.67758
8.67748
8.67728
8.67702
8.67675
8.67651
8.68038
8.68009
8.67972
8.67943
8.67926
8.67908
8.67883
8.67857
8.67835
8.67813
8.67798
8.67779
8.67764
8.67747
8.67727
8.67696
8.68081
8.68052
8.68033
8.68003
8.67972
8.67946
8.67927
8.67905
8.67881
8.67854
8.67833
8.67813
8.678
8.6778
8.67755
8.67742
8.68118
8.68098
8.68082
8.68059
8.68028
8.67998
8.67972
8.67949
8.67927
8.67899
8.67872
8.67851
8.67838
8.67819
8.67805
8.68155
8.68142
8.68123
8.68105
8.68083
8.68053
8.68022
8.67998
8.67974
8.67952
8.67928
8.67898
8.67872
8.6786
8.67843
8.67823
8.68197
8.68177
8.68161
8.68148
8.68126
8.68103
8.68079
8.68047
8.68023
8.67998
8.67974
8.67955
8.6793
8.67903
8.6788
8.67869
8.68245
8.68219
8.68198
8.6818
8.68163
8.6814
8.68117
8.68096
8.68072
8.68047
8.68021
8.67995
8.67974
8.67949
8.67928
8.68265
8.68236
8.68218
8.68198
8.68179
8.68157
8.68133
8.68111
8.6809
8.68071
8.68044
8.6802
8.67993
8.67966
8.68314
8.68289
8.68261
8.68236
8.68217
8.68194
8.68175
8.68151
8.68128
8.68107
8.68088
8.68062
8.68042
8.68372
8.68351
8.6833
8.6831
8.68284
8.68255
8.68235
8.68215
8.68194
8.6817
8.68144
8.68119
8.68102
8.6808
8.68415
8.6839
8.68369
8.68346
8.68325
8.68302
8.68276
8.68255
8.68235
8.68214
8.68184
8.68157
8.68137
8.68119
8.68454
8.68433
8.68408
8.68382
8.6836
8.68341
8.68316
8.68292
8.68267
8.68252
8.68225
8.68198
8.68177
8.6816
8.68484
8.68469
8.6845
8.6842
8.68391
8.68373
8.68357
8.68336
8.68309
8.68283
8.68267
8.68232
8.6821
8.68199
8.68511
8.68495
8.68481
8.68459
8.68429
8.684
8.68384
8.68374
8.68358
8.68331
8.68304
8.68286
8.68253
8.68225
8.68532
8.68519
8.68501
8.68493
8.68469
8.6844
8.68408
8.68386
8.68376
8.68361
8.68347
8.68326
8.68312
8.68502
8.68483
8.68455
8.68421
8.68391
8.68379
8.68363
8.68338
8.68329
8.68511
8.68498
8.68475
8.68442
8.68413
8.68391
8.68373
8.68349
8.68544
8.6853
8.68509
8.68499
8.68469
8.68429
8.68421
8.68591
8.68573
8.68549
8.68526
8.68515
8.68484
8.68444
8.68588
8.6857
8.68551
8.6853
8.68497
8.68659
8.68631
8.68596
8.68593
8.68572
8.68549
8.68743
8.6872
8.68709
8.68688
8.68598
8.68784
8.68773
8.68767
8.68763
8.68751
8.68602
8.68837
8.6879
8.68776
8.68755
8.68714
8.68879
8.68832
8.68804
8.19226
8.03536
7.82362
8.54383
8.51391
8.47254
8.42985
8.35938
8.2571
8.11747
7.95826
7.44596
8.60862
8.60057
8.58872
8.57561
8.55525
8.53205
8.50137
8.46067
8.40832
8.33964
8.24942
8.11262
7.96249
7.81113
7.73102
8.62478
8.62173
8.61817
8.61298
8.60664
8.59716
8.58464
8.56962
8.5502
8.52455
8.49363
8.46579
8.41681
8.34319
8.24479
8.15423
8.04847
7.97588
7.87866
7.64638
6.9734
6.09173
8.63195
8.63042
8.62889
8.62697
8.62455
8.62122
8.61664
8.61071
8.60347
8.59433
8.58212
8.56699
8.54856
8.53062
8.5039
8.46617
8.42817
8.39553
8.34485
8.28121
8.20292
8.07118
7.83398
8.63639
8.63532
8.63436
8.63304
8.63171
8.63015
8.62851
8.62657
8.62372
8.62018
8.6154
8.61033
8.60395
8.59594
8.58659
8.57439
8.56106
8.54378
8.52648
8.5224
8.50233
8.4709
8.44161
8.39779
8.3427
8.63814
8.63748
8.6369
8.63609
8.63497
8.63349
8.63235
8.63117
8.62979
8.62873
8.62687
8.62389
8.61997
8.61603
8.61495
8.6113
8.60666
8.59761
8.58675
8.58057
8.57372
8.57223
8.5692
8.56433
8.56891
8.63977
8.63918
8.63846
8.638
8.63741
8.63674
8.63604
8.63501
8.63386
8.63294
8.63199
8.63064
8.62957
8.62771
8.62451
8.62453
8.62439
8.6218
8.6163
8.61143
8.60773
8.60441
8.61184
8.60904
8.6111
8.64106
8.64073
8.64011
8.63957
8.63899
8.63858
8.63804
8.63741
8.63681
8.63607
8.63521
8.63452
8.63386
8.63328
8.63314
8.63273
8.63097
8.63122
8.63158
8.63133
8.63038
8.6298
8.62778
8.62846
8.62803
8.64252
8.64194
8.64156
8.64138
8.64094
8.64047
8.64001
8.63951
8.63913
8.63872
8.63823
8.63773
8.63731
8.63699
8.6367
8.63654
8.63652
8.63663
8.63642
8.63643
8.63645
8.63993
8.63902
8.63882
8.6388
8.63797
8.64379
8.64342
8.64316
8.64272
8.64231
8.64198
8.64162
8.6412
8.64083
8.64037
8.63993
8.63959
8.63926
8.63908
8.63871
8.63839
8.63833
8.63841
8.63852
8.63835
8.63868
8.63911
8.63988
8.64148
8.642
8.6427
8.64422
8.64428
8.64399
8.6436
8.64331
8.64298
8.64259
8.64215
8.64185
8.64149
8.64112
8.64073
8.64039
8.64013
8.63986
8.63969
8.6395
8.63934
8.6393
8.63935
8.63962
8.63961
8.63956
8.64007
8.64127
8.64333
8.64524
8.64496
8.64482
8.64453
8.64421
8.64386
8.64357
8.64318
8.64284
8.6425
8.6422
8.64188
8.64152
8.64118
8.6409
8.64068
8.64047
8.64033
8.6402
8.6402
8.64027
8.64038
8.64039
8.64005
8.6405
8.64552
8.64547
8.64517
8.64497
8.64476
8.64447
8.64411
8.64375
8.64335
8.64301
8.64277
8.64255
8.64217
8.64186
8.64159
8.64132
8.64113
8.64095
8.64091
8.64087
8.64096
8.6409
8.64086
8.64095
8.64631
8.6463
8.64595
8.64574
8.64555
8.64529
8.64512
8.64497
8.64467
8.64431
8.64397
8.6436
8.64322
8.64293
8.64278
8.64244
8.64216
8.64191
8.64168
8.6415
8.64138
8.64136
8.64133
8.64133
8.64128
8.64717
8.64678
8.64652
8.64633
8.64605
8.64584
8.64563
8.64542
8.64527
8.64516
8.64482
8.64451
8.64418
8.64384
8.64355
8.64329
8.64298
8.64274
8.64247
8.64222
8.64201
8.6418
8.64162
8.64156
8.64158
8.64767
8.64744
8.64717
8.64694
8.64667
8.64641
8.6462
8.64597
8.64576
8.64554
8.64535
8.6452
8.64496
8.64468
8.64433
8.64405
8.64371
8.6435
8.64323
8.64297
8.64269
8.64245
8.64227
8.6421
8.64187
8.64855
8.64812
8.64807
8.64776
8.64754
8.6473
8.64702
8.6468
8.64651
8.64633
8.64613
8.64591
8.64568
8.64549
8.64529
8.64512
8.64485
8.64451
8.64432
8.644
8.64366
8.64344
8.64317
8.64292
8.64272
8.64252
8.64908
8.64897
8.64867
8.64835
8.64813
8.64786
8.64763
8.64742
8.64719
8.64693
8.64666
8.64647
8.64629
8.64607
8.64583
8.64561
8.6454
8.64523
8.64505
8.64478
8.64455
8.64432
8.64398
8.64368
8.64339
8.6431
8.64997
8.64945
8.64915
8.64895
8.64874
8.64845
8.64818
8.64794
8.64774
8.64754
8.64736
8.6471
8.64683
8.64663
8.64645
8.64623
8.64597
8.6457
8.64546
8.64529
8.64512
8.6449
8.64466
8.64448
8.64419
8.64385
8.64366
8.65031
8.65022
8.64989
8.64959
8.64934
8.64907
8.64879
8.64851
8.64825
8.64804
8.64784
8.64766
8.64748
8.64727
8.64702
8.64679
8.64659
8.64639
8.64616
8.64587
8.64553
8.64536
8.64519
8.64497
8.64476
8.64454
8.64434
8.65066
8.65048
8.65017
8.64994
8.64968
8.64943
8.64917
8.64886
8.64857
8.64833
8.64813
8.64794
8.64776
8.64757
8.64737
8.64714
8.64691
8.6467
8.64651
8.64635
8.64608
8.64577
8.64551
8.64528
8.64506
8.64485
8.65141
8.65105
8.65084
8.65057
8.65031
8.65003
8.64979
8.64956
8.64926
8.64894
8.64864
8.64839
8.6482
8.64804
8.64785
8.64766
8.64746
8.64724
8.64701
8.64677
8.64656
8.64634
8.64612
8.64589
8.64564
8.64542
8.65205
8.65174
8.65157
8.65124
8.65098
8.65071
8.65043
8.65016
8.64992
8.64968
8.64938
8.64906
8.64876
8.64848
8.64829
8.64812
8.64794
8.64775
8.64755
8.64734
8.64711
8.64687
8.64663
8.6464
8.6462
8.64597
8.65237
8.65216
8.65192
8.65166
8.6514
8.65114
8.65085
8.65056
8.6503
8.65005
8.6498
8.64951
8.6492
8.64887
8.64861
8.6484
8.64822
8.64803
8.64784
8.64764
8.64744
8.64722
8.64699
8.64676
8.64654
8.65299
8.65285
8.65252
8.65233
8.65207
8.65181
8.65156
8.65128
8.65099
8.65072
8.65046
8.65019
8.64992
8.64965
8.64935
8.64902
8.64873
8.64851
8.64834
8.64815
8.64795
8.64775
8.64754
8.64735
8.64713
8.64692
8.65363
8.65346
8.65323
8.65298
8.65273
8.65249
8.65224
8.65197
8.65171
8.65143
8.65115
8.65088
8.6506
8.65033
8.65006
8.6498
8.64953
8.64923
8.64891
8.64867
8.64849
8.6483
8.64809
8.6479
8.64769
8.64752
8.65425
8.65396
8.65378
8.65356
8.65338
8.65313
8.65289
8.65265
8.65239
8.65213
8.65184
8.65159
8.65131
8.65103
8.65075
8.65048
8.65022
8.64995
8.64969
8.64945
8.64914
8.64887
8.64866
8.64843
8.64824
8.64803
8.64779
8.6544
8.65429
8.6541
8.65391
8.65371
8.65352
8.65329
8.65306
8.65281
8.65254
8.65227
8.652
8.65175
8.65147
8.65117
8.65089
8.65063
8.65038
8.65011
8.64983
8.64959
8.64931
8.64904
8.64881
8.64859
8.64839
8.65509
8.65487
8.65459
8.65438
8.65419
8.65402
8.65384
8.65366
8.65344
8.65321
8.65295
8.65268
8.65244
8.65219
8.65191
8.65161
8.6513
8.65101
8.65076
8.6505
8.65023
8.64997
8.64972
8.64945
8.64913
8.64895
8.65537
8.65522
8.65498
8.65475
8.65453
8.65432
8.65412
8.65393
8.65377
8.65358
8.65335
8.65309
8.65283
8.65262
8.65237
8.65206
8.65174
8.65143
8.65115
8.65088
8.65062
8.65036
8.65012
8.64985
8.6496
8.65593
8.65576
8.65557
8.65532
8.6551
8.65489
8.65468
8.65446
8.65422
8.65402
8.65386
8.65369
8.65347
8.65322
8.65298
8.65279
8.65255
8.65221
8.6519
8.65161
8.65132
8.65104
8.65076
8.65052
8.65024
8.65628
8.65611
8.6559
8.65567
8.65545
8.65523
8.65502
8.65482
8.65459
8.65433
8.65415
8.65397
8.6538
8.65359
8.65333
8.65309
8.65292
8.65271
8.65242
8.65211
8.6518
8.65149
8.65121
8.65094
8.65071
8.65677
8.6566
8.65642
8.65624
8.65604
8.65581
8.65557
8.65534
8.65513
8.65492
8.65471
8.65449
8.6543
8.65412
8.65393
8.65372
8.65344
8.65322
8.65302
8.65279
8.65254
8.65227
8.65199
8.65169
8.65137
8.65713
8.65693
8.65673
8.65657
8.65638
8.65616
8.65593
8.65569
8.65545
8.65523
8.655
8.6548
8.65463
8.65446
8.65428
8.65408
8.65386
8.6536
8.65337
8.65315
8.65293
8.65267
8.65242
8.65215
8.65187
8.65765
8.65749
8.65727
8.65708
8.65689
8.65673
8.65653
8.6563
8.65607
8.65583
8.65557
8.65534
8.6551
8.6549
8.65474
8.65458
8.6544
8.65419
8.65397
8.65374
8.65351
8.65331
8.65308
8.65283
8.65259
8.65799
8.65778
8.65762
8.65741
8.65723
8.65705
8.65689
8.6567
8.65647
8.65623
8.656
8.65573
8.65547
8.65521
8.655
8.65484
8.65468
8.6545
8.6543
8.65409
8.65388
8.65366
8.65346
8.65321
8.6585
8.65825
8.6581
8.65791
8.65773
8.65755
8.65737
8.6572
8.65704
8.65687
8.65666
8.65643
8.65617
8.65591
8.65562
8.65534
8.65512
8.65496
8.65479
8.65461
8.65442
8.65421
8.65401
8.65379
8.65363
8.65875
8.65858
8.6584
8.65822
8.65803
8.65786
8.65768
8.6575
8.65733
8.65717
8.65702
8.65684
8.65664
8.65638
8.65612
8.6558
8.65552
8.65529
8.6551
8.65493
8.65474
8.65455
8.65435
8.65414
8.65922
8.65902
8.65888
8.65869
8.65851
8.65834
8.65816
8.65799
8.65781
8.65762
8.65744
8.65728
8.65714
8.65698
8.6568
8.65656
8.6563
8.65601
8.65573
8.65549
8.65527
8.65507
8.65489
8.65469
8.65448
8.65947
8.65931
8.65915
8.65897
8.6588
8.65863
8.65846
8.65829
8.65812
8.65794
8.65774
8.65754
8.65738
8.65723
8.65708
8.65692
8.65671
8.65645
8.65619
8.65592
8.65567
8.65545
8.65525
8.65504
8.65987
8.65971
8.65956
8.6594
8.65925
8.65908
8.65892
8.65875
8.65858
8.65841
8.65824
8.65805
8.65786
8.65767
8.65749
8.65732
8.65717
8.657
8.65681
8.65658
8.65633
8.65608
8.65584
8.65564
8.65543
8.6601
8.65997
8.65981
8.65966
8.65951
8.65934
8.65919
8.65902
8.65886
8.6587
8.65853
8.65835
8.65816
8.65797
8.65778
8.65759
8.65742
8.65726
8.65709
8.65691
8.65669
8.65646
8.65622
8.656
8.66038
8.66023
8.66008
8.65993
8.65977
8.65961
8.65945
8.65928
8.65912
8.65896
8.6588
8.65864
8.65846
8.65827
8.65808
8.65789
8.65771
8.65753
8.65735
8.65719
8.65701
8.6568
8.65661
8.6564
8.66082
8.66065
8.66051
8.66035
8.6602
8.66003
8.65987
8.65971
8.65954
8.65938
8.65922
8.65906
8.6589
8.65873
8.65856
8.65839
8.6582
8.65801
8.65783
8.65766
8.65748
8.65732
8.65713
8.65692
8.65673
8.66112
8.66095
8.66078
8.66061
8.66047
8.66032
8.66015
8.65997
8.6598
8.65964
8.65948
8.65932
8.65916
8.659
8.65883
8.65867
8.65849
8.65831
8.65812
8.65795
8.65777
8.6576
8.65744
8.65728
8.66144
8.66123
8.66107
8.66089
8.66072
8.66057
8.66042
8.66025
8.66008
8.65991
8.65975
8.65959
8.65943
8.65927
8.65911
8.65895
8.65878
8.65861
8.65843
8.65825
8.65807
8.65789
8.65772
8.65755
8.66172
8.66154
8.66138
8.6612
8.66102
8.66083
8.66067
8.66051
8.66035
8.66019
8.66003
8.65987
8.65971
8.65955
8.65939
8.65923
8.65907
8.6589
8.65873
8.65855
8.65838
8.6582
8.65804
8.66214
8.66201
8.66185
8.66168
8.6615
8.66132
8.66114
8.66096
8.66078
8.66061
8.66046
8.66031
8.66015
8.66
8.65984
8.65968
8.65952
8.65936
8.6592
8.65903
8.65886
8.65868
8.6585
8.6583
8.6624
8.66226
8.66211
8.66196
8.6618
8.66163
8.66145
8.66126
8.66107
8.66089
8.66073
8.66058
8.66043
8.66028
8.66012
8.65996
8.6598
8.65964
8.65948
8.65932
8.65916
8.65898
8.65881
8.65863
8.66271
8.66252
8.66238
8.66222
8.66206
8.66191
8.66175
8.66158
8.6614
8.6612
8.661
8.66084
8.6607
8.66055
8.6604
8.66024
8.66008
8.65992
8.65976
8.6596
8.65944
8.65928
8.65908
8.66313
8.66294
8.66283
8.66266
8.66251
8.66235
8.66218
8.66202
8.66186
8.6617
8.66153
8.66134
8.66113
8.66096
8.66082
8.66067
8.66052
8.66037
8.66021
8.66005
8.65989
8.65973
8.65958
8.65939
8.66342
8.66323
8.66308
8.66294
8.66279
8.66264
8.66248
8.66231
8.66214
8.66198
8.66182
8.66167
8.66149
8.66128
8.6611
8.66095
8.6608
8.66065
8.6605
8.66034
8.66018
8.66002
8.65986
8.65973
8.66358
8.66349
8.66335
8.6632
8.66305
8.66291
8.66277
8.66262
8.66245
8.66227
8.6621
8.66194
8.6618
8.66163
8.66144
8.66125
8.66109
8.66094
8.66078
8.66063
8.66047
8.66031
8.66016
8.65999
8.66389
8.66373
8.6636
8.66346
8.66331
8.66317
8.66303
8.66289
8.66275
8.66259
8.66241
8.66223
8.66207
8.66191
8.66176
8.66159
8.66141
8.66124
8.66107
8.66092
8.66076
8.66061
8.66044
8.66429
8.66418
8.66401
8.66387
8.66372
8.66357
8.66343
8.66328
8.66313
8.66299
8.66286
8.66272
8.66256
8.66238
8.6622
8.66204
8.66189
8.66173
8.66156
8.66138
8.66121
8.66105
8.66088
8.66074
8.66463
8.66441
8.6643
8.66414
8.664
8.66384
8.66369
8.66354
8.66339
8.66324
8.6631
8.66297
8.66285
8.6627
8.66252
8.66235
8.66218
8.66202
8.66186
8.6617
8.66152
8.66134
8.66118
8.66102
8.66485
8.66474
8.66456
8.66442
8.66427
8.66412
8.66397
8.66381
8.66366
8.66351
8.66336
8.66322
8.66308
8.66296
8.66282
8.66266
8.6625
8.66233
8.66216
8.662
8.66183
8.66167
8.66148
8.66516
8.665
8.66484
8.66469
8.66455
8.6644
8.66425
8.66409
8.66394
8.66379
8.66364
8.66349
8.66335
8.66321
8.66308
8.66294
8.66279
8.66263
8.66248
8.66231
8.66215
8.66197
8.6618
8.66538
8.66526
8.66512
8.66497
8.66482
8.66467
8.66453
8.66437
8.66421
8.66406
8.66392
8.66377
8.66362
8.66349
8.66335
8.66321
8.66306
8.66291
8.66276
8.66261
8.66245
8.66228
8.66215
8.66565
8.66552
8.66538
8.66524
8.66509
8.66494
8.6648
8.66465
8.66449
8.66434
8.66419
8.66404
8.66389
8.66375
8.66361
8.66347
8.66333
8.66318
8.66304
8.66288
8.66273
8.66258
8.66247
8.66596
8.6658
8.66565
8.66551
8.66535
8.66521
8.66506
8.66493
8.66478
8.66463
8.66447
8.66432
8.66417
8.66402
8.66387
8.66373
8.6636
8.66346
8.66331
8.66316
8.663
8.66286
8.6627
8.66625
8.6661
8.66594
8.66579
8.66564
8.66548
8.66533
8.66519
8.66505
8.66491
8.66477
8.66462
8.66446
8.66431
8.66416
8.66401
8.66386
8.66372
8.66357
8.66343
8.66329
8.66313
8.66299
8.66667
8.66652
8.66637
8.66625
8.66609
8.66593
8.66578
8.66562
8.66547
8.66532
8.66518
8.66504
8.6649
8.66476
8.66461
8.66446
8.6643
8.66415
8.664
8.66385
8.6637
8.66356
8.66341
8.667
8.66683
8.66667
8.66652
8.66638
8.66624
8.66608
8.66594
8.66578
8.66562
8.66546
8.66532
8.66518
8.66504
8.6649
8.66475
8.6646
8.66445
8.6643
8.66415
8.66399
8.66384
8.6637
8.66726
8.66712
8.66698
8.66682
8.66667
8.66653
8.66638
8.66623
8.66609
8.66594
8.66577
8.6656
8.66545
8.66532
8.66517
8.66504
8.66489
8.66475
8.6646
8.66445
8.66429
8.66414
8.66399
8.66761
8.66742
8.66726
8.66711
8.66697
8.66682
8.66667
8.66651
8.66635
8.66622
8.66608
8.66591
8.66574
8.66559
8.66545
8.66531
8.66517
8.66504
8.66489
8.66475
8.6646
8.66444
8.66429
8.66785
8.66773
8.66756
8.6674
8.66725
8.66711
8.66697
8.66682
8.66665
8.66648
8.66634
8.66621
8.66605
8.66589
8.66574
8.66559
8.66545
8.66532
8.66518
8.66504
8.66489
8.66475
8.66461
8.66812
8.66798
8.66783
8.66768
8.66752
8.66738
8.66724
8.6671
8.66697
8.66681
8.66663
8.66648
8.66634
8.66619
8.66604
8.66589
8.66574
8.6656
8.66547
8.66533
8.6652
8.66504
8.66489
8.66847
8.66825
8.6681
8.66794
8.66779
8.66764
8.6675
8.66736
8.66723
8.6671
8.66696
8.66679
8.66662
8.66648
8.66632
8.66618
8.66603
8.66589
8.66575
8.66561
8.66548
8.66534
8.6652
8.66871
8.66857
8.66838
8.66822
8.66806
8.66791
8.66776
8.66761
8.66747
8.66734
8.66722
8.66709
8.66693
8.66677
8.66661
8.66646
8.66631
8.66617
8.66603
8.6659
8.66576
8.66563
8.66548
8.669
8.66886
8.66868
8.66851
8.66835
8.66819
8.66804
8.66789
8.66774
8.6676
8.66746
8.66734
8.66722
8.66707
8.66691
8.66676
8.6666
8.66645
8.66631
8.66618
8.66604
8.66591
8.66577
8.66933
8.66916
8.66898
8.66881
8.66864
8.66848
8.66833
8.66817
8.66802
8.66787
8.66773
8.66759
8.66746
8.66733
8.6672
8.66705
8.6669
8.66675
8.6666
8.66646
8.66633
8.66619
8.66987
8.66964
8.66949
8.66931
8.6691
8.66893
8.66877
8.66862
8.66846
8.66831
8.66817
8.66802
8.66786
8.66772
8.66758
8.66745
8.66732
8.66718
8.66703
8.66689
8.66674
8.66661
8.66648
8.6701
8.66996
8.66978
8.66963
8.66945
8.66924
8.66906
8.66891
8.66876
8.6686
8.66845
8.66831
8.66816
8.668
8.66785
8.66771
8.66758
8.66745
8.66731
8.66716
8.66703
8.66689
8.66674
8.67036
8.67024
8.67009
8.66993
8.66977
8.6696
8.66941
8.66922
8.66906
8.66891
8.66874
8.66859
8.66844
8.6683
8.66815
8.66799
8.66784
8.66771
8.66758
8.66744
8.6673
8.66717
8.66704
8.67066
8.67051
8.67038
8.67023
8.67007
8.66991
8.66974
8.66956
8.66937
8.66921
8.66905
8.66889
8.66873
8.66858
8.66843
8.66828
8.66813
8.66798
8.66785
8.66771
8.66757
8.66742
8.6673
8.67092
8.6708
8.67064