/*--------------------------------*- C++ -*----------------------------------*\
| =========                 |                                                 |
| \\      /  F ield         | OpenFOAM: The Open Source CFD Toolbox           |
|  \\    /   O peration     | Version:  2312                                  |
|   \\  /    A nd           | Website:  www.openfoam.com                      |
|    \\/     M anipulation  |                                                 |
\*---------------------------------------------------------------------------*/
FoamFile
{
    version     2.0;
    format      ascii;
    arch        "LSB;label=64;scalar=64";
    class       volScalarField;
    location    "180";
    object      omega;
}
// * * * * * * * * * * * * * * * * * * * * * * * * * * * * * * * * * * * * * //

dimensions      [0 0 -1 0 0 0 0];

internalField   nonuniform List<scalar> 
404911
(
250.868
203.324
3440.07
1536.58
175.907
190.724
167.013
603.435
341.279
281.773
229.606
296.283
174.917
232.741
407.902
1101.85
232.163
184.58
209.497
310.462
432.227
224.767
674.904
416.431
157.005
953.979
230.519
126.779
162.8
970.027
204.497
114.773
238.815
349.198
185.155
114.766
225.842
401.528
193.958
93.363
205.441
1002.26
189.537
81.6489
82.341
363.788
308.18
79.956
96.9099
551.121
377.881
317.52
139.762
1323.43
326.772
567.078
9402.23
136.178
306.897
205.2
209.189
123.484
165.161
83.1574
86.2924
173.335
155.998
349.461
168.918
82.7116
132.947
47.145
132.974
88.0898
45.6325
590.982
2268.21
223.966
89.2652
188.319
76.511
178.363
48.6862
76.4183
82.4363
76.4676
167.724
77.0431
1122.18
124.198
134.305
2955.59
125.716
187.313
133.035
73.9073
91.0941
176.572
68.0542
206.61
608.7
86.1746
83.517
448.444
1226.99
479.351
230.351
667.802
320.22
248.714
190.635
197.063
191.808
203.417
2254.6
501.274
212.109
4530.48
575.009
171.627
173.878
172.173
170.398
242.16
1286.14
296.898
197.957
193.605
179.506
521.422
457.119
485.974
164.432
152.764
162.385
153.491
200.255
219.46
165.65
267.139
1159.29
289.566
182.597
169.175
172.811
171.809
171.55
156.738
481.53
414.85
155.337
148.257
169.37
1761.71
273.208
965.632
236.955
161.693
152.597
160.584
156.812
161.216
162.665
158.19
150.314
146.606
150.237
153.664
169.814
242.639
375.967
563.299
426.591
394.826
396.377
391.728
471.194
151.671
156.463
150.291
152.667
154.266
165.773
180.88
188.151
189.01
269.713
682.03
436.895
368.238
360.403
223.284
304.331
484.84
406.598
140.957
148.523
150.938
162.669
172.414
180.509
212.921
1153.22
964.165
234.588
560.049
282.987
239.302
214.495
296.715
374.505
268.381
314.442
386.532
402.718
131.877
153.886
165.577
167.266
192.636
481.02
833.637
571.91
248.271
233.263
151.038
195.672
216.529
219.718
284.396
296.751
308.619
224.997
119.161
156.617
165.545
186.253
278.432
1189.48
1184.75
254.07
116.027
175.595
154.978
132.759
128.421
161.084
362.938
229.334
190.968
145.931
158.039
268.909
446.177
158.007
196.439
1088.13
435.15
145.658
99.0663
218.975
141.664
127.443
116.953
145.398
145.651
154.564
151.113
167.23
208.276
356.713
437.79
507.833
400.322
452.687
192.209
141.61
351.862
170.883
127.928
137.097
118.96
121.514
145.658
137.057
149.495
292.448
321.966
403.852
450.087
1664.4
339.057
162.252
143.516
119.276
122.992
134.326
128.994
122.685
126.783
127.02
122.743
125.182
138.326
360.076
360.533
412.605
222.109
1006.35
954.336
862.954
279.727
221.372
101.663
91.5125
145.678
119.218
119.51
122.1
133.387
138.904
123.551
131.78
178.778
328.854
168.83
521.867
1083.26
229.758
131.893
143.647
142.496
131.864
122.647
77.3523
131.52
107.892
124.555
103.064
104.121
129.833
140.413
181.065
435.016
248.639
448.488
146.827
109.958
107.053
99.6679
177.215
111.881
117.972
70.8887
92.0974
78.5738
85.0246
117.108
101.697
135.647
217.085
175.454
991.652
1120.64
248.161
140.033
107.817
92.7371
82.9378
95.9727
98.009
89.3655
86.9142
79.5103
119.434
112.993
118.649
114.754
129
352.012
883.545
333.717
131.708
112.309
152.699
163.045
106.201
100.234
82.2014
66.9003
67.3837
72.0888
94.1361
127.82
133.468
155.771
130.598
269.613
705.195
1086.62
878.425
305.544
173.726
130.93
112.892
135.177
97.2213
85.2957
74.2228
69.9511
71.8542
79.2615
103.895
156.235
151.052
144.156
433.732
414.468
155.401
140.789
129.836
117.288
102.629
90.8913
121.961
80.3716
105.743
92.0559
83.5321
85.3239
106.96
108.875
134.175
271.584
951.032
172.616
112.693
138.907
95.0714
94.1516
95.2879
89.0305
92.8885
88.7932
93.0008
107.157
105.419
108.314
108.44
176.786
149.519
306.678
408.233
128.096
146.341
122.24
89.7758
83.9698
94.6016
82.2423
75.7251
97.9359
125.365
111.122
105.915
123.025
125.158
173.396
166.868
977.543
229.443
107.313
94.1447
79.2836
80.173
79.7936
86.3651
106.797
66.1318
64.6651
77.2887
102.91
137.017
144.299
190.29
153.934
269.005
1167.66
432.446
155.313
106.199
85.6723
76.3195
72.7154
82.6076
82.4626
69.7137
67.4157
67.5696
72.2438
78.1713
89.9777
175.526
104.351
171.591
990.079
1097.22
208.623
103.622
131.825
90.0973
76.3837
71.4909
72.6215
73.9356
79.4425
67.7919
75.2062
98.3777
93.1669
96.8833
105.142
141.649
279.905
408.153
132.768
103.22
85.2951
74.7522
69.7698
67.6285
73.0959
85.0214
75.497
74.9032
78.4574
91.8588
117.505
139.468
136.953
163.345
982.312
1120.59
215.111
105.203
95.4157
80.7709
72.4606
67.5871
64.3611
62.7889
68.8631
83.463
85.6694
86.2693
85.9833
103.889
120.586
159.016
251.19
887.626
144.936
112.916
94.6643
80.3835
73.0354
67.2588
63.2495
60.1544
59.5338
61.9521
71.0169
76.7512
82.9078
91.8743
120.009
182.843
305.712
255.453
117.548
126.975
100.075
83.3949
74.2241
69.606
62.7707
57.2726
56.8441
59.7073
65.3659
73.5769
81.6779
100.851
113.333
154.509
489.204
229.91
132.803
126.086
93.0005
83.8125
73.8154
71.4204
66.4057
59.0429
55.2345
58.8802
65.0838
72.5923
91.0743
100.706
120.406
235.234
1100.59
1140.45
168.594
102.807
105.457
90.7334
79.3141
72.8221
69.502
73.5449
69.2115
61.471
61.8434
67.2345
74.0388
86.6348
136.836
154.939
445.408
909.884
150.98
103.208
82.2085
74.8443
71.4896
66.9299
62.6492
60.2977
66.3641
67.2757
66.151
70.13
77.2438
86.0626
119.718
159.58
1047.4
269.615
127.702
110.378
86.6013
76.4248
74.3594
69.6644
60.7506
54.5485
52.5796
56.4999
62.5232
69.9658
76.0298
104.661
104.432
165.248
1081.39
256.258
112.167
93.4604
80.6708
72.537
76.7274
78.9411
60.1983
51.6359
51.939
56.5269
62.9549
70.3964
79.7662
92.9355
114.598
249.748
1015.64
185.602
110.982
92.3891
78.9649
74.3055
67.5241
71.3715
68.7679
49.307
47.7325
55.0476
62.1837
69.5208
80.6775
104.648
136.892
426.635
416.771
138.854
132.455
120.561
84.1603
76.1447
72.8744
60.5134
66.2972
57.4905
44.5669
56.5864
65.9287
70.5992
81.8022
107.838
153.932
982.756
265.901
117.848
91.5158
79.9992
71.8362
72.9255
81.5146
78.2869
66.7367
48.0758
58.5954
59.4282
67.9154
74.2909
81.3714
119.559
197.275
1116.55
1035.37
171.523
109.124
94.1644
77.9255
70.7875
65.131
74.2029
76.3535
70.3592
62.7206
45.9675
59.0782
69.9286
74.3189
96.5214
102.841
222.96
1027.89
160.241
103.124
83.2141
72.7353
68.065
64.1977
60.4677
71.4195
72.5018
67.955
58.1701
57.6677
68.3412
79.7869
90.3161
114.894
393.613
1010.89
157.897
103.516
81.1157
72.4906
67.0061
62.5227
59.3703
57.592
58.1909
53.3576
65.8856
62.3383
74.7932
90.5407
117.406
128.723
874.845
1006.38
153.598
103.016
81.6869
72.2631
67.7754
62.2905
57.0652
56.7252
61.1808
57.1326
57.5012
66.4598
78.603
92.9642
132.913
188.058
1103.16
261.141
134.955
106.676
84.9385
74.1212
67.6216
62.1849
56.255
52.3195
54.2984
64.9254
69.6591
73.3936
79.6236
91.3963
127.832
213.798
1137.37
239.604
115.568
93.7727
81.9744
73.3731
67.8679
61.648
55.2331
52.9012
51.4901
56.3648
70.7516
79.7071
82.9484
85.2936
125.058
210.747
1088.18
161.523
123.879
113.103
80.651
72.1464
66.6141
62.6676
57.7773
51.7434
52.7733
55.456
59.6887
69.9718
82.6008
92.3229
110.077
228.399
963.15
156.885
102.897
79.0585
70.6627
66.4015
62.883
60.3962
64.5759
63.2191
55.6744
56.3057
61.0205
65.749
72.9374
89.8321
111.39
242.625
1026.79
154.903
101.617
78.3329
68.1987
63.9062
58.684
53.9599
49.9501
56.5469
60.6567
57.3686
61.8814
66.9783
73.517
90.9929
116.39
259.438
1023.15
156.243
112.287
80.308
67.9829
61.8277
55.53
49.0911
44.8313
42.2713
46.3353
52.753
60.6239
66.7512
75.3798
92.2574
125.363
403.947
953.003
146.55
103.796
79.8601
68.1186
60.9279
52.884
46.4336
40.8851
40.405
44.8968
52.5455
60.4404
67.0061
75.679
97.1629
149.643
966.738
262.465
141.609
98.2239
81.3308
71.581
61.7187
52.6031
44.8997
38.8597
37.0342
43.3366
52.2312
59.9314
67.2865
76.9439
97.3434
151.184
1049.07
264.234
135.936
95.6154
81.7001
76.1161
67.8505
55.3965
45.1519
38.0864
34.3316
40.0592
54.7135
62.0234
67.215
79.8801
102.849
148.597
1014.63
1135.79
176.896
128.38
95.5862
75.917
76.5539
77.6305
58.2404
52.2731
39.327
41.572
41.7656
56.1867
67.7966
70.2386
79.7329
116.421
159.775
1000.4
1020.69
141.603
96.7361
127.51
82.4107
67.1622
69.9017
69.5899
57.1622
47.5866
42.1536
40.738
54.7532
74.6861
75.7755
82.3771
111.471
202.177
146.265
92.8396
71.7767
64.5697
62.7156
60.8988
55.2966
51.3718
50.8808
49.4999
42.2092
57.5412
63.8304
73.388
97.2409
100.682
213.822
956.211
146.325
91.718
68.8709
61.7011
60.2285
60.609
57.4555
49.261
53.5933
43.9632
42.1855
57.8987
68.5851
73.1252
102.214
108.618
256.782
1001.03
140.878
90.9662
68.6468
61.5051
59.6447
56.7286
59.7783
56.2537
43.8146
48.8816
50.7584
64.4756
69.4014
70.6847
92.2644
114.444
402.198
1103.6
142.245
95.1624
71.9968
62.0239
57.8831
54.8983
52.4585
59.0477
55.2394
42.3157
52.801
64.0182
65.4472
71.6388
86.424
122.076
820.634
131.113
109.742
80.9087
64.5707
56.1811
53.331
50.8742
49.7576
58.0741
51.0905
51.1838
55.6471
60.6353
71.8792
93.683
142.838
922.403
717.38
192.041
81.2062
63.1947
53.57
49.3415
48.7251
47.0556
45.5173
51.6611
54.4876
60.1948
63.4605
72.0526
98.9969
146.886
1020.5
2139.21
307.552
145.777
92.3754
57.9
48.5231
44.7313
42.9165
47.2447
49.5318
52.0246
58.7786
64.5194
70.353
81.9975
99.0031
163.665
1068.6
244.393
106.629
102.192
73.6143
48.7065
42.3588
39.871
39.3314
42.435
53.6725
53.7216
58.9315
68.101
71.8396
96.5443
103.013
228.49
229.614
107.761
88.8273
66.6923
48.6606
40.5424
38.2845
38.3964
38.9794
50.8434
52.8817
64.6588
76.1634
81.9712
92.1708
108.666
248.947
1152.14
198.799
100.478
90.8506
79.3891
73.0374
71.4967
47.8575
36.2503
37.4521
40.882
50.3387
67.9835
80.5229
93.4673
114.759
130.557
824.31
927.069
148.206
104.339
82.8775
74.9001
72.3833
124.391
137.241
51.7177
34.939
45.2026
59.5149
73.2134
84.7402
105.459
136.388
144.473
961.3
803.424
113.064
189.977
122.627
82.8337
62.9519
61.1246
82.057
146.073
63.43
42.9731
64.9699
84.9313
94.1592
111.129
152.969
150.699
977.248
418.196
107.83
120.497
95.2481
77.158
59.56
64.8056
77.2084
82.576
83.1803
61.7913
77.9387
88.2208
91.3577
104.37
164.18
158.525
1018.21
1002.89
215.146
107.974
112.006
109.907
84.9228
55.5005
51.201
82.6484
113.439
102.661
80.5375
81.5542
83.867
81.5779
101.267
130.493
292.905
1028.19
894.093
132.942
147.605
105.248
98.4443
95.1035
56.2594
30.8681
38.3789
54.237
64.9897
62.1311
68.521
72.4176
79.2381
87.9843
108.402
175.251
1059.94
202.362
120.487
99.3772
95.9717
89.9987
51.6909
28.5787
27.2315
32.9349
42.7902
59.9537
69.3037
72.8521
80.2215
99.3521
110.578
227.131
1184.53
231.062
117.919
115.477
103.651
90.3304
39.7158
33.5688
33.8057
30.7988
39.1029
59.8814
75.3147
76.1776
81.8174
103.247
119.231
266.856
234.631
124.489
123.78
107.375
92.2897
45.3717
29.2183
36.854
40.6932
47.1728
76.8068
81.1189
79.8024
83.6212
106.872
125.168
417.643
208.97
198.086
138.233
107.565
91.8077
32.1429
24.2181
28.4517
38.395
53.2598
80.0332
85.0451
82.5332
90.3345
101.972
132.226
860.184
949.588
148.329
127.147
111.632
101.423
92.2399
44.5637
23.8085
27.2552
38.6275
65.2468
86.5316
91.0572
87.2425
90.8286
122.054
164.538
963.425
901.102
155.473
135.19
110.992
97.5183
92.3801
37.7651
27.6461
29.0297
40.9481
65.8026
83.4094
86.4657
83.5536
92.8985
112.771
242.146
835.386
130.582
99.6461
93.2195
90.1088
88.0465
58.4676
27.3947
30.1433
42.535
66.5227
81.7324
74.2654
77.5665
92.1433
120.291
278.49
848.597
126.954
102.124
92.8295
87.2011
81.1394
42.1434
34.8498
36.8823
46.5463
63.1565
77.2541
72.8442
75.7836
92.8986
125.671
279.166
868.606
132.571
111.326
96.4879
89.2796
70.5705
37.6515
35.2126
38.4092
46.0137
58.1718
73.4461
71.1151
77.5666
92.7985
130.042
845.613
883.943
138.318
122.987
113.405
98.6814
73.4736
48.1166
35.5935
42.0253
48.3467
56.3303
72.8953
71.9711
84.6292
101.233
150.53
946.932
277.562
141
155.433
134.224
106.489
82.8696
116.837
102.357
54.7123
51.2245
58.7681
73.7427
78.1502
86.2559
123.49
153.032
1021.41
337.174
324.417
142.441
120.215
75.7377
46.8887
71.0718
114.871
76.2719
77.4142
85.395
88.0109
106.864
119.285
192.876
1156.41
330.086
195.151
141.381
128.626
79.3603
47.6069
59.0609
91.1605
105.988
108.597
109.401
93.6112
109.244
108.5
240.145
293.282
206.284
162.391
140.544
125.601
82.927
56.7909
80.186
94.2261
108.043
105.611
92.7505
103.237
107.679
114.423
267.67
307.91
138.308
127.065
138.737
137.364
106.063
63.2512
82.6355
103.579
117.422
108.056
114.279
112.616
157.487
142.026
830.925
302.619
141.91
133.921
138.719
139.443
144.604
82.3985
98.374
105.686
104.785
113.97
122.694
140.204
198.907
166.943
1026.37
1150.33
270.067
158.729
112.095
142.49
157.393
136.225
136.784
109.034
138.321
132.372
117.698
111.946
154.964
215.942
467.076
1196.06
190.57
126.886
125.047
91.5209
170.342
162.962
125.507
87.7888
111.379
134.699
127.892
136.819
160.304
259.863
232.083
958.334
180.656
138.66
105.86
77.1134
102.035
126.988
203.277
124.865
107.729
134.141
146.361
161.02
181.017
284.066
807.049
263.394
133.933
506.701
237.879
125.915
69.2528
91.9157
80.3321
79.5079
95.0542
112.969
110.362
129.131
172.724
302.385
4098.93
276.359
513.446
231.594
142.396
125.165
85.5481
78.1525
105.748
104.269
101.654
124.195
140.552
143.793
184.663
291.964
799.325
1039.72
603.969
287.227
156.963
117.509
96.677
67.9753
78.9096
106.837
112.219
136.659
165.291
198.444
192.27
317.013
1162.06
182.166
422.994
215.885
136.466
89.5274
68.4871
82.7788
105.134
119.151
127.83
139.053
128.142
185.538
224.374
1411.16
1151.82
199.41
148.988
302.002
203.514
131.578
71.5439
62.9238
106.769
117.592
133.518
148.401
158.805
149.742
307.067
1235.92
546.92
187.995
152.485
459.021
295.156
144.606
94.1068
81.6327
100.95
119.028
137.458
210.412
130.689
163.119
317.202
1102.2
511.85
435.422
318.593
197.265
104.542
101.261
106.723
128.412
142.943
218.074
152.56
216.667
1133.37
677.222
484.924
404.254
320.917
193.964
233.893
110.858
106.523
130.309
203.117
130.767
164.249
302.925
1109.52
170.971
143.066
454.962
450.513
149.293
223.857
277.262
130.694
158.483
196.707
152.716
193.862
506.562
1161.88
173.679
143.611
458.8
407.371
213.196
187.063
297.944
259.59
273.468
315.687
162.028
210.013
1185.73
1092.27
174.589
491.266
442.563
443.108
302.75
178.259
196.617
208.34
295.723
469.569
168.741
220.641
1277.45
1176.08
186.324
514.846
438.586
442.323
411.6
187.562
194.942
180.965
260.473
488.113
178.45
308.103
1332.72
1143.11
208.592
167.049
481.523
422.104
453.351
294.393
181.191
208.65
315.991
169.841
195.735
316.016
1450.15
1434.29
1136.35
183.331
167.46
459.808
449.956
568.388
293.617
243.757
352.828
519.518
202.137
338.732
177.052
508.478
454.466
461.984
156.945
512.432
533.136
558.039
521.189
177.967
161.097
470.644
552.869
183.689
207.022
285.898
1188.47
6266.91
580.386
164.085
496.949
535.525
220.028
378.464
2759.46
2067.77
491.815
779.473
211.12
239.168
1173.5
452.357
757.826
212.417
229.075
583.651
769.318
543.862
244.466
203.894
253.062
1168.32
1153.8
276.559
1871.25
736.888
508.737
329.38
197.653
183.935
213.966
207.509
640.523
270.705
214.02
377.482
689.002
1502.03
1307.95
6454.01
522.991
1511.01
598.469
569.346
1404.02
607.671
414.685
317.964
305.577
286.183
267.763
257.249
327.554
1392.32
591.859
387.409
292.797
281.3
262.291
250.817
249.782
256.803
255.463
250.995
236.737
237.576
241.761
231.215
1252
517.632
277.789
257.252
241.977
243.676
240.993
235.007
237.237
237.333
240.929
231.364
223.203
228.49
239.246
237.545
240.345
237.144
240.169
322.378
380.363
830.131
919.734
462.406
238.356
215.004
215.908
211.884
213.462
219.125
221.146
220.903
220.746
223.776
230.499
213.551
580.184
568.219
239.93
249.118
233.284
244.128
242.695
268.285
588.222
511.754
280.464
211.358
191.489
173.187
165.439
174.161
185.011
194.665
198.106
202.84
203.177
213.098
213.046
219.259
222.582
209.223
533.674
572.971
212.538
235.88
241.121
256.179
290.23
1268.82
408.788
189.477
147.889
137.31
168.944
175.128
392.333
559.617
682.028
159.954
176.376
187.593
183.273
181.344
189.497
212.567
219.68
210.112
198.907
516.982
568.004
218.19
243.927
283.762
611.763
1490.29
374.013
244.469
212.387
153.827
152.403
147.085
170.539
200.329
179.815
172.354
303.899
156.425
178.076
252.228
192.764
636.158
196.753
220.332
230.697
231.535
587.658
586.557
262.357
592.45
1233.41
294.261
276.328
192.681
138.345
120.185
126.35
149.906
153.116
142.839
227.385
177.19
155.872
148.579
218.828
372.454
164.937
176.363
487.886
219.071
230.173
228.236
231.977
257.004
533.806
383.713
1315.01
291.369
217.868
174.965
153.624
112.853
108.147
107.819
121.328
139.889
147.429
120.418
214.952
188.485
180.746
181.557
164.335
145.989
143.869
197.715
181.728
224.905
241.495
342.23
584.569
1046.01
357.951
152.379
143.449
174.386
146.289
148.179
117.265
104.532
93.3608
115.058
115.172
108.078
106.604
102.8
108.181
111.572
115.937
158.082
147.369
199.946
175.082
188.414
203.47
235.239
530.408
1116.99
199.929
122.688
165.074
146.346
126.502
140.099
128.635
127.642
124.409
121.637
110.485
105.495
111.935
124.632
99.4399
105.491
110.549
114.14
118.817
236.242
154.651
556.056
529.337
665.218
4557.28
759.034
1374.36
286.988
176.8
130.42
114.464
110.544
126.904
169.13
155.107
136.191
131.543
128.66
124.885
133.727
138.874
129.407
116.083
121.356
118.279
118.497
125.708
131.264
545.887
1635.74
1272.07
326.009
180.36
125.615
108.58
109.986
111.929
110.13
117.213
118.72
172.378
144.543
135.019
117.766
160.756
155.16
139.561
137.74
149.542
134.272
127.698
119.357
182.154
416.078
435.137
176.196
176.964
169.422
150.857
109.344
98.3915
99.2688
107.23
115.214
115.696
113.625
110.935
101.484
130.033
120.495
113.062
153.091
151.565
157.937
183.406
180.529
115.329
171.4
433.126
412.8
180.427
135.733
136.001
111.829
105.586
101.165
101.079
96.7803
98.3014
103.677
112.518
111.011
98.0969
94.2773
105.356
115.541
124.237
127.849
160.202
187.024
190.416
341.378
158.625
422.571
372.077
154.338
163.896
144.495
115.365
103.677
100.261
96.4901
97.281
92.7085
90.2505
94.1589
97.8681
104.048
89.9067
88.0606
99.3868
113.94
132.072
124.855
144.41
211.098
225.743
367.883
801.642
1131.83
356.94
147.823
150.207
114.409
105.064
100.855
99.8947
98.6717
93.6785
87.931
77.1977
72.2092
78.0419
92.2742
96.4106
94.1632
96.9043
98.8681
108.134
118.678
131.139
151.308
185.019
355.759
386.266
1110.46
350.149
137.637
143.432
110.628
96.5832
90.5816
86.6262
85.8295
90.1665
87.0849
77.1213
65.8816
60.5772
64.4283
76.9126
79.7589
88.0736
99.384
102.092
99.8373
108.885
121.095
175.396
351.579
418.636
995.334
233.79
133.367
149.199
111.804
96.2061
88.4822
80.3781
72.0297
65.3428
63.9658
68.7707
64.8842
61.5413
58.853
65.9132
74.1578
81.0553
83.2013
90.5703
107
104.976
116.388
140.463
197.773
289.69
1316.25
1196.16
247.916
126.833
111.736
99.3708
92.4902
90.2809
82.4336
68.8897
55.8019
50.7415
50.0165
51.2586
53.6966
56.8162
62.1634
68.5515
79.6983
88.2424
94.7614
100.777
114.321
121.354
149.52
191.51
172.683
1508.8
379.097
134.481
153.09
110.28
92.4916
88.0228
83.275
71.7167
52.8756
45.14
42.4639
42.4216
44.1166
47.5144
52.4856
60.9445
71.0569
79.7505
89.2123
97.0223
104.385
117.664
143.261
189.684
167.244
414.157
426.238
167.047
122.61
104.8
95.8023
90.7365
83.0563
75.0111
49.2445
39.7603
36.992
36.8554
38.2216
40.2606
44.3591
50.7454
61.1451
72.2881
81.633
88.6943
95.4979
104.286
115.237
144.227
166.052
424.738
965.18
212.632
120.852
116.932
96.8118
92.7167
89.2329
78.4639
49.8554
35.8892
32.21
31.8239
32.4106
34.6516
37.6764
41.4536
47.9214
59.2546
71.9566
82.5734
90.2809
99.2199
113.463
131.752
143.66
377.931
365.734
131.772
108.325
90.0792
85.0698
81.9153
78.9859
57.3064
35.0611
29.9908
29.2722
29.6489
30.4691
31.6357
34.7074
39.439
46.7305
59.5785
72.7775
84.764
93.3319
102.358
132.945
171.324
266.512
419.947
147.056
144.96
104.501
86.1819
78.3463
76.7788
68.5346
46.2655
34.0884
29.5825
28.3522
28.7261
29.4561
30.8183
33.5591
39.435
52.1488
67.151
80.8652
90.7266
100.918
111.731
132.086
159.234
807.826
905.305
194.536
118.788
115.624
90.9978
82.3816
74.3227
68.8421
55.8236
41.7981
37.1647
35.0523
32.5489
30.1154
30.7993
33.5144
39.3739
51.4066
69.1528
84.2407
91.2453
101.348
114.499
130.777
136.139
383.78
912.094
209.168
124.349
121.075
95.6156
86.1753
78.8412
71.4946
60.8348
44.0386
35.4287
37.8866
37.1006
35.6039
34.0453
34.2804
40.0453
52.0862
74.9794
88.7043
95.6978
104.007
110.501
142.981
192.282
231.693
1068.08
375.484
144.75
124.865
96.6787
88.0776
83.0848
76.7781
67.7558
56.835
36.6427
32.7809
37.4737
42.118
41.6364
41.0845
44.2999
57.7194
74.8973
85.8377
92.0359
99.2088
112.165
140.836
184.885
209.908
896.705
745.271
171.783
155.107
105.244
87.4396
82.7049
79.3315
72.6652
64.4588
51.6312
35.905
32.0595
38.5661
45.7902
48.576
50.0555
58.6462
74.1237
81.8266
87.4339
91.951
101.057
143.573
179.814
207.364
884.153
212.89
122.386
101.004
86.9385
78.6239
77.6524
73.9762
62.4174
51.5763
46.2356
37.4944
33.198
37.986
50.0183
58.2558
61.956
68.7367
78.606
85.3525
88.8693
94.7167
109.826
134.314
188.088
877.526
733.212
130.469
110.954
89.6272
80.8314
71.5078
63.479
61.5346
51.148
42.8892
39.4324
37.412
35.526
38.2861
48.5775
59.1799
67.3694
74.1958
81.1273
84.6704
92.1121
104.932
132.883
177.252
356.711
224.213
120.259
98.1824
87.3423
76.9795
66.2146
53.833
44.0514
40.8502
36.2876
34.4407
35.3084
36.8994
40.1084
46.8919
62.2536
69.1961
76.2626
84.3381
91.08
95.4398
115.093
159.136
215.5
914.087
905.687
173.373
109.366
90.7975
85.2063
77.0467
65.0164
45.6686
35.4921
32.6221
31.3886
31.2578
34.2563
40.487
48.3253
58.4343
70.5946
77.291
80.4682
86.2802
94.614
103.333
116.371
144.56
818.402
299.553
132.687
116.294
91.6452
83.7675
78.7651
65.6646
41.6136
31.3578
27.9135
27.5515
29.1028
32.4297
39.0221
50.2417
67.2492
76.6018
83.9053
86.0788
89.555
99.3231
114.581
145.985
235.732
1181.01
689.909
125.178
102.565
86.2016
77.9828
77.0261
75.6157
62.3388
37.18
28.3559
25.3308
24.9281
26.2716
29.914
35.3439
43.2063
57.7112
71.7288
80.7371
88.8671
95.4055
104.297
142.355
201.385
871.902
181.98
137.305
95.1066
81.3639
73.9379
68.8344
68.295
63.6553
40.6252
28.6615
25.0753
24.3239
25.272
27.6015
32.8084
40.2752
52.1103
66.4895
79.0417
91.3341
108.568
128.945
128.676
384.569
670.044
124.77
98.5567
79.888
72.4094
67.9866
64.9513
60.9161
56.1537
42.7718
30.8095
26.207
25.8937
26.8528
28.6972
33.5821
42.4787
55.243
68.7704
81.2472
92.9964
110.554
165.512
210.021
985.843
208.809
114.158
89.5498
76.8534
69.2985
63.973
60.714
55.9832
47.879
39.0961
31.2943
27.6965
28.2775
31.7322
36.6514
42.3916
53.905
69.7043
76.1331
84.6751
97.3632
128.943
169.522
374.581
678.664
123.161
100.947
83.985
73.583
66.1641
59.7432
54.153
50.1449
42.0074
35.8664
31.3036
28.687
30.0538
35.1899
45.8113
60.4368
68.4059
76.3471
84.2121
89.8694
102.647
118.951
152.266
875.461
206.913
113.518
90.5713
79.4085
71.1004
63.1986
55.9654
49.7402
45.0767
40.3047
32.9775
29.832
29.0568
31.0233
36.7641
45.6918
60.4497
70.8313
77.5774
84.7729
94.4885
119.716
159.506
237.09
693.49
122.315
101.175
83.217
75.3233
67.9272
60.15
52.1071
45.9364
41.473
39.0044
34.8093
31.3023
31.0919
34.194
41.3899
51.5868
61.3518
69.5034
78.7829
86.191
102.581
116.553
137.345
821.517
215.252
109.028
88.5741
80.7276
73.1625
66.5469
58.1506
48.3621
41.0667
38.1758
37.2751
36.6078
34.7062
35.9819
41.5113
53.0314
62.19
66.5437
71.3902
78.9196
89.2827
100.66
167.102
223.949
180.164
136.561
92.6056
78.9841
71.7102
65.9165
58.2984
46.366
37.657
34.6064
34.6026
36.2369
39.2501
42.2737
48.4621
57.5913
64.4615
68.5292
72.2222
79.9509
95.7509
122.548
118.26
677.431
723.473
121.621
98.9693
81.4832
74.0603
69.9104
65.1719
58.375
45.8955
35.6921
31.6685
31.3659
33.4047
37.1152
42.464
49.1889
55.8824
61.7911
68.0624
73.6104
79.6202
97.542
159.961
193.218
969.904
687.747
130.794
92.3036
76.0884
70.1973
67.7024
64.525
58.0099
45.4354
34.7524
29.7198
28.5761
30.178
33.9507
39.9445
47.9575
55.4945
61.8921
67.0153
72.5857
79.3137
93.8029
160.198
623.083
325.496
123.013
89.8527
74.9308
66.1169
61.3767
60.0247
55.726
44.0506
34.1555
28.6386
26.8942
27.9612
31.48
37.2128
45.4727
54.8051
63.0887
70.2054
75.8684
86.3724
105.565
150.984
757.989
177.188
143.702
92.2567
74.3463
64.4791
56.237
50.3407
46.9247
40.7326
33.5162
28.4625
26.2247
27.5322
31.2023
37.1625
45.4574
53.7175
62.6224
71.4131
80.7435
89.2021
130.707
207.765
689.47
143.08
114.577
81.4704
70.5791
63.0742
54.1315
45.1951
38.76
35.088
31.5789
28.3838
27.2272
28.4525
32.9651
39.1371
47.7688
55.6176
62.4395
70.9819
79.933
109.635
119.574
697.644
339.033
120.335
87.2044
73.5533
66.9017
61.5072
53.6432
43.2104
34.7643
30.7666
28.4822
27.1573
27.3006
29.6439
34.3591
41.4578
50.2463
58.1058
64.4358
70.1902
82.4174
104.075
157.773
946.486
173.398
140.865
92.939
75.0112
66.0397
59.4375
52.5079
41.9861
32.8489
27.9658
25.5897
25.3002
26.5403
29.6942
35.1734
42.9741
52.2938
59.8295
66.8366
73.1745
84.2959
114.974
199.125
727.776
124.145
98.886
79.0409
71.5984
65.322
58.7882
51.6348
41.3646
31.4118
26.3291
23.6521
23.179
24.8285
28.5657
34.2893
42.6006
53.0258
61.1924
68.1986
77.5369
86.7578
123.449
341.042
334.506
118.61
87.2906
77.5227
69.1366
63.0802
57.8373
51.201
41.6707
30.5914
24.8425
22.2943
21.577
22.9061
26.8936
33.3985
42.3769
52.6661
61.69
68.9693
78.6373
107.643
115.161
674.866
222.846
104.949
83.8206
73.6955
66.0793
59.2875
53.2996
47.3217
40.5509
31.4331
24.0846
21.2126
20.8186
22.1585
25.8629
32.9769
44.0075
53.89
62.0665
70.4579
79.6398
111.017
160.222
956.909
184.319
139.875
89.497
73.6576
65.279
57.2099
50.1458
43.673
37.4434
31.9254
25.4075
21.1186
20.1725
21.6928
25.981
33.9346
46.2149
56.7627
64.4616
71.6895
88.3371
106.197
174.963
887.87
125.925
93.226
77.6862
70.9738
64.4035
56.4663
47.3364
40.5779
35.5269
30.8199
26.7958
22.7612
20.432
21.1388
25.6541
35.2649
49.2664
58.2404
66.9788
76.1364
87.4997
141.008
326.794
702.695
117.413
97.8045
79.1221
71.5037
65.2249
57.2884
47.1927
37.8742
33.0294
30.1919
27.2452
24.3121
22.3793
22.1894
25.9815
37.4386
53.2076
61.0137
68.2246
78.1496
110.045
119.304
716.348
651.314
126.47
91.3415
78.2177
71.0106
65.0877
57.7979
47.742
37.205
30.8837
28.5183
27.705
26.1721
24.5197
25.413
29.8283
42.0774
55.8231
63.3615
70.8219
85.8646
98.7886
167.265
226.392
105.012
82.6732
73.27
69.0258
64.0542
57.3172
47.7936
36.7881
30.1389
27.1018
26.8846
28.0653
28.3809
29.4085
35.3525
47.7369
57.2099
63.9832
72.6912
89.3614
140.517
211.458
217.967
104.665
83.5501
74.8117
67.4746
62.2791
56.3731
47.162
36.4418
29.5658
26.2213
25.7797
27.7536
31.6597
36.7554
43.998
53.0589
58.1154
63.7883
73.8388
86.2954
145.615
616.225
187.29
146.481
91.0008
72.4844
64.1539
58.5908
53.5422
46.1096
36.1233
29.0827
25.2587
24.6858
26.8204
31.0593
37.1316
45.4637
53.2944
58.203
63.1026
71.6015
103.222
134.404
651.378
181.804
102.43
77.4117
68.4658
61.5442
54.6099
48.2763
42.0178
35.1142
28.8145
24.6871
23.61
25.5445
29.6551
35.9119
43.7339
50.8653
56.5993
62.4183
71.4423
87.2731
138.682
787.02
170.688
99.0319
75.4592
67.1851
60.4388
52.5409
44.1827
37.2867
32.124
27.8151
24.4446
23.2689
24.7713
28.9384
35.2789
43.2901
50.4286
56.4029
61.6695
70.0997
91.6294
122.159
890.682
855.429
127.001
92.2831
74.5168
66.7613
60.3419
51.8399
41.8215
33.4961
28.7841
25.6356
23.5465
22.892
24.4571
28.6927
35.5301
44.1051
51.8256
58.2737
63.6738
70.3451
91.4498
155.566
674.089
128.013
106.114
76.8224
66.3815
59.8238
52.2126
40.9544
31.0949
26.1404
23.3071
21.9196
21.9969
23.9592
28.4579
35.5102
44.5005
52.2302
59.1629
66.3158
72.3275
94.6582
161.853
665.806
124.685
84.5412
69.7066
63.3768
58.0394
52.5342
41.902
29.968
24.31
21.4346
20.1555
20.4784
22.7699
27.3304
34.3822
43.913
52.2346
58.9138
66.5233
78.4645
91.1587
168.097
331.028
113.382
80.4143
67.6386
61.8584
56.7339
51.7656
44.2164
30.4573
23.2618
20.1709
18.7709
18.8712
21.0649
25.9148
33.1657
42.8279
51.8355
58.8791
66.5501
79.7323
111.443
216.344
218.049
98.0815
75.445
64.875
59.1634
54.8918
50.2121
44.3969
32.9562
22.9652
19.1551
17.8439
17.9336
19.9391
24.6875
32.7141
42.9948
51.7983
59.2122
66.1235
81.5107
116.855
593.36
221.744
98.97
76.0346
64.2135
56.7461
51.6907
47.8856
42.6749
34.8338
25.6934
19.0664
16.9264
17.157
19.4987
24.6617
33.3129
44.5598
52.9827
60.6101
67.3829
80.4656
124.153
629.097
186.512
104.643
80.3575
65.601
56.1667
48.6039
43.1828
39.279
34.1059
27.6474
21.5374
17.4952
16.8793
19.117
24.9388
34.4159
46.3822
54.7422
61.9914
71.8908
80.2759
119.992
658.21
173.096
104.848
77.353
64.6498
55.2243
46.223
38.6473
34.3313
31.9715
28.1148
23.3734
19.5695
17.8455
19.7825
26.0481
36.9387
48.21
55.8012
62.0724
72.8147
96.8376
111.499
726.058
181.552
105.992
78.0392
65.7565
55.4392
43.9904
34.6749
30.6719
28.5845
26.9135
24.1051
21.5267
20.6309
22.5914
29.294
40.5248
49.0695
55.7586
62.3841
71.3462
98.6269
150.007
917.349
175.694
108.501
84.1366
70.2032
58.3797
42.8086
31.7332
28.1277
26.0608
24.3233
22.7688
21.4378
22.2348
25.8368
32.7516
42.7113
50.2177
56.1432
62.2752
71.7531
96.8766
162.089
860.574
126.798
100.985
88.9383
74.288
62.1499
42.769
29.9022
26.209
24.4683
22.857
21.3035
20.3458
21.3055
25.5945
32.9567
43.4131
51.4307
57.6575
63.1971
71.4732
96.7083
165.593
678.187
149.558
109.438
79.5492
70.5221
62.9912
42.7167
28.8939
24.8261
23.2036
22.0765
20.9307
20.269
20.9785
24.7955
32.4343
43.5082
51.8197
58.4593
65.4908
72.8499
96.1773
172.048
685.719
130.869
90.3164
73.5942
66.2349
60.2107
47.7315
29.5901
23.9968
22.1175
21.1382
20.5517
20.4964
21.8811
25.4407
33.0956
45.5861
54.1123
60.7676
67.5978
80.9276
100.819
163.902
350.3
122.471
87.5831
73.7554
65.7207
56.5297
45.9013
30.8277
23.769
21.3407
20.3129
19.78
19.8677
21.6279
26.453
35.0815
49.0396
58.1555
64.6359
71.4636
85.1779
121.34
197.421
217.846
108.053
86.3511
74.7318