/*--------------------------------*- C++ -*----------------------------------*\
| =========                 |                                                 |
| \\      /  F ield         | OpenFOAM: The Open Source CFD Toolbox           |
|  \\    /   O peration     | Version:  2312                                  |
|   \\  /    A nd           | Website:  www.openfoam.com                      |
|    \\/     M anipulation  |                                                 |
\*---------------------------------------------------------------------------*/
FoamFile
{
    version     2.0;
    format      ascii;
    arch        "LSB;label=64;scalar=64";
    class       volScalarField;
    location    "180";
    object      p;
}
// * * * * * * * * * * * * * * * * * * * * * * * * * * * * * * * * * * * * * //

dimensions      [0 2 -2 0 0 0 0];

internalField   nonuniform List<scalar> 
404911
(
0.123444
0.123436
0.126282
0.126938
0.122104
0.123303
0.125165
0.126177
0.126573
0.126782
0.122512
0.120211
0.119825
0.122568
0.124378
0.125541
0.120572
0.120599
0.120611
0.121221
0.119869
0.119772
0.119108
0.120768
0.119659
0.114254
0.121614
0.121271
0.12085
0.122594
0.122322
0.122071
0.121793
0.122311
0.122704
0.122478
0.122695
0.12311
0.123186
0.122815
0.122626
0.12323
0.123194
0.123261
0.122845
0.121998
0.123575
0.123303
0.123283
0.123171
0.12374
0.123698
0.123707
0.123588
0.123926
0.12371
0.125769
0.119919
0.120492
0.121061
0.120416
0.120822
0.121064
0.120417
0.120382
0.120352
0.120513
0.120601
0.120862
0.120212
0.121414
0.121152
0.120516
0.122174
0.121861
0.121737
0.120923
0.12264
0.122436
0.122941
0.122798
0.123171
0.123159
0.122865
0.123352
0.123341
0.123761
0.123672
0.123696
0.12409
0.123823
0.1246
0.124951
0.12505
0.12523
0.124994
0.125095
0.124953
0.124993
0.12483
0.124377
0.12453
0.124779
0.124581
0.0805176
0.0798431
0.0803638
0.0832645
0.0850955
0.0797188
0.0845053
0.081192
0.0807842
0.080279
0.0792596
0.0862076
0.0847074
0.0834424
0.0835854
0.0827145
0.082151
0.0809019
0.0807604
0.0794951
0.0891911
0.0883272
0.0881702
0.086864
0.0860324
0.0851507
0.0840866
0.0833425
0.0828806
0.0822231
0.0815235
0.081087
0.0798669
0.0776209
0.0804946
0.080214
0.0904374
0.0896099
0.0896022
0.0886794
0.0879187
0.0872219
0.0863193
0.085373
0.0844266
0.0841827
0.0835076
0.0822374
0.0821295
0.0816884
0.0775968
0.0923666
0.0914253
0.0911693
0.0901209
0.0896465
0.0891333
0.0883582
0.087604
0.0866753
0.0858833
0.0847737
0.0841337
0.084022
0.0826335
0.0820851
0.0926564
0.093139
0.0919587
0.0915374
0.0910103
0.0902516
0.0896301
0.0888389
0.087946
0.0871753
0.0862015
0.0857338
0.084711
0.0839117
0.0830406
0.0840371
0.0954287
0.0936167
0.0924435
0.0929722
0.0919558
0.0919467
0.0914614
0.0908152
0.0899967
0.0891276
0.0883756
0.0874852
0.0865276
0.0858489
0.0851511
0.08439
0.0840376
0.0956189
0.0953219
0.0948605
0.0952301
0.0946685
0.0939633
0.0935595
0.0930246
0.0925073
0.0920909
0.0913828
0.090621
0.089724
0.0889456
0.0881686
0.0868138
0.0865149
0.0866596
0.0959204
0.0961534
0.0950942
0.0948491
0.0948873
0.0946412
0.0946643
0.0940394
0.0933817
0.0929105
0.0923509
0.0918623
0.0906992
0.0901047
0.0894551
0.0880383
0.0882068
0.0868054
0.0972667
0.0967698
0.0960176
0.0957141
0.0954142
0.0950718
0.0950254
0.0949511
0.0948731
0.0944719
0.0938673
0.0932063
0.0926564
0.0921569
0.0913568
0.0906583
0.0897799
0.0894213
0.0976735
0.0978877
0.0974063
0.0962704
0.0960821
0.0956524
0.0952615
0.0952837
0.0951255
0.09499
0.0947559
0.094175
0.0934379
0.0925011
0.092538
0.0914651
0.0896447
0.0984044
0.09835
0.0974694
0.0979477
0.0977082
0.0969308
0.096343
0.095693
0.0951531
0.0953374
0.0954197
0.0952344
0.0950084
0.0944361
0.093523
0.0929244
0.0921379
0.0998206
0.0996657
0.0980726
0.0988006
0.0986796
0.0982968
0.097578
0.0970723
0.0964187
0.0960475
0.0960066
0.0955435
0.0955972
0.0955595
0.0953054
0.0947749
0.0937916
0.0930873
0.100933
0.0987437
0.0992008
0.0992106
0.098538
0.0986039
0.0984902
0.0983037
0.0977557
0.0972501
0.0967678
0.0964394
0.0961955
0.096066
0.0958329
0.0951477
0.0951002
0.095816
0.103198
0.102657
0.101517
0.101062
0.099945
0.0993336
0.0989778
0.0986929
0.0985963
0.0983412
0.0978799
0.0973536
0.0971133
0.0964501
0.0961433
0.0964886
0.0964115
0.0961768
0.103726
0.103563
0.102824
0.102028
0.101058
0.100256
0.0996718
0.0991625
0.0987769
0.0987203
0.0984127
0.0978664
0.0974729
0.0974105
0.0963252
0.0957587
0.0966668
0.0951638
0.105037
0.10467
0.10325
0.103889
0.10317
0.102243
0.101542
0.100784
0.100152
0.0994835
0.0990014
0.098856
0.098526
0.0981095
0.097562
0.0972004
0.0963878
0.0955928
0.105179
0.105348
0.10498
0.104585
0.104225
0.103409
0.102703
0.101763
0.101122
0.10039
0.0996417
0.0990003
0.098657
0.0982857
0.0978844
0.0980197
0.097649
0.0977581
0.105166
0.104805
0.104521
0.105253
0.105533
0.104768
0.104611
0.103987
0.103248
0.102185
0.101386
0.100737
0.0999338
0.0990736
0.0986624
0.0982231
0.0978904
0.0978484
0.107126
0.106029
0.105945
0.105707
0.10548
0.105775
0.105244
0.104901
0.104242
0.103822
0.102698
0.101819
0.101159
0.100244
0.0997442
0.0988877
0.0981569
0.107942
0.107273
0.107073
0.106297
0.106211
0.105923
0.105844
0.105857
0.105692
0.105183
0.104638
0.104073
0.103174
0.102286
0.101846
0.100806
0.100346
0.0995847
0.108128
0.10794
0.107578
0.10721
0.107033
0.106763
0.106446
0.106254
0.106144
0.106023
0.105617
0.105066
0.104544
0.103807
0.102857
0.102181
0.101366
0.100819
0.108785
0.108273
0.108096
0.108002
0.10757
0.107345
0.107318
0.106894
0.106776
0.106606
0.106215
0.105871
0.105221
0.10473
0.104233
0.104356
0.102224
0.102226
0.109388
0.108827
0.108558
0.108353
0.108214
0.108037
0.107751
0.107694
0.107452
0.10717
0.107011
0.106798
0.106423
0.106276
0.105315
0.105107
0.1042
0.10337
0.109969
0.109906
0.10956
0.108971
0.108731
0.108334
0.108272
0.108212
0.108094
0.107896
0.107835
0.107519
0.10704
0.106971
0.106488
0.106339
0.104876
0.105474
0.110202
0.109997
0.109981
0.10961
0.109168
0.108732
0.108381
0.108162
0.108185
0.108121
0.108032
0.108007
0.107814
0.107416
0.107288
0.106683
0.106196
0.105335
0.110418
0.110395
0.110365
0.110242
0.110059
0.109686
0.10933
0.108826
0.108419
0.10806
0.107847
0.107994
0.107999
0.1078
0.107753
0.107602
0.105302
0.107796
0.110285
0.11051
0.110465
0.110528
0.110357
0.110142
0.109858
0.109462
0.109
0.108543
0.108111
0.107892
0.107912
0.107955
0.107971
0.108499
0.107825
0.107443
0.110953
0.1106
0.110432
0.110411
0.110429
0.110384
0.110259
0.110044
0.109681
0.109255
0.108802
0.108372
0.108134
0.108024
0.107997
0.108158
0.108097
0.107854
0.111654
0.11081
0.11057
0.1105
0.110415
0.110379
0.11032
0.110368
0.110275
0.109931
0.109531
0.109132
0.10867
0.10838
0.108272
0.107883
0.107837
0.10826
0.111138
0.112295
0.11181
0.110997
0.110442
0.110498
0.110406
0.110362
0.110303
0.110453
0.110475
0.110202
0.109819
0.109413
0.109024
0.108533
0.108275
0.107878
0.11304
0.111995
0.111884
0.111947
0.111555
0.111067
0.110809
0.110649
0.110483
0.110433
0.110513
0.110564
0.11038
0.110096
0.109649
0.109184
0.10879
0.108765
0.113531
0.113075
0.112622
0.11239
0.112175
0.111959
0.111573
0.111192
0.11094
0.110751
0.110631
0.110584
0.110528
0.110425
0.110263
0.110196
0.110261
0.109692
0.112712
0.113433
0.113369
0.112972
0.112592
0.112313
0.112163
0.111786
0.111515
0.11122
0.110968
0.110829
0.110673
0.110575
0.110454
0.110299
0.110319
0.114229
0.113109
0.113339
0.113397
0.113429
0.113228
0.112905
0.112483
0.112355
0.112053
0.111775
0.111498
0.111222
0.11098
0.110829
0.110634
0.110562
0.110374
0.114134
0.113928
0.113701
0.113559
0.113471
0.113484
0.113326
0.113169
0.112807
0.112619
0.112258
0.112042
0.111804
0.111493
0.11124
0.110991
0.110684
0.111106
0.114193
0.114292
0.113874
0.113913
0.113709
0.113567
0.113575
0.113547
0.113382
0.113098
0.11285
0.112529
0.112212
0.112061
0.111791
0.111676
0.111696
0.111288
0.115584
0.114713
0.114417
0.114226
0.114066
0.113938
0.113733
0.113504
0.113658
0.113691
0.1135
0.113231
0.112928
0.11271
0.112434
0.112252
0.111988
0.111786
0.115298
0.115029
0.115085
0.114749
0.114565
0.114276
0.114092
0.113913
0.11368
0.113779
0.113882
0.113748
0.113443
0.113213
0.112975
0.112726
0.112343
0.112144
0.115669
0.115278
0.115162
0.115107
0.114895
0.114677
0.114444
0.114315
0.114198
0.114104
0.114116
0.114067
0.113925
0.113562
0.113432
0.11311
0.113023
0.112668
0.114595
0.116022
0.115581
0.115398
0.115294
0.115042
0.114788
0.114559
0.114423
0.114456
0.114468
0.114382
0.114208
0.114041
0.11372
0.113587
0.113439
0.112816
0.116111
0.115975
0.115753
0.115773
0.115541
0.115411
0.115176
0.11489
0.114621
0.114461
0.114567
0.114595
0.114551
0.114393
0.114105
0.113963
0.113344
0.117158
0.116049
0.116108
0.115629
0.115668
0.115726
0.115656
0.115548
0.115326
0.115015
0.114715
0.114446
0.11431
0.114534
0.114411
0.114355
0.114265
0.114196
0.116516
0.116506
0.116374
0.11613
0.115741
0.115683
0.115692
0.115719
0.115711
0.115553
0.115239
0.114877
0.114525
0.114334
0.114278
0.114272
0.114309
0.114187
0.117178
0.116835
0.116671
0.116445
0.116133
0.11592
0.115802
0.1157
0.115691
0.115812
0.115756
0.115468
0.115106
0.114806
0.114564
0.114484
0.11428
0.114122
0.117147
0.117292
0.117139
0.116805
0.116694
0.116322
0.116145
0.116005
0.115833
0.115721
0.115818
0.1158
0.115635
0.115387
0.115115
0.114895
0.114635
0.114364
0.117829
0.117292
0.117458
0.11735
0.117156
0.116939
0.11666
0.116448
0.116295
0.116154
0.116011
0.11591
0.115857
0.115781
0.115585
0.115512
0.11526
0.115108
0.118003
0.118023
0.117895
0.117759
0.117664
0.117472
0.117247
0.116993
0.116765
0.116573
0.11637
0.116178
0.116038
0.115929
0.115897
0.115699
0.115598
0.115315
0.118066
0.118094
0.118122
0.118127
0.118
0.117886
0.117705
0.117509
0.117268
0.117035
0.116823
0.116591
0.116353
0.116178
0.116098
0.11614
0.115794
0.115228
0.118202
0.117877
0.118156
0.118159
0.118229
0.118157
0.118037
0.117882
0.117692
0.117446
0.117235
0.117086
0.116873
0.116646
0.116396
0.116215
0.116124
0.116578
0.118733
0.118475
0.118031
0.118149
0.118034
0.117939
0.118103
0.118181
0.118079
0.11799
0.117801
0.117628
0.117417
0.117305
0.117065
0.116928
0.116697
0.116524
0.116379
0.118709
0.118899
0.118708
0.118274
0.118141
0.118043
0.117887
0.118069
0.118285
0.118163
0.118109
0.117919
0.117757
0.11757
0.117467
0.117233
0.117099
0.117074
0.11888
0.118715
0.118518
0.118351
0.118225
0.118141
0.118099
0.118195
0.118308
0.118314
0.118181
0.118075
0.117921
0.117668
0.117462
0.117227
0.117455
0.119123
0.119015
0.118945
0.118714
0.118534
0.118372
0.118327
0.118278
0.118202
0.118169
0.118353
0.118381
0.118341
0.118152
0.118061
0.117876
0.1177
0.117095
0.119869
0.119332
0.119335
0.119074
0.118831
0.118638
0.11848
0.118461
0.118459
0.118333
0.118253
0.118404
0.11846
0.118414
0.118299
0.118122
0.118027
0.117711
0.118504
0.120124
0.119681
0.119465
0.11921
0.118986
0.118786
0.118571
0.118538
0.118471
0.118407
0.118257
0.118263
0.118254
0.118291
0.118405
0.118046
0.118399
0.120345
0.120073
0.119824
0.11957
0.119344
0.119152
0.118963
0.11871
0.118623
0.118566
0.118458
0.118335
0.118298
0.118249
0.118307
0.118235
0.118143
0.11937
0.120198
0.120145
0.119921
0.119706
0.119479
0.119327
0.119177
0.11893
0.118804
0.118734
0.118606
0.118535
0.11849
0.118388
0.118449
0.11846
0.120685
0.120709
0.120076
0.120344
0.120287
0.12005
0.119846
0.119609
0.119476
0.119374
0.119224
0.118944
0.118806
0.118747
0.118741
0.118688
0.118548
0.118586
0.120928
0.121056
0.120885
0.120546
0.120446
0.120362
0.120198
0.11999
0.119763
0.119642
0.119463
0.119244
0.119139
0.118997
0.118931
0.118714
0.11926
0.120944
0.121457
0.121329
0.121455
0.12103
0.120727
0.120552
0.120342
0.120104
0.119804
0.11974
0.119554
0.119442
0.119345
0.119117
0.118834
0.118914
0.12155
0.121314
0.121207
0.121411
0.121573
0.12155
0.121426
0.121081
0.120691
0.120441
0.120188
0.119973
0.119836
0.119706
0.119558
0.11932
0.119132
0.118676
0.121905
0.121358
0.121077
0.121178
0.121194
0.121056
0.121143
0.121699
0.121283
0.120824
0.120518
0.120263
0.11998
0.119937
0.119878
0.119692
0.11973
0.119241
0.12026
0.121268
0.121035
0.121017
0.120952
0.120832
0.120746
0.120703
0.121397
0.121265
0.120956
0.120606
0.120328
0.120119
0.119901
0.119795
0.119751
0.119714
0.12033
0.120579
0.121033
0.120949
0.120918
0.120895
0.120849
0.120607
0.120668
0.120942
0.121096
0.120916
0.120603
0.120298
0.12004
0.119837
0.119647
0.120079
0.122388
0.121646
0.120344
0.120847
0.121053
0.120855
0.120702
0.120431
0.120411
0.120607
0.120803
0.120931
0.120896
0.120656
0.12035
0.120299
0.120005
0.119445
0.119709
0.122169
0.122346
0.121622
0.120904
0.120922
0.121061
0.120827
0.120752
0.120583
0.120536
0.120676
0.120816
0.120715
0.120651
0.120512
0.12043
0.120755
0.119806
0.119735
0.120183
0.122253
0.121433
0.121052
0.121046
0.120971
0.120787
0.120905
0.12099
0.120996
0.121017
0.120911
0.120862
0.120796
0.120584
0.120638
0.120639
0.120731
0.121951
0.121658
0.121828
0.121598
0.121189
0.12108
0.120882
0.120852
0.121168
0.121318
0.121321
0.1213
0.121149
0.120988
0.120804
0.120695
0.120463
0.122604
0.122421
0.122381
0.121961
0.121707
0.121434
0.121218
0.121027
0.121162
0.121457
0.121579
0.121676
0.121516
0.121375
0.121263
0.121191
0.12052
0.123035
0.122928
0.122875
0.122748
0.122432
0.122015
0.121713
0.121519
0.121298
0.1214
0.12157
0.121706
0.12174
0.121739
0.121916
0.121371
0.121279
0.122809
0.123321
0.122966
0.123131
0.123202
0.123033
0.122774
0.12227
0.122
0.121782
0.121597
0.121531
0.121679
0.121868
0.121778
0.121693
0.121699
0.122343
0.124064
0.123718
0.122789
0.122886
0.123026
0.123159
0.123002
0.122782
0.122455
0.122142
0.121892
0.121766
0.121705
0.121649
0.121715
0.121488
0.121589
0.124012
0.12378
0.123109
0.122889
0.122853
0.123011
0.123157
0.122981
0.122819
0.122536
0.122245
0.122023
0.122031
0.121862
0.121987
0.121619
0.121409
0.124086
0.124303
0.123752
0.123126
0.122805
0.122991
0.123182
0.123207
0.123104
0.122823
0.122499
0.122248
0.122184
0.122172
0.122137
0.122123
0.122423
0.124983
0.124547
0.124546
0.124075
0.123646
0.123362
0.123591
0.123497
0.123433
0.123137
0.122773
0.122534
0.122443
0.122329
0.12255
0.122573
0.122503
0.12455
0.125434
0.125097
0.124915
0.124771
0.124635
0.12443
0.12418
0.123971
0.12361
0.123208
0.122807
0.122691
0.122645
0.122486
0.122136
0.12263
0.12532
0.124979
0.125341
0.125258
0.125083
0.124718
0.125288
0.125783
0.124953
0.124404
0.123936
0.123469
0.123189
0.122992
0.122972
0.122911
0.122092
0.123476
0.125049
0.124978
0.125354
0.125168
0.124681
0.124761
0.125215
0.125282
0.124802
0.124234
0.123777
0.123478
0.123287
0.123647
0.122789
0.122932
0.123986
0.124508
0.124578
0.125205
0.125119
0.12488
0.124873
0.125224
0.12544
0.125023
0.124405
0.123864
0.123195
0.123262
0.124927
0.124316
0.123254
0.123259
0.123925
0.124502
0.12497
0.125211
0.125068
0.125027
0.125126
0.12507
0.124736
0.12444
0.124029
0.123713
0.12656
0.126328
0.125035
0.124144
0.124073
0.123669
0.12423
0.124587
0.124725
0.12491
0.125123
0.124926
0.124558
0.124613
0.124786
0.123918
0.129818
0.128097
0.127037
0.126303
0.12504
0.124914
0.124401
0.124258
0.124329
0.124635
0.124864
0.125023
0.124979
0.124858
0.125106
0.124446
0.13372
0.132136
0.130575
0.129189
0.12768
0.12705
0.126176
0.125759
0.125471
0.125009
0.124777
0.125084
0.125019
0.124948
0.125398
0.125175
0.133131
0.13328
0.132563
0.13149
0.130276
0.12885
0.128234
0.127235
0.12619
0.12574
0.125525
0.12511
0.125478
0.126092
0.126196
0.126258
0.135066
0.134461
0.133565
0.132966
0.132157
0.130973
0.129556
0.128802
0.128091
0.127205
0.126455
0.125687
0.125388
0.125125
0.125758
0.126113
0.136905
0.135941
0.134778
0.13398
0.133502
0.132846
0.13195
0.130646
0.129481
0.128769
0.128229
0.127385
0.125698
0.125525
0.126114
0.126273
0.137746
0.135768
0.135973
0.135932
0.135104
0.134095
0.1334
0.132972
0.131956
0.130745
0.130167
0.128521
0.129015
0.128044
0.126053
0.127197
0.136739
0.136786
0.136798
0.136953
0.136457
0.135773
0.134815
0.134071
0.133642
0.13292
0.13195
0.131487
0.130475
0.129534
0.129275
0.137312
0.137322
0.136717
0.137297
0.137472
0.136734
0.136066
0.135346
0.134727
0.134121
0.133606
0.132724
0.132129
0.13153
0.131083
0.129527
0.138361
0.138104
0.137952
0.138006
0.137517
0.137676
0.137121
0.13641
0.135799
0.135169
0.13457
0.133966
0.133212
0.132938
0.131994
0.132658
0.14004
0.13912
0.138385
0.138175
0.13754
0.137842
0.137847
0.137534
0.136982
0.136225
0.135657
0.135075
0.134098
0.133404
0.133236
0.138575
0.137923
0.138251
0.138867
0.138541
0.138442
0.138174
0.137858
0.137453
0.136898
0.135989
0.135786
0.134429
0.134056
0.140235
0.138345
0.13872
0.139118
0.139206
0.138963
0.138818
0.13877
0.138323
0.138031
0.137165
0.136365
0.136503
0.140966
0.140551
0.14006
0.139347
0.139369
0.139414
0.139472
0.13964
0.13946
0.13898
0.138464
0.137558
0.137666
0.136355
0.141344
0.140977
0.140989
0.140514
0.140171
0.139462
0.139528
0.139851
0.139753
0.139983
0.139133
0.138426
0.138203
0.138286
0.140972
0.141143
0.140942
0.140242
0.140096
0.139524
0.139512
0.139496
0.139814
0.140721
0.13968
0.139581
0.138814
0.139345
0.1398
0.140864
0.140546
0.140511
0.14002
0.138958
0.139093
0.139137
0.13973
0.140236
0.140397
0.13913
0.138924
0.13926
0.141493
0.140124
0.139978
0.140332
0.141003
0.140855
0.138927
0.138166
0.138332
0.138123
0.140163
0.140685
0.14034
0.138771
0.144034
0.142713
0.140299
0.139386
0.139749
0.138249
0.138839
0.13856
0.137673
0.136422
0.138288
0.139423
0.141378
0.138877
0.138295
0.13917
0.137275
0.137861
0.136767
0.136896
0.136276
0.137929
0.139945
0.13927
0.137304
0.138189
0.138978
0.136917
0.137785
0.137012
0.142563
0.141304
0.140153
0.140385
0.137795
0.136583
0.13774
0.144508
0.144098
0.140743
0.141355
0.140014
0.137687
0.135794
0.143705
0.141956
0.141518
0.140603
0.138946
0.145357
0.144205
0.14146
0.145454
0.142215
0.141333
0.14223
0.14514
0.146219
0.146081
0.142629
0.143984
0.142533
0.143796
0.14485
0.147603
0.138093
0.149232
0.143751
0.139568
0.144273
0.143923
0.152092
0.146568
0.142035
0.0323444
0.032561
0.0348476
0.0470852
0.0408894
0.0399275
0.0398111
0.0365759
0.0329074
0.0293439
0.0356278
0.0290039
0.0539507
0.0515904
0.0469367
0.0476422
0.0443291
0.0429935
0.0424632
0.0404435
0.0380254
0.03513
0.0296882
0.0300608
0.0298177
0.0277636
0.030409
0.0575093
0.0552081
0.0557165
0.0534775
0.0531143
0.0490788
0.0472964
0.0465158
0.0444061
0.0428855
0.0412261
0.0383672
0.0359241
0.0322184
0.0290426
0.0297927
0.0275048
0.0258324
0.0330513
0.0299508
0.0247248
0.0191367
0.059813
0.0599466
0.0595602
0.0587279
0.0560858
0.0554088
0.054217
0.0522307
0.0504706
0.0486741
0.0471644
0.0457212
0.0436818
0.0421566
0.0379335
0.0393128
0.0336173
0.0325321
0.0308449
0.0280321
0.0273929
0.0273588
0.0267377
0.0638786
0.0618908
0.0617143
0.0605713
0.0609739
0.0597823
0.0588376
0.0572168
0.0561301
0.0545797
0.0524145
0.0512737
0.0493034
0.0483957
0.0449311
0.044895
0.0423278
0.0438413
0.0393255
0.037127
0.0332047
0.0324687
0.0291404
0.0278554
0.0272183
0.0655513
0.0629386
0.0637213
0.0625155
0.06156
0.0599808
0.0609881
0.0606677
0.0593301
0.0578824
0.0568204
0.0550849
0.0531827
0.0513941
0.0507756
0.0494366
0.0477213
0.0467918
0.0441799
0.0406866
0.0364829
0.0395937
0.0362561
0.0340695
0.0317057
0.069487
0.0679947
0.0656891
0.0643504
0.0631677
0.0625309
0.0618791
0.0617295
0.0617689
0.0609511
0.0596834
0.0577985
0.0569438
0.0553557
0.054741
0.0521829
0.0515747
0.0517678
0.047624
0.0471436
0.0448323
0.0438115
0.0406502
0.040243
0.0380549
0.0703864
0.0719037
0.069671
0.0681869
0.0665712
0.0653505
0.0636739
0.0627009
0.0619147
0.0621596
0.0625319
0.062022
0.0605837
0.0584818
0.0572491
0.0562513
0.053625
0.0520413
0.0509598
0.0508764
0.0499327
0.0482747
0.0475651
0.0448027
0.0430434
0.0745498
0.0707729
0.0699306
0.0712116
0.0712579
0.0702101
0.0690236
0.0675255
0.066322
0.0645788
0.0632835
0.0623642
0.0624605
0.0625008
0.0623711
0.0609678
0.059797
0.0586698
0.0574019
0.054954
0.0534364
0.0534727
0.0519461
0.0516663
0.0502411
0.047207
0.0772606
0.0761246
0.076214
0.0744182
0.0731282
0.0725676
0.0717525
0.0712114
0.0705144
0.0693813
0.0681474
0.0668335
0.0652553
0.0641975
0.0633137
0.0626054
0.0622474
0.0617611
0.0612726
0.0598561
0.0580541
0.057846
0.0569179
0.0555095
0.056297
0.0538044
0.053036
0.0768946
0.0771785
0.0763161
0.075781
0.0750668
0.074177
0.0728055
0.0721573
0.0715063
0.0707442
0.0698536
0.0686625
0.0673138
0.0660975
0.0646311
0.0640303
0.0633481
0.0624972
0.0614952
0.0612403
0.059655
0.0565089
0.0587079
0.0568458
0.0569175
0.0780799
0.0776357
0.0781893
0.0775177
0.0773897
0.0768439
0.0762518
0.0754022
0.0744518
0.0736957
0.0727996
0.071788
0.0709039
0.0698407
0.0690914
0.067961
0.066583
0.0649001
0.0646153
0.0639773
0.0630346
0.062215
0.0612402
0.0588262
0.0583852
0.0781366
0.0787777
0.0783045
0.0780643
0.07758
0.0771447
0.077095
0.076443
0.0756555
0.0742655
0.0736119
0.0731635
0.0720954
0.0704979
0.069577
0.0691229
0.0680352
0.0667397
0.0651765
0.0651222
0.0645428
0.0635646
0.0624995
0.0610106
0.0816869
0.0829159
0.0798716
0.0787171
0.0780138
0.0781355
0.0778739
0.0774416
0.0772685
0.0772884
0.0766233
0.0757423
0.0746125
0.0734208
0.0729497
0.0718941
0.0704065
0.0691662
0.0686661
0.0677924
0.066811
0.0659809
0.0656325
0.0648267
0.0637755
0.0860031
0.0838417
0.0828066
0.0825975
0.0811289
0.0797817
0.0789333
0.0783389
0.0779367
0.0775105
0.077197
0.0771417
0.0764835
0.0755543
0.0748479
0.0739601
0.07315
0.0719429
0.0702644
0.0686378
0.0681384
0.067421
0.0665465
0.0664447
0.0657629
0.086531
0.0860623
0.0852841
0.0844221
0.0836068
0.0827469
0.0820538
0.0807817
0.0798438
0.0791637
0.0783151
0.0776035
0.0772053
0.076954
0.076358
0.0757835
0.0750065
0.0740745
0.0734119
0.0722588
0.0702688
0.0686922
0.0676133
0.0677192
0.0657668
0.0890149
0.0873142
0.0879719
0.0869443
0.0861099
0.0853283
0.08418
0.0839159
0.0829948
0.0825095
0.0815855
0.080573
0.0796283
0.0788119
0.0781888
0.077883
0.0774679
0.0768819
0.0761487
0.0751406
0.0739672
0.073567
0.0725638
0.0707221
0.0692297
0.0673347
0.089586
0.090711
0.0894466
0.0887261
0.088177
0.0872123
0.0863896
0.0854275
0.084473
0.0839441
0.0835684
0.0829056
0.082059
0.081112
0.0800803
0.0791946
0.078589
0.0785231
0.0784471
0.0774666
0.076899
0.0756928
0.0741778
0.0733818
0.0720288
0.0696424
0.0947846
0.0911003
0.0895481
0.0898688
0.0895675
0.0889372
0.088271
0.0875574
0.0867767
0.0858859
0.0848369
0.0841678
0.0837311
0.0831315
0.0822699
0.081494
0.0807677
0.0801624
0.0791399
0.0786078
0.0786522
0.0776054
0.0767637
0.0758093
0.0741487
0.0714022
0.071715
0.0929374
0.0941457
0.0928926
0.0917056
0.0909185
0.0902391
0.0897398
0.0892357
0.0886548
0.0879538
0.0871822
0.086342
0.0854463
0.0845465
0.0839556
0.083318
0.0824712
0.0818356
0.0813492
0.080981
0.0796964
0.0795769
0.0787159
0.0777427
0.0767057
0.0755871
0.0752421
0.0932585
0.0935233
0.0931199
0.0927047
0.0919294
0.0912711
0.0906972
0.0901526
0.0895545
0.088956
0.0882944
0.0875338
0.0866937
0.0858294
0.0850197
0.0842869
0.0835198
0.0826828
0.0821336
0.0815435
0.081049
0.0805946
0.0800557
0.0787726
0.0774355
0.0770227
0.0956279
0.0936612
0.0937356
0.0935325
0.0935095
0.0930071
0.0922942
0.0918088
0.0911784
0.0906091
0.0899427
0.0892977
0.0886432
0.0878898
0.0870472
0.0861927
0.0854337
0.0847117
0.0839233
0.0830148
0.0823771
0.0811941
0.081318
0.0810364
0.0799988
0.0792706
0.0967088
0.0954469
0.0956542
0.0943119
0.0941747
0.0941504
0.0939285
0.0934689
0.0928369
0.0922177
0.0917453
0.0911864
0.0904544
0.0897193
0.089016
0.088257
0.087389
0.0865672
0.0858569
0.085229
0.0844765
0.0836972
0.0827387
0.0816812
0.081563
0.0811928
0.0962785
0.0965186
0.0957701
0.09524
0.0947826
0.094628
0.0945983
0.0942813
0.093826
0.0933428
0.0928211
0.092276
0.0916789
0.0909387
0.0902136
0.0894516
0.0886582
0.0878172
0.0870011
0.086348
0.0857309
0.0850608
0.0844819
0.0834356
0.0827726
0.0972629
0.0980688
0.0969781
0.0966748
0.0959876
0.0953409
0.095093
0.094998
0.0948673
0.0946219
0.0942818
0.0938145
0.0932936
0.0927166
0.0920989
0.0913813
0.0906292
0.0899
0.0891682
0.0883838
0.0875567
0.0868916
0.0861585
0.0854904
0.0849965
0.0847683
0.0989815
0.0986055
0.0982814
0.0979313
0.0975921
0.0970178
0.0963694
0.095699
0.0953793
0.0952335
0.0951211
0.094936
0.0946669
0.0942235
0.0936874
0.0930999
0.0925337
0.0919423
0.0911523
0.0904148
0.0897273
0.0889936
0.0879929
0.0873964
0.0867476
0.0874874
0.10112
0.0992505
0.0990899
0.098489
0.0984318
0.098165
0.097842
0.0973663
0.0967604
0.0961044
0.0956563
0.095436
0.095326
0.0951878
0.0949564
0.0945417
0.0940187
0.0934106
0.0927695
0.092236
0.0916377
0.0908691
0.0901893
0.0892905
0.0885938
0.0879499
0.0867921
0.0997252
0.100036
0.0995157
0.0990869
0.0987205
0.0985284
0.0982714
0.0979952
0.0976067
0.0969849
0.0963731
0.0958994
0.0956723
0.0955788
0.0954462
0.0952249
0.0948514
0.0942635
0.0937021
0.0930848
0.0924726
0.0918737
0.0913411
0.0907726
0.0900651
0.0895195
0.10242
0.101666
0.100622
0.0998268
0.0994488
0.0990576
0.0987318
0.0985123
0.0983674
0.0981126
0.097634
0.0970374
0.0965178
0.0962099
0.0960147
0.0958991
0.0957696
0.095453
0.0951024
0.094563
0.0938773
0.0931827
0.0926274
0.091989
0.0905229
0.0909353
0.102236
0.102569
0.10186
0.10105
0.100093
0.0995965
0.0992175
0.0987489
0.0985276
0.0983759
0.0981148
0.0976605
0.097103
0.0966586
0.0964904
0.0963798
0.0961493
0.0959365
0.0956085
0.0951784
0.0946698
0.0940433
0.0933064
0.0925456
0.0919528
0.103669
0.103519
0.103262
0.102836
0.102248
0.101484
0.100597
0.0998367
0.099421
0.0989269
0.098667
0.0984478
0.0981633
0.0977288
0.0971983
0.0967884
0.096489
0.0964884
0.0963734
0.0960256
0.0956801
0.095176
0.0946687
0.0939661
0.0926567
0.104476
0.104347
0.103991
0.103615
0.103214
0.102615
0.101932
0.10112
0.100331
0.0997459
0.099234
0.0988996
0.0986334
0.0983306
0.0978581
0.0973681
0.0969525
0.0964887
0.0965271
0.096491
0.096079
0.0956592
0.0951232
0.0950605
0.0948185
0.104864
0.105065
0.104871
0.104688
0.104476
0.104015
0.103557
0.103018
0.102284
0.101569
0.10083
0.100155
0.0995112
0.0990786
0.0987966
0.0984986
0.0980697
0.0976836
0.0972644
0.0968122
0.0967452
0.0966349
0.096485
0.0961505
0.0953717
0.105841
0.105429
0.105132
0.105176
0.105066
0.104839
0.104392
0.103953
0.103361
0.102619
0.101867
0.101214
0.100501
0.0997356
0.0991214
0.0987345
0.0984497
0.0981509
0.097922
0.0976536
0.0974263
0.0972519
0.0972534
0.0970168
0.0966271
0.106947
0.106926
0.106196
0.105783
0.105391
0.105381
0.105439
0.105208
0.104746
0.104263
0.103703
0.103
0.102206
0.101534
0.100838
0.100004
0.0993314
0.098737
0.0983189
0.0981575
0.0979443
0.0978592
0.097901
0.0976378
0.0974127
0.108086
0.107368
0.107122
0.106666
0.106282
0.105864
0.105642
0.105721
0.105488
0.10503
0.104568
0.104063
0.103405
0.102659
0.101919
0.101217
0.100376
0.0996519
0.0990846
0.0985643
0.0983151
0.0981739
0.0980829
0.0970274
0.10922
0.108149
0.108097
0.107655
0.107315
0.107003
0.106735
0.106387
0.10609
0.105981
0.105759
0.105326
0.104872
0.104415
0.103848
0.10314
0.1024
0.101692
0.100923
0.100205
0.0994806
0.098875
0.0984924
0.0980121
0.0978687
0.109017
0.108778
0.108601
0.108272
0.107885
0.107604
0.107404
0.107153
0.106834
0.106579
0.106382
0.106161
0.105745
0.105291
0.104865
0.104299
0.103616
0.102868
0.102084
0.101419
0.100766
0.100124
0.0994826
0.0987627
0.109939
0.109325
0.109271
0.108884
0.108628
0.108379
0.108096
0.107873
0.107747
0.107521
0.107273
0.107043
0.106792
0.106524
0.106107
0.105663
0.105246
0.104646
0.103964
0.103353
0.102548
0.101856
0.101031
0.100267
0.0997383
0.109898
0.109767
0.10966
0.109356
0.109046
0.108724
0.108477
0.108266
0.108126
0.108013
0.107823
0.107577
0.107346
0.107084
0.106772
0.106294
0.105841
0.105454
0.104926
0.104262
0.103588
0.102844
0.10233
0.101739
0.110268
0.110058
0.109981
0.109876
0.109762
0.10949
0.10916
0.108818
0.108543
0.108339
0.108285
0.108174
0.108032
0.107843
0.107618
0.107335
0.106999
0.106531
0.106023
0.105705
0.105148
0.104559
0.103712
0.103624
0.103285
0.110203
0.110229
0.110145
0.110141
0.110055
0.109866
0.109593
0.109245
0.10887
0.108579
0.108363
0.108319
0.108224
0.108103
0.107949
0.107837
0.1076
0.107234
0.1068
0.106344
0.10585
0.10536
0.104916
0.104217
0.110495
0.11048
0.110291
0.110281
0.110256
0.110168
0.109991
0.109698
0.109324
0.108932
0.108606
0.108341
0.108268
0.108217
0.108108
0.10792
0.107835
0.107621
0.107186
0.106949
0.106492
0.105904
0.105577
0.105521
0.111603
0.111085
0.110717
0.110394
0.110365
0.110351
0.110329
0.110264
0.110081
0.109801
0.109429
0.109034
0.108677
0.10837
0.108166
0.108061
0.107939
0.107765
0.107744
0.107583
0.107244
0.106978
0.106556
0.106108
0.105643
0.112
0.111747
0.111274
0.110734
0.110452
0.110389
0.110414
0.110386
0.110309
0.110159
0.109915
0.109589
0.109213
0.108835
0.108509
0.108273
0.108108
0.107965
0.107797
0.107662
0.107459
0.107166
0.107083
0.106837
0.112573
0.111774
0.111844
0.111417
0.110871
0.110505
0.110411
0.110441
0.110411
0.110341
0.110235
0.110072
0.109795
0.109459
0.10909
0.10876
0.108498
0.108293
0.108151
0.107969
0.107816
0.10758
0.107481
0.107028
0.11269
0.112555
0.112127
0.111978
0.1116
0.111109
0.110702
0.110523
0.110504
0.110466
0.110425
0.110348
0.11025
0.110036
0.109748
0.109416
0.10909
0.10882
0.10856
0.108329
0.108197
0.108186
0.108147
0.113185
0.113231
0.113042
0.112735
0.112432
0.112164
0.111855
0.111474
0.11108
0.110818
0.110717
0.110633
0.110574
0.1105
0.11041
0.110237
0.109993
0.109704
0.109402
0.109112
0.108805
0.108613
0.108377
0.107691
0.113335
0.113287
0.113205
0.113123
0.112953
0.112707
0.112448
0.112157
0.111801
0.111445
0.111171
0.110982
0.110831
0.110712
0.110595
0.110499
0.110355
0.110166
0.109932
0.109658
0.109458
0.109169
0.109103
0.108529
0.113901
0.113587
0.113473
0.113333
0.113279
0.113154
0.112965
0.112691
0.112389
0.112053
0.111721
0.111466
0.111229
0.111014
0.110848
0.110713
0.110599
0.110465
0.110308
0.110116
0.109923
0.109728
0.10898
0.114598
0.113895
0.113946
0.113697
0.113586
0.113494
0.113447
0.113358
0.113184
0.112922
0.112606
0.112283
0.111966
0.111705
0.111453
0.111207
0.110999
0.110852
0.110734
0.110596
0.11042
0.11028
0.110146
0.109384
0.11521
0.114423
0.114162
0.113995
0.113827
0.113713
0.113627
0.113586
0.113515
0.113348
0.11312
0.112838
0.112501
0.11219
0.111943
0.11171
0.111445
0.111206
0.111035
0.11088
0.110765
0.110622
0.110327
0.110908
0.114479
0.114785
0.114658
0.114348
0.1141
0.113929
0.113819
0.113728
0.113686
0.113645
0.113498
0.113305
0.113065
0.11275
0.112444
0.112201
0.111971
0.11171
0.111469
0.111246
0.111057
0.110871
0.11079
0.110511