/*--------------------------------*- C++ -*----------------------------------*\
| =========                 |                                                 |
| \\      /  F ield         | OpenFOAM: The Open Source CFD Toolbox           |
|  \\    /   O peration     | Version:  2312                                  |
|   \\  /    A nd           | Website:  www.openfoam.com                      |
|    \\/     M anipulation  |                                                 |
\*---------------------------------------------------------------------------*/
FoamFile
{
    version     2.0;
    format      ascii;
    arch        "LSB;label=64;scalar=64";
    class       volScalarField;
    location    "60";
    object      nut_ML_ND;
}
// * * * * * * * * * * * * * * * * * * * * * * * * * * * * * * * * * * * * * //

dimensions      [0 0 0 0 0 0 0];

internalField   nonuniform List<scalar> 
404911
(
0.540661
0.567808
0.276531
0.135821
0.577503
0.575714
0.566808
0.344994
0.36147
0.355132
0.592189
0.572426
0.585059
0.588581
0.552001
0.384591
0.585955
0.581885
0.583384
0.568636
0.535226
0.586862
0.535745
0.550235
0.580329
0.530774
0.584788
0.579149
0.592206
0.529203
0.58703
0.583279
0.611416
0.555352
0.607125
0.584725
0.588508
0.547801
0.576473
0.577681
0.580037
0.516524
0.561776
0.578675
0.581108
0.560531
0.543572
0.573459
0.582861
0.500183
0.528658
0.55207
0.571083
0.51156
0.538976
0.528929
0.0823134
0.581529
0.55239
0.563465
0.572722
0.57927
0.567854
0.587366
0.583351
0.557707
0.587628
0.524835
0.583899
0.586848
0.581344
0.578034
0.579273
0.586846
0.58826
0.537311
0.373346
0.575484
0.586172
0.58299
0.584348
0.574929
0.583331
0.58118
0.584683
0.584516
0.554869
0.58635
0.513148
0.568877
0.569412
0.35226
0.587026
0.578467
0.5837
0.586514
0.583823
0.58475
0.588066
0.571966
0.527938
0.587055
0.584279
0.538266
0.53016
0.552411
0.568678
0.559806
0.584776
0.593904
0.58582
0.575799
0.572702
0.570675
0.442667
0.565125
0.581061
0.42559
0.548049
0.575634
0.574575
0.574785
0.574032
0.57413
0.536128
0.580241
0.579669
0.574232
0.57301
0.548964
0.551826
0.552197
0.574381
0.575588
0.574645
0.57497
0.575609
0.576721
0.573811
0.564019
0.542387
0.579516
0.578894
0.573838
0.573504
0.575179
0.576881
0.575639
0.549268
0.552496
0.575039
0.579499
0.574377
0.529346
0.561056
0.546858
0.583116
0.584751
0.578664
0.574817
0.576045
0.576849
0.578855
0.57868
0.573668
0.573902
0.576468
0.579987
0.57675
0.567477
0.574679
0.563424
0.565951
0.553299
0.548474
0.557007
0.546429
0.577135
0.574799
0.572654
0.573058
0.573722
0.573178
0.572722
0.573751
0.575474
0.584037
0.562198
0.565708
0.55039
0.553586
0.5707
0.56692
0.549562
0.552713
0.575649
0.573689
0.574167
0.57508
0.575402
0.576714
0.578076
0.535333
0.548195
0.588566
0.571056
0.581159
0.565295
0.562684
0.541273
0.55428
0.563748
0.56138
0.562397
0.550133
0.574585
0.573531
0.574093
0.576446
0.578029
0.564697
0.548055
0.564494
0.585216
0.571899
0.586489
0.58598
0.537509
0.589248
0.575235
0.5453
0.545661
0.572481
0.578243
0.57486
0.573367
0.576539
0.575
0.534669
0.535349
0.573849
0.580201
0.576003
0.582775
0.586119
0.58338
0.593587
0.588428
0.572538
0.578827
0.589047
0.596839
0.563309
0.551234
0.579217
0.582306
0.535777
0.562044
0.575981
0.580377
0.575523
0.585284
0.586884
0.586478
0.590539
0.591186
0.58687
0.59109
0.591706
0.581137
0.550505
0.556071
0.556791
0.582027
0.569305
0.576702
0.574919
0.561273
0.575527
0.59041
0.589766
0.589828
0.591329
0.589071
0.589472
0.587798
0.574993
0.554517
0.554555
0.56558
0.528861
0.580925
0.589648
0.579668
0.578888
0.579083
0.579799
0.591933
0.591234
0.588944
0.584331
0.584648
0.590284
0.587594
0.585786
0.557989
0.559762
0.581275
0.542147
0.538749
0.544357
0.582856
0.574089
0.58915
0.589125
0.587596
0.589878
0.587946
0.590666
0.579321
0.580873
0.587588
0.590351
0.588239
0.563696
0.581939
0.560033
0.537938
0.57808
0.580668
0.577917
0.578199
0.5806
0.584473
0.587997
0.591462
0.582924
0.580603
0.584184
0.589012
0.58882
0.592443
0.583536
0.563454
0.578271
0.565668
0.580091
0.579996
0.580508
0.581261
0.578241
0.579024
0.588237
0.587653
0.585854
0.592286
0.595237
0.587972
0.586661
0.587573
0.575149
0.586905
0.541403
0.53799
0.579914
0.5781
0.57954
0.584168
0.586873
0.585181
0.586191
0.589599
0.58874
0.588876
0.585584
0.589403
0.59124
0.576962
0.577601
0.568443
0.544648
0.584425
0.58948
0.578253
0.576006
0.57984
0.584292
0.587825
0.592563
0.595695
0.595744
0.592261
0.588925
0.585433
0.585904
0.578241
0.583744
0.577775
0.552106
0.535799
0.546453
0.578413
0.577219
0.579531
0.587407
0.589091
0.590024
0.590419
0.592028
0.594344
0.593911
0.587694
0.583377
0.578317
0.576594
0.579832
0.566092
0.572979
0.586038
0.580521
0.58052
0.583982
0.588456
0.58967
0.589732
0.591628
0.589106
0.58916
0.588765
0.586111
0.580985
0.580789
0.578067
0.573477
0.544805
0.589186
0.588403
0.57951
0.581813
0.585124
0.58826
0.589267
0.589267
0.588276
0.588194
0.581043
0.584532
0.582238
0.580751
0.577174
0.580285
0.572691
0.573057
0.591701
0.58418
0.580496
0.583262
0.587848
0.588558
0.588529
0.588097
0.58679
0.584447
0.586186
0.585501
0.58043
0.580471
0.579964
0.580147
0.539103
0.586569
0.591861
0.587389
0.583839
0.586145
0.588567
0.587574
0.587556
0.587179
0.588561
0.590539
0.589853
0.585381
0.580008
0.580673
0.581452
0.577719
0.537164
0.572763
0.591857
0.59035
0.58541
0.584537
0.587764
0.587486
0.589918
0.588021
0.589321
0.594553
0.591356
0.589196
0.582652
0.578555
0.582704
0.577489
0.541726
0.535945
0.585965
0.591451
0.584287
0.583427
0.58595
0.592795
0.590076
0.588724
0.5896
0.588249
0.589121
0.586275
0.584163
0.580937
0.58003
0.578506
0.571277
0.567916
0.586165
0.586024
0.584295
0.584512
0.588732
0.594236
0.590679
0.58867
0.588205
0.588486
0.589095
0.58749
0.582071
0.578305
0.577321
0.577408
0.538393
0.532078
0.579138
0.584153
0.583738
0.583869
0.586922
0.591321
0.592713
0.590723
0.588606
0.58939
0.588794
0.588944
0.587159
0.582214
0.58095
0.576149
0.572639
0.538342
0.579843
0.580688
0.582708
0.585913
0.590567
0.590879
0.590605
0.59022
0.589506
0.587727
0.588554
0.587724
0.58613
0.583166
0.579136
0.577717
0.57321
0.574357
0.582307
0.578388
0.581805
0.587788
0.591546
0.590964
0.589631
0.5897
0.591478
0.591892
0.591945
0.587601
0.584316
0.581059
0.581948
0.58168
0.56206
0.5827
0.584587
0.581416
0.585508
0.588098
0.589957
0.587562
0.589499
0.590402
0.591335
0.593447
0.592583
0.588716
0.582722
0.582986
0.584426
0.580471
0.535205
0.537489
0.589826
0.589015
0.584684
0.583517
0.586856
0.591549
0.588324
0.588248
0.590802
0.591502
0.59247
0.59134
0.58782
0.583308
0.579826
0.582928
0.566107
0.544962
0.592356
0.590684
0.584835
0.584618
0.588116
0.593142
0.592557
0.588135
0.588713
0.590229
0.594117
0.59297
0.585933
0.582897
0.580243
0.581627
0.535651
0.58115
0.591379
0.588473
0.584128
0.58551
0.589556
0.591511
0.591304
0.590445
0.588671
0.589434
0.59418
0.591883
0.585169
0.580128
0.582475
0.58025
0.532872
0.583176
0.59021
0.587578
0.583975
0.587107
0.58682
0.590473
0.591665
0.591303
0.591183
0.592474
0.592696
0.589372
0.583802
0.582233
0.582936
0.575235
0.538496
0.587306
0.588282
0.584991
0.583441
0.587333
0.586733
0.588457
0.589762
0.590025
0.59327
0.591237
0.591764
0.588941
0.582633
0.581071
0.581532
0.564178
0.568996
0.588304
0.584684
0.581926
0.584466
0.587595
0.588147
0.588016
0.588758
0.589586
0.588261
0.591831
0.590225
0.587879
0.581607
0.578442
0.579306
0.536386
0.582197
0.590054
0.587102
0.584444
0.587366
0.587709
0.58925
0.58893
0.587917
0.587035
0.590173
0.587472
0.58915
0.585389
0.581923
0.576282
0.573868
0.532566
0.536108
0.586821
0.590168
0.586698
0.584216
0.588086
0.591772
0.587298
0.587812
0.587903
0.588015
0.587813
0.588836
0.589314
0.586415
0.580219
0.577851
0.569767
0.536478
0.585803
0.589308
0.585587
0.584429
0.589922
0.596078
0.591578
0.587815
0.587876
0.587622
0.588002
0.588928
0.585961
0.583954
0.581088
0.576748
0.558629
0.536518
0.585062
0.587703
0.585219
0.584167
0.592279
0.598368
0.596949
0.589042
0.588269
0.587209
0.585337
0.585699
0.587727
0.582073
0.577192
0.575154
0.537057
0.53748
0.586622
0.586898
0.584647
0.585117
0.593534
0.600731
0.59961
0.595842
0.589472
0.588793
0.58747
0.58708
0.588152
0.584275
0.578021
0.568718
0.53177
0.583435
0.589418
0.586491
0.58381
0.586225
0.592653
0.596843
0.598652
0.595282
0.589402
0.588558
0.587592
0.587509
0.587749
0.583685
0.578571
0.567067
0.531941
0.587626
0.592352
0.587297
0.584047
0.588689
0.596212
0.595867
0.595531
0.59484
0.590158
0.587405
0.583192
0.586253
0.58567
0.582826
0.575908
0.569786
0.534852
0.59118
0.590871
0.585041
0.583857
0.591774
0.598168
0.594486
0.593665
0.591277
0.59076
0.587864
0.585735
0.588427
0.586213
0.581355
0.577375
0.570854
0.54002
0.590507
0.593025
0.586546
0.584121
0.592357
0.597527
0.590339
0.591249
0.59272
0.58871
0.587701
0.587835
0.58693
0.583577
0.579671
0.578385
0.57211
0.538448
0.590164
0.592991
0.586995
0.584159
0.589272
0.596623
0.593494
0.58838
0.588403
0.589464
0.592911
0.591844
0.588522
0.5839
0.579984
0.58172
0.572377
0.538824
0.590436
0.591502
0.586589
0.584342
0.589763
0.596318
0.594924
0.591959
0.588723
0.589166
0.590999
0.593762
0.588624
0.583282
0.58307
0.583701
0.565126
0.541803
0.589558
0.587936
0.584781
0.584653
0.593832
0.597957
0.595939
0.594158
0.593078
0.592206
0.590825
0.589945
0.586797
0.582981
0.58345
0.583932
0.537216
0.580607
0.588036
0.584346
0.582431
0.584782
0.595266
0.600287
0.59648
0.592586
0.591472
0.590212
0.589457
0.589142
0.585946
0.583077
0.583052
0.584277
0.534121
0.58185
0.588477
0.585256
0.582974
0.587134
0.594046
0.594529
0.593775
0.590093
0.587503
0.587943
0.588681
0.589429
0.586451
0.583179
0.58281
0.582652
0.535339
0.531554
0.588852
0.589156
0.584939
0.583416
0.585356
0.591403
0.589579
0.588566
0.586906
0.584141
0.575692
0.585333
0.58876
0.586965
0.583152
0.581809
0.580374
0.535355
0.536143
0.588221
0.589994
0.580457
0.581847
0.586555
0.588865
0.587641
0.581154
0.579165
0.580959
0.575443
0.577428
0.588154
0.585738
0.582547
0.581187
0.577047
0.584966
0.588109
0.584743
0.584517
0.588494
0.590663
0.58901
0.586448
0.573287
0.571883
0.565122
0.584684
0.586984
0.585339
0.58207
0.580946
0.575517
0.536644
0.581519
0.58537
0.584611
0.585734
0.591004
0.592524
0.590291
0.588327
0.586477
0.568407
0.563379
0.57574
0.587364
0.585204
0.579926
0.579715
0.570282
0.533354
0.578625
0.581776
0.583717
0.586579
0.59513
0.597467
0.591202
0.589835
0.587718
0.584966
0.56728
0.573447
0.587589
0.585438
0.579581
0.578434
0.560046
0.52892
0.576032
0.578564
0.58263
0.587423
0.595563
0.596159
0.590581
0.589073
0.587995
0.587704
0.586824
0.585008
0.587039
0.583933
0.580041
0.577896
0.537485
0.575948
0.574786
0.582233
0.588366
0.59672
0.595038
0.589984
0.587354
0.582006
0.584423
0.589353
0.588145
0.58617
0.582695
0.578936
0.577258
0.534698
0.534127
0.572257
0.584597
0.590905
0.596498
0.596579
0.59164
0.588549
0.586433
0.5736
0.585157
0.59003
0.585284
0.582823
0.577908
0.577246
0.531058
0.517804
0.561191
0.578002
0.583981
0.590163
0.594453
0.596009
0.592023
0.590509
0.588628
0.586613
0.582932
0.588053
0.585383
0.58091
0.579442
0.576283
0.531052
0.563199
0.577713
0.582142
0.586349
0.593077
0.594335
0.593902
0.592381
0.587736
0.586987
0.587503
0.587082
0.58707
0.586346
0.580511
0.579086
0.570256
0.564206
0.577816
0.585061
0.588418
0.589621
0.591323
0.592976
0.591073
0.588071
0.586765
0.575088
0.587328
0.587346
0.584177
0.580759
0.57802
0.568541
0.528184
0.567189
0.574764
0.581883
0.58541
0.586864
0.587337
0.588791
0.589405
0.589017
0.585832
0.583504
0.586993
0.587285
0.583995
0.578271
0.574674
0.538645
0.535482
0.571863
0.579699
0.58563
0.5862
0.587631
0.586597
0.58635
0.586154
0.585281
0.585589
0.584165
0.586686
0.588667
0.582105
0.578174
0.572802
0.532092
0.540744
0.577715
0.568555
0.581896
0.587575
0.587361
0.586393
0.56831
0.582368
0.574507
0.575953
0.583256
0.587329
0.588583
0.583336
0.577423
0.573059
0.531122
0.555917
0.576128
0.578582
0.587346
0.587611
0.586115
0.583983
0.573811
0.576983
0.585773
0.585386
0.587317
0.587856
0.588177
0.584688
0.577372
0.576806
0.532242
0.535611
0.572715
0.57689
0.581324
0.586819
0.586998
0.576654
0.550208
0.555524
0.583796
0.587169
0.587945
0.588267
0.587936
0.587398
0.583563
0.579666
0.569441
0.535571
0.543453
0.577652
0.576495
0.584253
0.587214
0.587009
0.562735
0.544515
0.551716
0.581812
0.586877
0.586959
0.587785
0.589096
0.587944
0.583043
0.577639
0.574184
0.531382
0.573478
0.580899
0.58821
0.588198
0.586151
0.557737
0.545011
0.549386
0.5703
0.586415
0.586942
0.589319
0.59439
0.587085
0.579509
0.579209
0.573666
0.529573
0.571149
0.580074
0.585346
0.588723
0.58312
0.547321
0.544992
0.558295
0.569675
0.58127
0.587667
0.591845
0.594708
0.585681
0.579589
0.58034
0.570745
0.580121
0.578937
0.582623
0.588638
0.581508
0.547947
0.544725
0.549634
0.581432
0.576399
0.586964
0.590092
0.591421
0.585028
0.579635
0.580166
0.561487
0.583835
0.580014
0.578531
0.587811
0.58532
0.546806
0.54496
0.553362
0.568193
0.577628
0.583756
0.589757
0.589514
0.582404
0.580732
0.579494
0.539176
0.544186
0.583422
0.582407
0.580276
0.588945
0.587497
0.563342
0.549235
0.562521
0.577402
0.587019
0.587743
0.589785
0.586062
0.582176
0.577595
0.576884
0.535999
0.541865
0.579541
0.580247
0.58081
0.589615
0.586812
0.551209
0.548101
0.573835
0.584889
0.587545
0.588862
0.588793
0.585944
0.581342
0.578808
0.572153
0.541535
0.578629
0.581446
0.58309
0.587734
0.586439
0.55753
0.54686
0.555264
0.585482
0.588058
0.589606
0.587473
0.58537
0.580867
0.579385
0.569599
0.541304
0.57909
0.581275
0.582851
0.58705
0.583558
0.549179
0.552766
0.581781
0.587038
0.588357
0.589697
0.588095
0.584772
0.580565
0.580899
0.56967
0.544158
0.582417
0.581284
0.584269
0.586648
0.587096
0.554943
0.552681
0.576129
0.587101
0.588601
0.589651
0.588924
0.58374
0.582123
0.581273
0.542428
0.552881
0.589984
0.583521
0.581691
0.587305
0.587472
0.587085
0.571204
0.56987
0.58716
0.58836
0.589065
0.590356
0.584285
0.580239
0.579426
0.540319
0.606761
0.598161
0.589558
0.580767
0.58815
0.582629
0.582021
0.586607
0.587007
0.586871
0.588467
0.590534
0.58874
0.584179
0.579576
0.577036
0.537077
0.587457
0.576909
0.584686
0.588547
0.582452
0.549159
0.56601
0.584243
0.5872
0.588537
0.59089
0.588238
0.581809
0.578295
0.573279
0.534396
0.589273
0.577315
0.586263
0.587537
0.552334
0.547053
0.550912
0.585436
0.587765
0.588405
0.589605
0.589844
0.581276
0.576546
0.567926
0.583693
0.586173
0.578505
0.58537
0.587741
0.554303
0.548333
0.564478
0.586035
0.588542
0.589873
0.591823
0.588712
0.58139
0.575956
0.564671
0.584011
0.584403
0.581391
0.578334
0.588089
0.588062
0.554855
0.556488
0.587316
0.590249
0.591522
0.589109
0.586708
0.575659
0.574348
0.537857
0.58559
0.584236
0.579889
0.579342
0.587652
0.590667
0.589097
0.586666
0.588651
0.589343
0.587738
0.588024
0.58719
0.575479
0.578009
0.534847
0.546324
0.5869
0.582404
0.580773
0.580101
0.581971
0.589139
0.590979
0.589998
0.591344
0.581706
0.586708
0.594773
0.586955
0.575338
0.560452
0.544479
0.589764
0.582289
0.578649
0.583905
0.578153
0.590635
0.59033
0.591873
0.593042
0.586799
0.587777
0.592409
0.583168
0.564705
0.576712
0.551789
0.587184
0.581532
0.579858
0.590391
0.583573
0.590643
0.587906
0.591354
0.59227
0.581572
0.581359
0.585889
0.583478
0.567369
0.545341
0.586044
0.591132
0.566169
0.570927
0.58244
0.590986
0.594494
0.592614
0.590442
0.590969
0.587191
0.59114
0.580769
0.581742
0.571019
0.500555
0.58012
0.574045
0.57321
0.587233
0.583176
0.584577
0.593252
0.595052
0.590761
0.588268
0.584314
0.58471
0.58075
0.57382
0.572611
0.550215
0.540845
0.562849
0.572208
0.585319
0.586741
0.589071
0.593613
0.592972
0.58825
0.586793
0.592505
0.579507
0.573319
0.574038
0.575316
0.533874
0.578002
0.565178
0.580476
0.584674
0.589682
0.594533
0.594976
0.591544
0.588119
0.589792
0.588168
0.578374
0.574799
0.581143
0.530514
0.533533
0.578765
0.578325
0.561665
0.592173
0.58898
0.589285
0.591121
0.588549
0.589083
0.590868
0.582433
0.578367
0.579262
0.572417
0.539228
0.566508
0.582055
0.580325
0.553518
0.567347
0.589511
0.587525
0.589835
0.586908
0.58858
0.591763
0.574314
0.576329
0.575588
0.57255
0.532847
0.565252
0.553869
0.552751
0.570609
0.587946
0.588531
0.589967
0.587995
0.584303
0.572603
0.575035
0.572596
0.537209
0.543803
0.560757
0.55952
0.560007
0.571209
0.572696
0.589809
0.588096
0.588707
0.575055
0.577145
0.575158
0.567531
0.534447
0.57467
0.57564
0.555494
0.556264
0.586643
0.566573
0.580217
0.590538
0.586721
0.57371
0.576932
0.571591
0.560105
0.534007
0.575541
0.576944
0.553764
0.546514
0.593673
0.593134
0.584237
0.556568
0.569321
0.567699
0.575253
0.572616
0.533197
0.535276
0.573963
0.561009
0.550944
0.544755
0.554479
0.594445
0.58044
0.591421
0.561065
0.555729
0.578432
0.575572
0.532705
0.53272
0.572964
0.552829
0.552533
0.546795
0.548506
0.585282
0.591641
0.592262
0.569471
0.552092
0.575456
0.571534
0.535876
0.536621
0.572931
0.573256
0.551745
0.549275
0.548796
0.514716
0.589375
0.590456
0.579145
0.576858
0.573498
0.569615
0.530804
0.529923
0.531784
0.575591
0.575053
0.550824
0.557518
0.543322
0.556777
0.581559
0.565727
0.552211
0.582823
0.575894
0.57643
0.554464
0.553185
0.5499
0.577777
0.552292
0.555262
0.575551
0.574222
0.584641
0.583676
0.551617
0.548444
0.581311
0.577577
0.576097
0.54327
0.347172
0.539753
0.574988
0.557543
0.562485
0.578445
0.570526
0.356125
0.425705
0.55229
0.548274
0.575854
0.581035
0.540749
0.549806
0.540767
0.573519
0.577545
0.571025
0.538671
0.545243
0.571085
0.575243
0.577067
0.541098
0.529894
0.562277
0.519521
0.54049
0.5727
0.568082
0.578511
0.57556
0.570091
0.574421
0.570083
0.568817
0.578892
0.560568
0.545551
0.52947
0.531316
0.350006
0.555348
0.544084
0.57353
0.572526
0.562617
0.601361
0.603147
0.596036
0.585023
0.577209
0.575029
0.57511
0.581151
0.567789
0.610446
0.61884
0.621246
0.615848
0.606122
0.595479
0.581991
0.575434
0.576933
0.576172
0.57784
0.57982
0.579235
0.577644
0.570822
0.616346
0.626372
0.626273
0.62182
0.616422
0.609717
0.601073
0.592039
0.581863
0.57628
0.580284
0.576994
0.582642
0.585153
0.585708
0.584368
0.580761
0.577212
0.574272
0.575863
0.563377
0.576318
0.605472
0.617188
0.619867
0.618349
0.611946
0.606572
0.5979
0.588534
0.584196
0.583637
0.583863
0.583059
0.583593
0.57149
0.589635
0.587574
0.584626
0.580982
0.577147
0.57563
0.574632
0.566768
0.587231
0.605705
0.613046
0.606993
0.599478
0.60331
0.599464
0.593389
0.585338
0.579217
0.57564
0.577305
0.576441
0.579204
0.581809
0.582784
0.582428
0.567801
0.571338
0.578034
0.57537
0.576826
0.575275
0.579581
0.550787
0.590259
0.596597
0.59668
0.595763
0.593567
0.585866
0.580847
0.583571
0.572125
0.580694
0.575224
0.577786
0.584691
0.578442
0.583857
0.584688
0.582497
0.57938
0.579099
0.561952
0.568566
0.581557
0.582853
0.589621
0.582054
0.534658
0.590437
0.579346
0.579426
0.581714
0.582561
0.584059
0.581151
0.579769
0.583996
0.585009
0.571087
0.584489
0.576953
0.573595
0.585534
0.570312
0.579424
0.577852
0.576801
0.576984
0.561223
0.572131
0.58715
0.579651
0.538849
0.578657
0.575608
0.58165
0.592014
0.588937
0.588038
0.584352
0.594972
0.58833
0.584876
0.586105
0.590217
0.583802
0.57545
0.575428
0.594676
0.586863
0.578115
0.584876
0.580341
0.577746
0.578793
0.583508
0.579585
0.582135
0.543056
0.587651
0.578568
0.582486
0.589585
0.595579
0.596661
0.589474
0.589267
0.591682
0.594391
0.590019
0.582503
0.581491
0.580799
0.580785
0.582872
0.584357
0.588375
0.588258
0.595816
0.590813
0.593538
0.596315
0.585846
0.546743
0.582317
0.592052
0.584487
0.58528
0.58173
0.585087
0.591726
0.596281
0.599019
0.586957
0.594559
0.598436
0.593558
0.595325
0.600895
0.603322
0.59638
0.584737
0.582849
0.58066
0.590362
0.594576
0.591584
0.590936
0.581065
0.556045
0.587441
0.584776
0.581872
0.581322
0.58246
0.584413
0.59553
0.599373
0.599338
0.603439
0.602608
0.600222
0.598757
0.598054
0.603851
0.604478
0.601089
0.589599
0.584657
0.582389
0.591195
0.582105
0.599652
0.587882
0.500566
0.555758
0.525005
0.584156
0.57965
0.582126
0.584547
0.585888
0.592477
0.5961
0.595977
0.596227
0.595808
0.596903
0.599047
0.597643
0.596278
0.596072
0.60307
0.594298
0.584845
0.584087
0.58997
0.598687
0.578502
0.538675
0.536887
0.581976
0.578894
0.585721
0.592183
0.585821
0.592398
0.591546
0.58625
0.588454
0.593807
0.595795
0.594426
0.594298
0.595314
0.596098
0.596744
0.595674
0.582981
0.580894
0.586772
0.600087
0.599244
0.583134
0.584892
0.592282
0.587635
0.579972
0.581388
0.590633
0.593161
0.589608
0.591521
0.587928
0.586483
0.584625
0.586163
0.587888
0.591866
0.589306
0.589305
0.594158
0.594999
0.592219
0.586898
0.582134
0.59517
0.59776
0.584178
0.584564
0.59489
0.589592
0.584068
0.583193
0.587473
0.595151
0.596022
0.59044
0.590963
0.587384
0.586441
0.586791
0.586334
0.587774
0.590025
0.588719
0.589602
0.592699
0.596321
0.588526
0.58472
0.574098
0.586807
0.575477
0.586624
0.595337
0.589113
0.585776
0.583191
0.588414
0.593241
0.599185
0.604294
0.602735
0.593081
0.590392
0.588327
0.586882
0.587534
0.587026
0.590648
0.591539
0.593405
0.593017
0.591435
0.581354
0.576552
0.574111
0.559433
0.548939
0.588513
0.595279
0.590106
0.585974
0.58388
0.585218
0.589868
0.592121
0.593931
0.600182
0.60442
0.602605
0.593715
0.590317
0.589654
0.589325
0.590109
0.589178
0.590255
0.594817
0.588633
0.586687
0.580141
0.572339
0.57216
0.554192
0.594226
0.598324
0.59003
0.586012
0.584615
0.58621
0.591752
0.597044
0.600634
0.599365
0.604944
0.60599
0.603587
0.601929
0.599775
0.595878
0.594662
0.591856
0.592322
0.59385
0.591561
0.588819
0.58005
0.572604
0.569768
0.559641
0.603034
0.602106
0.59012
0.58518
0.584668
0.586613
0.590639
0.594888
0.598272
0.596936
0.59016
0.593785
0.604606
0.608289
0.60788
0.609692
0.608865
0.605924
0.607595
0.598012
0.593456
0.584547
0.580034
0.578152
0.578707
0.533524
0.551905
0.599313
0.602082
0.591974
0.584751
0.586068
0.59184
0.595632
0.599092
0.600172
0.599619
0.597324
0.594861
0.595637
0.601247
0.608767
0.610899
0.607377
0.598276
0.599007
0.598421
0.59473
0.58678
0.579551
0.578262
0.584301
0.532934
0.593079
0.601635
0.591076
0.585248
0.584765
0.596823
0.602116
0.6031
0.601975
0.601452
0.600858
0.600435
0.600374
0.601776
0.605362
0.609153
0.610201
0.6072
0.599849
0.59577
0.589676
0.594831
0.581206
0.577893
0.580801
0.572971
0.585789
0.596453
0.592145
0.58531
0.584725
0.594088
0.596398
0.590394
0.586376
0.584892
0.58708
0.591985
0.596861
0.59985
0.60187
0.604535
0.607901
0.610438
0.609582
0.602586
0.592912
0.585931
0.584637
0.578601
0.57878
0.570736
0.555846
0.594317
0.591735
0.586313
0.583566
0.59338
0.59535
0.589621
0.582669
0.573918
0.570445
0.570139
0.573518
0.586381
0.595778
0.600057
0.602504
0.604914
0.606647
0.603833
0.597942
0.585306
0.582037
0.581624
0.584773
0.576528
0.586975
0.594811
0.588692
0.583905
0.588851
0.591983
0.587521
0.578189
0.570977
0.567125
0.563685
0.563201
0.566676
0.575429
0.589475
0.599669
0.602167
0.603556
0.602707
0.598244
0.590657
0.584985
0.581708
0.583943
0.588087
0.583047
0.593256
0.587278
0.583783
0.584776
0.592511
0.587731
0.579457
0.558514
0.554398
0.557845
0.55902
0.555698
0.557129
0.563638
0.579494
0.593397
0.603055
0.60342
0.598957
0.593667
0.585356
0.58308
0.584816
0.590608
0.558957
0.555459
0.592028
0.58946
0.585508
0.584208
0.590551
0.594898
0.585298
0.56007
0.549899
0.547188
0.548662
0.551718
0.552813
0.551524
0.555344
0.570359
0.582022
0.594229
0.602152
0.595758
0.58677
0.583137
0.584783
0.590618
0.580771
0.554044
0.591579
0.589549
0.585543
0.583969
0.588425
0.597237
0.594743
0.585413
0.56381
0.549979
0.547625
0.546033
0.546326
0.547443
0.550095
0.554525
0.567474
0.585493
0.592758
0.601855
0.589519
0.584012
0.583794
0.585931
0.588998
0.546119
0.583179
0.588636
0.584309
0.583864
0.588232
0.595118
0.597638
0.590848
0.579316
0.558523
0.54921
0.547984
0.548602
0.547155
0.546756
0.550792
0.561661
0.572389
0.584933
0.595254
0.588355
0.583575
0.583004
0.585111
0.586828
0.552008
0.559839
0.591497
0.58554
0.582684
0.590141
0.594332
0.594644
0.592612
0.585771
0.57323
0.553685
0.549917
0.553011
0.560584
0.550958
0.548118
0.552378
0.573117
0.58579
0.590923
0.59783
0.586443
0.582194
0.586684
0.587487
0.554102
0.590963
0.589474
0.584217
0.584068
0.590779
0.588886
0.58409
0.583463
0.579517
0.566594
0.555023
0.550683
0.568426
0.576197
0.569085
0.551566
0.554357
0.576752
0.591802
0.597715
0.590044
0.582417
0.585064
0.591293
0.557554
0.562578
0.593336
0.587715
0.584035
0.587263
0.593199
0.591232
0.574656
0.569081
0.573742
0.572781
0.572785
0.570532
0.569708
0.577569
0.583313
0.570663
0.562853
0.583077
0.59445
0.592025
0.583211
0.583
0.585398
0.580897
0.588297
0.588613
0.584373
0.585313
0.592687
0.595878
0.591083
0.583595
0.564649
0.55919
0.565786
0.572657
0.575423
0.574981
0.577842
0.583418
0.587658
0.582825
0.589751
0.591031
0.584687
0.582907
0.585251
0.586867
0.552649
0.55116
0.59021
0.585519
0.584192
0.589911
0.596112
0.59414
0.58799
0.581421
0.57369
0.568334
0.563611
0.569661
0.569178
0.567264
0.565834
0.575459
0.588348
0.591842
0.592082
0.587884
0.582186
0.583939
0.587337
0.557589
0.583125
0.585239
0.583208
0.585298
0.5941
0.594154
0.588421
0.581594
0.575374
0.566787
0.561888
0.566584
0.567793
0.573129
0.57178
0.562599
0.565697
0.585195
0.59577
0.58803
0.582933
0.58279
0.582337
0.580693
0.541003
0.558648
0.589256
0.585022
0.58313
0.587188
0.588864
0.58292
0.579598
0.570058
0.558745
0.558412
0.553692
0.555657
0.566906
0.571255
0.577026
0.581918
0.585938
0.591416
0.596849
0.588056
0.583001
0.582759
0.586018
0.552179
0.587219
0.584516
0.582809
0.584097
0.588314
0.589666
0.572601
0.559308
0.555631
0.553208
0.552431
0.554011
0.549752
0.557586
0.573419
0.581265
0.587172
0.593035
0.596213
0.59144
0.583149
0.583657
0.588816
0.576227
0.559185
0.588994
0.584765
0.584364
0.589292
0.593768
0.592189
0.584908
0.563949
0.549239
0.547816
0.547037
0.548995
0.551039
0.556816
0.569496
0.582523
0.589929
0.596681
0.595996
0.588936
0.582676
0.581174
0.585847
0.548065
0.586215
0.586578
0.583711
0.585376
0.59224
0.593748
0.58989
0.58321
0.573834
0.555271
0.547947
0.548932
0.548094
0.557436
0.564733
0.565338
0.581458
0.592094
0.597608
0.595542
0.586102
0.581639
0.581474
0.573528
0.557493
0.589031
0.584883
0.584016
0.588634
0.593203
0.592379
0.586098
0.577109
0.566583
0.560704
0.557499
0.554523
0.560062
0.565661
0.569935
0.569227
0.581841
0.594175
0.598585
0.590423
0.583829
0.582151
0.581446
0.547479
0.58492
0.586094
0.583736
0.58528
0.590947
0.593529
0.591064
0.584239
0.575573
0.562467
0.551486
0.55276
0.558894
0.565567
0.573606
0.579091
0.582907
0.588487
0.597293
0.600247
0.587465
0.582207
0.581832
0.578915
0.555221
0.587734
0.58472
0.584149
0.588355
0.592514
0.592461
0.588053
0.582437
0.57551
0.565635
0.555355
0.547711
0.549539
0.556301
0.572675
0.583578
0.588536
0.59512
0.599152
0.595712
0.583072
0.582579
0.582882
0.550389
0.585506
0.586532
0.584101
0.585451
0.590446
0.591886
0.589289
0.584652
0.579551
0.574619
0.570074
0.554325
0.547472
0.548007
0.553355
0.564126
0.582417
0.591802
0.597024
0.594997
0.586608
0.582846
0.580184
0.58092
0.588341
0.585308
0.583646
0.586875
0.591439
0.590441
0.585894
0.58094
0.577049
0.573326
0.568116
0.564339
0.551922
0.550018
0.555084
0.568401
0.581945
0.592522
0.597356
0.590952
0.58315
0.581715
0.584702
0.557147
0.555119
0.59016
0.586199
0.584253
0.588795
0.59076
0.587386
0.582551
0.578249
0.575204
0.573802
0.571485
0.566751
0.56437
0.565489
0.570104
0.577616
0.585741
0.59428
0.596099
0.590095
0.582432
0.581127
0.582432
0.543085
0.556267
0.585454
0.584257
0.584792
0.589552
0.588977
0.583742
0.578994
0.575391
0.572855
0.571788
0.571783
0.571034
0.570001
0.571494
0.576612
0.582664
0.589306
0.596023
0.596428
0.588172
0.582499
0.580282
0.557724
0.577679
0.585114
0.583604
0.585125
0.589594
0.583771
0.577173
0.574297
0.570071
0.566244
0.565778
0.568226
0.570419
0.571911
0.574422
0.57944
0.586221
0.592829
0.597075
0.593851
0.583613
0.58108
0.584432
0.550826
0.586633
0.584763
0.583421
0.586435
0.589749
0.584473
0.568891
0.565324
0.567323
0.562317
0.552497
0.556483
0.566952
0.571704
0.574878
0.579776
0.586751
0.594247
0.596018
0.588537
0.583132
0.580991
0.58095
0.556895
0.586635
0.584167
0.584062
0.58949
0.592263
0.587652
0.577249
0.565101
0.564529
0.56437
0.5584
0.552446
0.560911
0.571601
0.577143
0.580903
0.586986
0.593575
0.594665
0.58688
0.5805
0.584068
0.554405
0.576992
0.586154
0.584039
0.586136
0.591689
0.592412
0.587002
0.579007
0.570823
0.565258
0.56587
0.565985
0.563248
0.564017
0.57107
0.577896
0.583443
0.588882
0.593679
0.592593
0.584087
0.58117
0.583116
0.542629
0.585406
0.583643
0.583218
0.587012
0.592565
0.591783
0.585453
0.576849
0.566775
0.557488
0.560162
0.565197
0.567866
0.569516
0.572003
0.577733
0.584301
0.59044
0.594438
0.591329
0.583051
0.58099
0.580935
0.552178
0.587498
0.584598
0.584269
0.58952
0.593158
0.590933
0.584064
0.575644
0.565613
0.553645
0.548728
0.556333
0.564185
0.569348
0.573412
0.578273
0.584995
0.592044
0.594546
0.587615
0.583041
0.581229
0.57165
0.574065
0.584478
0.583934
0.584985
0.590163
0.592235
0.589338
0.58242
0.573115
0.563527
0.554452
0.549865
0.547835
0.551959
0.563005
0.572226
0.578674
0.585885
0.592538
0.594817
0.586392
0.580872
0.584525
0.553185
0.582603
0.584873
0.584052
0.585986
0.590347
0.590323
0.586005
0.580017
0.570778
0.555725
0.548341
0.547355
0.549497
0.548391
0.550433
0.56596
0.579073
0.586458
0.593269
0.592281
0.585564
0.580799
0.584447
0.541546
0.585133
0.582316
0.583266
0.587555
0.590217
0.588487
0.582895
0.576823
0.56912
0.556424
0.54559
0.543511
0.545299
0.549363
0.552622
0.561434
0.577295
0.587925
0.593431
0.591926
0.582681
0.582816
0.584205
0.545435
0.588136
0.584823
0.584712
0.589385
0.590774
0.587375
0.580787
0.57441
0.569075
0.562395
0.552332
0.544529
0.542774
0.545175
0.553642
0.566729
0.579375
0.589251
0.594834
0.588661
0.582836
0.581262
0.573482
0.55422
0.589347
0.584348
0.584486
0.589652
0.590591
0.586441
0.580356
0.573795
0.569873
0.566592
0.560118
0.555279
0.548577
0.543918
0.547881
0.566048
0.581535
0.590658
0.59457
0.587252
0.580033
0.583002
0.551736
0.556908
0.585497
0.583484
0.584756
0.589925
0.590765
0.586473
0.580962
0.577267
0.573034
0.569785
0.565227
0.558758
0.553355
0.550032
0.54816
0.559008
0.579948
0.59126
0.591471
0.583037
0.582462
0.582116
0.581943
0.585077
0.58416
0.58582
0.590355
0.590708
0.586017
0.579942
0.576407
0.57454
0.571677
0.566859
0.56131
0.550503
0.548204
0.553419
0.563044
0.57967
0.590663
0.590271
0.582407
0.582641