/*--------------------------------*- C++ -*----------------------------------*\
| =========                 |                                                 |
| \\      /  F ield         | OpenFOAM: The Open Source CFD Toolbox           |
|  \\    /   O peration     | Version:  2312                                  |
|   \\  /    A nd           | Website:  www.openfoam.com                      |
|    \\/     M anipulation  |                                                 |
\*---------------------------------------------------------------------------*/
FoamFile
{
    version     2.0;
    format      ascii;
    arch        "LSB;label=64;scalar=64";
    class       volScalarField;
    location    "60";
    object      omega;
}
// * * * * * * * * * * * * * * * * * * * * * * * * * * * * * * * * * * * * * //

dimensions      [0 0 -1 0 0 0 0];

internalField   nonuniform List<scalar> 
404911
(
255.161
181.288
3437.84
1537.51
195.509
219.037
164.206
606.892
344.601
284.518
251.21
327.664
192.195
208.552
443.866
1111.91
278.106
186.492
215.904
353.272
581.602
238.654
675.529
463.71
180.54
978.861
296.448
187.378
234.1
1015.48
260.762
195.523
302.158
536.82
265.707
210.232
387.825
465.336
267.52
157.786
384.478
1026.99
243.19
122.773
182.275
418.884
346.287
155.44
191.039
906.845
399.248
314.365
241.582
1373
360.138
601.524
9403.98
132.308
339.827
252.739
181.576
127.424
180.911
44.4618
93.6897
286.517
55.2912
641.251
98.9472
50.8173
140.032
20.2585
127.112
106.865
55.9697
614.147
2279.1
269.645
110.254
142.319
113.049
220.163
27.9542
145.445
83.0758
89.9683
265.623
68.6991
1159.78
226.827
164.201
2965.43
89.551
121.875
145.09
93.4042
139.708
137.826
66.7794
260.944
628.745
64.0701
97.0418
480.731
1197.5
463.089
229.216
682.949
345.775
276.146
204.225
190.174
179.469
192.948
2228.55
505.821
219.499
4512.61
571.491
157.31
161.095
164.939
174.215
242.643
1319.46
316.849
204.008
188.07
166.782
488.941
448.337
491.458
179.242
165.679
170.888
167.262
221.388
219.599
155.409
251.083
1196.7
316.066
196.535
170.077
160.677
156.124
155.893
144.265
483.879
441.79
170.213
159.476
181.696
1785.76
247.794
1000.84
276.603
188.66
164.06
162.949
153.9
150.685
160.567
161.146
154.66
153.926
157.235
157.825
170.775
236.636
406.001
599.15
452.232
390.923
402.316
406.25
477.515
151.365
161.629
160.462
165.914
164.989
172.011
183.616
190.692
190.483
303.207
719.521
460.984
372.186
383.342
247.889
334.668
507.303
420.422
146.676
161.18
166.727
177.114
184.526
192.379
224.354
1159.28
1010.26
278.248
603.534
315.431
263.022
247.882
317.04
409.382
297.675
363.135
434.333
432.71
144.075
170.256
180.115
179.85
206.074
495.833
867.583
617.687
283.944
241.188
144.93
161.037
466.606
256.96
196.661
347.331
306.276
209.556
127.704
160.811
174.058
197.914
292.47
1204.56
1220.66
283.995
134.751
207.394
151.482
130.328
155.742
168.902
180.443
256.309
224.576
177.21
164.818
292.66
447.876
171.632
211.909
1101.87
460.617
170.527
120.631
224.586
149.312
130.971
135.305
135.422
146.301
144.12
148.571
138.212
188.066
351.574
445.944
520.046
444.423
470.283
205.317
162.008
437.483
199.965
140.394
138.582
121.727
160.793
147.114
165.69
127.343
185.336
341.755
416.601
476.773
1695.78
379.613
190.202
154.282
122.918
137.243
168.165
136.991
140.502
134.272
148.339
164.509
127.43
127.313
166.771
374.48
430.287
263.087
1034.06
967.941
880.324
302.514
261.082
74.0149
78.8626
135.52
157.902
127.339
124.696
171.361
154.4
129.195
151.059
147.86
355.528
199.146
541.077
1105.04
249.958
149.653
173.856
180.589
156.097
121.123
82.3233
140.421
146.866
148.673
110.733
120.86
149.432
134.018
176.186
410.735
277.48
468.959
168.011
124.253
114.992
115.505
174.779
143.694
92.4055
72.2092
106.224
76.9699
72.0908
82.9251
94.3855
156.127
220.193
198.439
1000.73
1138.6
261.513
150.321
116.074
103.482
101.426
90.2438
123.716
93.729
94.7329
74.5998
111.636
103.235
114.837
110.638
119.632
322.935
884.106
371.175
153.443
114.997
146.569
154.004
105.632
99.3133
70.621
61.1581
64.2638
78.7356
90.8179
104.219
125.261
193.361
147.619
278.379
712.043
1090.8
890.994
321.012
206.762
170.966
88.3518
100.941
107.611
88.1395
58.09
53.2137
58.7148
70.8597
97.4572
145.812
185.622
161.356
452.273
429.719
167.869
173.177
137.024
116.524
72.0478
76.6366
97.9627
82.7981
97.8665
77.6132
74.4363
89.5532
107.743
110.857
136.091
269.206
970.604
191.641
130.221
153.818
96.6854
93.2933
70.0232
66.7164
99.9839
111.073
117.527
152.183
108.444
124.836
121.215
162.453
150.537
302.296
425.82
145.497
163.638
132.035
92.8134
66.2307
71.1179
59.3157
64.3769
96.0857
128.063
119.895
131.761
157.717
147.545
150.43
172.021
962.896
250.505
125.33
116.933
103.326
87.8829
62.6083
65.7392
99.9718
54.29
51.1447
78.8977
96.7741
115.538
178.421
224.234
173.64
284.76
1177.87
460.037
179.021
128.555
112.13
96.8668
71.0876
75.3867
54.6625
57.422
56.8361
51.7404
61.3619
67.7531
103.996
182.3
122.541
190.872
1009.97
1120.24
236.273
127.081
158.672
112.387
89.0246
65.2928
53.2329
51.2184
54.7827
43.4092
58.5227
89.2577
97.5103
114.527
119.479
158.926
290.379
426.127
157.841
123.85
107.554
92.4871
68.5851
61.5794
63.5656
67.8389
47.2017
45.0311
45.331
74.6263
125.303
161.525
154.305
175.048
989.763
1120.23
230.411
126.822
108.878
97.3215
79.1033
62.8601
59.7103
59.8946
58.4913
60.8477
50.9218
53.9668
69.3675
116.875
135.355
179.511
257.971
876.917
152.463
121.28
99.8645
85.1405
67.682
64.5069
65.9019
63.432
58.1596
63.5147
59.5071
63.8888
79.3035
104.092
134.805
195.633
317.715
247.28
114.881
132.206
103.664
75.6676
64.4704
65.6093
66.1021
64.3182
62.232
62.7347
62.2877
76.2978
92.1915
122.489
130.87
165.703
502.137
229.172
146.639
165.024
83.6197
73.6898
63.3487
66.8264
57.5788
57.0378
59.7544
60.1427
59.1643
71.815
104.179
115.555
130.925
243.56
1106.74
1153.05
180.526
118.414
124.619
103.921
72.7531
63.4669
57.6513
59.8707
56.4959
55.1017
60.8654
60.492
69.9332
95.0927
156.263
165.771
457.528
927.917
168.721
120.665
101.252
83.2586
60.7808
55.0655
56.0761
51.5357
51.1243
50.0328
54.6233
61.8211
78.0899
93.674
141.35
169.26
1049.06
285.709
145.922
121.927
103.005
85.3739
65.9726
53.926
52.9475
54.0482
53.5097
51.8513
56.876
68.2865
89.5633
116.154
115.696
174.97
1083.69
273.664
130.376
105.935
94.4593
71.8531
91.7838
67.2379
49.3502
56.4846
57.7415
54.6551
56.7772
64.4303
89.9237
110.396
127.194
258.5
1025.7
201.403
129.744
108.087
94.9381
70.3927
59.4255
61.7069
53.8816
47.3055
44.1304
55.687
60.0189
68.4167
91.4588
128.298
150.89
438.426
422.762
152.495
143.922
124.732
93.9412
73.477
62.6478
45.7291
58.7322
53.495
41.1896
44.0409
61.94
73.4546
96.1275
146.204
169.665
991.959
271.908
128.555
105.161
93.554
77.1631
67.245
65.3126
52.2014
55.3899
49.9906
55.5962
37.0751
58.5944
83.3508
95.628
161.23
205.511
1117.36
1036.28
181.201
120.691
106.226
88.2182
66.9292
62.6694
68.002
42.9247
44.8335
47.798
40.3731
55.6243
54.028
83.125
104.354
114.87
228.363
1027.34
170.874
121.183
102.091
83.181
64.3098
56.819
55.4165
63.6824
50.0966
44.8739
41.6973
41.4863
61.7698
81.3032
101.455
131.702
399.37
1009.34
168.89
118.6
98.5473
88.9994
66.4029
60.0546
59.4318
57.8153
53.4957
45.1319
32.4161
33.5975
60.1678
92.1459
127.509
145.446
880.737
1009.75
163.803
117.07
96.369
84.5017
72.8607
68.3244
60.4652
54.9765
50.3459
43.9187
44.2503
38.5167
50.0952
94.5137
123.019
194.944
1105.02
269.007
148.456
118.489
97.683
78.7199
66.4932
67.1657
66.2386
60.2539
51.4823
42.5112
38.039
45.5589
57.3605
90.9579
119.098
214.311
1139.54
250.39
127.888
107.204
93.2841
77.8225
59.2152
61.3868
61.8066
59.9146
51.6109
41.8126
26.2626
34.0497
66.6726
89.61
141.388
216.019
1089.45
170.78
140.572
120.695
91.6064
68.9394
58.4853
53.624
53.3743
57.2009
58.112
52.6419
53.0238
54.259
70.6095
98.8418
124.252
234.264
967.681
168.169
119.703
99.6373
86.0146
66.4038
59.6177
57.4183
58.5073
57.7849
62.8141
64.3992
63.6741
64.297
80.0311
115.151
119.621
245.589
1036.19
169.953
120.75
102.318
87.6112
69.1929
58.6346
54.6703
51.5913
46.7376
50.7583
53.6435
63.4676
69.6415
84.1157
122.143
123.161
260.561
1042.43
175.424
125.489
106.191
90.7842
65.0792
57.7817
60.607
58.0779
57.045
50.0666
50.2992
55.5253
74.0595
92.0849
107.96
135.464
408.833
979.496
169.036
127.208
110.617
92.018
70.6602
60.2928
55.681
54.0186
54.9918
51.7772
56.5903
64.5322
75.2216
96.3495
121.042
162.639
975.653
282.205
165.322
129.313
116.741
91.2137
67.1169
61.7769
55.7091
50.5439
48.6975
50.0296
56.0645
67.5395
80.795
100.464
130.752
166.162
1060.16
285.771
157.399
121.164
112.357
80.9583
55.3475
55.424
52.1655
48.0572
41.184
40.3252
46.7491
58.441
76.118
98.0238
131.583
165.324
1027.74
1168.67
205.564
153.031
123.969
95.7196
87.9899
57.1172
40.6622
41.4711
35.7589
29.4621
17.4434
33.0524
52.4968
69.2706
91.9116
130.829
176.289
1010.43
1054.51
170.597
120.949
158
99.6204
66.5007
64.4809
36.4945
24.4637
21.439
23.9733
17.2512
19.0926
47.7577
73.2669
92.9799
119.362
212.79
178.244
118.706
98.9729
86.8558
66.1039
49.7498
54.6457
42.3494
15.5823
14.4301
10.1572
30.5863
50.8601
70.5355
95.8632
117.721
226.756
986.338
175.613
116.321
93.0094
79.6508
60.4268
54.6361
51.2813
49.1386
37.1063
12.0842
9.34206
17.6237
52.5575
71.1207
106.844
127.323
266.317
1020.01
163.83
112.52
86.69
72.8231
60.5069
54.1138
49.9015
44.0957
46.1106
32.0227
11.4275
15.7504
50.178
74.1353
107.302
128.117
412.808
1116.01
154.544
111.498
85.1628
68.6501
56.312
53.6215
49.2589
42.594
38.1128
43.4441
38.9166
32.1916
56.4849
82.6537
102.507
133.737
819.028
141.94
135.808
90.1842
69.7763
59.5291
55.3358
53.6966
41.3801
25.3393
30.2852
42.1979
52.8196
62.3966
88.2003
123.049
154.886
926.851
704.265
188.332
80.9448
64.1469
63.1915
57.9906
52.0544
48.1603
38.8786
15.7342
32.4724
49.1283
68.7626
86.1515
140.767
159.059
1021.68
2141.23
305.676
137.072
100.019
59.4248
59.9187
57.9554
50.3258
43.9799
46.0191
39.1536
26.4865
52.7627
74.8769
96.6999
114.603
178.746
1077.07
254.092
109.391
107.008
90.6156
55.3079
58.368
57.4283
50.229
44.7582
36.6711
42.0922
47.5362
53.9313
72.7631
101.393
122.125
241.538
238.538
119.486
86.9331
66.4717
59.9403
57.9375
54.2157
51.7074
44.9414
37.4396
16.8581
40.9859
57.5452
74.9524
98.4639
129.537
261.923
1151.9
207.968
150.16
96.3631
95.1422
71.7004
61.2305
52.3547
45.0765
45.6049
32.6811
28.0352
36.5192
57.9047
78.4142
104.877
142.993
830.096
923.968
150.302
108.83
77.8606
80.236
51.7814
53.9337
50.8403
36.9949
34.2513
33.631
29.9579
52.8505
47.9379
89.5493
111.683
144.702
946.05
800.712
128.349
205.739
113.74
64.7471
54.1553
42.2536
12.1472
26.2442
16.3381
17.6879
27.7739
43.7631
52.1388
103.646
120.554
145.413
953.796
409.641
113.836
139.947
68.394
46.5393
38.7701
31.6818
16.4673
19.0112
37.144
33.162
48.8703
51.2056
55.1451
89.6384
189.478
162.161
1002.38
986.99
213.343
114.968
98.0477
69.9337
39.7446
18.5279
4.00055
5.94243
30.7367
51.693
58.4852
65.738
63.8585
64.3827
89.0065
134.616
294.103
1023.68
884.578
135.874
132.57
86.562
63.3432
44.1488
9.05244
2.18862
4.50916
25.5991
43.8926
50.9158
54.9959
61.0051
69.952
83.2713
126.274
170.325
1041.19
197.315
106.718
68.8898
60.5357
38.108
6.82171
2.33879
3.71819
13.4621
40.9401
49.5153
58.3174
59.7731
71.9455
104.999
115.388
223.712
1169.02
220.211
117.308
104.639
50.4246
28.2302
3.05504
2.32858
7.01197
12.9378
24.6147
43.4815
51.08
57.4811
81.9095
111.079
125.895
262.102
240.77
143.373
158.118
58.2994
25.22
3.24899
2.2523
3.79246
25.0387
18.4617
41.3102
57.1524
65.606
82.2345
114.039
130.054
409.834
223.79
251.428
201.944
71.9748
36.188
2.90252
2.32723
5.13646
12.0899
19.5662
29.7185
53.4392
68.6605
93.1201
105.5
136.244
844.714
953.27
166.382
169.383
176.1
80.9569
47.8113
9.56248
3.7078
9.07607
20.1784
47.0447
51.3363
58.9539
81.2432
99.673
139.819
166.15
949.925
886.173
165.577
156.631
155.019
63.2767
42.669
4.39201
3.31069
16.5476
34.7294
48.2047
57.3118
67.2969
85.222
101.393
116.498
238.373
811.416
135.328
111.063
115.677
60.262
42.1004
6.77966
2.9122
5.86264
38.0605
53.2708
58.4962
68.8071
85.2487
109.139
127.821
271.329
820.487
131.822
109.939
119.83
54.8395
28.9701
3.6719
4.89944
26.3316
47.2919
61.2372
64.9894
77.0905
89.4692
114.605
131.831
272.702
838.647
133.451
121.058
92.8157
71.9185
42.5073
5.73118
4.85772
18.2152
47.4229
53.9764
68.1242
77.053
96.4473
111.607
141.643
839.948
871.82
137.196
130.381
133.282
58.4395
54.9986
50.5224
14.1468
13.1583
46.8304
57.6658
69.4945
73.1025
93.2627
123.807
168.387
955.641
289.352
148.367
154.897
153.989
56.3584
26.4776
26.4852
43.786
46.0146
40.2842
54.8729
55.8289
72.2774
91.3467
119.053
173.387
1027
338.063
292.752
105.919
58.7818
27.9133
3.66306
10.9045
74.8413
57.5687
52.5894
57.2196
69.5239
91.139
122.733
208.524
1154.6
320.304
214.497
109.896
50.5026
4.77212
2.97098
4.24043
36.631
51.7565
54.6868
68.4565
71.0667
89.6331
123.064
243.336
280.36
230.159
184.638
136.437
87.2764
5.51011
3.37282
10.0461
39.2891
54.7943
58.4665
54.8059
73.714
91.1597
120.833
260.592
305.747
139.494
152.508
178.691
130.526
51.2248
5.76681
6.28948
52.1892
69.0203
72.8466
94.0768
89.9354
130.497
140.104
812.354
312.886
146.444
169.586
181.724
143.498
114.642
81.573
86.149
67.4971
72.6788
79.6842
121.384
125.897
186.679
179.974
1012.19
1198.83
294.238
164.932
129.008
155.375
165.574
145.629
132.375
113.401
159.002
168.515
136.388
69.5749
121.479
192.767
453.402
1244.97
215.528
138.565
139.854
109.018
195.729
131.118
121.86
65.0497
84.6902
145.996
152.804
148.849
150.817
249.696
224.425
1000.08
203.42
146.482
114.646
107.536
159.516
115.264
161.833
98.3313
82.6055
149.187
159.935
150.718
165.713
277.118
787.062
303.784
159.939
514.166
234.478
123.619
86.5386
108.978
82.4676
76.0043
82.4692
96.1128
99.4279
113.22
144.73
282.661
4044.14
312.369
560.156
294.921
163.121
174.016
156.58
91.2586
146.512
111.012
107.242
103.736
109.522
120.951
162.585
267.497
771.071
1058.65
638.506
292.172
129.18
127.981
129.55
91.344
84.1511
122.681
122.115
145.203
120.576
175.538
174.563
303.55
1164.91
190.15
433.878
165.571
120.333
111.805
89.2416
110.115
139.815
124.65
137.222
133.913
126.763
172.953
222.655
1400.85
1148.36
200.741
146.561
293.814
181.433
118.55
92.4182
81.3177
134.13
132.023
135.246
150.505
187.977
158.53
303.814
1240.22
553.919
196.27
158.333
441.074
276.954
126.701
116.927
114.164
134.449
121.833
142.172
197.118
119.404
160.862
320.602
1094.84
537.2
421.767
305.023
187.553
115.294
115.111
108.356
121.493
130.478
228.346
145.49
209.911
1124.98
662.485
497.288
424.248
346.593
205.527
260.191
123.274
169.758
126.604
154.681
116.08
159.68
290.201
1124.65
183.9
150.618
462.714
314.01
138.538
276.34
261.154
148.259
188.819
184.179
138.649
175.954
494.905
1189.94
202.239
161.496
465.417
411.236
235.91
150.866
184.378
365.377
263.782
316.376
150.128
193.937
1149.3
1120.33
199.821
537.827
438.099
434.88
314.128
193.313
215.952
143.827
300.057
460.01
173.645
210.21
1245.57
1184.6
192.997
527.758
446.469
439.16
408.072
197.252
170.323
169.287
245.3
448.201
173.331
291.346
1301.31
1129.25
200.787
156.069
475.484
416.675
454.111
471.562
138.739
147.093
285.086
145.979
164.454
281.717
1397.26
1389.55
1109.51
159.457
141.28
437.668
440.83
551.99
281.152
173.477
310.961
459.674
188.88
297.405
147.334
468.593
422.903
423.361
137.113
447.602
475.253
539.866
500.289
153.382
134.714
423.81
496.398
176.462
176.468
252.919
1131.09
6194.78
532.014
149.394
460.874
506.697
196.157
327.361
2723.74
2007.03
449.931
763.345
200.067
221.867
1110.81
421.364
723.596
196.226
215.762
555.872
775.125
549.992
221.487
185.427
230.097
1121.27
1095.95
229.076
1904.51
777.01
496.495
313.802
173.444
157.627
180.28
185.457
629.299
248.626
164.506
314.436
628.187
1437.26
1261.24
6345.43
429.829
1405.02
519.118
493.555
1341.32
553.383
365.297
269.777
249.955
220.105
208.877
207.768
298.099
1383.64
573.295
362.98
264.822
249.914
229.724
214.97
202.863
197.792
193.971
206.6
203.163
204.102
209.872
201.807
1306.67
547.642
289.748
255.42
231.833
227.362
219.682
212.421
211.986
202.673
192.627
189.564
197.929
205.026
214.901
210.198
211.598
207.143
211.805
296.744
380.191
816.976
991.371
519.217
277.463
244.424
235.762
223.709
214.664
215.245
215.613
213.902
211.568
210.416
210.679
188.945
551.266
563.667
223.136
217.248
195.907
199.862
197.323
233.713
569.878
552.91
317.93
243.413
226.692
206.041
190.982
191.576
191.884
195.199
192.938
192.268
194.137
207.539
206.166
205.983
202.254
179.719
497.453
570.631
181.112
188.493
188.264
208.151
264.575
1251.06
417.695
200.068
161.358
153.303
189.251
206.065
525.028
667.164
717.902
156.738
161.96
168.085
163.408
171.801
176.054
189.29
189.521
174.227
154.408
451.702
548.104
206.311
218.465
260.774
593.92
1485.69
379.323
258.888
233.202
191.474
188.351
176.632
212.532
286.604
296.046
220.642
325.767
133.172
151.082
266.459
263.968
665.662
161.681
177.241
183.289
181.011
516.028
561.497
259.557
582.719
1225.17
318.775
341.43
249.441
146.37
153.764
151.287
186.828
87.2733
125.846
220.849
238.615
202.927
253.066
316.794
474.205
165.947
249.018
557.987
185.928
186.232
181.989
198.31
244.458
531.023
417.958
1340.58
308.294
301.749
238.121
167.122
114.696
120.7
125.625
103.995
98.4478
79.4526
91.3504
187.815
254.792
282.699
285.259
244.287
220.367
140.765
217.722
157.785
200.148
225.598
341.135
593.893
1076.85
391.313
180.348
183.679
244.508
181.554
216.565
100.49
99.5294
97.6309
179.348
110.784
82.6245
89.5163
94.266
91.1007
99.5136
127.145
198.414
189.933
240.58
188.643
190.549
191.531
221.736
517.358
1141.52
232.561
152.382
250.525
206.941
161.856
196.68
80.3326
101.282
87.1172
88.2208
107.92
97.2501
82.2446
101.235
81.8711
88.0282
95.6985
120.09
156.394
267.018
173.997
588.168
554.252
661.329
4531.29
743.839
1323.07
298.127
226.762
178.174
152.495
114.606
95.2832
87.7084
79.0429
86.5271
89.4466
85.881
90.0108
93.0006
106.336
114.011
83.9962
108.661
142.096
162.793
165.097
150.519
568.552
1656.46
1248
334.904
207.436
158.542
121.564
147.637
71.108
59.8164
36.626
49.4814
80.028
90.7872
93.9545
73.169
90.9581
100.664
105.956
116.48
169
175.215
174.005
134.29
199.235
438.239
438.885
180.749
204.092
225.06
229.862
111.921
93.8719
117.363
64.355
42.1309
39.4431
32.5827
36.4321
51.6083
65.7241
50.3119
47.4586
87.8272
119.43
121.908
162.175
247.399
132.446
194.223
470.863
414.847
189.632
159.319
163.442
137.553
118.534
98.7772
82.9047
85.0193
60.4707
42.125
39.6981
40.6938
42.3106
46.4974
49.5989
51.1144
54.5448
82.162
114.142
162.405
195.303
419.869
185.609
460.193
372.874
160.706
204.382
184.947
157.96
112.042
82.5977
74.3454
68.1273
73.6443
66.3911
58.3578
48.2925
39.9239
47.2817
41.8294
52.9917
58.109
87.2111
99.7272
125.27
229.244
298.296
398.284
842.03
1135
362.646
157.89
183.615
162.237
153.193
142.202
113.122
91.1553
83.2916
65.7753
57.2383
64.5356
59.9534
54.2728
57.1395
44.8413
51.9602
46.4115
48.7658
70.6738
144.819
188.092
239.702
337.721
401.923
1127.66
364.809
151.299
168.075
155.031
141.293
119.992
93.514
79.1875
55.4421
55.0893
57.9814
55.2868
53.764
58.8558
65.0227
68.5001
82.8247
71.9417
57.0875
64.7628
86.039
146.057
227.281
364.988
424.456
1020.5
252.751
151.604
175.67
160.433
142.126
116.438
87.9795
68.6737
56.669
52.5895
34.481
43.6023
52.8513
57.2831
60.9781
64.9567
64.9101
66.3406
71.4044
95.8903
86.9513
114.752
151.397
244.724
306.098
1300.91
1230.42
273.979
147.531
150.68
156.912
142.726
105.316
79.0231
64.297
55.224
48.2297
45.1028
45.5539
45.86
48.8657
53.3019
58.0852
60.7166
57.3334
60.2221
62.631
86.9571
130.679
178.487
220.456
184.446
1508.75
406.763
157.89
177.955
156.476
139.302
80.9942
64.5958
56.2167
50.9309
47.5994
45.5522
44.4767
44.4749
44.9101
45.7758
47.8842
52.2072
57.0876
60.9009
61.5974
37.3896
78.598
157.085
197.132
183.361
432.969
448.587
190.155
152.767
147.351
130.851
80.4093
69.089
44.8772
39.0377
35.5942
38.593
43.8399
44.8702
44.8016
46.4008
48.7697
51.4664
53.2119
57.43
66.8508
84.6876
109.195
127.307
183.122
184.612
445.455
993.422
233.697
151.858
154.952
140.982
81.947
61.0671
46.8225
30.5254
18.207
15.1943
14.9482
17.6634
34.8833
43.5683
45.8332
49.1874
53.377
59.3636
69.4017
83.5149
123.381
144.307
161.589
151.094
389.294
397.644
154.307
151.24
140.759
106.166
83.259
41.5786
22.8448
15.3541
12.5275
10.2609
9.97696
12.2008
20.542
36.4068
44.3962
49.2993
54.0394
61.7986
75.6596
97.1267
125.262
174.886
222.685
273.317
449.848
175.215
192.925
162.257
133.033
77.0551
39.135
23.8569
7.42856
5.66903
7.19586
7.78546
6.22328
6.85864
10.2972
27.0278
41.7559
48.7424
57.0989
68.167
85.6957
119.391
142.832
161.214
166.032
812.236
935.94
222.05
152.085
163.111
140.072
100.23
70.4492
35.8616
8.12245
3.93836
3.02908
3.52727
4.62184
5.04919
4.54495
6.06719
14.9351
29.7769
45.5582
59.052
78.8654
111.901
142.77
154.428
143.671
384.519
940.905
235.915
152.911
158.802
139.474
112.262
69.1309
53.7107
36.231
10.1928
3.98721
3.17538
2.66319
2.75863
3.11846
4.03222
5.71242
12.8112
36.8072
51.0832
58.7657
102.354
133.625
166.248
202.97
240.073
1068.75
398.275
188.175
160.061
129.964
104.389
70.7062
56.8817
47.0346
25.2769
7.45517
3.71329
3.30113
3.50723
3.02242
2.89505
4.27848
9.07395
16.532
34.4953
54.8253
100.404
136.117
157.463
178.643
223.105
901.544
767.814
193.056
188.793
144.7
95.6911
61.7853
52.7674
44.7088
35.1401
17.5764
5.38219
3.96011
5.10794
8.27775
4.32848
3.34418
4.87197
17.188
38.1601
49.3231
63.8201
110.598
166.942
185.384
228.432
897.08
239.407
145.825
134.216
117.207
83.2644
37.2162
32.1367
31.7073
25.2334
12.1763
5.90727
4.23689
12.8209
19.9417
13.3146
4.55283
5.62959
21.3431
52.0728
69.93
104.363
145.298
166.034
213.179
902.361
778.055
159.414
140.985
126.708
100.385
64.4261
50.6791
17.5548
13.469
17.434
16.3819
16.4343
14.49
13.8761
21.9409
32.1005
15.0404
9.68361
29.4119
63.3123
93.7752
131.047
164.721
208.094
381.139
262.056
149.803
134.597
115.879
71.4912
50.7867
39.9211
29.6883
10.6615
7.73436
11.3275
16.1477
19.184
19.6448
23.0381
30.5002
40.3179
29.4327
43.7628
83.4916
117.661
162.417
189.64
233.39
934.355
943.885
205.018
143.631
122.103
91.5764
55.5449
42.5336
35.8991
27.3056
17.5086
12.9747
10.1117
13.9996
13.7293
12.3585
11.4906
20.4922
36.3144
50.21
63.8239
102.194
140.651
156.571
165.627
844.634
331.297
196.805
157.111
111.813
61.6641
47.4564
35.8576
27.2377
19.7384
12.1562
9.2202
11.791
12.5444
16.4829
15.6759
9.46302
11.2871
33.9181
51.8915
87.9784
126.554
157.705
190.816
252.743
1210.86
722.666
146.708
136.017
125.088
95.2319
39.2472
30.2556
24.783
14.748
7.68678
7.43033
5.43189
6.30164
12.2637
14.9048
19.9801
26.1279
33.9965
51.3037
56.9193
101.932
132.771
189.12
222.282
894.601
207.71
167.851
130.449
111.824
79.4284
50.7643
15.6996
7.76706
6.1883
5.23707
4.90712
5.52036
3.93574
7.07467
17.6726
25.5077
33.7101
46.0034
59.0941
89.4462
129.864
152.713
149.901
410.988
704.127
147.761
128.682
110.255
80.5208
57.8988
47.3603
30.8741
9.96135
3.70426
3.24748
3.00143
3.64627
4.38688
6.66389
13.9982
28.6372
37.8276
46.8997
61.4982
90.3282
127.567
184.6
224.935
1005.06
236.304
141.135
121.797
104.466
64.2685
47.3916
36.1209
27.2355
16.902
5.94861
3.27405
3.61604
3.34419
6.8406
10.5166
11.4611
27.7264
41.8113
51.7745
66.967
101.15
136.424
169.076
385.847
710.234
146.384
128.792
115.441
84.5253
57.7153
42.8615
30.4466
19.9627
11.6007
8.28647
6.85495
5.6027
7.97768
11.1283
14.0364
14.008
27.9926
46.8509
58.472
88.0559
119.541
134.029
164.801
876.001
232.919
135.541
118.355
101.32
67.7683
52.3074
39.0882
27.9404
18.3407
9.27239
4.48478
4.93537
7.46674
10.9743
16.5102
22.9482
28.7055
40.9569
55.0675
66.2135
106.766
137.667
162.963
248.946
723.315
145.422
124.143
106.241
80.2268
54.2649
44.6278
33.7282
26.1229
18.73
10.9565
5.9115
3.17515
3.77468
6.36903
16.1109
28.2253
37.9785
47.7212
60.3976
76.7383
132.644
144.457
159.65
837.589
237.578
131.711
113.619
93.894
59.6269
46.3695
36.1471
28.3829
22.1606
17.8201
14.0889
5.56774
3.08966
3.26637
5.14672
10.1099
26.4773
41.0071
52.7852
70.2295
108.742
135.29
200.774
249.005
203.604
158.223
114.162
85.3811
49.3548
38.1047
29.7616
23.2366
19.314
16.0846
12.3419
10.1205
4.64187
3.9553
5.86912
12.8139
25.0319
39.4156
54.7663
82.3344
125.221
152.365
141.929
707.675
755.449
142.849
124.895
101.613
63.8505
41.8499
32.1326
25.4479
20.6069
17.5851
16.397
14.4987
11.3145
10.0939
10.8261
13.7854
20.5695
30.7263
43.0524
54.826
82.7536
130.209
187.828
223.097
1001.63
716.572
156.45
122.339
96.4524
53.3852
35.5685
26.636
21.6445
18.3683
15.9882
14.819
14.7492
14.2125
13.4977
14.7477
19.1538
25.8652
35.0195
45.5818
59.4903
94.2008
123.597
193.859
658.578
349.735
150.375
118.698
94.6722
48.7463
26.1684
19.0865
16.7532
13.898
11.4507
11.1954
12.4696
13.7937
14.9315
16.9953
21.8876
30.3544
39.9931
50.8385
69.3259
110.435
139.667
175.665
792.093
203.655
160.651
121.275
90.0273
55.6653
29.2455
12.4176
10.5477
11.8887
9.10203
4.8461
6.4995
11.7729
14.7834
17.2451
21.9631
31.05
41.6797
55.3685
87.1679
115.088
165.264
233.323
728.013
169.996
140.386
110.376
72.0362
48.9072
34.3671
19.0627
10.2856
10.1534
10.1166
7.16131
4.80918
8.5522
15.3164
19.5866
22.9295
31.3539
42.3932
56.0975
92.3285
139.019
141.274
729.184
368.149
148.255
119.987
96.5995
61.7597
46.6114
31.4698
21.4568
14.2904
10.5534
10.8463
10.8845
9.39789
9.9297
14.9439
21.1757
26.4527
33.4305
45.268
61.3121
102.555
135.046
180.732
976.067
197.788
160.427
118.289
93.2918
56.5525
41.7383
29.8035
19.619
11.8378
6.93009
8.09723
10.5038
12.0446
13.17
15.1298
20.3902
27.6114
35.4404
45.5657
63.0965
107.854
144.087
222.775
754.951
144.583
123.328
103.576
72.0621
53.2616
38.7888
27.5662
18.2475
10.8946
5.29756
3.53244
6.4071
10.0415
13.0546
16.0396
20.3769
28.2493
37.5024
49.6712
82.5904
109.376
157.747
368.643
355.733
142.791
114.692
96.905
61.732
45.7604
35.6803
25.9893
16.5095
9.86878
5.57538
3.90698
3.23146
4.68017
9.53644
15.1423
20.6648
29.4787
39.6325
50.5428
91.076
133.886
137.754
703.728
243.555
124.35
103.59
86.5795
53.7434
40.3012
30.6495
23.2986
14.6991
6.19946
3.41846
3.07819
3.76739
3.41073
4.12346
11.2892
21.2291
30.3572
42.0678
58.3043
93.5627
141.934
185.247
986.87
206.412
155.908
106.628
75.6592
50.3606
36.7366
26.079
19.344
13.3517
6.46626
2.52341
1.89311
2.43329
3.72355
4.90269
8.78926
20.2755
31.7577
42.0174
57.8137
109.659
130.032
201.405
921.284
147.017
113.931
93.7076
59.635
45.2253
33.6954
22.9268
16.8626
13.1696
9.22202
4.82926
2.19893
1.67746
2.39961
5.30625
11.6283
22.3708
33.9827
45.1148
74.5115
105.338
163.935
357.343
735.004
138.881
122.006
95.3427
57.3896
43.6978
31.7723
22.3614
16.3778
13.7581
11.6035
7.98699
5.8897
3.46831
2.0138
3.26691
11.407
25.0003
36.5669
50.81
84.0769
131.207
141.597
748.744
678.7
151.473
120.415
96.2237
58.1099
43.3295
31.4815
23.1607
19.7342
16.2692
13.8164
10.8037
7.33302
5.10827
3.93762
3.34445
7.63987
23.331
38.3588
57.7005
107.03
123.426
196.152
247.025
129.826
109.981
89.3924
58.647
41.5711
30.1625
22.1079
18.8108
17.3825
15.16
11.7899
8.65161
4.1311
3.33108
5.16518
9.60955
22.837
39.3122
62.7499
116.291
159.458
245.57
239.445
125.369
104.487
88.6706
55.1104
39.6363
28.7258
22.019
17.9236
15.6783
14.8153
12.7517
9.16301
5.48862
2.90229
4.22555
11.3046
26.9741
43.8205
77.7369
116.236
175.127
662.151
210.406
162.004
110.573
74.2152
51.0348
36.9032
26.9362
21.4251
17.2307
13.6039
12.3282
13.1596
11.9576
9.85991
8.03812
7.03599
12.5535
26.8611
43.1852
80.4872
133.629
163.832
699.717
204.465
126.818
99.6996
63.5336
48.367
34.6678
24.1508
19.0797
15.2286
11.9166
6.25833
7.61216
12.379
13.2038
13.2518
14.3467
19.6177
31.3792
46.0492
88.5773
119.59
171.689
836.697
195.942
125.398
99.534
61.2616
48.0378
33.9327
22.7363
17.7011
14.9877
11.0484
7.19838
4.5467
7.09274
13.926
16.6395
18.7466
24.2899
36.059
49.484
88.9792
130.586
152.435
931.919
898.523
154.152
123.413
103.373
63.8143
48.4718
33.7888
22.3862
16.9732
14.6555
12.9363
10.6433
8.34193
7.68162
10.9672
16.0388
20.4704
26.589
37.2955
51.7457
84.3616
128.618
183.153
713.939
188.015
150.116
111.536
65.0516
49.1008
33.95
23.2607
17.9678
14.6597
12.6821
11.5679
10.9727
11.0864
12.0961
14.9363
19.8134
27.1693
38.544
53.9682
83.5848
133.59
188.674
698.614
155.868
122.292
102.51
63.4848
43.9904
32.1462
22.5682
18.145
16.1765
12.8266
10.1103
9.32284
10.2848
12.5276
15.5328
19.6409
27.6711
39.1411
57.1224
104.529
122.44
198.733
356.978
143.152
115.971
97.108
60.3138
41.8695
26.3056
17.1064
12.9634
11.4784
10.7895
7.43705
4.77292
5.8644
9.51108
14.0715
19.3103
28.0272
39.2002
55.9908
109.432
155.033
244.202
242.72
125.806
107.208
87.6323
57.0434
40.7087
26.4513
11.8718
6.17964
5.36309
4.52155
3.74402
2.14731
1.99112
4.01695
11.0259
18.7582
28.4766
40.9548
57.281
108.778
156.47
625.857
247.695
127.263
105.851
76.3174
49.5196
37.7762
26.6074
15.4665
7.17442
3.05604
1.67294
1.48959
1.56293
1.79029
2.65365
7.89072
18.2909
28.828
41.7181
59.9341
106.849
158.709
662.844
215.852
128.112
107.203
79.1925
47.0701
33.469
24.7587
17.2257
10.9654
7.18766
3.01915
1.2124
1.16064
1.45046
3.0473
8.63703
17.8826
29.6229
43.1265
74.8244
104.919
153.163
692.62
204.4
132.172
106.706
72.4481
46.2429
31.8667
22.5559
17.5084
13.2531
9.40671
5.71854
2.10369
1.19769
1.29593
2.42507
8.44038
19.0131
30.661
43.4248
79.3915
115.685
139.444
758.052
212.359
132.686
100.857
64.1787
40.7911
29.9921
21.6215
17.5422
14.1825
10.3421
7.08909
4.57654
2.04509
1.55398
2.44714
8.36554
19.5327
31.6997
43.6169
79.9507
119.037
179.352
947.187
203.39
131.676
98.6543
56.803
38.749
27.8166
20.0106
16.0038
13.3899
10.6325
5.6104
3.88073
3.84082
3.38077
4.11382
10.7307
21.6656
33.4449
44.5224
80.8541
122.818
192.71
895.752
150.514
116.976
86.6983
44.964
34.693
26.8621
20.2479
15.7006
12.5618
9.21863
5.44375
2.11559
2.45025
5.08625
8.44746
14.0976
24.3953
35.4935
47.8182
82.5024
127.59
196.691
706.707
193.398
130.971
63.7908
25.9018
18.9545
20.0069
18.6103
16.6509
13.8959
10.5732
7.16804
3.61721
1.99939
3.62933
10.1899
17.5377
27.1031
37.4776
50.1562
82.9523
128.52
200.847
707.679
153.126
111.82
71.3329
20.2749
7.07807
9.22621
13.225
14.5424
13.8836
10.8531
7.36535
4.82871
3.51933
3.48366
9.53363
19.3922
29.3704
41.1104
55.8358
96.4356
122.876
188.295
366.09
143.202
107.409
76.8164
39.3686
13.9199
9.52707
11.9206
13.1687
12.4787
10.1761
5.61824
2.705
3.12799
5.57938
10.7824
19.8869
30.2974
41.0858
60.3701
102.691
143.968
219.901
233.194
124.661
103.712
74.4944
42.2771
29.4393
13.3234