/*--------------------------------*- C++ -*----------------------------------*\
| =========                 |                                                 |
| \\      /  F ield         | OpenFOAM: The Open Source CFD Toolbox           |
|  \\    /   O peration     | Version:  2312                                  |
|   \\  /    A nd           | Website:  www.openfoam.com                      |
|    \\/     M anipulation  |                                                 |
\*---------------------------------------------------------------------------*/
FoamFile
{
    version     2.0;
    format      ascii;
    arch        "LSB;label=64;scalar=64";
    class       volScalarField;
    location    "60";
    object      p;
}
// * * * * * * * * * * * * * * * * * * * * * * * * * * * * * * * * * * * * * //

dimensions      [0 2 -2 0 0 0 0];

internalField   nonuniform List<scalar> 
404911
(
0.822495
0.822677
0.824021
0.826927
0.823157
0.82257
0.824339
0.825413
0.826202
0.826602
0.836551
0.831793
0.828765
0.826848
0.824837
0.825263
0.838102
0.835445
0.834088
0.832419
0.843123
0.840692
0.835483
0.849104
0.847028
0.839645
0.850207
0.849099
0.849765
0.856639
0.854731
0.851585
0.847746
0.849204
0.85969
0.857113
0.853502
0.877007
0.871726
0.868802
0.861346
0.883183
0.879312
0.875097
0.871926
0.867796
0.886294
0.882602
0.878447
0.875488
0.892508
0.889526
0.885276
0.884729
0.894282
0.892927
0.904149
0.819386
0.819992
0.819477
0.831929
0.830069
0.837394
0.835385
0.834097
0.843897
0.840569
0.837983
0.848251
0.847041
0.851001
0.848895
0.848204
0.855385
0.852514
0.84975
0.847807
0.862472
0.85911
0.871359
0.868063
0.878629
0.875376
0.871686
0.886142
0.882368
0.891559
0.889068
0.885445
0.89384
0.891657
0.903196
0.904744
0.903059
0.913429
0.910743
0.90785
0.918383
0.916094
0.912852
0.922812
0.920658
0.918812
0.92271
0.407018
0.403626
0.39918
0.42379
0.421445
0.41279
0.412587
0.408822
0.405543
0.40103
0.396509
0.434686
0.4309
0.422326
0.416502
0.413297
0.410888
0.407049
0.402405
0.38891
0.447022
0.443274
0.439809
0.436488
0.433494
0.430255
0.426049
0.42007
0.415837
0.412516
0.408831
0.403719
0.398365
0.393303
0.390133
0.387459
0.456494
0.45281
0.449103
0.445062
0.44128
0.43807
0.435198
0.431749
0.428557
0.424288
0.419145
0.415648
0.411923
0.40632
0.392072
0.467227
0.463407
0.459364
0.455156
0.451353
0.446791
0.442976
0.439754
0.436523
0.433522
0.43029
0.426554
0.422216
0.418016
0.414624
0.474839
0.470898
0.466085
0.461828
0.457841
0.453127
0.448275
0.445052
0.441179
0.437906
0.435132
0.432241
0.428603
0.424477
0.420584
0.416442
0.487306
0.482522
0.47832
0.473808
0.469642
0.464593
0.460403
0.45568
0.450339
0.446312
0.442642
0.439403
0.43659
0.433502
0.430134
0.425947
0.423222
0.499817
0.496633
0.492953
0.489837
0.485268
0.481345
0.476801
0.47164
0.468392
0.46386
0.45806
0.452327
0.448441
0.444843
0.441326
0.438324
0.435272
0.432255
0.507097
0.50304
0.498597
0.495287
0.492551
0.489642
0.484444
0.478236
0.474455
0.470528
0.466495
0.46092
0.454012
0.450767
0.44735
0.4439
0.4408
0.437336
0.516085
0.512763
0.508912
0.505996
0.501925
0.497885
0.495051
0.491503
0.486985
0.481942
0.476717
0.472599
0.468172
0.463983
0.457147
0.453606
0.449965
0.447345
0.524072
0.519515
0.51573
0.511267
0.508112
0.504323
0.500554
0.496881
0.493232
0.488969
0.48487
0.480804
0.475484
0.470856
0.467361
0.460602
0.454969
0.536189
0.531797
0.526315
0.521882
0.518268
0.513641
0.510084
0.507069
0.503131
0.499831
0.495583
0.491093
0.486793
0.482332
0.477935
0.473122
0.468949
0.545455
0.542343
0.538235
0.534835
0.530138
0.52529
0.520822
0.516467
0.512981
0.510439
0.50647
0.501734
0.497996
0.492763
0.489093
0.485083
0.480684
0.476245
0.555677
0.551115
0.547201
0.543287
0.539563
0.536891
0.532995
0.528417
0.524405
0.519673
0.516328
0.512773
0.508501
0.504224
0.49969
0.494876
0.491153
0.48863
0.563882
0.560936
0.557785
0.553602
0.551476
0.546325
0.542237
0.539099
0.535396
0.530467
0.526883
0.522893
0.519722
0.515317
0.509827
0.506093
0.50259
0.498394
0.5702
0.56616
0.562548
0.559127
0.556019
0.552821
0.548543
0.544551
0.541041
0.537766
0.532331
0.528344
0.525499
0.522057
0.518175
0.511993
0.509049
0.504139
0.57965
0.576622
0.572399
0.568181
0.564815
0.560745
0.557235
0.554465
0.550995
0.547551
0.543212
0.54037
0.535708
0.53104
0.527783
0.523838
0.519016
0.514169
0.585746
0.58252
0.578886
0.57589
0.571539
0.566798
0.563715
0.558868
0.555268
0.552557
0.549867
0.54684
0.542711
0.538196
0.533563
0.53005
0.526247
0.522195
0.594736
0.591441
0.587647
0.58434
0.581065
0.578595
0.574872
0.569928
0.56572
0.561109
0.556749
0.554477
0.551832
0.54889
0.545705
0.540529
0.536217
0.531042
0.601542
0.598072
0.594498
0.592157
0.588474
0.585071
0.581281
0.577433
0.573222
0.568316
0.564005
0.558384
0.55625
0.553216
0.550938
0.5476
0.543271
0.608726
0.606029
0.602618
0.600367
0.598049
0.595186
0.591404
0.588353
0.584671
0.580261
0.575735
0.571296
0.566234
0.560791
0.558289
0.55546
0.552891
0.548792
0.614967
0.611067
0.608194
0.604994
0.602245
0.600162
0.596878
0.593887
0.591182
0.587873
0.583735
0.578236
0.573398
0.568843
0.564515
0.560062
0.557503
0.555105
0.619583
0.616567
0.613435
0.610706
0.60698
0.604038
0.601545
0.599302
0.596145
0.593846
0.591495
0.587339
0.581785
0.576418
0.572227
0.569118
0.563598
0.559514
0.628567
0.624935
0.62152
0.618732
0.615807
0.613078
0.610458
0.606584
0.603172
0.600259
0.597736
0.595544
0.59271
0.589829
0.584394
0.580023
0.575112
0.571262
0.636033
0.633194
0.630161
0.627155
0.62423
0.621246
0.618201
0.615355
0.61257
0.609213
0.606141
0.603031
0.598501
0.596772
0.593945
0.591182
0.587022
0.582375
0.641543
0.638279
0.635005
0.632243
0.629409
0.62658
0.623738
0.620993
0.617313
0.613811
0.611082
0.60857
0.605364
0.600416
0.598261
0.595347
0.592438
0.588975
0.649074
0.646262
0.643252
0.6402
0.637235
0.634275
0.63153
0.628827
0.626051
0.623558
0.62005
0.616789
0.613664
0.610324
0.607821
0.603851
0.599832
0.597579
0.653696
0.651127
0.648214
0.645532
0.642411
0.639139
0.636185
0.63347
0.63069
0.62793
0.625164
0.622588
0.620276
0.617429
0.613601
0.611127
0.606879
0.603229
0.657391
0.655136
0.653037
0.650524
0.647665
0.644353
0.641097
0.638008
0.635255
0.632323
0.629463
0.626752
0.624133
0.621668
0.618952
0.615563
0.612447
0.608694
0.661419
0.659084
0.656759
0.654116
0.652506
0.649598
0.646096
0.642403
0.639818
0.63719
0.634251
0.631325
0.628455
0.625655
0.623119
0.620075
0.617301
0.613899
0.667479
0.66569
0.663809
0.661152
0.658873
0.655832
0.654395
0.651991
0.648874
0.644905
0.641899
0.639424
0.636445
0.633619
0.630662
0.627802
0.625043
0.621318
0.673952
0.670238
0.667218
0.665132
0.662997
0.660459
0.657877
0.656115
0.654188
0.651351
0.647607
0.644122
0.641758
0.638749
0.635966
0.63306
0.629911
0.627214
0.678386
0.676082
0.672812
0.669806
0.666901
0.664659
0.662286
0.659793
0.657816
0.655991
0.653325
0.649825
0.646531
0.643907
0.641139
0.638523
0.635177
0.632696
0.68299
0.680376
0.67796
0.675385
0.672719
0.669671
0.666368
0.663146
0.661264
0.65925
0.657447
0.654962
0.651906
0.648849
0.645921
0.643159
0.64065
0.691699
0.688417
0.68544
0.682623
0.68004
0.677596
0.675307
0.672866
0.669174
0.664881
0.662905
0.661067
0.659064
0.656647
0.653837
0.651149
0.648015
0.644836
0.697106
0.694162
0.691175
0.688076
0.684911
0.682028
0.679265
0.677311
0.675356
0.672039
0.666954
0.664678
0.663174
0.661046
0.658649
0.656013
0.652897
0.650813
0.701199
0.698505
0.696044
0.693456
0.690647
0.687807
0.684403
0.681874
0.679246
0.677293
0.674917
0.670863
0.666985
0.665466
0.663214
0.660875
0.658327
0.654915
0.708527
0.705799
0.703247
0.700571
0.698031
0.695436
0.692942
0.690839
0.687422
0.684214
0.681521
0.67929
0.677103
0.673842
0.669932
0.667913
0.665554
0.662915
0.712743
0.710176
0.70771
0.705277
0.702497
0.699815
0.697344
0.695064
0.693264
0.690175
0.687064
0.683525
0.68117
0.679316
0.676862
0.673481
0.670719
0.667635
0.717743
0.714935
0.712278
0.70999
0.707576
0.704794
0.701936
0.699456
0.69742
0.695771
0.693974
0.689982
0.686472
0.683053
0.68135
0.679041
0.675711
0.673272
0.722004
0.719858
0.71714
0.714617
0.712268
0.710045
0.707339
0.704209
0.70144
0.699503
0.697617
0.695793
0.692462
0.689096
0.685581
0.683558
0.681191
0.677889
0.726749
0.724842
0.721896
0.71934
0.716672
0.714307
0.712151
0.70937
0.706438
0.703638
0.700941
0.698907
0.697316
0.694828
0.691803
0.688959
0.68611
0.734307
0.73173
0.728999
0.726537
0.724041
0.721366
0.718789
0.716381
0.714184
0.711288
0.708894
0.706937
0.703578
0.701134
0.698607
0.696611
0.694359
0.691465
0.738094
0.735567
0.733584
0.731142
0.728754
0.726279
0.723315
0.720818
0.718315
0.716346
0.713463
0.711244
0.70936
0.706858
0.703608
0.700929
0.698119
0.696061
0.742618
0.740072
0.737618
0.735552
0.733234
0.731016
0.728692
0.726225
0.723
0.71959
0.717818
0.715317
0.712968
0.710955
0.708645
0.706236
0.703387
0.700438
0.746962
0.744562
0.742136
0.739729
0.737339
0.735064
0.73296
0.730815
0.728742
0.726572
0.72306
0.719491
0.717331
0.714871
0.712641
0.71038
0.707763
0.705255
0.751922
0.749154
0.746606
0.744273
0.74163
0.738842
0.736488
0.734432
0.732443
0.730581
0.728312
0.725351
0.722238
0.719636
0.717047
0.714533
0.712185
0.709283
0.756509
0.753765
0.751312
0.74901
0.746574
0.743824
0.740887
0.738315
0.736078
0.733899
0.732072
0.730107
0.727484
0.724752
0.721968
0.719265
0.71684
0.714245
0.760595
0.758347
0.755363
0.753372
0.751288
0.749014
0.7463
0.743509
0.740708
0.738153
0.735761
0.733588
0.731573
0.729268
0.726742
0.724142
0.721375
0.718594
0.765139
0.76292
0.760842
0.757415
0.754165
0.752928
0.75088
0.74823
0.745293
0.742476
0.739721
0.737696
0.735512
0.733348
0.731095
0.728626
0.726069
0.72405
0.772426
0.76991
0.767373
0.765333
0.763346
0.760795
0.756829
0.753764
0.752047
0.750195
0.748178
0.745551
0.742768
0.739746
0.737631
0.735412
0.733159
0.730446
0.728213
0.776759
0.77467
0.772074
0.769578
0.767462
0.76562
0.763494
0.760206
0.756675
0.754627
0.752259
0.750292
0.747772
0.744789
0.742003
0.739851
0.737604
0.735347
0.778915
0.7764
0.773963
0.77152
0.769486
0.767676
0.765745
0.763349
0.759461
0.756887
0.754729
0.752025
0.750005
0.747463
0.744538
0.742152
0.73971
0.786196
0.783893
0.781292
0.778651
0.775988
0.773333
0.771169
0.769451
0.767504
0.765107
0.761292
0.758812
0.756239
0.753553
0.751828
0.749554
0.746837
0.744269
0.79141
0.788551
0.786141
0.783563
0.780954
0.778261
0.77548
0.773231
0.771158
0.769124
0.766714
0.763153
0.760931
0.758019
0.755852
0.753747
0.751648
0.748598
0.794983
0.793693
0.791162
0.788513
0.785852
0.783282
0.78072
0.77791
0.774905
0.772629
0.770729
0.768551
0.765723
0.763553
0.760734
0.758173
0.75592
0.753874
0.797618
0.795517
0.793216
0.790639
0.788036
0.785609
0.783343
0.78122
0.777795
0.775139
0.772466
0.770393
0.768232
0.765667
0.763212
0.760672
0.758242
0.80284
0.799472
0.797204
0.795194
0.792728
0.790111
0.787758
0.785662
0.783583
0.779618
0.776861
0.774259
0.77218
0.769952
0.767587
0.765187
0.762733
0.810071
0.807492
0.804913
0.802282
0.799604
0.797317
0.79468
0.791966
0.789724
0.787666
0.785414
0.781856
0.778534
0.776428
0.774266
0.771985
0.769128
0.767263
0.814832
0.811697
0.809511
0.807505
0.80483
0.802068
0.799474
0.796914
0.79452
0.791731
0.78957
0.787381
0.784956
0.781567
0.778866
0.776491
0.774357
0.819615
0.816922
0.813793
0.811798
0.809322
0.806312
0.803684
0.801498
0.799087
0.797048
0.794472
0.791958
0.789404
0.787037
0.784131
0.78153
0.778597
0.827533
0.824843
0.82218
0.819473
0.816253
0.813717
0.811557
0.80902
0.805206
0.802656
0.800733
0.798749
0.796758
0.794648
0.791691
0.789257
0.786345
0.783849
0.83202
0.82956
0.8265
0.824366
0.821759
0.818725
0.81651
0.813966
0.811182
0.807403
0.805667
0.803184
0.800085
0.798323
0.796703
0.794326
0.791697
0.789051
0.83665
0.83417
0.831919
0.829209
0.826684
0.823708
0.820789
0.818523
0.816425
0.813297
0.810611
0.808196
0.80526
0.802499
0.799837
0.798339
0.796438
0.79409
0.8417
0.839152
0.836187
0.833695
0.831512
0.829169
0.825727
0.822373
0.820181
0.817746
0.815182
0.812785
0.810284
0.807523
0.804907
0.802287
0.800536
0.798362
0.849613
0.846621
0.843928
0.841526
0.838737
0.835806
0.833225
0.83124
0.828775
0.825005
0.821783
0.819529
0.81743
0.815065
0.812994
0.810638
0.807388
0.804008
0.802626
0.852974
0.851132
0.848661
0.846065
0.843625
0.840941
0.837886
0.835755
0.833572
0.831033
0.827589
0.824916
0.822598
0.820155
0.817774
0.815233
0.81302
0.809515
0.806868
0.855037
0.853299
0.850448
0.848189
0.846001
0.843349
0.840779
0.838169
0.835668
0.833151
0.829959
0.827382
0.825023
0.822454
0.819915
0.817388
0.814745
0.811356
0.861472
0.858485
0.855853
0.85275
0.850071
0.847695
0.845531
0.843581
0.840851
0.838013
0.835508
0.832619
0.830115
0.827593
0.824993
0.82209
0.819673
0.867336
0.864505
0.861302
0.858012
0.854392
0.851715
0.849348
0.847101
0.845255
0.842944
0.840153
0.837727
0.835022
0.832815
0.83026
0.82781
0.824336
0.873232
0.870882
0.868384
0.864396
0.860739
0.857227
0.854268
0.851135
0.849053
0.846922
0.844964
0.842634
0.840122
0.837612
0.83521
0.83263
0.830361
0.884668
0.880557
0.876401
0.872813
0.870777
0.867668
0.864019
0.860695
0.856937
0.854499
0.852106
0.849939
0.847152
0.844958
0.842585
0.840311
0.83764
0.835558
0.89114
0.888197
0.88447
0.880883
0.877642
0.874649
0.871309
0.868013
0.86436
0.860953
0.858383
0.85618
0.853625
0.851049
0.847591
0.845253
0.842771
0.896546
0.89382
0.891109
0.887924
0.885137
0.881918
0.878602
0.87522
0.87185
0.867924
0.864378
0.861301
0.859153
0.856594
0.853896
0.850814
0.84785
0.901726
0.899136
0.896613
0.894141
0.891235
0.888578
0.88545
0.882302
0.878933
0.875341
0.871586
0.867795
0.864787
0.861644
0.859154
0.856573
0.85329
0.907091
0.904548
0.901856
0.898702
0.896643
0.89392
0.891536
0.888813
0.885649
0.881706
0.877943
0.874169
0.870427
0.867241
0.864307
0.861675
0.859167
0.911804
0.909613
0.907021
0.904629
0.901708
0.89921
0.896487
0.89414
0.891224
0.887884
0.884644
0.881052
0.876743
0.873244
0.869882
0.866892
0.864262
0.916259
0.913468
0.91096
0.9085
0.906332
0.903422
0.900976
0.898865
0.896008
0.893327
0.889962
0.88658
0.883597
0.879834
0.876411
0.872651
0.86965
0.917428
0.91535
0.912736
0.910544
0.908142
0.905397
0.902913
0.901123
0.898153
0.894953
0.891803
0.88885
0.885901
0.88238
0.879381
0.875182
0.925669
0.922558
0.91851
0.915124
0.912731
0.910538
0.907853
0.905208
0.90288
0.900516
0.897272
0.894011
0.891399
0.888264
0.885106
0.935936
0.931069
0.930212
0.926525
0.922042
0.918658
0.91568
0.913399
0.910878
0.907436
0.904643
0.90214
0.89977
0.896664
0.89409
0.890646
0.942579
0.939629
0.93615
0.93272
0.92959
0.925016
0.921484
0.918616
0.915555
0.912908
0.910456
0.90669
0.903707
0.901937
0.899076
0.896518
0.950303
0.946447
0.942639
0.938637
0.935155
0.932505
0.928923
0.924584
0.921863
0.919173
0.916539
0.914123
0.910037
0.906639
0.904846
0.901614
0.963816
0.960271
0.955024
0.950115
0.946532
0.942944
0.939397
0.935815
0.932774
0.928175
0.925538
0.921989
0.918749
0.916435
0.913926
0.9105
0.970749
0.966053
0.962547
0.959551
0.955132
0.950079
0.946598
0.943344
0.939889
0.937356
0.934462
0.929254
0.925844
0.922244
0.919186
0.917491
0.980866
0.97611
0.971146
0.965971
0.962779
0.959216
0.954409
0.950054
0.946733
0.943902
0.941931
0.939492
0.935634
0.930105
0.926331
0.923526
0.990793
0.984751
0.979309
0.974449
0.970258
0.966433
0.962228
0.958045
0.954811
0.951326
0.947988
0.945213
0.942816
0.939441
0.935124
0.931351
0.999571
0.993959
0.988919
0.983972
0.979102
0.974044
0.971161
0.966861
0.962283
0.95872
0.955215
0.950906
0.94768
0.945918
0.94273
0.938599
1.00722
1.00209
0.997954
0.993537
0.987914
0.983629
0.97926
0.975629
0.971704
0.966977
0.962115
0.959376
0.955517
0.951224
0.948732
1.01364
1.0101
1.00594
1.00092
0.997323
0.992571
0.987851
0.983455
0.979782
0.97557
0.971705
0.96639
0.963612
0.958925
0.955229
0.95192
1.02013
1.01675
1.01313
1.00854
1.00387
0.999847
0.996013
0.991956
0.987391
0.983257
0.979231
0.975161
0.970414
0.966411
0.962156
0.95825
1.02649
1.02327
1.01982
1.01586
1.0114
1.00657
1.00219
0.998131
0.994962
0.990864
0.986459
0.982674
0.978621
0.974101
0.969584
1.0283
1.02573
1.02198
1.01859
1.0143
1.01028
1.00547
1.00102
0.997684
0.993974
0.989682
0.985728
0.98145
0.977773
1.03593
1.03148
1.0292
1.02552
1.02101
1.01714
1.01289
1.0084
1.00427
1.00099
0.996992
0.992619
0.989121
1.045
1.0418
1.03869
1.03542
1.03245
1.02862
1.0249
1.02023
1.0151
1.01136
1.00772
1.0042
1.00037
0.995365
1.0518
1.04801
1.04547
1.04195
1.0381
1.03519
1.03159
1.02813
1.02397
1.01851
1.01431
1.01099
1.00734
1.00386
1.06105
1.05627
1.05117
1.04726
1.04496
1.04161
1.03786
1.03432
1.03046
1.0269
1.02155
1.01776
1.01409
1.01112
1.06844
1.06487
1.06009
1.0553
1.0509
1.04742
1.04479
1.04083
1.03753
1.0337
1.03
1.02543
1.02105
1.01676
1.07648
1.07223
1.06818
1.06467
1.05961
1.05494
1.05073
1.04748
1.04479
1.04
1.03703
1.03316
1.02914
1.02415
1.08379
1.07924
1.07507
1.07116
1.06779
1.06303
1.05826
1.05458
1.0506
1.04789
1.04233
1.04005
1.03674
1.0735
1.07004
1.06705
1.06178
1.05848
1.05558
1.05137
1.04543
1.04184
1.07571
1.07162
1.06887
1.06483
1.06185
1.05743
1.05423
1.04985
1.08281
1.07712
1.074
1.07045
1.06655
1.06327
1.06001
1.09352
1.08819
1.08201
1.07698
1.07254
1.06992
1.06632
1.09092
1.08594
1.08045
1.07547
1.07269
1.10514
1.09891
1.09176
1.08895
1.08388
1.07893
1.13101
1.12997
1.11626
1.10979
1.09017
1.13448
1.13219
1.12937
1.12612
1.12189
1.09963
1.14446
1.12864
1.1243
1.12038
1.11573
1.15257
1.14012
1.12932
0.161967
0.156981
0.152129
0.191204
0.186388
0.181259
0.17721
0.171598
0.165193
0.158735
0.152883
0.128779
0.213388
0.210463
0.202601
0.197929
0.192432
0.188291
0.184969
0.179528
0.173127
0.16691
0.160526
0.153977
0.148256
0.140897
0.133489
0.232083
0.22634
0.221042
0.215139
0.211245
0.204797
0.19904
0.19411
0.190087
0.187055
0.181623
0.173945
0.167545
0.160971
0.154582
0.149045
0.14207
0.13519
0.127447
0.113579
0.0986078
0.0892749
0.256714
0.252086
0.243348
0.235764
0.228397
0.222442
0.217637
0.212729
0.207347
0.201134
0.195451
0.191347
0.187831
0.182938
0.174148
0.170814
0.161587
0.156112
0.150298
0.143943
0.136639
0.128432
0.117388
0.285723
0.276144
0.270012
0.261046
0.253997
0.246732
0.239093
0.231822
0.225892
0.220662
0.215743
0.209909
0.203194
0.197555
0.193227
0.189841
0.184414
0.179381
0.167178
0.160577
0.15675
0.151213
0.144797
0.137272
0.131364
0.301449
0.294614
0.289052
0.281779
0.275093
0.263138
0.256487
0.25014
0.243154
0.237371
0.229452
0.223287
0.217819
0.212612
0.207647
0.201211
0.196205
0.192207
0.186362
0.180595
0.167743
0.161955
0.157241
0.151767
0.146793
0.31476
0.307423
0.301894
0.297725
0.291469
0.285106
0.277772
0.270353
0.262297
0.254233
0.246249
0.237018
0.233116
0.225592
0.218976
0.216286
0.20926
0.204941
0.198883
0.194367
0.188511
0.182217
0.172362
0.165221
0.158827
0.329123
0.323008
0.316522
0.308353
0.302391
0.298807
0.294668
0.289078
0.28004
0.274716
0.267416
0.259114
0.251551
0.240274
0.234152
0.229519
0.221358
0.220494
0.21048
0.206855
0.201195
0.196099
0.190606
0.183677
0.176892
0.34976
0.341698
0.338178
0.332614
0.326557
0.319585
0.31161
0.304936
0.300676
0.296643
0.292303
0.282745
0.278164
0.272708
0.265671
0.256955
0.246455
0.236676
0.229129
0.223062
0.218072
0.215275
0.209178
0.20395
0.198585
0.191203
0.368157
0.363546
0.35783
0.350419
0.345115
0.341467
0.336224
0.328653
0.321714
0.314847
0.308788
0.302149
0.2967
0.291635
0.286267
0.280838
0.275241
0.269687
0.262972
0.252667
0.24238
0.234653
0.227939
0.221663
0.217279
0.211858
0.205803
0.373615
0.368476
0.364876
0.360661
0.355283
0.349579
0.342768
0.338591
0.332588
0.325332
0.318181
0.311659
0.305482
0.299631
0.292162
0.288598
0.282998
0.277738
0.272617
0.267549
0.258666
0.2442
0.240211
0.233442
0.225055
0.391254
0.387554
0.381775
0.376456
0.370782
0.36539
0.363342
0.358256
0.352244
0.347196
0.342235
0.336763
0.330871
0.322835
0.315309
0.307615
0.301208
0.29336
0.290249
0.284845
0.279517
0.275093
0.269607
0.260054
0.251479
0.398468
0.393463
0.389529
0.385439
0.380088
0.375404
0.369209
0.365091
0.360734
0.355377
0.350638
0.346664
0.34039
0.334212
0.327548
0.319108
0.311312
0.304119
0.295489
0.291774
0.287029
0.281765
0.27643
0.271635
0.412326
0.409848
0.404133
0.40221
0.396262
0.391896
0.388115
0.38333
0.377483
0.372225
0.367606
0.363059
0.358877
0.352621
0.34907
0.343383
0.337501
0.330625
0.322842
0.316248
0.307755
0.300452
0.294989
0.288929
0.283058
0.424696
0.419299
0.414323
0.411333
0.408549
0.404733
0.399469
0.39499
0.390747
0.385447
0.379712
0.374761
0.370224
0.365312
0.361741
0.357322
0.351602
0.346917
0.340973
0.332658
0.326107
0.320014
0.309875
0.304819
0.297911
0.434294
0.429967
0.426577
0.422123
0.4171
0.4131
0.410337
0.406793
0.402219
0.396841
0.392764
0.387576
0.381912
0.377268
0.372217
0.368004
0.363537
0.358638
0.354405
0.349997
0.344015
0.336318
0.330794
0.324627
0.314361
0.447335
0.444225
0.440144
0.436197
0.432206
0.428868
0.424089
0.419488
0.41487
0.412219
0.409234
0.405394
0.399736
0.394361
0.38947
0.384834
0.38033
0.374803
0.370922
0.366416
0.359367
0.356331
0.352466
0.346898
0.34061
0.334424
0.457182
0.455371
0.449865
0.445526
0.441832
0.438155
0.434422
0.430973
0.42671
0.421853
0.417476
0.413854
0.411205
0.407419
0.401788
0.395539
0.391317
0.387284
0.383748
0.378613
0.374672
0.371031
0.3638
0.358394
0.354008
0.347869
0.470054
0.464254
0.45927
0.455188
0.451201
0.447118
0.443165
0.440184
0.436752
0.433593
0.429647
0.425135
0.420764
0.416584
0.413282
0.409281
0.403839
0.398391
0.394037
0.389698
0.385965
0.380682
0.376366
0.372754
0.366158
0.360488
0.355954
0.477664
0.474929
0.470295
0.465734
0.461539
0.457038
0.452548
0.448734
0.445099
0.441824
0.43866
0.435527
0.431834
0.427715
0.423732
0.419676
0.415765
0.411434
0.406411
0.401627
0.396555
0.391801
0.387538
0.382352
0.377709
0.373542
0.367669
0.485977
0.480734
0.476392
0.472116
0.468
0.463632
0.459001
0.454848
0.450969
0.447062
0.443447
0.440138
0.436985
0.433582
0.430042
0.426274
0.42224
0.4182
0.413474
0.40963
0.404682
0.399571
0.394096
0.389103
0.383781
0.378725
0.497388
0.492064
0.487346
0.483224
0.478912
0.474696
0.470342
0.465727
0.461269
0.456946
0.452707
0.448855
0.445195
0.441612
0.438361
0.435265
0.432082
0.428556
0.424444
0.420253
0.416
0.41174
0.407784
0.402834
0.396472
0.391119
0.505714
0.502791
0.498443
0.494503
0.490637
0.486007
0.481645
0.477582
0.47346
0.468901
0.464135
0.459458
0.45436
0.450435
0.446785
0.44322
0.439905
0.436827
0.433592
0.430149
0.425995
0.421986
0.417629
0.413771
0.409078
0.403935
0.512025
0.508279
0.504442
0.500526
0.496381
0.492883
0.488609
0.484504
0.480349
0.475908
0.471557
0.467024
0.462004
0.4562
0.451996
0.448476
0.445117
0.441698
0.438532
0.43529
0.431904
0.427601
0.423883
0.419413
0.415305
0.5236
0.519014
0.514381
0.510341
0.506955
0.503126
0.498937
0.495376
0.491487
0.487308
0.482985
0.478439
0.474121
0.469488
0.464429
0.458696
0.454306
0.4507
0.44739
0.444127
0.440713
0.437386
0.434032
0.429879
0.425685
0.422264
0.534985
0.531016
0.526141
0.52168
0.517112
0.513063
0.50959
0.506118
0.501864
0.497887
0.494226
0.490035
0.485631
0.481072
0.476854
0.472258
0.467867
0.462499
0.457476
0.453313
0.449988
0.446766
0.443084
0.439807
0.436175
0.432743
0.544926
0.541174
0.536756
0.53294
0.528699
0.524307
0.519779
0.515912
0.512321
0.508779
0.504385
0.500599
0.496627
0.49266
0.488369
0.48388
0.479572
0.474905
0.470849
0.466304
0.460581
0.456903
0.452657
0.449022
0.445412
0.442257
0.438202
0.550817
0.546643
0.543202
0.539154
0.535355
0.531291
0.526898
0.522616
0.518708
0.514785
0.510887
0.507009
0.503394
0.499183
0.494952
0.490655
0.486458
0.482059
0.477486
0.473417
0.469112
0.464078
0.459977
0.455784
0.451979
0.448321
0.560707
0.557262
0.553545
0.549362
0.545164
0.541371
0.537952
0.533849
0.529548
0.52558
0.521359
0.517279
0.514019
0.510825
0.506569
0.501536
0.496775
0.492507
0.488971
0.485094
0.480435
0.476088
0.472211
0.467507
0.462624
0.458487
0.565274
0.562066
0.558926
0.55591
0.552035
0.547617
0.543504
0.540131
0.536222
0.532236
0.528403
0.523982
0.519855
0.516943
0.513637
0.508545
0.503543
0.498949
0.49497
0.491704
0.488002
0.482998
0.478917
0.474977
0.469293
0.574468
0.570784
0.567329
0.56394
0.560625
0.557751
0.554474
0.550853
0.545601
0.542495
0.538725
0.534876
0.530852
0.526612
0.52268
0.519393
0.515836
0.509926
0.505613
0.502034
0.497804
0.494131
0.490184
0.485762
0.480861
0.580353
0.57631
0.572946
0.569598
0.566201
0.56273
0.559488
0.556115
0.552906
0.547784
0.544178
0.540953
0.537003
0.532589
0.528735
0.525411
0.522094
0.517644
0.512053
0.508588
0.504484
0.500695
0.496626
0.492139
0.488182
0.589341
0.586469
0.582667
0.579014
0.57556
0.572165
0.568669
0.565115
0.561453
0.557728
0.554476
0.550611
0.546902
0.5433
0.539492
0.535062
0.530707
0.527581
0.524057
0.519791
0.514265
0.510667
0.506649
0.502739
0.499184
0.596264
0.592561
0.589019
0.585345
0.581516
0.578134
0.574703
0.571124
0.56744
0.563527
0.55919
0.555649
0.552608
0.549529
0.546101
0.542447
0.537718
0.532979
0.529233
0.525726
0.522624
0.517644
0.513076
0.509132
0.504301
0.604801
0.601523
0.598215
0.595247
0.592049
0.588018
0.583972
0.580489
0.577282
0.573578
0.569567
0.565776
0.561173
0.557509
0.55456
0.551471
0.54812
0.544682
0.540768
0.536165
0.531723
0.527822
0.524901
0.520177
0.515282
0.610188
0.606903
0.603514
0.600491
0.597923
0.595196
0.591907
0.587304
0.583553
0.580291
0.577018
0.572871
0.56836
0.56351
0.559651
0.556638
0.553329
0.55028
0.546948
0.543114
0.539644
0.534787
0.530599
0.525219
0.618886
0.615385
0.612363
0.60912
0.605733
0.602541
0.600055
0.597672
0.59488
0.591179
0.587382
0.58349
0.579643
0.575593
0.570545
0.565797
0.562113
0.558815
0.555438
0.552437
0.548962
0.545098
0.541863
0.537713
0.533248
0.623727
0.620296
0.617354
0.61448
0.611298
0.608063
0.605053
0.602302
0.599853
0.597172
0.594038
0.590846
0.586968
0.582643
0.578684
0.573266
0.568669
0.564817
0.561225
0.557781
0.554594
0.551416
0.547557
0.543372
0.632374
0.628901
0.625839
0.622697
0.619516
0.616579
0.613535
0.610476
0.607361
0.604275
0.601427
0.599008
0.596349
0.593603
0.590288
0.58598
0.581336
0.576527
0.572019
0.567828
0.563967
0.560316
0.557058
0.55341
0.549866
0.637173
0.634049
0.630985
0.627922
0.624881
0.621787
0.618789
0.615843
0.612989
0.610057
0.606458
0.603069
0.600374
0.597918
0.595364
0.592192
0.588066
0.58384
0.579574
0.575189
0.570697
0.56685
0.562918
0.55944
0.645226
0.641932
0.63902
0.636034
0.633144
0.630058
0.627157
0.624213
0.621243
0.618268
0.615378
0.61247
0.609225
0.605915
0.602343
0.599482
0.597069
0.594045
0.5905
0.58664
0.582083
0.578039
0.573666
0.569503
0.566245
0.649119
0.646555
0.643846
0.641073
0.638155
0.635214
0.632301
0.629427
0.626536
0.623636
0.620751
0.617528
0.6141
0.611231
0.608304
0.604685
0.601606
0.598957
0.595903
0.592606
0.588883
0.584753
0.580904
0.576371
0.653737
0.651493
0.648749
0.646111
0.643162
0.640261
0.637313
0.634427
0.631566
0.628744
0.625959
0.623303
0.620232
0.61701
0.613845
0.610476
0.607223
0.604098
0.600833
0.597603
0.594594
0.590674
0.587136
0.583784
0.659916
0.657943
0.655672
0.653334
0.650838
0.648193
0.645393
0.642432
0.639368
0.636406
0.633555
0.630753
0.627981
0.625192
0.622365
0.619588
0.616371
0.612889
0.609772
0.606526
0.60286
0.599558
0.59686
0.592726
0.588924
0.664548
0.661879
0.659706
0.657357
0.655188
0.652817
0.650271
0.647492
0.644467
0.641279
0.638224
0.635384
0.632579
0.629741
0.626864
0.623993
0.621211
0.618255
0.61507
0.611797
0.608697
0.605407
0.602154
0.599694
0.670134
0.666427
0.664048
0.661763
0.65936
0.657029
0.654603
0.652215
0.649493
0.646311
0.642934
0.63997
0.637263
0.634479
0.631582
0.628611
0.625711
0.622962
0.620074
0.617057
0.614224
0.610844
0.608211
0.603636
0.674157
0.671604
0.668346
0.665505
0.663415
0.661216
0.658813
0.656243
0.654107
0.651683
0.648543
0.644709
0.641941
0.639372
0.636589
0.633721
0.630789
0.627792
0.624902
0.622032
0.619068
0.616431
0.613024
0.681517
0.678897
0.67637
0.673606
0.670514
0.667513
0.665116
0.662945
0.660447
0.658001
0.655982
0.653845
0.651177
0.647281
0.644241
0.64165
0.638823
0.636073
0.633153
0.630095
0.626975
0.624321
0.620987
0.618019
0.687253
0.684009
0.681093
0.678262
0.675715
0.672889
0.669961
0.667222
0.66468
0.66211
0.659759
0.657739
0.655658
0.653044
0.649713
0.646639
0.643822
0.641058
0.638294
0.635408
0.632573
0.629261
0.626976
0.62271
0.692337
0.689342
0.686428
0.683481
0.680614
0.677976
0.675321
0.672562
0.669666
0.666549
0.663673
0.661446
0.659392
0.65724
0.654675
0.651705
0.648807
0.645954
0.643189
0.640317
0.637519
0.634805
0.631535
0.699874
0.69691
0.694491
0.691623
0.688517
0.685647
0.682825
0.680161
0.677596
0.675159
0.672591
0.668939
0.665346
0.663188
0.661225
0.659022
0.656479
0.653747
0.650932
0.648145
0.645488
0.642598
0.639901
0.636107
0.704982
0.701686
0.69889
0.696462
0.693841
0.690973
0.688066
0.685145
0.682306
0.679662
0.677372
0.675148
0.671917
0.667469
0.665135
0.663324
0.661095
0.658539
0.655916
0.653017
0.650242
0.647782
0.644659
0.642671
0.708412
0.706119
0.703756
0.701127
0.698589
0.696012
0.693264
0.690527
0.687737
0.684737
0.681901
0.679428
0.677396
0.674862
0.670873
0.667798
0.665729
0.663384
0.660694
0.658122
0.655214
0.65243
0.650057
0.646422
0.713601
0.71101
0.708249
0.70555
0.703169
0.700686
0.698099
0.695415
0.692907
0.69059
0.687545
0.68444
0.68145
0.67936
0.677069
0.673912
0.670691
0.668195
0.665697
0.662815
0.660167
0.657311
0.654716
0.719401
0.718024
0.715622
0.713049
0.710331
0.707714
0.705267
0.7027
0.700051
0.697486
0.695197
0.693201
0.690471
0.687104
0.683852
0.681397
0.679219
0.676549
0.673558
0.670749
0.668135
0.665209
0.662511
0.659395
0.725551
0.722185
0.720086
0.717802
0.715192
0.71248
0.70993
0.707488
0.704843
0.70214
0.699639
0.697447
0.695693
0.693802
0.689912
0.686405
0.683704
0.68149
0.679009
0.676147
0.673178
0.670598
0.667404
0.664689
0.730175
0.727061
0.724562
0.722179
0.719803
0.717215
0.714602
0.712152
0.709753
0.707109
0.704343
0.701746
0.699386
0.697442
0.695757
0.692291
0.688945
0.686226
0.683764
0.681195
0.678524
0.675501
0.672789
0.734342
0.731838
0.729205
0.726592
0.724362
0.72188
0.719254
0.716664
0.714246
0.711861
0.709236
0.706541
0.703932
0.701076
0.6988
0.697061
0.694411
0.69155
0.688863
0.686091
0.683442
0.680871
0.677529
0.738368
0.736038
0.733635
0.731378
0.728922
0.726506
0.72398
0.721346
0.71873
0.71624
0.713853
0.711283
0.70888
0.706823
0.703879
0.701118
0.698855
0.696432
0.693857
0.691337
0.688398