/*--------------------------------*- C++ -*----------------------------------*\
| =========                 |                                                 |
| \\      /  F ield         | OpenFOAM: The Open Source CFD Toolbox           |
|  \\    /   O peration     | Version:  2312                                  |
|   \\  /    A nd           | Website:  www.openfoam.com                      |
|    \\/     M anipulation  |                                                 |
\*---------------------------------------------------------------------------*/
FoamFile
{
    version     2.0;
    format      ascii;
    arch        "LSB;label=64;scalar=64";
    class       volScalarField;
    location    "120";
    object      nut_ML_ND;
}
// * * * * * * * * * * * * * * * * * * * * * * * * * * * * * * * * * * * * * //

dimensions      [0 0 0 0 0 0 0];

internalField   nonuniform List<scalar> 
404911
(
0.396402
0.52885
0.379124
0.0738975
0.549897
0.553721
0.54248
0.375769
0.357144
0.15306
0.546619
0.53518
0.577934
0.533252
0.526056
0.327761
0.53168
0.577393
0.563261
0.51979
0.48819
0.566079
0.466628
0.501162
0.578908
0.492814
0.557106
0.588525
0.58656
0.351653
0.56228
0.582394
0.565015
0.540012
0.545579
0.57449
0.541399
0.379373
0.53412
0.570645
0.544093
0.269848
0.529832
0.573358
0.57167
0.50858
0.497247
0.564117
0.560616
0.486491
0.353381
0.523381
0.535044
0.321458
0.352252
0.331686
0.0738971
0.559068
0.524148
0.522425
0.544611
0.575101
0.54434
0.583303
0.578357
0.568851
0.578669
0.537741
0.576056
0.580504
0.573924
0.586386
0.571486
0.57939
0.585775
0.531055
0.291129
0.550356
0.58158
0.572128
0.57936
0.573244
0.586033
0.572607
0.578196
0.57901
0.53337
0.580974
0.344188
0.573361
0.543619
0.0626059
0.578478
0.551473
0.561031
0.578814
0.573675
0.571554
0.582941
0.544356
0.499795
0.581306
0.57246
0.492397
0.514192
0.523589
0.546667
0.526432
0.552726
0.568763
0.568012
0.561133
0.559209
0.553624
0.130112
0.533186
0.56678
0.190367
0.526466
0.56427
0.567534
0.567471
0.563416
0.538369
0.51246
0.55457
0.566262
0.565205
0.565163
0.529148
0.533094
0.534076
0.573125
0.577255
0.571865
0.567234
0.55347
0.553771
0.554097
0.525381
0.516009
0.554667
0.56776
0.566219
0.561314
0.563211
0.568946
0.573183
0.525579
0.53054
0.574658
0.575516
0.566216
0.36971
0.533071
0.516136
0.563105
0.573163
0.571585
0.567601
0.565211
0.565856
0.566186
0.567068
0.567758
0.568247
0.56743
0.564941
0.5589
0.542267
0.547523
0.533771
0.537093
0.533999
0.533787
0.533321
0.513348
0.570105
0.566673
0.566394
0.565943
0.56328
0.560568
0.557391
0.556794
0.555286
0.563829
0.527963
0.542381
0.535089
0.520402
0.531275
0.539477
0.532814
0.528616
0.571818
0.56727
0.566007
0.562876
0.561442
0.562984
0.559842
0.51104
0.516402
0.565716
0.539184
0.550271
0.548971
0.5479
0.524159
0.517718
0.539537
0.535441
0.5374
0.530125
0.569757
0.565673
0.563035
0.565521
0.56359
0.534857
0.519913
0.529273
0.555808
0.5628
0.575475
0.567192
0.53738
0.535993
0.553059
0.53686
0.545267
0.557973
0.572819
0.567293
0.562765
0.562703
0.550686
0.511882
0.510028
0.549595
0.574657
0.567311
0.574793
0.577389
0.573944
0.57492
0.566399
0.540616
0.551932
0.573851
0.574666
0.549729
0.526115
0.568139
0.563606
0.513474
0.529317
0.564958
0.573616
0.560013
0.576207
0.577949
0.579083
0.579905
0.579831
0.577211
0.577312
0.576366
0.549317
0.533317
0.533815
0.532325
0.538751
0.533043
0.559914
0.56573
0.540718
0.574171
0.577318
0.577935
0.577737
0.576087
0.579347
0.57925
0.578997
0.559015
0.52661
0.528741
0.533042
0.471515
0.546419
0.573079
0.569822
0.571541
0.573917
0.575034
0.579839
0.579164
0.576631
0.568824
0.56916
0.574746
0.578954
0.563851
0.535911
0.533325
0.556316
0.514654
0.513538
0.514186
0.551679
0.568896
0.578264
0.581064
0.578579
0.574835
0.578247
0.577732
0.575652
0.573953
0.576256
0.577814
0.575715
0.541139
0.568097
0.527101
0.512621
0.559334
0.574801
0.568174
0.574962
0.573746
0.567429
0.581932
0.57655
0.574393
0.573249
0.578234
0.579743
0.575373
0.578836
0.576973
0.542586
0.554755
0.532391
0.571715
0.576871
0.578416
0.578352
0.57326
0.575508
0.57689
0.583005
0.580318
0.583947
0.585081
0.580569
0.574232
0.57097
0.564942
0.566959
0.511079
0.5114
0.555303
0.570866
0.575766
0.581735
0.583829
0.581701
0.579228
0.582434
0.581374
0.583009
0.579025
0.581977
0.578589
0.571671
0.570892
0.532326
0.510829
0.552896
0.577634
0.572484
0.568832
0.577305
0.579714
0.581099
0.583987
0.586829
0.58599
0.582809
0.582104
0.579189
0.576285
0.574593
0.573417
0.550186
0.518411
0.508739
0.515193
0.549806
0.575689
0.569357
0.582107
0.580907
0.581817
0.585199
0.586691
0.586742
0.585685
0.581358
0.576852
0.571149
0.570011
0.571902
0.535133
0.544374
0.580886
0.57596
0.577805
0.580138
0.582976
0.582926
0.581963
0.584514
0.581712
0.583801
0.58476
0.583124
0.578546
0.577211
0.573338
0.547619
0.517912
0.578312
0.584596
0.577497
0.579194
0.579839
0.58342
0.584903
0.581299
0.577577
0.578862
0.57906
0.581423
0.579374
0.579625
0.572314
0.573238
0.546712
0.544191
0.583697
0.57884
0.579835
0.58099
0.581791
0.581741
0.584417
0.584403
0.580104
0.578042
0.579905
0.582029
0.577743
0.57829
0.574417
0.571725
0.513503
0.566875
0.583988
0.583765
0.583455
0.583829
0.584697
0.583593
0.576553
0.585598
0.585817
0.582479
0.58201
0.579058
0.57654
0.573845
0.572253
0.55268
0.511387
0.536753
0.576092
0.581307
0.582552
0.58313
0.583511
0.583195
0.584979
0.585078
0.58459
0.585536
0.583293
0.58073
0.57629
0.567648
0.575943
0.565302
0.51407
0.510286
0.563614
0.580218
0.576412
0.580965
0.583064
0.58434
0.585487
0.586078
0.585122
0.586181
0.584325
0.580283
0.579984
0.57743
0.575139
0.568043
0.542894
0.533761
0.575346
0.579003
0.581538
0.582722
0.583526
0.583603
0.585122
0.583179
0.586076
0.586141
0.586075
0.581679
0.579201
0.575747
0.572824
0.566723
0.511301
0.50376
0.561255
0.579575
0.580374
0.582352
0.583609
0.583954
0.584284
0.583821
0.584884
0.583963
0.585171
0.584735
0.583861
0.57971
0.577841
0.570255
0.552583
0.512361
0.578912
0.580242
0.580567
0.582626
0.584132
0.584459
0.584674
0.584816
0.584794
0.583766
0.585074
0.584692
0.583324
0.580406
0.574313
0.565567
0.542723
0.566462
0.586365
0.581534
0.580164
0.58233
0.584414
0.58505
0.584929
0.585085
0.585123
0.585121
0.584762
0.583736
0.581886
0.578413
0.576383
0.570503
0.531166
0.572277
0.586037
0.585793
0.583314
0.583301
0.584833
0.585473
0.585747
0.585799
0.585851
0.585863
0.585209
0.584105
0.581239
0.578198
0.575761
0.556745
0.5129
0.51085
0.580046
0.587434
0.585812
0.584194
0.584725
0.585048
0.585733
0.584985
0.585596
0.58611
0.585281
0.584917
0.583737
0.581046
0.573845
0.570429
0.536966
0.517174
0.581445
0.584835
0.584913
0.584099
0.583755
0.585322
0.585529
0.585892
0.585337
0.586108
0.586304
0.584812
0.582078
0.579694
0.573879
0.568487
0.511544
0.56018
0.582402
0.582652
0.583366
0.584368
0.584803
0.585747
0.586045
0.584971
0.584702
0.585338
0.585834
0.5849
0.581943
0.57541
0.575141
0.565957
0.508175
0.562824
0.582646
0.583723
0.583152
0.583663
0.583291
0.584289
0.58639
0.586104
0.585308
0.585444
0.58408
0.583514
0.580988
0.576745
0.572912
0.548273
0.511355
0.574285
0.582323
0.582679
0.583562
0.583958
0.584172
0.584173
0.585637
0.586252
0.586412
0.585772
0.583988
0.582327
0.579095
0.570451
0.568077
0.534431
0.539926
0.580967
0.579468
0.579793
0.583301
0.585198
0.585536
0.585944
0.584518
0.585608
0.585933
0.586318
0.584332
0.583007
0.579534
0.569654
0.56271
0.495949
0.559748
0.583332
0.584133
0.583394
0.584173
0.585446
0.584815
0.585616
0.584835
0.586009
0.585589
0.586073
0.585432
0.582929
0.579832
0.570675
0.55055
0.449701
0.5108
0.575913
0.583972
0.583109
0.583357
0.584413
0.585015
0.584834
0.585927
0.585961
0.585638
0.585874
0.585497
0.585119
0.58388
0.578204
0.571837
0.54643
0.510738
0.578976
0.584145
0.583698
0.583296
0.584587
0.586008
0.585587
0.584742
0.585484
0.585969
0.586041
0.585865
0.584784
0.582224
0.577007
0.567545
0.533857
0.511336
0.580945
0.584556
0.58388
0.583008
0.584553
0.586353
0.586556
0.585521
0.586025
0.585148
0.585757
0.585838
0.585497
0.581471
0.57333
0.564286
0.462876
0.510745
0.581644
0.584441
0.583569
0.583028
0.583425
0.585682
0.58646
0.58651
0.586137
0.585985
0.585829
0.585869
0.585211
0.58104
0.573226
0.550561
0.433798
0.56439
0.584758
0.583052
0.582145
0.583237
0.58456
0.58527
0.585618
0.585262
0.586182
0.585644
0.585724
0.585839
0.582345
0.579856
0.570183
0.546655
0.509109
0.569708
0.586778
0.584798
0.582018
0.583072
0.585686
0.586323
0.586021
0.585903
0.585528
0.585872
0.585766
0.585825
0.584077
0.580542
0.571675
0.549427
0.510934
0.581193
0.585022
0.582678
0.581996
0.582491
0.585611
0.586595
0.586661
0.585978
0.584186
0.583773
0.584022
0.584071
0.583089
0.578882
0.575122
0.550324
0.514503
0.581629
0.586401
0.586036
0.583643
0.582519
0.584394
0.586084
0.58551
0.58562
0.585736
0.584061
0.583186
0.582235
0.581025
0.577761
0.577049
0.549701
0.512681
0.580911
0.585544
0.585593
0.584606
0.583597
0.584465
0.585661
0.585971
0.585525
0.585957
0.585764
0.584861
0.583404
0.581799
0.579223
0.578044
0.549448
0.511373
0.580891
0.584396
0.584273
0.584139
0.584512
0.585547
0.586069
0.586013
0.585512
0.585857
0.585885
0.585101
0.583666
0.581154
0.579787
0.576947
0.539806
0.512921
0.581062
0.583401
0.583418
0.583531
0.584322
0.586421
0.586762
0.586464
0.585731
0.585904
0.58546
0.584485
0.583375
0.580744
0.575941
0.57229
0.511372
0.559741
0.581453
0.58297
0.583182
0.583567
0.58463
0.586152
0.586949
0.586764
0.586417
0.585647
0.585568
0.584629
0.58347
0.581089
0.576258
0.570646
0.510018
0.558159
0.580775
0.582361
0.583446
0.584803
0.585898
0.586485
0.586457
0.585905
0.58488
0.5856
0.586087
0.585106
0.583948
0.581316
0.576392
0.570057
0.511137
0.507918
0.570794
0.579645
0.580505
0.581923
0.583371
0.585552
0.584892
0.584856
0.58479
0.584457
0.58328
0.585364
0.585758
0.584271
0.581501
0.575003
0.567532
0.512133
0.511423
0.573897
0.580643
0.576983
0.580521
0.583116
0.583938
0.585944
0.583361
0.582688
0.582479
0.581826
0.583295
0.585741
0.584342
0.580757
0.574805
0.55515
0.5712
0.578646
0.582143
0.583518
0.583887
0.585222
0.586046
0.581083
0.580092
0.580631
0.579305
0.582637
0.585606
0.582837
0.577418
0.573633
0.550474
0.512941
0.5658
0.576401
0.581584
0.584068
0.584971
0.585471
0.585887
0.586012
0.584772
0.578123
0.576577
0.582727
0.585731
0.582833
0.575993
0.571031
0.540931
0.48796
0.562287
0.57309
0.580718
0.584389
0.585765
0.586218
0.586159
0.586078
0.585957
0.584344
0.579592
0.582124
0.585714
0.583642
0.577515
0.570159
0.532861
0.458065
0.557811
0.566491
0.578923
0.58446
0.586173
0.586387
0.58632
0.585199
0.58539
0.585919
0.585745
0.585562
0.585614
0.582495
0.576964
0.569239
0.514884
0.565136
0.563028
0.578838
0.58456
0.586337
0.586436
0.586273
0.584951
0.584799
0.585506
0.585899
0.585493
0.584548
0.581375
0.574207
0.565184
0.505977
0.441863
0.568084
0.58129
0.583986
0.585948
0.586417
0.586076
0.585976
0.584457
0.583371
0.585094
0.585668
0.583597
0.580221
0.573708
0.564028
0.479207
0.338188
0.535198
0.57415
0.581062
0.585346
0.585823
0.586291
0.586463
0.586227
0.586048
0.585361
0.58568
0.585747
0.584109
0.578449
0.573262
0.561696
0.45423
0.532761
0.570453
0.576694
0.582704
0.585292
0.585934
0.586137
0.586441
0.585124
0.585673
0.585957
0.585834
0.585391
0.584157
0.578192
0.570834
0.544787
0.536278
0.56235
0.576548
0.583994
0.585488
0.58551
0.586054
0.585948
0.586018
0.585655
0.584244
0.585753
0.585166
0.582181
0.576629
0.567858
0.540468
0.40435
0.545631
0.561486
0.575892
0.580959
0.583613
0.584579
0.585266
0.585887
0.58571
0.583873
0.583236
0.585387
0.58539
0.581334
0.573076
0.562504
0.453747
0.511901
0.560067
0.572027
0.581298
0.581705
0.583912
0.580191
0.583912
0.585717
0.582188
0.585109
0.585588
0.585817
0.585675
0.578732
0.569445
0.560257
0.392756
0.514701
0.572648
0.563116
0.576154
0.583946
0.585208
0.585746
0.585152
0.581404
0.58382
0.58336
0.585274
0.585918
0.585316
0.581211
0.570238
0.562389
0.44758
0.528757
0.573129
0.574688
0.582174
0.585402
0.585868
0.585463
0.582028
0.58588
0.584125
0.585939
0.585714
0.585165
0.584692
0.582709
0.575364
0.566196
0.489716
0.508513
0.558944
0.574974
0.577854
0.581992
0.585909
0.581769
0.571187
0.579796
0.585773
0.585948
0.584896
0.58391
0.583718
0.585032
0.580408
0.574826
0.540035
0.493709
0.516666
0.576588
0.572866
0.57921
0.582939
0.585885
0.574394
0.557584
0.568821
0.58537
0.585382
0.585942
0.585813
0.583575
0.581217
0.57825
0.568831
0.559481
0.466905
0.569497
0.578823
0.582048
0.58442
0.585669
0.57217
0.557915
0.562979
0.577308
0.585887
0.585975
0.585423
0.583892
0.580513
0.573598
0.572391
0.548959
0.432723
0.567547
0.581849
0.579211
0.584638
0.584664
0.562334
0.560833
0.574293
0.577079
0.584498
0.586038
0.586068
0.583742
0.580811
0.57479
0.570984
0.542735
0.568389
0.583008
0.581163
0.582349
0.584797
0.566657
0.557131
0.569657
0.582996
0.582793
0.586053
0.585896
0.583472
0.581077
0.575143
0.569437
0.53325
0.567057
0.573955
0.580978
0.582075
0.586002
0.5629
0.557064
0.564569
0.575097
0.582824
0.585787
0.58602
0.584035
0.579652
0.575654
0.568618
0.515736
0.512193
0.573202
0.580303
0.582161
0.583858
0.586101
0.576087
0.56169
0.571081
0.580086
0.585723
0.586134
0.585503
0.583815
0.579872
0.572609
0.564249
0.501286
0.512668
0.573975
0.577372
0.581251
0.582926
0.585509
0.566063
0.565049
0.574726
0.584409
0.5863
0.585144
0.58271
0.582847
0.577978
0.574268
0.551096
0.515877
0.581738
0.582594
0.58198
0.583896
0.585721
0.572044
0.561461
0.57093
0.584266
0.586213
0.585353
0.584646
0.581393
0.576791
0.573064
0.5447
0.521288
0.586262
0.585598
0.582796
0.583682
0.585098
0.564566
0.568127
0.58166
0.585891
0.586194
0.585064
0.584922
0.582511
0.577461
0.571987
0.54475
0.525792
0.589813
0.588177
0.584193
0.582941
0.585832
0.569819
0.568954
0.580186
0.585992
0.585919
0.585056
0.585212
0.582367
0.576982
0.570914
0.519332
0.527861
0.590509
0.587955
0.584871
0.583553
0.585459
0.585835
0.578101
0.579721
0.58597
0.58483
0.584223
0.585266
0.582139
0.574796
0.567071
0.518638
0.581579
0.589553
0.584779
0.582823
0.584344
0.585828
0.584958
0.585863
0.585942
0.586043
0.585405
0.586094
0.584719
0.581087
0.572946
0.56423
0.509185
0.56514
0.561939
0.581548
0.586065
0.583698
0.567316
0.578632
0.585849
0.585661
0.58566
0.58576
0.585213
0.57802
0.570314
0.55448
0.498575
0.562115
0.576367
0.576373
0.585965
0.568885
0.56349
0.570126
0.584909
0.586122
0.58574
0.585283
0.585636
0.578137
0.568027
0.54299
0.571867
0.574895
0.579594
0.575395
0.582448
0.570221
0.563823
0.573543
0.583863
0.586479
0.585945
0.586523
0.58232
0.574483
0.565593
0.536056
0.570553
0.585264
0.581585
0.575189
0.577631
0.586439
0.572424
0.57547
0.586115
0.586201
0.58575
0.582905
0.582088
0.569628
0.563411
0.478876
0.566611
0.582954
0.579521
0.576979
0.578089
0.578483
0.58471
0.585358
0.585676
0.58437
0.583033
0.582553
0.579331
0.569638
0.564154
0.493159
0.5164
0.567192
0.578211
0.577982
0.575009
0.576438
0.578853
0.580871
0.58133
0.574935
0.573185
0.578524
0.583682
0.578884
0.567336
0.529216
0.514937
0.573962
0.577321
0.573982
0.580582
0.576715
0.579734
0.581308
0.586043
0.584593
0.580902
0.579666
0.580151
0.571976
0.547196
0.559368
0.521728
0.574192
0.574171
0.574726
0.581325
0.578986
0.582825
0.582594
0.584082
0.584846
0.579458
0.578471
0.577962
0.573298
0.541599
0.510386
0.55771
0.578846
0.539288
0.55977
0.578004
0.585374
0.584778
0.586284
0.586224
0.58555
0.582902
0.580349
0.572287
0.570021
0.552454
0.351048
0.550416
0.538122
0.561718
0.578856
0.577852
0.579912
0.584799
0.581166
0.57975
0.579492
0.582941
0.57495
0.570398
0.569873
0.55631
0.521875
0.512009
0.526835
0.551058
0.576597
0.579405
0.579975
0.583517
0.584332
0.580109
0.578815
0.578583
0.574514
0.563494
0.570623
0.555123
0.509764
0.563938
0.533199
0.561839
0.57677
0.581829
0.583963
0.581495
0.579351
0.579008
0.580384
0.579014
0.573893
0.569732
0.568384
0.504588
0.510804
0.563468
0.569653
0.535727
0.539069
0.579381
0.584165
0.583823
0.578922
0.5796
0.578096
0.574209
0.575004
0.57395
0.552714
0.513843
0.534717
0.567873
0.570821
0.528541
0.523383
0.576637
0.581864
0.580204
0.579213
0.578461
0.5775
0.567418
0.572633
0.568678
0.548315
0.513887
0.538485
0.530008
0.528124
0.537032
0.579887
0.580674
0.579506
0.576687
0.569908
0.560762
0.57004
0.56335
0.511455
0.516673
0.532137
0.532566
0.526558
0.519674
0.535272
0.578943
0.577749
0.576146
0.566274
0.571848
0.568548
0.545756
0.479742
0.559294
0.565258
0.530184
0.505455
0.571741
0.543426
0.525507
0.577979
0.574957
0.5666
0.57208
0.564822
0.538904
0.389762
0.558163
0.565505
0.527551
0.512093
0.538749
0.574099
0.555341
0.525319
0.545827
0.54993
0.574087
0.567149
0.509356
0.387281
0.553889
0.530836
0.51882
0.514521
0.519596
0.555167
0.559469
0.569513
0.536103
0.533129
0.575714
0.570008
0.506301
0.396213
0.552447
0.526118
0.521803
0.51346
0.508285
0.546575
0.570285
0.579244
0.560138
0.535096
0.576612
0.558655
0.508302
0.416526
0.553843
0.564374
0.515951
0.511236
0.510023
0.471815
0.567779
0.572935
0.549977
0.577212
0.579056
0.561257
0.504483
0.358233
0.362478
0.566728
0.571047
0.509796
0.514353
0.512046
0.523271
0.551505
0.533316
0.530848
0.582806
0.566917
0.571294
0.507964
0.518606
0.531213
0.574207
0.539374
0.533346
0.540104
0.556119
0.573326
0.572133
0.512172
0.527529
0.57927
0.583308
0.577771
0.518398
0.172958
0.516408
0.568384
0.531553
0.53721
0.581178
0.572245
0.290916
0.324953
0.523478
0.500136
0.571087
0.577975
0.516818
0.518553
0.470988
0.567831
0.575427
0.548975
0.50045
0.522088
0.553895
0.568797
0.575942
0.517414
0.517512
0.554637
0.356603
0.506418
0.557953
0.535324
0.568486
0.568605
0.562795
0.571341
0.551428
0.553299
0.567812
0.545623
0.53381
0.512395
0.431489
0.173513
0.522826
0.516264
0.59054
0.615657
0.544854
0.592829
0.606883
0.611104
0.609951
0.619371
0.647206
0.676914
0.668774
0.541005
0.583023
0.599871
0.604699
0.605739
0.60349
0.600514
0.597669
0.599941
0.619447
0.640767
0.663653
0.680215
0.681443
0.66147
0.53652
0.577747
0.594791
0.595335
0.593315
0.59138
0.589057
0.587594
0.587768
0.589426
0.593537
0.593445
0.607523
0.637021
0.660352
0.676077
0.681834
0.66983
0.646214
0.608797
0.598548
0.659177
0.539737
0.568343
0.588245
0.589696
0.588999
0.586588
0.583391
0.579073
0.578094
0.580848
0.584585
0.587667
0.59155
0.596462
0.556818
0.559621
0.649079
0.668483
0.679909
0.684885
0.676641
0.651981
0.600623
0.548773
0.573929
0.582326
0.584868
0.584527
0.585117
0.584283
0.581266
0.576362
0.572537
0.574183
0.578392
0.581074
0.584206
0.586324
0.589552
0.598544
0.556019
0.561655
0.653875
0.671641
0.681258
0.682042
0.673576
0.591606
0.558828
0.58136
0.582822
0.582764
0.580684
0.57883
0.558833
0.552439
0.540457
0.573196
0.57186
0.572029
0.574221
0.580232
0.582136
0.583876
0.583766
0.584812
0.596103
0.559805
0.561648
0.65186
0.662969
0.664983
0.609637
0.508325
0.561123
0.575179
0.574625
0.579421
0.579133
0.579415
0.577507
0.577871
0.581649
0.57998
0.5634
0.574675
0.57465
0.562631
0.582262
0.557749
0.584968
0.582728
0.579987
0.583812
0.54555
0.554266
0.620731
0.568387
0.515266
0.570401
0.574501
0.581121
0.585725
0.585125
0.584275
0.581555
0.583069
0.58277
0.579885
0.581969
0.582926
0.579203
0.573427
0.561376
0.582427
0.585308
0.571167
0.584254
0.582493
0.579794
0.574262
0.567663
0.540177
0.554621
0.515262
0.573749
0.580615
0.579808
0.58284
0.586537
0.585905
0.585436
0.583856
0.58349
0.58509
0.584381
0.58068
0.581242
0.582239
0.580717
0.583108
0.582194
0.584447
0.582613
0.585669
0.582978
0.579126
0.566878
0.548808
0.520025
0.554989
0.580721
0.582934
0.584654
0.580746
0.581564
0.585081
0.586025
0.58556
0.583919
0.584565
0.586268
0.587653
0.588603
0.588601
0.58842
0.586892
0.578169
0.578342
0.574995
0.581573
0.585162
0.584521
0.579744
0.555841
0.528442
0.573216
0.580319
0.577359
0.580179
0.582093
0.582633
0.586491
0.585614
0.586458
0.586623
0.586888
0.587245
0.587377
0.586726
0.589133
0.58977
0.589077
0.586852
0.582068
0.570996
0.580394
0.554987
0.56436
0.556346
0.472101
0.528633
0.505
0.562317
0.578331
0.58135
0.583521
0.583486
0.58513
0.587584
0.587936
0.587629
0.587543
0.587376
0.587803
0.587364
0.586978
0.586942
0.588452
0.586993
0.584477
0.58225
0.581798
0.58452
0.551752
0.514451
0.509979
0.567119
0.577178
0.579605
0.581274
0.583149
0.584857
0.58711
0.587077
0.587893
0.588141
0.58752
0.587651
0.587636
0.587211
0.586427
0.586523
0.586384
0.582486
0.580065
0.57849
0.580731
0.579133
0.556631
0.56277
0.589925
0.584991
0.583691
0.581479
0.58304
0.582195
0.580593
0.58641
0.586897
0.586546
0.585589
0.586687
0.586555
0.587862
0.587669
0.587604
0.586825
0.58556
0.584137
0.582776
0.574504
0.575881
0.572012
0.550393
0.563208
0.591152
0.593275
0.589268
0.584968
0.582639
0.583657
0.582394
0.582811
0.585216
0.586821
0.586566
0.586765
0.584572
0.585349
0.587648
0.587464
0.58707
0.586568
0.584717
0.581676
0.580183
0.561531
0.569146
0.542313
0.571025
0.592656
0.590017
0.590077
0.587515
0.586195
0.584221
0.584378
0.586245
0.585712
0.585882
0.585478
0.586419
0.586672
0.586389
0.585557
0.587384
0.58755
0.586329
0.583843
0.582596
0.578221
0.57342
0.5568
0.522213
0.524101
0.575507
0.594598
0.591839
0.590092
0.587901
0.586681
0.585645
0.585657
0.586156
0.587536
0.588498
0.588128
0.587547
0.586578
0.586408
0.587337
0.587869
0.587336
0.587057
0.586874
0.583078
0.57973
0.576038
0.555155
0.536491
0.525028
0.576108
0.595366
0.591602
0.589557
0.587886
0.586726
0.585929
0.585699
0.585862
0.586794
0.588601
0.589592
0.589712
0.58924
0.588221
0.587209
0.584724
0.584663
0.586665
0.586873
0.586146
0.584444
0.57925
0.568161
0.541333
0.527858
0.58747
0.594828
0.58884
0.587423
0.586589
0.586009
0.585732
0.585661
0.58614
0.586853
0.585578
0.587521
0.589523
0.589972
0.589442
0.588738
0.588083
0.588332
0.586411
0.580457
0.580214
0.57755
0.567698
0.575391
0.557887
0.509511
0.518959
0.581281
0.592103
0.590268
0.586928
0.585962
0.585889
0.585826
0.586073
0.586524
0.586897
0.587356
0.58735
0.586841
0.58865
0.590428
0.590355
0.589356
0.58804
0.587899
0.588081
0.583837
0.579251
0.574423
0.564227
0.568991
0.506211
0.565981
0.591707
0.587405
0.586136
0.585274
0.585584
0.585722
0.585509
0.586264
0.587185
0.587674
0.588077
0.588518
0.588807
0.589231
0.590453
0.591083
0.59049
0.588172
0.586863
0.586754
0.584818
0.578175
0.57491
0.572919
0.544379
0.558376
0.589326
0.590314
0.58796
0.585789
0.585123
0.585666
0.58453
0.582013
0.581671
0.583752
0.586014
0.587532
0.588701
0.589654
0.590301
0.590656
0.59049
0.589232
0.585765
0.581549
0.580548
0.580158
0.576721
0.575758
0.544964
0.526579
0.582532
0.589843
0.58851
0.586613
0.585768
0.585699
0.585521
0.583267
0.579069
0.576709
0.576648
0.579712
0.584378
0.587083
0.588611
0.589473
0.589662
0.589063
0.587606
0.585888
0.582775
0.581583
0.582651
0.582812
0.551155
0.563226
0.587698
0.588213
0.586882
0.586317
0.585924
0.583945
0.580055
0.577535
0.575244
0.572947
0.572265
0.574091
0.578568
0.583658
0.58686
0.588067
0.588164
0.587572
0.586608
0.58542
0.584583
0.581303
0.578239
0.569251
0.552777
0.584637
0.584359
0.585684
0.586065
0.585976
0.583953
0.576989
0.570345
0.568233
0.568808
0.567983
0.56669
0.568414
0.57293
0.579156
0.584182
0.586926
0.587412
0.586667
0.585849
0.584479
0.583148
0.582788
0.581997
0.52563
0.522318
0.578346
0.584988
0.584077
0.585622
0.586109
0.585454
0.582361
0.571703
0.563449
0.560145
0.560606
0.562255
0.563233
0.56429
0.568843
0.575967
0.5813
0.585207
0.586782
0.586292
0.584565
0.583222
0.582738
0.583512
0.556238
0.519749
0.576738
0.583644
0.582912
0.584136
0.585509
0.585649
0.583587
0.578579
0.570403
0.56273
0.558796
0.556821
0.557249
0.559422
0.563335
0.568483
0.575395
0.582464
0.58539
0.586179
0.58517
0.583819
0.581951
0.579646
0.572594
0.516285
0.555324
0.583554
0.583918
0.583813
0.58441
0.585659
0.584928
0.581503
0.575392
0.567938
0.562712
0.560513
0.559201
0.557646
0.558672
0.563829
0.572199
0.579314
0.583709
0.585914
0.583097
0.581574
0.580604
0.578694
0.575001
0.522313
0.529969
0.58307
0.584309
0.584323
0.584364
0.58549
0.585615
0.58338
0.579043
0.573395
0.566338
0.563344
0.563724
0.564685
0.561807
0.560872
0.565142
0.574649
0.583371
0.585885
0.5846
0.582449
0.579752
0.577643
0.574899
0.523356
0.576828
0.586706
0.586564
0.585683
0.585006
0.585702
0.58223
0.579946
0.576807
0.572496
0.56737
0.564396
0.566358
0.569691
0.569327
0.565687
0.568258
0.576663
0.584386
0.585555
0.583961
0.582129
0.58202
0.575901
0.522783
0.528162
0.584731
0.585925
0.586117
0.586128
0.58578
0.585566
0.581744
0.575736
0.574805
0.572956
0.570575
0.568272
0.568675
0.57283
0.576985
0.575303
0.574356
0.582118
0.585679
0.585002
0.583195
0.582148
0.578835
0.556062
0.569721
0.584712
0.585071
0.58589
0.585781
0.584438
0.582497
0.579997
0.574726
0.570472
0.571061
0.571002
0.570989
0.570536
0.573176
0.580108
0.585322
0.584666
0.585223
0.584744
0.583857
0.582212
0.579461
0.57315
0.521256
0.516091
0.577124
0.584181
0.584671
0.585673
0.585245
0.582496
0.578808
0.575577
0.57284
0.569956
0.568613
0.570204
0.570859
0.570789
0.57159
0.576508
0.583331
0.585847
0.585324
0.58432
0.582598
0.582395
0.580413
0.523248
0.5568
0.580046
0.583106
0.583642
0.585731
0.584837
0.580597
0.575246
0.571852
0.568828
0.567274
0.567726
0.569597
0.572752
0.574867
0.575989
0.577433
0.582261
0.5855
0.585286
0.583418
0.582052
0.577443
0.56716
0.513687
0.526414
0.58253
0.584943
0.584676
0.584672
0.585901
0.580481
0.575665
0.57056
0.566527
0.564409
0.563203
0.564048
0.567786
0.572202
0.577249
0.582147
0.584942
0.585693
0.585482
0.584516
0.582966
0.578396
0.570867
0.522747
0.57369
0.581298
0.58427
0.585005
0.585417
0.58585
0.581989
0.570915
0.565194
0.562565
0.561184
0.560798
0.560992
0.564342
0.570809
0.576573
0.581808
0.585455
0.585666
0.583487
0.580732
0.579014
0.577226
0.548627
0.528338
0.582909
0.584806
0.585705
0.586197
0.585846
0.585487
0.583575
0.574354
0.564916
0.560238
0.558614
0.559173
0.56069
0.563568
0.569163
0.576478
0.581501
0.584896
0.585816
0.584613
0.581235
0.574687
0.564175
0.518022
0.569197
0.583427
0.584995
0.585904
0.585938
0.585006
0.583178
0.580311
0.576116
0.569323
0.563476
0.560764
0.560303
0.562487
0.565626
0.56989
0.576214
0.58225
0.584976
0.585734
0.584139
0.580477
0.575861
0.546149
0.526078
0.582262
0.584461
0.585519
0.586149
0.585409
0.583489
0.580574
0.576031
0.571574
0.569672
0.568317
0.566038
0.566513
0.568361
0.571491
0.574535
0.578565
0.583032
0.585569
0.585379
0.583006
0.580659
0.575364
0.51842
0.568992
0.583706
0.58499
0.585962
0.585975
0.58463
0.582122
0.578643
0.574343
0.568998
0.565149
0.565228
0.567282
0.569776
0.573595
0.577938
0.582325
0.584375
0.585226
0.585679
0.583904
0.580261
0.577257
0.562734
0.524631
0.583122
0.584934
0.585715
0.586191
0.585363
0.583524
0.580661
0.577141
0.573152
0.568734
0.564633
0.562286
0.56366
0.567805
0.573797
0.579308
0.583789
0.58587
0.585467
0.584534
0.581169
0.579652
0.576133
0.519331
0.567031
0.584584
0.585577
0.58607
0.586047
0.584399
0.581778
0.578982
0.576043
0.573136
0.56963
0.565327
0.562697
0.562863
0.566352
0.572293
0.578888
0.583189
0.585655
0.585179
0.583029
0.581343
0.573507
0.561695
0.572895
0.58074
0.584681
0.586016
0.585675
0.58315
0.579943
0.577124
0.574832
0.572755
0.571044
0.568998
0.565918
0.564897
0.567414
0.573271
0.57994
0.583684
0.585415
0.58518
0.581478
0.57909
0.577151
0.524016
0.523767
0.58101
0.584947
0.585812
0.58629
0.585392
0.582201
0.578179
0.575234
0.573384
0.572064
0.570966
0.570319
0.570283
0.569994
0.571543
0.57565
0.581135
0.585329
0.585771
0.585128
0.58098
0.572259
0.563677
0.5154
0.527183
0.580739
0.584941
0.586277
0.586362
0.585316
0.581681
0.576616
0.573135
0.571394
0.570754
0.570516
0.57046
0.570896
0.572235
0.574626
0.578271
0.582116
0.584945
0.585705
0.583817
0.58036
0.570281
0.523347
0.551475
0.582951
0.585513
0.586622
0.586312
0.584568
0.580077
0.574906
0.570999
0.568606
0.568166
0.569065
0.570132
0.571182
0.572858
0.575666
0.579475
0.583167
0.585431
0.585526
0.582475
0.578533
0.569604
0.52001
0.572973
0.581365
0.58518
0.586661
0.585776
0.583583
0.579147
0.57356
0.569892
0.567173
0.565151
0.565961
0.568792
0.571275
0.573419
0.576282
0.580012
0.583647
0.585693
0.584575
0.581658
0.575557
0.559867
0.524442
0.578697
0.583149
0.585694
0.586339
0.58461
0.581545
0.577625
0.572967
0.569491
0.567694
0.566129
0.564937
0.566583
0.570451
0.573995
0.57729
0.580803
0.584063
0.585741
0.584199
0.578363
0.575609
0.521528
0.546905
0.581232
0.584633
0.586312
0.585865
0.584022
0.580297
0.575457
0.571236
0.568597
0.567652
0.567773
0.567655
0.567961
0.570034
0.573887
0.578054
0.581855
0.584654
0.58568
0.582779
0.578863
0.568316
0.514423
0.571564
0.57965
0.584075
0.586094
0.585535
0.583211
0.579896
0.574949
0.56924
0.565728
0.565463
0.566857
0.568658
0.570116
0.571758
0.574356
0.578166
0.582132
0.5851
0.58554
0.582194
0.577151
0.561588
0.521521
0.580277
0.583768
0.585613
0.586254
0.585189
0.5824
0.57821
0.573676
0.569053
0.564278
0.561842
0.563181
0.566398
0.569667
0.572704
0.575672
0.579066
0.582592
0.58546
0.584592
0.581909
0.575758
0.545431
0.547333
0.581394
0.584695
0.585899
0.586155
0.584777
0.581733
0.576617
0.570913
0.566213
0.563048
0.560913
0.560005
0.562136
0.566925
0.57172
0.575827
0.579785
0.583345
0.58554
0.584088
0.578633
0.576775
0.521487
0.564503
0.58313
0.585
0.58641
0.585864
0.583718
0.580356
0.575465
0.569197
0.563142
0.559405
0.558521
0.559293
0.560156
0.56315
0.56929
0.575256
0.579937
0.58397
0.585704
0.583848
0.57874
0.568609
0.514064
0.572474
0.579677
0.584309
0.586295
0.585596
0.583102
0.579176
0.574515
0.56938
0.563294
0.557868
0.555395
0.556281
0.559381
0.563056
0.567966
0.574413
0.580291
0.584468
0.585609
0.581672
0.578584
0.564209
0.516126
0.579875
0.585127
0.586251
0.586345
0.584818
0.582412
0.578498
0.573895
0.569721
0.565685
0.560872
0.556301
0.554336
0.556377
0.56199
0.568893
0.575512
0.581436
0.585313
0.584714
0.581381
0.573534
0.544421
0.522888
0.581966
0.584075
0.585996
0.586333
0.584652
0.581999
0.578698
0.574222
0.570279
0.567033
0.56415
0.560999
0.557547
0.556027
0.559648
0.567831
0.576474
0.583068
0.585728
0.58416
0.579187
0.57638
0.519154
0.526739
0.58028
0.584452
0.585978
0.586301
0.584747
0.581727
0.578627
0.575871
0.57228
0.568702
0.565578
0.562987
0.561285
0.560357
0.561359
0.56741
0.576836
0.583864
0.58561
0.582159
0.580496
0.568035
0.56317
0.582906
0.585472
0.586603
0.586201
0.58471
0.581432
0.577532
0.575275
0.573689
0.571145
0.567805
0.564056
0.56127
0.561452
0.564627
0.570272
0.578481
0.584796
0.585436
0.581459
0.574196
0.558215