/*--------------------------------*- C++ -*----------------------------------*\
| =========                 |                                                 |
| \\      /  F ield         | OpenFOAM: The Open Source CFD Toolbox           |
|  \\    /   O peration     | Version:  2312                                  |
|   \\  /    A nd           | Website:  www.openfoam.com                      |
|    \\/     M anipulation  |                                                 |
\*---------------------------------------------------------------------------*/
FoamFile
{
    version     2.0;
    format      ascii;
    arch        "LSB;label=64;scalar=64";
    class       volScalarField;
    location    "120";
    object      omega;
}
// * * * * * * * * * * * * * * * * * * * * * * * * * * * * * * * * * * * * * //

dimensions      [0 0 -1 0 0 0 0];

internalField   nonuniform List<scalar> 
404911
(
233.868
164.575
3434.76
1536.58
149.007
178.73
136.876
603.024
341.299
281.743
234.105
297.664
155.412
276.503
407.452
1101.06
227.652
149.426
163.084
283.478
381.638
188.061
572.693
390.117
160.687
930.691
238.817
140.438
192.903
974.519
208.313
133.054
255.359
380.881
202.935
121.609
263.539
405.568
200.603
92.5367
235.632
1003.85
197.244
85.262
105.31
373.2
311.998
93.1265
102.725
690.361
379.663
314.252
142.581
1325.44
326.897
568.226
9402.19
102.613
308.084
207.605
178.123
109.27
154.503
46.7939
63.6582
116.31
79.847
340.286
98.8078
77.7299
115.483
34.3821
125.122
74.4284
41.6983
590.567
2261.86
230.033
60.0546
94.8732
60.4207
89.1406
34.8968
87.7115
60.2893
59.3626
233.177
48.3265
1124.77
72.6051
116.864
2950.7
63.9031
75.0459
99.5942
68.6342
95.496
91.8354
47.9378
215.164
594.427
52.1192
73.8043
440.559
1153.82
408.504
173.823
602.079
271.056
209.042
150.779
148.123
138.505
148.012
2190.6
440.391
160.934
4455.21
512.572
114.836
119.066
119.923
126.49
183.374
1232.76
254.037
155.037
141.87
124.528
435.378
402.351
445.271
120.319
112.444
125.407
119.648
159.687
157.842
106.343
200.94
1104.55
249.269
147.105
128.156
121.431
119.013
123.331
118.655
436.212
383.884
121.186
109.577
130.869
1698.85
203.069
908.656
202.001
133.831
120.268
118.538
113.949
119.654
122.111
121.058
116.489
113.285
114.148
112.826
121.826
181.619
337.448
520.795
384.903
350.489
375.085
369.495
435.246
121.639
126.044
117.087
117.27
115.719
122.549
132.198
136.057
134.351
238.413
647.128
413.039
343.747
339.742
199.908
299.201
471.831
379.886
112.705
119.553
118.837
124.269
130.677
138.115
164.618
1078.79
911.019
204.872
524.906
292.624
225.994
216.42
231.767
367.884
268.975
322.08
384.872
386.826
109.686
124.009
128.672
130.754
151.773
422.459
779.521
523.797
221.91
165.881
95.5958
130.783
238.398
209.58
157.562
203.92
236.626
177.026
100.369
125.102
127.506
148.059
232.375
1122.87
1133.27
216.306
89.977
136.983
92.7272
84.3266
110.475
111.405
149.266
210.11
189.72
114.773
110.647
252.88
402.859
121.167
160.093
1031.24
386.244
114.807
77.0712
154.793
89.7186
81.4301
79.3557
84.1647
87.1758
102.746
94.366
101.079
184.241
322.213
389.416
463.653
364.429
400.29
151.628
109.951
248.06
97.8851
97.5983
95.1879
90.6184
108.62
94.332
84.2883
84.7955
138.29
298.89
359.056
403.824
1603.58
296.9
132.417
105.578
82.4383
82.3892
104.866
89.0579
87.6157
91.9401
108.151
116.688
104.833
84.6462
147.181
327.596
369.805
187.076
946.453
899.068
802.396
240.864
144.939
53.1127
56.2071
90.393
110.93
85.1119
79.3619
79.0501
81.8631
95.8504
90.3101
100.96
301.345
139.59
469.315
1031.38
194.151
104.502
136.026
96.2439
97.8272
115.272
49.9581
87.5023
83.5127
89.9397
55.7113
54.9865
107.183
89.6843
96.0178
295.201
204.016
397.712
117.455
79.5767
60.993
56.6384
91.3896
83.5976
76.7976
39.2677
51.0855
39.2984
37.7786
46.2834
66.1871
118.339
145.788
137.368
923.281
1061.56
203.629
106.25
71.1397
44.2791
40.223
47.8052
64.2571
54.8239
58.2349
42.1249
67.1844
56.8059
67.2468
74.6213
84.835
302.249
806.531
293.721
105.529
77.015
94.4448
68.214
62.9104
65.3767
49.9771
34.6502
37.3689
45.0343
49.7688
65.9915
85.8417
106.57
96.1443
213.889
632.891
1024.38
816.231
263.226
109.368
110.385
53.1986
67.223
65.2962
52.5656
42.4445
32.447
33.2467
40.0388
56.6331
83.6262
114.949
99.9843
366.49
370.803
125.312
131.846
87.995
65.4124
51.3512
54.6584
62.9808
54.1098
67.6527
52.1613
37.625
40.8123
55.1349
64.9102
92.3572
207.313
902.702
144.248
91.9063
106.566
61.3741
56.1063
49.1586
46.1208
65.5527
87.7882
73.0967
70.7468
55.4169
61.4369
57.8794
105.571
106.785
242.564
368.533
104.878
115.188
83.9098
54.7959
43.317
52.1448
46.2429
47.136
69.9126
75.4927
66.676
54.281
76.8817
77.099
103.821
124.407
897.689
197.312
86.8931
68.2751
50.9796
45.8466
38.4115
39.4158
78.5232
34.2091
33.7637
50.8411
55.2837
71.4479
93.9112
129.583
119.853
217.828
1091.39
393.227
129.5
84.6978
58.7533
46.3001
40.086
46.3774
42.4522
38.2463
35.9372
30.7397
37.0355
42.218
57.856
114.082
76.3361
130.074
919.105
1047.74
178.809
84.8107
98.6676
56.7539
43.3468
35.4531
31.484
30.8535
41.1442
30.5121
42.6147
48.2657
47.2185
58.4014
68.7224
101.942
223.034
361.448
107.9
77.8225
54.3102
45.7349
39.2657
36.8392
33.5682
45.2075
31.5154
30.4394
30.3954
53.504
67.1259
83.6805
96.2596
123.762
909.812
1054.63
173.432
81.6467
63.1222
47.5899
40.3486
36.2708
33.698
34.6187
33.5356
44.8961
41.0032
42.2909
43.3007
59.636
71.076
129.822
205.503
825.032
109.629
79.9715
57.6477
44.8031
37.5239
34.3604
32.9664
31.7669
31.0107
34.6327
32.0551
34.5921
41.479
52.1088
86.9947
143.92
254.753
210.68
90.0145
85.2359
60.3392
44.1477
35.319
32.9667
32.537
31.8581
31.7368
31.1846
31.5083
34.9266
42.2923
62.3312
83.3195
116.464
432.501
190.174
109.307
95.6261
57.6123
41.745
33.7255
33.6116
32.095
31.6478
31.722
31.1285
32.0768
35.7897
46.4262
64.6378
88.2803
186.527
1032.98
1086.02
138.18
80.395
78.6033
63.9449
41.9941
33.8186
31.226
41.4937
39.4696
31.0694
34.4397
33.8091
36.758
46.8493
91.4607
116.09
387.115
861.356
124.55
82.082
56.0711
45.4734
39.1392
32.324
31.8348
31.8837
40.2781
35.1363
29.1492
33.3958
40.133
49.2652
87.2869
119.341
977.984
234.191
105.911
83.2464
56.2918
43.9985
36.4621
30.9997
31.4646
35.5426
36.0028
34.2846
32.7158
33.9884
40.7392
67.709
75.3417
124.233
1014.81
221.295
93.2546
66.0546
52.2224
43.1336
47.2115
43.5294
28.6374
31.3546
33.9341
30.6357
34.5022
36.5906
43.3951
60.9498
83.9852
202.05
962.619
153.556
91.4488
64.7089
47.5511
40.0788
37.0456
42.3725
39.9316
27.9532
29.083
30.5862
33.5484
38.5162
47.7341
87.4071
100.314
371.147
368.841
110.265
100.637
74.9729
46.9282
36.2207
33.1566
29.7373
41.1957
39.3652
27.9008
28.3647
34.2543
37.9756
46.8832
86.3225
112.979
918.54
223.544
91.0207
64.9446
49.9014
40.7405
34.5748
42.1311
37.6679
39.4206
30.7327
37.9208
33.6112
33.9217
38.5712
45.7641
83.218
150.583
1048.08
977.29
136.825
83.9462
65.4756
47.8572
38.5563
35.7443
40.6799
36.2908
35.1021
36.5814
26.8129
36.9807
40.6306
40.0111
51.2317
76.9011
175.944
971.094
127.82
80.9574
57.88
46.1794
37.9157
32.6695
34.4535
39.8059
39.9028
34.4468
33.2355
26.8826
33.499
39.0469
53.1847
85.5295
341.912
957.924
127.459
82.0545
56.1575
46.4164
38.1152
32.5415
31.2503
34.1953
30.1659
25.5042
30.8945
31.4181
33.342
41.7405
68.812
96.5521
813.843
956.797
125.454
81.6571
55.6187
44.9097
41.3621
37.6593
34.2797
30.9864
29.2494
28.8444
26.7517
35.8346
40.6265
49.0052
73.0617
148.312
1043.34
224.184
109.687
85.3532
57.4201
42.7103
36.4021
38.45
39.0905
37.7758
30.3027
25.4865
25.1582
28.7242
47.1559
51.5884
85.488
170.729
1083.05
204.199
92.1171
71.327
56.4473
43.0335
32.8321
33.1041
34.9527
34.0158
31.724
27.5041
29.9832
34.8801
40.0032
47.6972
86.551
166.971
1033.49
131.87
99.9937
83.1505
56.2919
45.9323
34.1756
30.7062
30.5212
32.0021
34.0517
31.905
33.401
39.8725
48.1094
59.9169
80.6514
183.272
912.111
128.748
84.0773
58.5923
50.3551
44.39
37.7528
32.2645
38.8559
36.3894
29.112
32.3239
33.3092
37.1769
44.4165
67.9643
80.0227
195.601
978.744
128.923
83.5146
57.8016
46.7801
41.2254
35.0355
34.2716
32.4434
39.5208
37.0474
29.7655
31.9133
37.0008
45.0957
68.4551
85.0034
212.558
980.269
132.814
85.3783
57.597
46.1281
38.6251
32.3943
31.5732
31.8649
33.1065
31.3462
29.8747
32.4072
37.6524
49.3271
67.953
94.7491
354.962
913.903
125.68
85.2637
56.9791
45.1133
39.4091
32.082
31.0991
31.4175
33.3646
30.4897
29.6688
33.3654
38.2657
49.6371
86.5688
117.105
910.379
234.412
121.669
82.0963
55.6207
42.9659
37.083
35.9775
32.1316
30.3676
30.7203
33.4177
30.0739
32.2247
37.4832
47.994
80.8609
118.366
992.65
239.424
117.096
79.9395
55.5133
41.4639
30.3841
31.1685
33.6729
27.6621
24.6886
25.7001
28.5263
32.0213
36.2533
46.6279
79.1681
116.09
958.451
1103.21
157.759
112.714
79.4581
51.215
49.7234
39.5719
23.8437
24.1255
24.5797
25.4946
23.9129
28.3477
30.0031
35.656
44.8418
81.431
126.702
943.215
988.226
123.702
84.5101
94.1234
52.8633
37.9399
42.2491
31.683
24.1132
22.8532
22.1152
21.2819
23.8382
35.3884
36.2072
46.4576
74.8659
162.923
127.231
79.7017
52.3057
41.7516
34.9492
30.3882
29.9442
19.7313
19.8731
20.6767
18.9112
20.9897
30.6112
38.8462
57.1464
76.188
171.068
919.907
123.592
76.8427
47.9895
38.3218
33.7112
31.0045
29.3609
28.4716
26.1327
17.9407
16.5901
23.1774
29.7805
38.2423
60.2273
80.6498
209.414
956.521
112.195
72.8828
44.6642
36.5157
33.3825
31.057
29.183
28.421
28.7756
25.0242
19.2488
22.4174
30.6288
37.9156
57.502
84.9611
351.509
1051.95
106.181
83.0013
45.5157
35.4998
32.8493
32.1878
28.6257
24.6496
25.0816
27.2181
28.6369
29.7436
32.5641
41.0658
59.9389
91.2702
763.786
99.2012
102.941
45.8916
33.3402
32.3403
31.8465
30.5439
25.1747
26.8869
28.3507
25.964
29.9416
33.6248
43.1222
73.4029
108.486
865.838
663.663
119.342
44.6404
35.2852
32.1975
30.8452
31.3535
30.9343
23.9978
24.1147
27.2454
29.5426
34.82
45.2888
76.9212
112.166
964.286
2078.76
287.628
84.9487
58.0459
32.9324
33.0214
32.8827
30.2251
27.3301
27.7879
25.7873
30.4545
30.5195
35.1374
50.1902
76.0527
129.078
1012.67
199.538
66.0521
69.7619
47.9038
33.778
31.2338
32.4361
29.7398
25.2743
28.783
30.821
28.1978
31.1727
34.624
48.9355
80.2772
189.574
185.409
86.3505
50.9742
35.6078
32.2613
33.3472
30.1717
31.0722
27.9466
29.2328
25.3581
35.7561
31.0687
36.7469
51.9049
81.564
204.923
1093.34
157.717
96.1781
54.317
50.3602
44.6356
42.1069
39.3654
27.884
26.8734
22.2203
21.385
25.5469
31.4433
39.6372
66.3348
94.8792
762.212
866.484
112.317
67.1293
39.247
46.9819
46.1377
70.805
52.552
33.8362
21.327
26.8984
29.4396
28.7641
29.9578
47.6336
81.3016
102.794
890.491
739.136
84.0379
120.555
61.6383
41.5354
39.8626
38.7178
45.4392
72.4742
26.0323
23.9137
28.5824
34.9015
38.7644
53.227
87.1761
106.966
903.195
354.881
75.7759
80.0573
48.0222
38.4566
34.0655
31.6684
22.6053
32.6408
54.0498
33.5001
38.2635
40.5767
42.0796
51.8675
98.5308
117.373
942.621
927.469
166.237
78.1098
56.5189
48.1284
34.2481
22.0692
12.9851
20.2656
40.0017
34.6129
43.2185
45.5264
43.9782
33.8856
48.0855
77.0645
238.297
951.146
817.405
93.6946
95.293
54.7949
45.5629
35.0075
15.031
6.51111
11.573
31.2287
42.0167
31.7006
31.2283
37.7709
41.2332
48.0585
87.2594
123.653
978.622
149.385
74.6703
50.3617
42.9421
30.6689
13.5788
6.64794
8.74483
17.3306
32.3401
28.8419
32.9703
34.289
41.4921
67.1243
72.2621
168.15
1102.05
183.2
82.5283
77.4418
45.4156
27.5804
8.51619
7.89666
15.1553
17.1054
26.9466
34.7193
30.9809
36.6046
42.2601
64.6175
80.6566
205.144
195.187
91.729
87.8534
63.8713
28.8836
10.6775
6.40486
12.2882
24.1866
23.2859
33.6483
31.6466
36.8024
41.3785
63.8034
84.7579
349.422
169.62
167.479
106.25
73.3423
35.9195
8.91404
6.4096
9.60001
15.5628
23.4046
31.0719
29.8177
36.4937
46.8548
61.6234
89.5828
780.605
867.275
107.734
90.1897
84.8205
55.7486
35.7558
17.0553
8.3169
13.1771
20.4236
31.3728
36.8718
40.0368
39.334
49.2116
82.8663
115.756
882.362
817.658
111.874
95.7647
77.0023
56.7409
31.365
10.2998
9.87971
15.6735
27.5854
35.671
43.3726
49.7006
43.3499
57.4755
78.3498
183.586
760.123
93.5331
67.8981
66.1848
52.7572
33.648
13.69
8.13935
13.0566
27.1281
38.1474
41.3054
36.4751
43.9389
60.6429
82.8925
216.838
781.72
96.5133
72.0869
67.9637
57.4761
29.5249
9.46518
11.3161
22.6117
34.9625
38.4148
42.9307
37.2703
42.2014
58.7461
87.1068
217.261
806.176
106.315
77.4093
66.1374
61.2842
37.7805
11.9715
11.6667
20.2186
34.3367
39.514
42.9055
35.3067
42.5429
64.1165
94.469
773.199
823.287
112.745
81.4203
73.7188
64.9172
42.1495
32.0069
17.6808
19.3639
36.0157
44.4536
45.8435
34.4597
41.4547
72.7223
115.232
877.798
237.645
115.617
114.237
79.8585
54.6398
31.8087
27.6761
31.8591
33.3835
35.1349
40.3466
32.576
35.6261
41.9954
73.0383
117.266
951.168
286.158
224.38
66.8099
39.563
25.64
10.8
18.1411
37.6848
39.4083
39.7918
36.3825
35.3992
48.6718
78.1854
151.377
1083.54
266.479
128.945
87.5885
39.1572
11.6627
9.00479
12.3869
28.6592
37.8427
40.3194
42.1867
35.8784
48.4147
77.337
187.385
224.65
191.323
118.571
98.173
54.1693
12.3378
9.13813
14.5835
25.7855
37.494
39.9151
33.6679
46.9642
61.1919
76.9215
204.257
245.83
98.4564
94.9943
106.771
80.9335
38.9285
13.6077
15.8571
33.4563
42.9959
44.8739
53.6444
42.8865
87.4314
98.3177
751.449
252.85
103.15
104.892
104.529
88.4922
92.493
51.3285
46.9955
43.3625
51.1928
52.2871
60.5617
75.9356
114.307
125.59
946.354
1098.29
228.966
121.601
81.8708
88.1251
95.2534
95.6987
82.0081
67.9685
96.5978
109.539
84.2141
49.1209
78.9493
132.287
393.897
1145.02
157.902
96.142
91.9912
50.6703
85.742
88.6858
82.8513
51.0865
57.7299
73.9719
85.5157
88.8296
106.45
183.023
169.628
910.912
149.219
105.241
77.1664
52.7646
77.6112
69.5523
76.97
69.6605
58.8433
85.869
91.8481
99.0437
107.907
258.802
719.952
226.429
111.88
394.206
151.302
63.3766
47.5431
64.5845
56.0422
55.3361
54.6183
51.9746
55.3691
77.5183
107.428
226.553
3986.24
227.919
467.805
201.058
91.5561
92.2754
84.0007
66.4078
92.3137
92.1729
83.7343
48.7607
76.4938
91.0448
121.215
212.902
703.232
966.353
541.914
242.605
88.0714
83.445
90.9662
65.6045
61.1348
81.3025
89.4014
86.1174
82.0423
137.922
136.042
246.094
1084.42
131.312
359.211
136.159
99.2959
74.7223
66.8459
75.6839
86.668
92.2735
83.1071
86.2231
87.2525
133.812
167.817
1315.65
1076.68
149.614
102.063
245.409
254.05
83.4158
54.9807
62.9548
86.6973
85.9575
91.4414
99.8421
108.194
106.727
240.604
1149.58
490.053
146.651
110.066
384.529
238.992
100.379
65.4953
75.9537
85.7724
86.1223
86.4526
118.624
83.3387
106.481
243.939
1033.48
459.675
375.094
278.492
252.571
84.8774
79.7621
81.0107
92.3372
120.003
148.559
102.239
156.167
1037.45
607.945
425.224
359.721
305.095
225.004
224.091
86.744
92.0187
92.6435
115.582
82.0109
108.925
229.386
1053.76
129.247
99.3088
398.156
308.225
110.222
234.426
294.505
103.491
102.833
137.559
102.726
132.85
428.977
1107.49
141.727
106.058
402.648
374.096
200.775
110.434
164.001
279.68
256.425
262.902
114.122
148.611
1084.83
1030.11
136.503
445.876
390.058
401.493
281.729
165.256
183.289
114.695
256.381
403.099
118.848
158.377
1172.45
1095.23
135.169
455.103
395.213
401.841
372.613
158.668
141.1
94.8131
167.335
404.537
118.463
228.157
1225.23
1046.93
144.732
112.633
416.536
377.284
410.157
473.495
125.239
116.303
259.992
120.232
135.127
232.037
1328.83
1324.57
1035.09
115.013
107.852
391.463
390.078
508.928
274.379
157.563
260.776
414.479
145.243
256.383
111.784
418.176
377.179
389.587
103.675
412.145
421.507
452.568
429.762
115.276
102.629
372.524
449.585
126.837
143.517
204.882
1063.17
6165.89
491.096
99.8973
392.203
434.962
156.574
297.77
2699.99
1981.09
398.548
669.129
144.866
169.567
1061.77
367.598
657.26
143.624
160.312
486.91
719.641
494.983
168.864
140.97
186.741
1053.46
1051.61
197.771
1835.62
708.969
436.319
243.148
117.411
114.618
145.946
153.387
560.069
196.828
127.363
276.863
586.101
1387.34
1201.48
6311.2
381.374
1330.67
456.154
430.706
1283.83
509.035
324.14
234.643
212.767
186.402
168.856
165.23
282.49
1309.36
521.851
321.635
234.473
221.322
200.84
183.524
171.012
166.166
168.59
168.62
163.464
172.661
191.046
201.609
1201.57
477.182
244.229
219.196
197.603
191.249
184.083
174.103
169.247
161.038
156.278
156.475
157.564
156.641
170.504
179.915
200.877
220.407
249.238
371.384
453.061
899.767
883.785
434.199
218.318
196.06
193.131
182.064
171.615
163.788
156.916
156.743
157.475
156.339
155.71
135.874
457.861
464.996
158.833
171.452
168.212
192.44
211.171
259.87
592.188
458.21
248.391
186.708
174.617
156.85
149.797
153.999
155.186
152.744
141.403
138.346
145.536
155.794
155.792
154.908
148.368
129.571
412.211
473.156
133.758
155.226
165.693
190.553
237.661
1220.4
334.615
141.763
113.488
107.259
135.906
147.324
347.86
501.671
590.144
111.221
121.717
125.319
122.23
132.995
134.221
149.164
149.452
134.617
118.366
394.304
468.664
140.425
161.328
196.611
498.973
1394.36
315.749
141.348
116.502
78.3044
83.9855
85.8194
100.89
132.768
122.564
110.339
179.505
105.235
118.813
239.888
148.254
544.831
133.503
147.919
150.12
141.22
442.737
462.261
182.928
474.157
1158.35
253.723
201.052
106.51
51.7785
51.0224
56.5907
86.8801
58.9459
73.4781
124.617
119.336
100.689
101.332
179.075
307.486
142.119
142.628
376.659
150.998
158.321
155.446
155.128
169.723
407.257
338.722
1255.43
251.611
172.673
143.597
100.644
47.0904
44.7953
47.2714
52.888
65.4828
53.6724
66.6728
117.262
126.458
110.563
112.417
91.5249
109.208
111.503
168.149
126.213
158.58
171.888
259.648
488.181
987.565
315.616
124.548
118.911
137.042
101.739
105.056
59.6989
50.4341
45.8744
63.9464
58.7505
45.6209
43.9567
45.0289
50.4755
56.2916
63.7409
85.6029
95.7077
175.207
148.9
160.566
161.603
178.606
435.478
1013.44
174.939
103.534
144.944
111.106
82.1879
89.7093
44.7486
57.0172
54.7473
55.8419
56.5112
56.3022
52.964
56.0907
47.4265
43.345
45.8401
50.8395
70.0938
162.419
121.834
504.713
480.179
595.223
4425.71
683.481
1272.75
239.584
121.695
82.2482
70.48
58.6728
59.7752
51.4054
52.4942
56.176
57.3452
58.6234
56.4845
55.2964
58.7502
60.9696
48.6108
48.8878
57.1969
71.4125
93.118
103.898
490.656
1558.42
1179.35
267.769
115.658
73.6882
60.7053
65.047
54.6674
41.5893
38.7819
44.537
49.1512
55.9565
55.1213
52.4456
53.7814
58.1771
62.1861
62.8356
65.3263
71.4252
85.3926
95.9429
149.085
363.741
374.361
136.718
165.963
130.722
109.1
58.0159
47.9436
65.622
45.7729
39.299
36.5442
32.543
35.4622
32.4159
43.3434
40.0311
41.7373
52.9893
63.5361
75.3997
77.5181
104.626
91.1966
141.464
387.151
352.662
141.83
107.311
104.832
81.2353
75.089
61.2313
52.991
47.8716
51.4607
37.3725
36.1572
39.3277
28.7762
29.7456
38.0374
38.6492
44.779
50.5315
63.514
84.8469
100.031
204.752
124.212
367.733
317.428
121.142
133.557
112.878
85.4976
71.0479
63.8329
55.0277
45.5389
40.2132
38.3374
48.2835
39.3895
43.3764
32.4335
29.8935
35.5918
40.3008
50.9913
63.6393
71.0742
102.479
147.972
211.989
739.485
1068.28
310.677
119.879
114.944
85.7526
78.9321
73.5823
65.113
53.5874
42.8158
41.4271
36.6722
35.2728
36.5865
46.9571
47.2021
43.4535
39.5256
37.9065
37.3848
33.9625
60.7679
87.6046
113.068
220.351
324.744
1050.84
308.885
115.114
108.917
80.9524
68.2953
60.7708
54.4877
50.1854
37.0948
31.9049
31.8311
32.3536
31.3152
31.5282
34.7315
36.348
44.3798
50.2774
49.5158
35.3742
37.5273
57.7345
96.821
194.337
354.705
940.365
199.943
111.462
114.041
79.8233
62.9631
52.3664
44.1098
37.8348
33.1515
31.4837
27.7894
29.0384
30.1783
30.1077
29.6145
29.5093
29.4664
30.7952
38.6636
53.0453
51.8689
55.017
102.464
116.891
251.001
1237.88
1136.72
212.741
105.452
84.9698
71.5755
59.4389
46.9495
36.348
31.3537
29.1373
28.0046
27.9023
28.4
27.7654
29.5538
31.1391
30.8531
31.056
31.8745
36.5803
32.6678
44.2979
60.2885
82.2513
138.064
122.447
1412.03
333.945
110.689
114.058
77.3175
59.2855
47.6007
34.0733
28.2974
26.4403
26.2617
26.6823
27.1816
28.0374
28.7193
29.0017
30.1731
31.3598
33.2717
39.2071
50.2127
46.8896
60.0185
83.7369
107.108
125.069
345.968
377.873
137.387
96.9568
75.6641
62.7358
51.838
41.0458
27.804
23.1274
22.6822
24.2902
25.7914
26.9904
28.1122
29.551
30.5753
31.3198
32.2413
34.4536
42.8714
55.5881
64.6838
74.7392
108.494
123.501
361.145
909.387
177.711
96.6094
89.2678
68.4328
55.5038
43.3593
32.2147
24.5728
19.8534
17.9897
18.0994
20.7983
24.9168
26.9574
28.6338
30.3412
32.1272
34.312
37.8989
43.9356
62.2039
77.4642
94.3543
100.63
312.197
326.622
109.985
83.4397
64.9896
53.9246
41.3573
28.4077
20.5894
18.2157
16.5127
14.8598
14.4594
15.9649
19.5011
23.6408
26.6105
28.7152
31.1152
34.6474
40.0953
50.0074
59.7887
95.4104
143.405
208.885
376.108
123.503
113.036
75.0588
56.6415
43.5856
29.0036
17.5959
12.8604
11.7135
12.1884
11.662
10.8861
11.904
14.9574
19.9766
23.8713
26.9603
30.3192
35.947
44.8239
57.8129
71.4444
92.7927
116.374
729.748
851.544
163.28
95.6575
83.4815
57.4175
44.0726
33.1914
23.8299
13.6378
9.15998
7.71398
7.96764
8.72668
9.1307
9.63467
12.1633
17.0751
22.245
26.0278
30.2041
37.1114
54.651
68.881
87.4808
100.348
317.961
851.06
172.649
106.504
89.991
61.2556
46.3975
33.7516
25.1368
18.5538
12.8637
8.82597
7.13375
6.37652
6.55772
7.44257
9.15888
11.776
16.295
22.2555
28.4173
35.008
49.1282
61.2012
89.618
128.957
181.909
983.673
326.436
115.069
90.7606
63.9518
52.1814
37.8807
26.9245
20.6183
16.0131
11.5667
8.92351
7.87262
7.30407
6.68852
7.11771
9.4145
13.9302
19.2626
24.6172
34.1501
51.0812
66.3081
89.5994
127.574
165.253
819.478
696.194
141.109
112.799
72.6602
55.0495
41.1443
30.0697
22.2523
17.9849
14.6132
10.692
9.19495
9.32852
9.65395
8.40899
8.02107
10.0419
15.4705
23.738
34.0376
44.3557
58.3778
93.9033
127.662
162.368
810.08
184.388
94.4663
70.3627
57.5012
48.5761
35.5861
21.9972
18.2053
16.2143
14.0265
11.1643
9.61431
10.3572
11.9962
12.027
10.3292
11.6898
17.2696
26.8767
38.7041
51.871
68.4365
90.2172
145.504
804.912
693.486
111.139
79.0794
58.3072
46.868
37.1153
29.6775
21.8103
15.6257
14.7365
13.7216
12.563
11.3131
11.4056
13.4719
16.2374
15.9665
15.5624
22.875
34.2321
48.4034
64.566
88.9964
127.499
300.435
193.831
94.2554
66.7784
51.0405
38.1145
27.6094
21.4167
18.4184
15.2488
12.4584
12.5825
12.4486
12.5748
12.4587
13.893
18.3495
25.0411
26.8505
30.8989
47.7178
57.5351
84.891
125.985
168.76
842.299
854.768
141.979
87.2839
61.3692
46.1898
31.4397
22.5155
17.6969
15.2334
13.6867
12.2334
11.4565
12.1483
12.4543
12.5808
13.3195
16.5335
21.3916
30.0329
40.1835
53.4645
68.3408
85.0324
107.938
752.109
260.786
117.658
87.3355
62.0245
41.6598
27.4409
19.6003
15.2958
13.2377
11.6878
10.9182
11.0082
11.7798
13.3914
14.8267
16.1506
17.5991
22.8132
30.1896
41.7617
56.8973
76.7747
120.482
187.332
1113.53
647.175
100.592
75.9304
61.4745
52.5601
38.1046
20.8052
15.5213
12.5696
10.7065
9.64139
9.08923
9.44402
11.0219
12.9567
15.7126
19.9685
25.1446
30.1561
37.4023
46.4303
59.4299
102.339
159.571
806.435
153.149
107.887
68.917
56.1103
46.2848
35.8122
22.608
12.8216
9.82622
8.70199
8.14916
7.99324
8.11166
9.52409
12.5135
15.4956
19.2786
25.5001
33.4273
43.9991
57.2833
74.6326
93.4407
329.168
630.443
103.098
73.887
54.7802
45.1033
36.6108
30.5056
23.0445
14.5089
9.61342
7.64587
7.05282
7.2845
7.93988
9.17719
11.8548
16.0422
19.9654
25.5606
34.2611
44.6425
58.7173
100.767
154.143
902.964
179.33
88.8904
62.7224
50.9546
40.3157
31.9288
24.9588
19.1479
15.1988
11.5464
8.89611
7.78941
7.68395
8.61525
10.1351
12.5298
16.3566
22.0462
27.6447
37.0137
49.7809
69.2564
101.819
307.623
637.063
100.718
73.3224
56.1417
44.4629
34.3957
26.7183
20.8539
15.9751
12.72
11.5975
10.9706
9.85456
10.0993
11.1191
12.8986
15.1413
18.3811
23.7291
32.0193
42.3901
56.5823
74.9742
112.349
794.124
177.942
86.9177
61.4357
48.7983
39.1695
29.9605
23.0899
18.1622
14.4978
11.4701
9.60412
9.57511
10.4369
11.4582
13.3692
16.081
20.1885
24.4665
27.7038
36.0382
50.0591
74.6784
105.286
187.871
654.785
101.878
73.244
53.4284
42.3867
32.4357
25.6751
20.4152
16.5322
13.5814
11.1586
9.30656
8.3341
8.9085
10.7712
13.6488
16.8904
21.2313
27.7628
35.1928
43.1135
61.0292
77.6932
103.35
757.806
185.497
86.143
61.9365
49.0171
37.0297
27.6189
21.6761
18.0029
15.3869
13.4632
11.6266
9.62376
8.48338
8.55762
10.1055
13.201
17.4791
21.4165
27.2198
37.895
50.1108
61.9416
119.108
181.502
149.861
111.728
64.4252
46.8864
33.2843
24.1567
18.9673
16.0963
14.3356
13.0589
12.1625
11.2486
9.90822
9.48981
10.7021
13.7968
18.7349
23.6662
28.8726
39.4659
57.8136
75.7399
91.818
624.31
676.256
96.341
71.1903
55.1257
43.3632
31.2681
22.1251
17.1026
14.6759
13.4189
12.6385
12.0415
11.7211
11.7807
11.7262
12.6536
15.3344
19.8039
27.1431
33.5311
40.9328
60.0283
117.049
159.499
916.755
643.013
103.517
65.4609
50.8324
42.5365
30.971
21.0407
15.7343
13.4144
12.4034
11.9994
11.851
11.8149
12.0393
12.7693
14.214
16.9488
21.012
26.3689
34.4534
44.9143
58.9657
117.439
578.017
290.836
97.6646
62.9703
48.558
38.8795
29.4877
19.4919
14.464
12.2444
11.1463
10.8903
11.2064
11.7001
12.2287
13.1538
14.9195
17.9313
22.3231
28.4368
37.08
50.6728
72.1933
118.676
709.868
151.72
104.139
62.7341
45.3256
34.7733
26.7006
19.2823
13.9364
11.6026
10.398
9.6162
9.97685
11.1351
12.3011
13.44
15.315
18.4986
23.3186
30.8419
42.5813
54.6252
92.2292
171.757
650.896
110.886
80.4543
53.6769
41.4268
30.8626
23.0525
17.4371
13.5293
11.4169
10.4805
9.86584
9.48049
10.2733
11.983
13.7506
15.8302
19.0393
24.0091
32.7444
44.5162
73.8805
91.439
647.922
304.44
96.1527
61.7691
46.7387
36.7351
28.5021
21.2803
15.8524
12.5693
10.9764
10.4419
10.449
10.4416
10.7194
11.8312
13.811
16.3596
19.884
24.9186
33.4569
49.1187
71.2375
124.09
894.236
144.713
107.503
63.1156
46.1201
34.289
25.733
20.0724
15.3221
11.7277
9.87839
9.58154
10.0626
10.8236
11.5189
12.4606
14.0267
16.5679
20.2834
26.4731
35.8971
51.8665
83.7353
163.007
684.223
99.2775
70.5668
51.7936
42.191
32.2096
23.7661
17.9683
14.1268
11.4042
9.23124
8.20928
8.66164
9.88542
11.3158
12.8191
14.5906
17.1326
20.8547
28.0395
41.3473
54.3669
97.3876
300.957
296.927
93.0983
59.7635
49.0568
39.1495
29.9372
22.4487
16.5611
12.5708
10.046
8.57997
7.74866
7.44634
8.29161
10.1959
12.3957
14.6592
17.4774
21.611
28.6399
43.4284
74.4319
90.1845
630.182
190.508
79.4047
54.7607
43.2822
34.1469
26.6617
20.3853
15.5094
11.6702
8.79982
7.20831
6.80012
7.07494
7.48676
8.77078
11.4475
14.4542
17.6264
22.2464
31.5358
43.5539
75.0928
130.09
910.447
155.898
110.374
59.4266
41.5948
32.3004
24.8737
18.962
14.6904
11.6014
8.81845
6.64306
5.70862
5.98724
7.10734
8.64328
10.9398
14.2809
18.1757
23.7986
33.4765
52.1818
73.062
142.762
848.15
103.732
68.4462
50.3026
38.9252
29.7476
23.5225
18.0998
14.1784
11.6887
9.73283
7.7434
6.02822
5.33185
6.05044
8.15083
11.1603
14.8027
19.525
27.2021
40.0664
54.4095
104.836
287.13
662.187
95.9021
73.0243
51.6931
39.8344
29.8409
22.8979
18.0472
14.2746
11.962
10.3307
8.98993
7.70597
6.44253
5.9345
7.31924
10.7565
15.34
21.5378
31.8634
44.8886
75.6633
93.3401
669.148
610.006
99.8196
65.564
52.8223
41.0441
30.1859
22.4169
17.7391
15.1511
12.9971
11.1585
9.64956
8.46404
7.75707
7.46186
7.96176
10.6867
16.0236
23.4898
35.3577
53.7575
71.1714
140.086
194.166
81.8838
56.4092
45.8103
39.1741
30.1005
21.7646
16.6502
14.6046
13.6862
12.3666
10.6866
8.99395
7.82637
7.86816
9.18734
11.9442
17.2494
26.0143
38.0819
57.6649
105.051
184.519
185.559
78.5773
54.5322
46.202
36.6974
28.4708
21.1912
16.0554
13.6459
12.8919
12.4879
11.5478
10.2541
8.92043
8.14323
9.3067
12.5817
18.1259
27.5293
41.8058
55.7925
110.324
583.419
157.569
109.265
60.2428
42.1573
33.3116
27.2868
20.901
15.9808
13.2354
11.8028
11.4615
11.5809
11.4105
10.9782
10.7428
11.1794
14.0307
19.4154
28.3065
41.8804
71.8053
99.9687
619.104
155.354
78.7348
53.3113
40.7544
31.1906
24.6052
19.9448
15.9764
13.1539
11.21
10.0001
10.1924
11.0128
11.6446
12.3445
13.7216
16.7577
22.1164
30.3651
44.5386
65.1365
117.321
752.419
148.195
78.2172
54.0638
41.286
31.0052
23.6634
18.358
15.0885
13.1494
11.5613
10.1616
9.27725
9.82639
11.1766
12.4189
14.2264
17.6174
23.2451
30.4432
43.8291
70.5998
97.3225
852.996
822.043
109.754
73.7671
54.4995
42.2216
31.033
23.0638
17.6206
14.1056
12.402
11.4705
10.6557
10.0959
9.9517
10.7177
12.2792
14.3845
17.8192
23.4223
31.0142
41.2894
66.6257
125.618
638.501
113.888
86.5598
57.1478
42.7393
30.5087
22.1761
16.9501
13.7339
11.8551
10.8934
10.4258
10.2647
10.4021
10.9839
12.3308
14.5384
17.9704
23.8289
33.1257
43.3771
67.7758
133.185
629.268
100.94
61.5348
47.5924
38.8897
28.6536
20.4794
15.6543
13.1243
11.5602
10.2224
9.46057
9.46725
10.0653
10.9479
12.332
14.5638
17.9862
23.4018
33.3438
48.9458
67.0414
141.132
299.736
92.7281
59.3008
45.8192
35.9885
27.135
19.2596
13.8132
11.1981
9.97034
8.93901
7.75379
7.38135
8.24191
9.9063
11.8113
14.235
17.907
23.3707
32.4241
49.3997
88.8364
186.444
191.047
80.2317
55.3552
43.1122
33.6736
25.5384
19.0937
13.1856
9.31994
7.40132
6.54269
5.96415
5.3772
5.76214
7.66066
10.597
13.6952
17.6897
23.7202
32.451
48.161
89.3209
554.187
194.917
81.0957
55.1448
42.1059
31.7125
23.9499
18.1735
13.7206
9.86367
6.55033
4.6736
4.08823
4.16189
4.72703
6.19571
9.16849
13.08
17.5248
24.2132
33.6868
48.803
88.52
589.011
161.568
79.9025
55.5591
41.6186
30.6424
22.2973
16.938
13.4761
10.8414
8.24327
5.26162
3.55899
3.2722
3.95573
5.84071
8.99522
13.0901
17.8752
24.712
36.3625
50.2394
92.6304
617.746
148.932
77.6383
51.6022
38.7869
28.5694
20.8394
15.9441
13.0205
11.064
9.27283
7.16533
4.70449
3.4559
3.62978
5.27363
8.65522
13.2079
18.6501
25.5453
38.285
60.8487
90.9309
684.19
155.134
76.5032
48.278
35.0433
25.5634
19.0347
15.0785
12.6471
10.8353
9.31812
8.04638
6.72053
5.01404
4.43156
5.52725
8.61468
13.1004
18.8092
27.1159
39.2699
65.6218
123.508
875.776
146.238
79.7787
49.1538
32.3618
22.619
17.2133
14.2993
12.3687
10.6925
8.92481
7.39894
6.85803
6.8366
6.56138
7.18733
9.69772
13.8911
19.2529
27.3462
41.2063
68.2741
133.75
809.547
99.2396
69.5387
50.7939
29.3691
19.9491
15.6372
13.5294
12.1063
10.7242
9.16738
7.24977
5.88626
6.21571
7.67708
9.32618
11.6127
15.2519
20.3336
27.6479
40.57
69.239
135.889
626.135
123.551
74.0879
42.2673
23.7948
15.6253
13.7673
12.7253
11.7458
10.6375
9.47607
8.20914
6.63188
5.77443
6.98045
9.68903
12.7913
16.5479
21.5643
29.303
39.7659
65.7613
141.457
633.249
98.3945
58.5009
40.1945
23.4435
13.4612
11.1675
11.2458
11.1185
10.3398
9.1562
8.06344
7.4917
7.11378
7.34664
9.51696
12.9766
17.2045
22.8035
31.1937
44.8398
65.8156
132.578
305.989
92.8901
56.1273
40.2523
26.5052
15.0713
10.5751
9.95841
10.1747
9.81821
8.69557
7.24669
6.46645
6.98683
8.32222
10.191
13.1581
17.4788
24.0533
33.2707
48.2098
81.7446