/*--------------------------------*- C++ -*----------------------------------*\
  =========                 |
  \\      /  F ield         | OpenFOAM: The Open Source CFD Toolbox
   \\    /   O peration     | Website:  https://openfoam.org
    \\  /    A nd           | Version:  8
     \\/     M anipulation  |
\*---------------------------------------------------------------------------*/
FoamFile
{
    version     2.0;
    format      ascii;
    class       volScalarField;
    location    "165";
    object      epsilon;
}
// * * * * * * * * * * * * * * * * * * * * * * * * * * * * * * * * * * * * * //

dimensions      [0 2 -3 0 0 0 0];

internalField   nonuniform List<scalar> 
12225
(
285.519
270.699
257.914
243.812
232.454
223.095
216.793
212.702
212.743
213.954
217.248
220.892
228.126
232.881
241.33
246.696
255.205
263.111
52.489
91.8968
106.958
114.77
124.826
136.813
152.678
169.938
191.136
210.975
235.321
255.546
281.271
299.446
325.207
339.562
365.531
374.47
20.3199
34.8655
44.6655
50.4815
55.385
59.6222
64.6534
69.6588
76.316
83.2047
91.4562
99.3547
108.226
117.016
125.66
135.471
142.844
154.272
15.3464
19.7012
24.1072
27.5745
30.4918
32.8761
35.1507
37.2999
39.5005
41.9252
44.3407
47.214
49.6957
53.0635
55.4481
59.291
61.5175
65.7823
14.6502
15.8628
17.3651
19.0767
20.6358
22.0286
23.2442
24.4337
25.4434
26.5976
27.5248
28.7626
29.6371
30.9943
31.8257
33.2845
34.1077
35.69
14.7066
14.8768
15.2009
15.8679
16.5655
17.2878
17.9229
18.5852
19.119
19.7352
20.194
20.8009
21.2106
21.8264
22.2033
22.8334
23.1907
23.8753
14.7421
14.6201
14.6248
14.737
14.9294
15.2194
15.491
15.8092
16.0709
16.3831
16.6185
16.9211
17.1319
17.4288
17.6182
17.9157
18.0865
18.4135
14.7626
14.5866
14.4637
14.3813
14.3668
14.39
14.4381
14.5338
14.6185
14.7368
14.831
14.9568
15.0482
15.177
15.2621
15.3934
15.4721
15.623
14.7666
14.5908
14.4345
14.2964
14.1849
14.1044
14.0397
14.0067
13.9814
13.9786
13.9809
13.9918
14.0042
14.0298
14.0476
14.0801
14.1042
14.1473
14.7663
14.594
14.432
14.282
14.143
14.0219
13.9115
13.8193
13.737
13.6698
13.6102
13.5633
13.5181
13.4872
13.4517
13.4344
13.4025
13.4014
14.7658
14.5945
14.4321
14.2803
14.1361
14.0032
13.8782
13.7644
13.6581
13.5628
13.4735
13.3952
13.3198
13.256
13.1915
13.1408
13.0839
13.0453
14.7657
14.5943
14.4321
14.2798
14.1353
13.9999
13.8715
13.7518
13.6385
13.5336
13.434
13.343
13.2556
13.177
13.1002
13.0328
12.9647
12.9074
14.7657
14.5941
14.432
14.2794
14.1349
13.9989
13.8699
13.7485
13.6331
13.5249
13.4219
13.3257
13.2337
13.1483
13.0662
12.9905
12.9171
12.8502
14.7657
14.5939
14.4318
14.279
14.1346
13.9983
13.8692
13.7472
13.6315
13.5222
13.4184
13.3203
13.227
13.1389
13.055
12.9758
12.9002
12.8291
14.7657
14.5938
14.4317
14.2787
14.1342
13.9977
13.8686
13.7464
13.6307
13.5211
13.4171
13.3185
13.2248
13.136
13.0516
12.9715
12.8952
12.8228
14.7657
14.5938
14.4316
14.2785
14.1339
13.9973
13.8681
13.7458
13.63
13.5202
13.4161
13.3174
13.2237
13.1347
13.0501
12.9697
12.8932
12.8205
14.7657
14.5937
14.4315
14.2783
14.1337
13.997
13.8677
13.7453
13.6294
13.5196
13.4154
13.3166
13.2227
13.1337
13.049
12.9685
12.8919
12.8191
14.7657
14.5937
14.4314
14.2782
14.1335
13.9968
13.8674
13.745
13.629
13.5191
13.4149
13.316
13.2221
13.1329
13.0482
12.9676
12.891
12.8181
14.7657
14.5937
14.4314
14.2782
14.1335
13.9967
13.8673
13.7448
13.6288
13.5189
13.4146
13.3157
13.2218
13.1326
13.0478
12.9672
12.8905
12.8175
14.7657
14.5937
14.4314
14.2782
14.1336
13.9968
13.8675
13.745
13.629
13.5191
13.4148
13.3159
13.222
13.1328
13.048
12.9674
12.8908
12.8178
14.7657
14.5937
14.4315
14.2784
14.1338
13.997
13.8677
13.7453
13.6295
13.5196
13.4155
13.3167
13.223
13.1339
13.0494
12.969
12.8927
12.8201
14.7657
14.5937
14.4316
14.2785
14.1341
13.9975
13.8685
13.7464
13.6312
13.5221
13.4191
13.3214
13.2294
13.1419
13.0596
12.9811
12.9074
12.8369
14.7658
14.5937
14.4318
14.2788
14.1353
14.0002
13.8742
13.756
13.6464
13.5435
13.4485
13.3592
13.2771
13.1993
13.1283
13.0602
12.9989
12.9387
14.7655
14.5928
14.4328
14.2844
14.1515
14.0321
13.929
13.8375
13.7593
13.6894
13.6307
13.5769
13.5328
13.4905
13.4574
13.423
13.3988
13.3693
14.7592
14.5932
14.4603
14.3602
14.3029
14.2766
14.2805
14.2921
14.321
14.3531
14.3959
14.4345
14.4824
14.5216
14.5719
14.6088
14.6614
14.6937
14.7213
14.6911
14.754
14.9176
15.1828
15.4611
15.7475
16.0119
16.2722
16.5037
16.7359
16.9384
17.1504
17.3306
17.5306
17.6932
17.8883
18.0354
14.7477
15.5124
16.5473
17.6841
18.7043
19.5674
20.3371
20.9966
21.6192
22.1657
22.7184
23.2102
23.7392
24.2035
24.7317
25.1815
25.7236
26.1644
15.9872
20.992
25.0238
27.7604
29.7846
31.3583
32.7767
34.0573
35.3587
36.6153
37.9741
39.2955
40.7594
42.1432
43.7146
45.17
46.8792
48.3533
29.9032
47.2181
54.8694
58.673
61.6134
64.4309
67.5791
70.9752
74.7356
78.7103
82.9801
87.3378
91.897
96.4401
101.089
105.609
110.16
114.559
165.798
160.075
154.899
149.564
144.479
139.677
135.614
132.108
129.27
126.973
125.319
124.043
123.339
122.823
122.838
122.956
123.28
123.823
1.04576
0.922585
1.54991
2.14398
2.74653
3.35723
3.97392
4.58864
5.1902
5.76602
6.30532
6.79945
7.24397
7.63771
7.98379
8.28924
8.56498
8.80871
9.01474
38.8446
39.5898
40.1758
40.2746
38.9477
8.81605
39.3477
40.4854
41.3184
41.1289
42.9802
39.2057
44.5869
47.1287
50.9699
54.584
58.5214
62.5812
66.8303
71.2439
75.8273
80.5873
85.5217
90.6407
95.9421
101.437
107.123
113.012
119.101
125.402
131.912
138.641
145.589
152.762
160.16
167.79
175.649
183.743
192.071
200.635
209.434
218.47
227.74
237.243
246.977
256.94
267.128
277.536
288.161
298.996
310.039
321.278
332.712
344.326
356.123
368.08
380.203
392.466
404.878
417.411
430.074
442.835
455.708
468.658
481.702
494.797
507.969
521.171
534.434
547.718
561.043
574.386
587.727
601.054
614.35
627.601
640.784
653.882
666.868
679.733
692.477
705.176
717.844
730.394
742.868
755.241
767.528
779.708
791.797
803.77
815.643
827.38
838.999
850.455
861.764
872.871
883.789
894.449
904.861
914.957
924.735
934.107
943.038
951.429
959.267
966.484
973.108
979.066
984.174
988.16
989.914
993.641
992.875
991.329
988.521
984.389
978.713
971.237
961.981
951.074
938.393
924.006
907.998
890.474
871.547
851.332
830.586
808.389
788.448
775.124
762.417
749.106
735.163
720.669
705.745
690.547
675.232
659.851
644.533
629.186
613.897
598.839
584.1
569.761
555.755
542.126
528.966
516.312
504.069
492.257
480.888
469.985
459.532
449.506
439.846
430.512
421.244
412.274
401.472
392.691
359.58
3.52204
2.05523
2.02311
2.25655
2.61107
3.04124
3.52508
4.04473
4.58455
5.13194
5.67904
6.22429
6.77492
7.35081
7.99217
8.77306
9.82737
11.3956
13.922
18.2134
19.5498
20.0739
20.1441
19.7617
19.3599
22.0881
23.8024
24.5376
25.0423
26.6225
27.2557
29.2714
31.049
32.9674
34.9095
36.9263
39.0025
41.1462
43.3566
45.6362
47.9874
50.4117
52.9116
55.4885
58.1446
60.881
63.6998
66.602
69.5894
72.6627
75.8235
79.0722
82.4101
85.8373
89.3547
92.9623
96.6605
100.449
104.328
108.296
112.354
116.501
120.735
125.056
129.461
133.95
138.52
143.171
147.898
152.701
157.576
162.522
167.534
172.61
177.746
182.94
188.187
193.484
198.827
204.213
209.637
215.096
220.584
226.1
231.636
237.192
242.761
248.341
253.927
259.517
265.103
270.675
276.23
281.759
287.257
292.719
298.138
303.514
308.854
314.176
319.541
324.928
330.268
335.569
340.83
346.048
351.224
356.355
361.441
366.478
371.465
376.396
381.267
386.074
390.81
395.467
400.035
404.506
408.868
413.11
417.211
421.151
424.906
428.464
431.808
434.929
437.8
440.372
442.577
444.428
446.226
446.731
446.88
446.55
445.668
444.148
441.92
438.977
435.319
430.928
425.81
419.989
413.492
406.361
398.63
390.445
381.746
373.037
365.314
357.771
350.084
342.213
334.189
326.063
317.888
309.725
301.609
293.586
285.657
277.726
269.913
262.293
254.902
247.747
240.814
234.134
227.727
221.572
215.669
210.016
204.615
199.464
194.56
189.89
185.458
181.203
177.298
173.212
171.572
168.674
6.58977
3.34293
2.9363
2.98893
3.22278
3.56703
3.98981
4.4709
4.99443
5.54798
6.1235
6.71859
7.33813
7.99614
8.71816
9.54294
10.5202
11.6978
13.0794
14.5522
15.5935
16.4037
17.1233
17.8702
18.8193
20.1193
21.3092
22.4011
23.5455
24.8399
26.1433
27.6354
29.1551
30.728
32.3503
34.0271
35.7583
37.5458
39.3915
41.2951
43.2575
45.2797
47.363
49.5085
51.7174
53.9906
56.3294
58.7346
61.2071
63.7478
66.3575
69.0367
71.786
74.606
77.4969
80.459
83.4926
86.5977
89.7742
93.0219
96.3404
99.7294
103.188
106.716
110.311
113.974
117.702
121.495
125.35
129.266
133.241
137.273
141.36
145.498
149.686
153.921
158.199
162.518
166.874
171.264
175.684
180.131
184.601
189.09
193.594
198.109
202.632
207.158
211.684
216.205
220.716
225.213
229.69
234.144
238.572
242.971
247.341
251.682
256
260.304
264.595
268.859
273.081
277.261
281.396
285.484
289.527
293.522
297.468
301.364
305.209
309
312.736
316.413
320.028
323.577
327.055
330.455
333.772
336.996
340.115
343.115
345.981
348.699
351.255
353.631
355.806
357.748
359.426
360.835
361.849
362.266
362.333
362.009
361.228
359.941
358.111
355.722
352.766
349.234
345.132
340.471
335.272
329.561
323.374
316.782
309.848
302.789
295.926
289.097
282.187
275.177
268.092
260.971
253.855
246.783
239.79
232.907
226.145
219.49
212.978
206.642
200.506
194.575
188.808
183.255
177.93
172.828
167.946
163.278
158.82
154.576
150.543
146.718
143.103
139.68
136.534
133.477
131.468
129.76
9.75419
4.72057
3.95094
3.86426
4.02304
4.31955
4.71076
5.17396
5.69371
6.25823
6.85901
7.49108
8.15365
8.85038
9.58939
10.3822
11.2406
12.1701
13.1583
14.1637
15.1231
16.0552
16.9939
17.9763
19.0373
20.1883
21.3619
22.5636
23.8156
25.1314
26.4947
27.9257
29.4002
30.9199
32.4865
34.1015
35.7652
37.4759
39.2413
41.0614
42.9374
44.8702
46.8609
48.9105
51.0201
53.1908
55.4235
57.7193
60.0791
62.5039
64.9944
67.5513
70.1752
72.8668
75.6267
78.4552
81.3529
84.3199
87.3565
90.4626
93.6383
96.8833
100.197
103.58
107.03
110.547
114.13
117.778
121.49
125.263
129.096
132.988
136.935
140.936
144.988
149.088
153.233
157.42
161.645
165.904
170.195
174.513
178.853
183.212
187.585
191.968
196.355
200.743
205.127
209.502
213.865
218.209
222.531
226.826
231.092
235.327
239.528
243.697
247.834
251.937
256
260.016
263.979
267.886
271.735
275.523
279.251
282.916
286.517
290.053
293.524
296.927
300.263
303.528
306.722
309.841
312.883
315.844
318.718
321.499
324.178
326.744
329.186
331.49
333.642
335.624
337.415
338.991
340.33
341.384
341.984
342.217
342.109
341.61
340.681
339.285
337.393
334.987
332.056
328.593
324.601
320.09
315.079
309.595
303.684
297.412
290.852
284.126
277.369
270.565
263.684
256.734
249.74
242.741
235.773
228.872
222.069
215.393
208.859
202.473
196.253
190.221
184.39
178.767
173.341
168.125
163.125
158.338
153.763
149.382
145.195
141.209
137.424
133.838
130.452
127.261
124.31
121.55
119.4
117.655
12.8158
6.09868
4.97411
4.75841
4.84746
5.1026
5.46693
5.91301
6.42409
6.98818
7.59626
8.24179
8.92075
9.63158
10.375
11.1535
11.97
12.8262
13.7191
14.6402
15.5809
16.5434
17.536
18.5703
19.6563
20.7946
21.9777
23.2052
24.4795
25.8015
27.1696
28.5841
30.0443
31.5508
33.1053
34.7094
36.3652
38.0752
39.8396
41.6593
43.5352
45.4685
47.4603
49.5117
51.6241
53.7985
56.0361
58.3382
60.7059
63.1407
65.6435
68.215
70.8559
73.5673
76.3499
79.2045
82.1318
85.1324
88.2067
91.3552
94.5779
97.8752
101.247
104.692
108.212
111.804
115.469
119.205
123.012
126.886
130.828
134.834
138.904
143.033
147.22
151.461
155.753
160.092
164.476
168.898
173.356
177.844
182.358
186.892
191.442
196.002
200.567
205.131
209.689
214.235
218.764
223.272
227.752
232.199
236.611
240.983
245.311
249.592
253.822
257.998
262.113
266.163
270.142
274.047
277.874
281.621
285.286
288.867
292.362
295.771
299.093
302.326
305.469
308.523
311.485
314.356
317.132
319.812
322.392
324.869
327.235
329.483
331.602
333.582
335.408
337.067
338.537
339.799
340.828
341.545
341.89
341.918
341.606
340.911
339.797
338.232
336.188
333.646
330.592
327.018
322.925
318.322
313.233
307.691
301.743
295.449
288.875
282.108
275.225
268.248
261.188
254.067
246.915
239.772
232.674
225.657
218.751
211.985
205.377
198.939
192.687
186.636
180.796
175.173
169.764
164.573
159.603
154.849
150.31
145.975
141.841
137.905
134.168
130.627
127.282
124.131
121.208
118.512
116.248
114.293
15.6812
7.4177
5.95256
5.61184
5.63247
5.84578
6.18087
6.60475
7.09858
7.64977
8.24905
8.88947
9.566
10.2755
11.0164
11.7886
12.5928
13.4303
14.3013
15.2056
16.1429
17.1147
18.1239
19.1748
20.2711
21.4142
22.604
23.8403
25.1236
26.4538
27.831
29.2558
30.7288
32.2511
33.824
35.4491
37.1279
38.8619
40.6522
42.5001
44.4068
46.3736
48.4018
50.4929
52.6481
54.869
57.157
59.5134
61.9396
64.4369
67.0066
69.6503
72.3693
75.165
78.0386
80.9912
84.0238
87.1375
90.3329
93.611
96.9721
100.417
103.945
107.557
111.252
115.031
118.892
122.834
126.857
130.959
135.137
139.391
143.717
148.113
152.576
157.102
161.688
166.329
171.021
175.759
180.538
185.353
190.198
195.067
199.954
204.852
209.756
214.657
219.55
224.429
229.286
234.116
238.912
243.667
248.376
253.034
257.635
262.172
266.642
271.037
275.351
279.579
283.716
287.755
291.695
295.53
299.258
302.877
306.384
309.777
313.057
316.221
319.27
322.203
325.021
327.722
330.308
332.777
335.127
337.357
339.461
341.436
343.273
344.964
346.498
347.861
349.037
350.008
350.732
351.141
351.246
351.053
350.517
349.604
348.278
346.51
344.27
341.536
338.292
334.528
330.246
325.459
320.191
314.476
308.359
301.895
295.144
288.172
281.039
273.782
266.43
259.015
251.575
244.15
236.779
229.499
222.342
215.335
208.5
201.854
195.41
189.181
183.177
177.403
171.859
166.545
161.46
156.602
151.967
147.547
143.336
139.33
135.527
131.925
128.524
125.327
122.354
119.621
117.235
115.044
18.2685
8.63108
6.8476
6.38203
6.3382
6.5075
6.81037
7.20772
7.67832
8.2088
8.78982
9.41452
10.0779
10.7766
11.5086
12.2732
13.0705
13.9012
14.7665
15.6675
16.6055
17.5819
18.5988
19.6581
20.7621
21.9122
23.1092
24.3538
25.6466
26.9881
28.3791
29.8203
31.3129
32.8579
34.4569
36.1112
37.8223
39.5917
41.4207
43.311
45.264
47.2812
49.3643
51.515
53.7349
56.0258
58.3895
60.8276
63.342
65.9344
68.6065
71.3604
74.1976
77.1199
80.1289
83.2263
86.4133
89.6915
93.0619
96.5257
100.084
103.737
107.485
111.329
115.269
119.305
123.435
127.66
131.977
136.386
140.885
145.47
150.141
154.893
159.723
164.628
169.603
174.642
179.743
184.897
190.101
195.346
200.628
205.937
211.268
216.613
221.963
227.311
232.649
237.969
243.262
248.522
253.739
258.906
264.015
269.06
274.031
278.923
283.728
288.437
293.045
297.543
301.926
306.186
310.321
314.323
318.19
321.917
325.502
328.942
332.237
335.384
338.386
341.24
343.949
346.513
348.934
351.211
353.346
355.337
357.185
358.885
360.435
361.827
363.056
364.108
364.974
365.632
366.023
366.14
365.988
365.533
364.742
363.581
362.014
360.011
357.541
354.58
351.109
347.12
342.614
337.604
332.113
326.174
319.829
313.127
306.124
298.876
291.437
283.85
276.155
268.391
260.601
252.827
245.112
237.493
230.004
222.676
215.53
208.587
201.862
195.366
189.109
183.095
177.325
171.8
166.517
161.472
156.66
152.075
147.709
143.559
139.62
135.889
132.367
129.057
125.974
123.136
120.598
118.168
20.5202
9.70362
7.63066
7.04456
6.93914
7.06499
7.3347
7.70387
8.14897
8.65582
9.21501
9.81991
10.4658
11.1496
11.8692
12.6237
13.4132
14.238
15.0993
15.9982
16.9361
17.9146
18.9351
19.9993
21.1087
22.2648
23.4687
24.7217
26.0246
27.3785
28.7846
30.244
31.758
33.3282
34.9559
36.6428
38.3905
40.2007
42.075
44.0153
46.0233
48.101
50.2503
52.4732
54.7718
57.1482
59.6045
62.1431
64.766
67.4755
70.2739
73.1634
76.1463
79.2247
82.4008
85.6764
89.0536
92.534
96.1194
99.8112
103.611
107.519
111.536
115.664
119.902
124.25
128.707
133.274
137.948
142.728
147.613
152.599
157.683
162.863
168.134
173.492
178.932
184.449
190.036
195.688
201.396
207.155
212.955
218.789
224.649
230.524
236.405
242.284
248.15
253.994
259.806
265.577
271.296
276.953
282.54
288.047
293.464
298.783
303.994
309.088
314.056
318.89
323.582
328.124
332.51
336.733
340.788
344.669
348.374
351.899
355.241
358.401
361.377
364.171
366.784
369.216
371.472
373.552
375.46
377.197
378.765
380.163
381.392
382.449
383.33
384.029
384.538
384.818
384.852
384.643
384.167
383.397
382.3
380.842
378.989
376.71
373.972
370.751
367.028
362.792
358.043
352.792
347.059
340.873
334.274
327.306
320.021
312.47
304.705
296.771
288.714
280.579
272.412
264.259
256.164
248.167
240.305
232.61
225.107
217.817
210.757
203.94
197.375
191.067
185.018
179.226
173.69
168.404
163.364
158.562
153.992
149.648
145.524
141.619
137.931
134.464
131.228
128.238
125.519
122.852
22.4023
10.6144
8.28727
7.59036
7.42647
7.51054
7.74784
8.08924
8.50911
8.99241
9.52958
10.1142
10.7417
11.4093
12.115
12.8578
13.6378
14.4551
15.3107
16.2057
17.1414
18.1192
19.1404
20.2065
21.3187
22.4788
23.6883
24.9486
26.261
27.627
29.048
30.5258
32.0618
33.658
35.3159
37.0376
38.8249
40.6797
42.6042
44.6004
46.6705
48.8168
51.0417
53.3476
55.7371
58.2126
60.7769
63.4326
66.1824
69.0292
71.9756
75.0245
78.1786
81.4405
84.8129
88.2982
91.8989
95.6172
99.4551
103.414
107.497
111.704
116.036
120.495
125.081
129.793
134.631
139.595
144.683
149.893
155.224
160.671
166.233
171.905
177.682
183.56
189.533
195.594
201.737
207.955
214.238
220.579
226.968
233.396
239.853
246.328
252.809
259.286
265.748
272.183
278.579
284.924
291.207
297.416
303.539
309.565
315.484
321.283
326.953
332.482
337.86
343.076
348.121
352.987
357.663
362.143
366.418
370.483
374.332
377.962
381.368
384.551
387.509
390.243
392.755
395.046
397.121
398.983
400.635
402.083
403.33
404.38
405.235
405.898
406.37
406.646
406.717
406.56
406.18
405.561
404.682
403.52
402.044
400.223
398.023
395.414
392.364
388.847
384.842
380.338
375.329
369.823
363.837
357.396
350.535
343.297
335.725
327.87
319.781
311.505
303.09
294.586
286.04
277.502
269.018
260.631
252.38
244.299
236.415
228.754
221.332
214.164
207.26
200.625
194.263
188.171
182.347
176.787
171.484
166.431
161.622
157.05
152.709
148.595
144.709
141.052
137.63
134.454
131.531
128.623
23.9019
11.3547
8.81385
8.01896
7.8012
7.8464
8.05317
8.36838
8.76449
9.22567
9.74211
10.3074
10.9172
11.5687
12.2601
12.9905
13.7596
14.5678
15.416
16.3051
17.2366
18.2118
19.2325
20.2986
21.4116
22.5732
23.7866
25.0533
26.3747
27.7524
29.1885
30.685
32.2441
33.8678
35.5584
37.318
39.149
41.0537
43.0345
45.094
47.2349
49.4599
51.7719
54.1737
56.6685
59.2593
61.9493
64.7418
67.64
70.6473
73.767
77.0024
80.3568
83.8335
87.4356
91.1661
95.0279
99.0236
103.156
107.426
111.838
116.391
121.088
125.93
130.916
136.047
141.322
146.741
152.302
158.002
163.84
169.811
175.913
182.139
188.486
194.948
201.517
208.186
214.947
221.793
228.713
235.697
242.736
249.817
256.929
264.06
271.197
278.327
285.436
292.512
299.541
306.508
313.399
320.202
326.903
333.488
339.944
346.26
352.421
358.416
364.232
369.858
375.282
380.493
385.479
390.232
394.742
399.001
403.002
406.74
410.21
413.411
416.341
419.001
421.393
423.519
425.383
426.989
428.344
429.454
430.324
430.962
431.376
431.57
431.547
431.31
430.859
430.189
429.294
428.165
426.787
425.139
423.195
420.927
418.307
415.302
411.884
408.025
403.702
398.899
393.609
387.835
381.588
374.891
367.773
360.271
352.426
344.285
335.892
327.297
318.548
309.696
300.79
291.883
283.022
274.253
265.617
257.15
248.885
240.845
233.053
225.523
218.266
211.29
204.596
198.186
192.055
186.199
180.613
175.288
170.217
165.394
160.812
156.468
152.359
148.487
144.854
141.469
138.322
135.17
25.0247
11.9257
9.21431
8.33649
8.07075
8.08097
8.25975
8.55085
8.92517
9.36614
9.8636
10.4112
11.0047
11.6418
12.3193
13.0369
13.7945
14.5927
15.4324
16.3144
17.2404
18.2118
19.2309
20.296
21.4096
22.5735
23.7926
25.0673
26.3992
27.7894
29.2419
30.7597
32.3451
34.0008
35.7294
37.5336
39.416
41.3797
43.4274
45.5623
47.7876
50.1066
52.5227
55.0395
57.6605
60.3894
63.2302
66.1865
69.2624
72.4618
75.7886
79.2468
82.8402
86.5725
90.4475
94.4687
98.6393
102.962
107.441
112.077
116.874
121.832
126.953
132.238
137.687
143.301
149.078
155.018
161.117
167.374
173.785
180.347
187.054
193.901
200.882
207.99
215.217
222.555
229.994
237.525
245.137
252.818
260.556
268.339
276.152
283.983
291.816
299.636
307.429
315.178
322.868
330.484
338.009
345.427
352.723
359.883
366.891
373.733
380.395
386.862
393.122
399.16
404.963
410.517
415.81
420.83
425.565
430.006
434.144
437.972
441.485
444.679
447.554
450.107
452.342
454.261
455.868
457.168
458.168
458.877
459.3
459.45
459.336
458.97
458.359
457.515
456.444
455.147
453.625
451.873
449.884
447.642
445.128
442.319
439.189
435.712
431.857
427.597
422.908
417.77
412.172
406.113
399.6
392.649
385.285
377.54
369.449
361.053
352.395
343.52
334.477
325.316
316.089
306.847
297.64
288.516
279.519
270.688
262.055
253.65
245.495
237.608
230.001
222.681
215.655
208.92
202.475
196.316
190.436
184.827
179.483
174.395
169.558
164.967
160.619
156.515
152.654
149.04
145.656
142.258
25.7842
12.3337
9.49721
8.55345
8.2459
8.22674
8.38001
8.6493
9.0041
9.42727
9.90751
10.4387
11.0173
11.6411
12.3071
13.0145
13.7632
14.5537
15.3866
16.2631
17.1845
18.1523
19.1682
20.2337
21.3511
22.5225
23.7502
25.0363
26.3834
27.7912
29.2664
30.812
32.4316
34.1288
35.9066
37.7681
39.7168
41.7559
43.8891
46.1201
48.4526
50.8906
53.4384
56.1
58.8798
61.7822
64.8116
67.9726
71.2698
74.7077
78.2909
82.0239
85.9111
89.9567
94.165
98.5397
103.085
107.803
112.697
117.771
123.026
128.464
134.086
139.892
145.883
152.058
158.415
164.953
171.669
178.56
185.62
192.845
200.23
207.767
215.449
223.268
231.214
239.278
247.449
255.715
264.064
272.484
280.959
289.477
298.021
306.576
315.125
323.652
332.14
340.571
348.927
357.191
365.345
373.371
381.252
388.971
396.513
403.861
411.001
417.915
424.59
431.01
437.16
443.024
448.588
453.837
458.758
463.34
467.571
471.444
474.951
478.089
480.854
483.246
485.265
486.915
488.2
489.124
489.694
489.924
489.815
489.387
488.645
487.617
486.315
484.753
482.945
480.901
478.629
476.134
473.413
470.46
467.264
463.808
460.071
456.031
451.66
446.931
441.82
436.304
430.369
424.008
417.224
410.027
402.437
394.478
386.18
377.575
368.704
359.606
350.327
340.916
331.423
321.899
312.397
302.965
293.648
284.489
275.522
266.78
258.287
250.063
242.122
234.473
227.123
220.072
213.318
206.857
200.684
194.79
189.168
183.811
178.712
173.867
169.27
164.922
160.821
156.967
153.336
149.691
26.2292
12.5978
9.67552
8.6816
8.33929
8.29562
8.4277
8.67786
9.01542
9.42372
9.89069
10.4097
10.9764
11.5875
12.2408
12.9367
13.6757
14.4581
15.2851
16.1579
17.0781
18.0474
19.0676
20.141
21.2702
22.4583
23.7061
25.0164
26.3921
27.8327
29.3457
30.9366
32.6093
34.3677
36.2158
38.1583
40.1996
42.3438
44.5947
46.957
49.4352
52.0341
54.7587
57.6139
60.6048
63.7366
67.0144
70.4434
74.029
77.7762
81.6901
85.7757
90.038
94.4814
99.1103
103.929
108.941
114.149
119.557
125.167
130.98
136.998
143.221
149.649
156.281
163.116
170.151
177.383
184.808
192.421
200.216
208.187
216.327
224.626
233.077
241.668
250.389
259.229
268.175
277.213
286.331
295.512
304.742
314.004
323.282
332.558
341.815
351.033
360.194
369.28
378.27
387.145
395.885
404.471
412.884
421.108
429.123
436.915
444.465
451.759
458.779
465.509
471.932
478.031
483.789
489.19
494.218
498.86
503.103
506.938
510.356
513.352
515.923
518.067
519.784
521.076
521.949
522.404
522.445
522.102
521.348
520.229
518.759
516.958
514.846
512.446
509.777
506.862
503.714
500.348
496.771
492.986
488.989
484.775
480.327
475.629
470.658
465.39
459.798
453.86
447.558
440.881
433.826
426.399
418.611
410.48
402.026
393.275
384.259
375.012
365.573
355.987
346.303
336.57
326.842
317.166
307.59
298.158
288.909
279.875
271.084
262.558
254.314
246.363
238.712
231.363
224.316
217.567
211.11
204.939
199.045
193.422
188.062
182.961
178.113
173.516
169.168
165.067
161.186
157.295
26.3008
12.7079
9.7554
8.73199
8.36474
8.30236
8.41926
8.65567
8.98007
9.37391
9.82645
10.3322
10.8874
11.4899
12.1381
12.8314
13.5698
14.3541
15.1857
16.0665
16.9976
17.9807
19.0183
20.1131
21.2676
22.4837
23.7631
25.1112
26.5322
28.0309
29.6122
31.2811
33.0424
34.901
36.862
38.9307
41.1131
43.4141
45.839
48.3931
51.0821
53.9119
56.8885
60.0176
63.3052
66.7571
70.3791
74.177
78.1566
82.3234
86.6829
91.2402
96.0003
100.968
106.147
111.541
117.154
122.988
129.045
135.327
141.834
148.566
155.524
162.704
170.104
177.722
185.553
193.592
201.833
210.269
218.893
227.695
236.666
245.796
255.074
264.488
274.025
283.67
293.411
303.232
313.118
323.052
333.017
342.995
352.969
362.92
372.828
382.674
392.438
402.099
411.638
421.032
430.261
439.305
448.144
456.759
465.133
473.248
481.089
488.637
495.877
502.79
509.359
515.565
521.389
526.812
531.819
536.391
540.517
544.185
547.386
550.114
552.363
554.134
555.425
556.235
556.576
556.439
555.836
554.765
553.258
551.332
549.008
546.309
543.262
539.895
536.238
532.321
528.169
523.805
519.248
514.51
509.599
504.516
499.257
493.811
488.161
482.286
476.163
469.766
463.075
456.076
448.762
441.132
433.189
424.941
416.401
407.582
398.508
389.203
379.699
370.034
360.253
350.404
340.537
330.702
320.946
311.315
301.849
292.585
283.553
274.776
266.274
258.061
250.145
242.53
235.216
228.202
221.483
215.051
208.899
203.02
197.408
192.056
186.96
182.117
177.522
173.174
169.041
164.909
26.2135
12.7127
9.75723
8.72258
8.34248
8.26773
8.36947
8.59161
8.90387
9.28924
9.73703
10.2406
10.7962
11.4018
12.0567
12.7597
13.5109
14.3115
15.1631
16.0676
17.023
18.0345
19.1058
20.2406
21.4427
22.7163
24.0656
25.4951
27.0103
28.6165
30.3194
32.1247
34.0382
36.0661
38.2145
40.4901
42.8996
45.4496
48.1467
50.9978
54.0101
57.1911
60.5476
64.0863
67.8137
71.7361
75.8596
80.1901
84.7336
89.4953
94.4804
99.6937
105.139
110.821
116.742
122.905
129.311
135.962
142.858
149.998
157.381
165.004
172.865
180.96
189.283
197.828
206.589
215.557
224.726
234.083
243.621
253.326
263.188
273.193
283.329
293.58
303.933
314.371
324.88
335.442
346.04
356.658
367.276
377.877
388.441
398.95
409.383
419.721
429.942
440.026
449.953
459.699
469.245
478.569
487.651
496.472
505.015
513.263
521.2
528.808
536.073
542.975
549.496
555.615
561.312
566.566
571.36
575.675
579.497
582.813
585.615
587.895
589.649
590.875
591.572
591.733
591.392
590.489
589.07
587.147
584.737
581.86
578.541
574.806
570.686
566.218
561.442
556.393
551.11
545.626
539.971
534.17
528.24
522.193
516.036
509.767
503.377
496.848
490.159
483.286
476.206
468.9
461.358
453.573
445.537
437.25
428.711
419.924
410.899
401.649
392.195
382.567
372.804
362.951
353.054
343.162
333.323
323.584
313.988
304.572
295.37
286.408
277.708
269.286
261.153
253.315
245.774
238.528
231.575
224.908
218.521
212.406
206.556
200.967
195.634
190.551
185.716
181.124
176.745
172.38
25.9264
12.6412
9.70681
8.66639
8.2751
8.19133
8.28861
8.50994
8.82465
9.21622
9.67357
10.1902
10.7626
11.3887
12.0671
12.7957
13.577
14.4134
15.3073
16.2615
17.2795
18.3649
19.5219
20.7552
22.0702
23.4724
24.9677
26.562
28.262
30.0745
32.0064
34.065
36.2578
38.5924
41.0765
43.7178
46.5234
49.5019
52.6621
56.0128
59.5634
63.3245
67.3033
71.5062
75.9393
80.6081
85.5181
90.6741
96.0807
101.742
107.661
113.841
120.283
126.989
133.959
141.192
148.688
156.443
164.454
172.718
181.228
189.98
198.966
208.179
217.609
227.248
237.085
247.108
257.307
267.668
278.178
288.824
299.591
310.463
321.427
332.466
343.563
354.703
365.867
377.04
388.203
399.339
410.43
421.457
432.401
443.245
453.968
464.551
474.975
485.219
495.263
505.087
514.668
523.986
533.023
541.759
550.177
558.264
566.002
573.379
580.376
586.978
593.162
598.909
604.195
608.999
613.302
617.083
620.33
623.028
625.168
626.747
627.751
628.191
628.054
627.352
626.048
624.176
621.742
618.76
615.248
611.228
606.727
601.776
596.412
590.678
584.624
578.295
571.739
565.001
558.121
551.143
544.091
536.991
529.862
522.713
515.54
508.333
501.073
493.735
486.293
478.726
471.018
463.153
455.114
446.891
438.466
429.83
420.987
411.927
402.658
393.203
383.592
373.866
364.064
354.234
344.425
334.685
325.056
315.58
306.292
297.221
288.393
279.825
271.531
263.52
255.797
248.36
241.209
234.338
227.741
221.413
215.346
209.536
203.978
198.667
193.599
188.771
184.151
179.563
25.3796
12.4718
9.58913
8.56629
8.1883
8.11833
8.23299
8.47463
8.81255
9.22947
9.71412
10.2633
10.8749
11.5482
12.2839
13.0833
13.9482
14.8817
15.8877
16.9707
18.1361
19.3892
20.7363
22.1842
23.7401
25.4117
27.2071
29.1349
31.2038
33.4231
35.802
38.3501
41.0772
43.9931
47.1075
50.4297
53.9689
57.7344
61.7356
65.9818
70.4822
75.2459
80.2837
85.5998
91.1969
97.0768
103.241
109.69
116.424
123.444
130.746
138.329
146.189
154.322
162.723
171.386
180.303
189.467
198.869
208.499
218.349
228.407
238.661
249.1
259.712
270.482
281.399
292.447
303.612
314.881
326.237
337.665
349.151
360.678
372.23
383.793
395.348
406.882
418.376
429.815
441.183
452.464
463.639
474.695
485.612
496.375
506.967
517.369
527.566
537.538
547.269
556.738
565.925
574.813
583.381
591.613
599.494
607.012
614.152
620.903
627.248
633.171
638.649
643.659
648.176
652.181
655.651
658.565
660.913
662.68
663.852
664.442
664.405
663.808
662.548
660.696
658.232
655.165
651.502
647.258
642.453
637.114
631.266
624.947
618.195
611.063
603.616
595.903
587.983
579.916
571.751
563.49
555.201
546.957
538.793
530.731
522.777
514.926
507.16
499.452
491.772
484.09
476.381
468.618
460.771
452.813
444.717
436.454
427.963
419.26
410.344
401.225
391.929
382.488
372.935
363.315
353.677
344.068
334.533
325.114
315.85
306.772
297.909
289.282
280.907
272.795
264.954
257.386
250.091
243.064
236.302
229.799
223.549
217.548
211.792
206.276
200.996
195.95
191.106
186.314
24.7471
12.2249
9.44002
8.46875
8.13136
8.10015
8.25231
8.53176
8.91428
9.38633
9.94028
10.5723
11.2817
12.0693
12.9378
13.8909
14.933
16.0697
17.3075
18.6537
20.1167
21.7053
23.4292
25.2989
27.3251
29.5191
31.8926
34.4578
37.227
40.2125
43.4263
46.8806
50.5869
54.5561
58.7984
63.323
68.1388
73.2534
78.6736
84.4053
90.4543
96.8235
103.521
110.551
117.901
125.564
133.531
141.794
150.346
159.178
168.278
177.637
187.243
197.084
207.148
217.422
227.894
238.549
249.375
260.359
271.485
282.74
294.111
305.583
317.142
328.774
340.465
352.2
363.965
375.746
387.53
399.301
411.046
422.751
434.402
445.986
457.489
468.897
480.197
491.374
502.417
513.311
524.042
534.599
544.966
555.131
565.079
574.796
584.269
593.482
602.42
611.068
619.406
627.418
635.086
642.394
649.331
655.886
662.046
667.801
673.137
678.035
682.473
686.423
689.858
692.759
695.106
696.868
698.053
698.637
698.589
697.975