/*--------------------------------*- C++ -*----------------------------------*\
  =========                 |
  \\      /  F ield         | OpenFOAM: The Open Source CFD Toolbox
   \\    /   O peration     | Website:  https://openfoam.org
    \\  /    A nd           | Version:  8
     \\/     M anipulation  |
\*---------------------------------------------------------------------------*/
FoamFile
{
    version     2.0;
    format      ascii;
    class       volScalarField;
    location    "165";
    object      k;
}
// * * * * * * * * * * * * * * * * * * * * * * * * * * * * * * * * * * * * * //

dimensions      [0 2 -2 0 0 0 0];

internalField   nonuniform List<scalar> 
12225
(
0.362832
0.343993
0.327744
0.309822
0.295389
0.283496
0.275489
0.27029
0.27034
0.271898
0.27605
0.280736
0.289857
0.295822
0.306878
0.312845
0.325491
0.327823
0.440279
0.468734
0.461615
0.44837
0.450348
0.458322
0.47449
0.498651
0.524354
0.552271
0.580767
0.606365
0.633992
0.654133
0.680238
0.693394
0.719492
0.725434
0.390414
0.417854
0.420243
0.416826
0.411636
0.407802
0.408013
0.41004
0.414537
0.421439
0.43074
0.439763
0.45126
0.461229
0.47305
0.483727
0.494004
0.506572
0.377046
0.387165
0.391467
0.391342
0.39026
0.387882
0.385659
0.384081
0.382879
0.382898
0.383361
0.384391
0.386303
0.388485
0.390971
0.394323
0.396688
0.401216
0.374435
0.376092
0.378428
0.378665
0.378275
0.3772
0.375488
0.373737
0.372009
0.370454
0.369256
0.36811
0.367385
0.366813
0.366454
0.36637
0.366402
0.366782
0.37378
0.372703
0.372659
0.372365
0.371773
0.370817
0.369553
0.368082
0.366571
0.364975
0.363526
0.362062
0.360753
0.35953
0.358397
0.357434
0.356451
0.355807
0.373775
0.371739
0.370388
0.369283
0.368235
0.367114
0.365915
0.364586
0.363237
0.361807
0.36042
0.359022
0.357675
0.35638
0.355118
0.353964
0.352793
0.351806
0.373819
0.371559
0.369635
0.367976
0.366501
0.365107
0.363775
0.362429
0.361106
0.359765
0.358449
0.357142
0.35586
0.354619
0.353397
0.352245
0.351094
0.350049
0.373832
0.371553
0.369449
0.367525
0.365776
0.364153
0.362644
0.361198
0.359816
0.358472
0.357168
0.3559
0.354664
0.353472
0.352303
0.351191
0.350092
0.349068
0.373831
0.37156
0.369418
0.367405
0.365529
0.363772
0.362132
0.360585
0.359121
0.357727
0.356393
0.355116
0.353886
0.352707
0.351566
0.350477
0.349415
0.348416
0.373829
0.37156
0.369413
0.367378
0.365458
0.363645
0.361937
0.360324
0.358798
0.357352
0.355978
0.354671
0.353422
0.352233
0.351091
0.350005
0.348956
0.347966
0.373828
0.371558
0.369409
0.367371
0.365439
0.363609
0.361875
0.360233
0.358677
0.357201
0.355799
0.354467
0.353199
0.351993
0.35084
0.349745
0.348693
0.347698
0.373827
0.371556
0.369405
0.367365
0.36543
0.363593
0.361851
0.360197
0.358626
0.357133
0.355715
0.354367
0.353083
0.351863
0.350699
0.349593
0.348534
0.347531
0.373826
0.371555
0.369401
0.36736
0.365422
0.363583
0.361837
0.360178
0.3586
0.357101
0.355674
0.354316
0.353024
0.351794
0.350621
0.349505
0.348439
0.347427
0.373826
0.371553
0.369398
0.367355
0.365416
0.363575
0.361826
0.360164
0.358584
0.357081
0.355651
0.354289
0.352992
0.351757
0.35058
0.349459
0.348388
0.347369
0.373826
0.371552
0.369396
0.367351
0.36541
0.363568
0.361817
0.360154
0.358572
0.357067
0.355634
0.354271
0.352972
0.351734
0.350555
0.34943
0.348357
0.347335
0.373825
0.371551
0.369394
0.367348
0.365406
0.363562
0.36181
0.360145
0.358562
0.357055
0.355622
0.354256
0.352956
0.351717
0.350535
0.349409
0.348335
0.34731
0.373825
0.371551
0.369393
0.367346
0.365403
0.363558
0.361806
0.360139
0.358555
0.357047
0.355612
0.354246
0.352944
0.351704
0.350522
0.349394
0.348318
0.347292
0.373825
0.37155
0.369393
0.367346
0.365402
0.363557
0.361804
0.360137
0.358552
0.357044
0.355609
0.354241
0.352939
0.351698
0.350515
0.349386
0.34831
0.347283
0.373825
0.371551
0.369393
0.367347
0.365404
0.363559
0.361806
0.36014
0.358555
0.357047
0.355612
0.354245
0.352943
0.351702
0.350519
0.34939
0.348314
0.347287
0.373825
0.371551
0.369395
0.367349
0.365407
0.363563
0.361811
0.360146
0.358563
0.357056
0.355622
0.354256
0.352956
0.351717
0.350535
0.349409
0.348335
0.347309
0.373826
0.371553
0.369397
0.367352
0.365412
0.363571
0.361822
0.360162
0.358584
0.357084
0.355657
0.3543
0.353007
0.351776
0.350604
0.349485
0.348419
0.3474
0.373826
0.371554
0.369399
0.36736
0.365429
0.363603
0.361875
0.360241
0.358691
0.357221
0.355824
0.354494
0.353228
0.35202
0.350867
0.349764
0.348713
0.347702
0.373828
0.371551
0.369412
0.367417
0.365556
0.36382
0.36219
0.360651
0.359189
0.357794
0.356457
0.355172
0.353937
0.352747
0.351602
0.350497
0.349438
0.348412
0.373823
0.371554
0.369605
0.367893
0.366339
0.364892
0.363495
0.362123
0.360762
0.359414
0.358082
0.356771
0.355489
0.354239
0.35303
0.351857
0.350735
0.349647
0.37378
0.37199
0.371113
0.370266
0.369361
0.368312
0.367048
0.36563
0.364121
0.362576
0.361031
0.359523
0.358074
0.356683
0.355382
0.354142
0.35301
0.351925
0.374297
0.375564
0.377778
0.377858
0.377291
0.375886
0.373835
0.371642
0.369505
0.367482
0.365664
0.364084
0.36271
0.361535
0.360609
0.359817
0.359288
0.358799
0.378732
0.394394
0.398294
0.396566
0.392559
0.387608
0.383641
0.380455
0.378265
0.376851
0.376494
0.376747
0.377395
0.378692
0.380436
0.382415
0.384818
0.387127
0.408344
0.427538
0.422424
0.41105
0.402226
0.397921
0.398554
0.401112
0.405978
0.413029
0.420983
0.429812
0.438815
0.448167
0.457278
0.466521
0.475285
0.484141
0.366033
0.353411
0.341988
0.33021
0.318982
0.308382
0.299408
0.291674
0.285403
0.280332
0.27668
0.273864
0.272307
0.271179
0.271171
0.271513
0.272146
0.273375
0.00356852
0.0144681
0.0243239
0.0336561
0.043104
0.0526759
0.0623454
0.0720027
0.0814842
0.0906104
0.0992168
0.107156
0.114297
0.120494
0.125551
0.12916
0.130827
0.129764
0.124727
0.113666
0.114339
0.117173
0.119848
0.124789
0.132185
0.130357
0.134092
0.136055
0.137525
0.14399
0.143762
0.154152
0.16077
0.1691
0.176972
0.185334
0.193758
0.202389
0.211151
0.220062
0.229122
0.238324
0.247679
0.257179
0.266837
0.276644
0.286613
0.296735
0.307021
0.317463
0.328071
0.338836
0.349766
0.360852
0.3721
0.383501
0.395058
0.406762
0.418615
0.430609
0.442741
0.455004
0.467393
0.479901
0.492521
0.505247
0.518068
0.53098
0.543968
0.557031
0.570151
0.583328
0.596541
0.609791
0.623056
0.636339
0.649612
0.662885
0.676127
0.68935
0.70252
0.715653
0.728712
0.741718
0.754629
0.767471
0.7802
0.792847
0.805377
0.817811
0.830128
0.842312
0.854357
0.866248
0.877979
0.889529
0.900889
0.912038
0.922974
0.933699
0.944286
0.954727
0.964974
0.975061
0.984973
0.994724
1.0043
1.01373
1.02297
1.03207
1.04099
1.04975
1.05831
1.06671
1.07489
1.08289
1.09064
1.09817
1.10542
1.11241
1.11907
1.12539
1.13128
1.13674
1.14172
1.14623
1.15024
1.15372
1.15647
1.15849
1.15884
1.16039
1.15876
1.15642
1.15315
1.14889
1.14341
1.13653
1.12829
1.1187
1.10768
1.09529
1.08155
1.06656
1.05033
1.03308
1.01521
0.995851
0.980467
0.969098
0.957626
0.945523
0.932807
0.919571
0.905893
0.891895
0.877723
0.863411
0.84903
0.834481
0.819954
0.805578
0.791387
0.7775
0.763771
0.750359
0.737324
0.724581
0.712159
0.700086
0.688395
0.677078
0.66612
0.655466
0.645086
0.634713
0.624618
0.612482
0.602619
0.567184
0.0120803
0.0345389
0.0489009
0.0602042
0.0705159
0.080619
0.090748
0.100905
0.11098
0.120827
0.130302
0.139277
0.147644
0.155296
0.16211
0.167932
0.172601
0.175996
0.178284
0.180495
0.185697
0.192578
0.200671
0.210824
0.22368
0.230864
0.239403
0.250051
0.264908
0.27609
0.293513
0.308525
0.321501
0.33493
0.348795
0.363101
0.377783
0.392825
0.408155
0.423769
0.439669
0.455854
0.472329
0.489096
0.506163
0.523532
0.541209
0.559199
0.577508
0.596137
0.615093
0.634376
0.653989
0.673933
0.69421
0.714816
0.735752
0.757014
0.7786
0.800504
0.822722
0.845245
0.868067
0.891179
0.91457
0.93823
0.962147
0.986308
1.0107
1.0353
1.06011
1.0851
1.11025
1.13554
1.16097
1.1865
1.21211
1.2378
1.26352
1.28928
1.31503
1.34078
1.36648
1.39214
1.41771
1.4432
1.46857
1.49382
1.51894
1.54391
1.56872
1.59335
1.61779
1.64202
1.66603
1.68979
1.7133
1.73652
1.75944
1.782
1.80415
1.82596
1.84753
1.86887
1.88999
1.9109
1.93161
1.95213
1.97248
1.99266
2.01269
2.03256
2.0523
2.07189
2.09135
2.11065
2.12979
2.14875
2.16751
2.18604
2.20429
2.22219
2.23966
2.25664
2.27305
2.28883
2.30394
2.31839
2.33197
2.34429
2.35506
2.36463
2.37189
2.376
2.37826
2.37851
2.37631
2.37142
2.36369
2.35305
2.33947
2.32297
2.30357
2.28138
2.25647
2.22898
2.19934
2.16768
2.13427
2.09961
2.06348
2.02606
1.98765
1.94854
1.90898
1.86921
1.82941
1.78981
1.75051
1.71117
1.67239
1.6344
1.59733
1.56128
1.52632
1.49249
1.45979
1.42805
1.39735
1.36775
1.33927
1.31191
1.28561
1.26033
1.23597
1.2124
1.18951
1.16611
1.14449
1.0907
0.022625
0.0538774
0.0716324
0.0851867
0.0972199
0.108671
0.119929
0.131126
0.142265
0.153284
0.164104
0.17466
0.184904
0.194812
0.204377
0.213612
0.222566
0.231357
0.240249
0.249717
0.26033
0.272026
0.284744
0.298459
0.312694
0.326165
0.340397
0.355907
0.372401
0.389104
0.407049
0.424668
0.442126
0.459849
0.477949
0.496446
0.515329
0.534585
0.554202
0.574175
0.594508
0.6152
0.636258
0.657686
0.679489
0.701672
0.724241
0.747201
0.770557
0.794314
0.818474
0.843041
0.868017
0.893402
0.919197
0.945401
0.972011
0.999024
1.02644
1.05424
1.08243
1.11101
1.13995
1.16924
1.19889
1.22887
1.25917
1.28977
1.32067
1.35183
1.38323
1.41487
1.44672
1.47875
1.51094
1.54326
1.5757
1.60822
1.64079
1.6734
1.706
1.73858
1.77111
1.80356
1.8359
1.8681
1.90014
1.932
1.96365
1.99508
2.02626
2.05716
2.08777
2.11806
2.14802
2.17762
2.20685
2.2357
2.26415
2.29222
2.31989
2.34719
2.37413
2.4007
2.42692
2.45278
2.47831
2.50352
2.52841
2.55301
2.57733
2.60138
2.62518
2.64873
2.67203
2.6951
2.71792
2.74047
2.76275
2.78472
2.80632
2.8275
2.84817
2.86823
2.8876
2.90617
2.92381
2.94039
2.95569
2.96948
2.98148
2.99153
2.9991
3.00318
3.00508
3.00428
3.00037
2.99317
2.98252
2.96831
2.95051
2.92909
2.90412
2.87564
2.84381
2.80881
2.77104
2.73103
2.68898
2.6451
2.59947
2.55236
2.50407
2.45496
2.40533
2.35546
2.30561
2.25602
2.20687
2.1582
2.11027
2.06329
2.0174
1.97269
1.92925
1.88714
1.84636
1.80666
1.76825
1.7312
1.69554
1.66124
1.62828
1.5966
1.56613
1.53676
1.50842
1.48059
1.45549
1.40788
0.0334983
0.0717787
0.0928624
0.108579
0.122206
0.134921
0.147254
0.159453
0.171612
0.183749
0.195848
0.207893
0.219879
0.231824
0.243762
0.255748
0.267848
0.280156
0.292806
0.305966
0.319789
0.334321
0.349569
0.365497
0.381969
0.398799
0.416206
0.434325
0.45311
0.472436
0.492313
0.512476
0.5329
0.553654
0.574785
0.59631
0.618237
0.640566
0.663297
0.686432
0.709977
0.733935
0.758312
0.783114
0.808348
0.83402
0.860137
0.886705
0.913729
0.941214
0.969167
0.997589
1.02648
1.05586
1.0857
1.11602
1.14682
1.17809
1.20982
1.24202
1.27467
1.30777
1.34131
1.37527
1.40965
1.44443
1.47959
1.51513
1.55101
1.58721
1.62373
1.66052
1.69758
1.73487
1.77235
1.81002
1.84782
1.88574
1.92374
1.96178
1.99983
2.03786
2.07582
2.1137
2.15144
2.18902
2.2264
2.26355
2.30043
2.33702
2.3733
2.40921
2.44474
2.47987
2.51456
2.54879
2.58256
2.61583
2.64861
2.68089
2.71265
2.7439
2.77463
2.80484
2.83453
2.8637
2.89237
2.92054
2.94823
2.97546
3.00223
3.02858
3.05451
3.08003
3.10517
3.12993
3.1543
3.17829
3.20188
3.22504
3.24774
3.26992
3.29149
3.31237
3.33246
3.35164
3.36976
3.38665
3.40212
3.41591
3.42778
3.43748
3.44435
3.44794
3.44891
3.44683
3.44134
3.43222
3.4193
3.40244
3.38159
3.35671
3.32785
3.2951
3.25865
3.21879
3.17589
3.1304
3.08258
3.03263
2.98078
2.9273
2.87255
2.81688
2.76062
2.7041
2.64761
2.59141
2.53572
2.48068
2.42652
2.37341
2.32151
2.27091
2.22171
2.17396
2.12771
2.08287
2.0395
1.99764
1.95729
1.91844
1.88107
1.84516
1.81064
1.77743
1.74552
1.71477
1.68624
1.6435
0.0440204
0.0883749
0.112593
0.13042
0.145621
0.159575
0.172947
0.186079
0.199148
0.212241
0.225399
0.238644
0.251997
0.265491
0.279168
0.29308
0.307285
0.321846
0.336829
0.352308
0.368344
0.384978
0.40223
0.420099
0.438553
0.457559
0.477142
0.497319
0.518076
0.539374
0.561174
0.58341
0.606053
0.629105
0.652576
0.676472
0.7008
0.725565
0.750773
0.77643
0.802543
0.829118
0.856163
0.883685
0.911692
0.940192
0.969192
0.998701
1.02873
1.05927
1.09035
1.12196
1.15411
1.18679
1.22003
1.2538
1.28813
1.32299
1.35839
1.39433
1.4308
1.46779
1.50529
1.5433
1.58179
1.62076
1.66018
1.70004
1.74032
1.781
1.82205
1.86344
1.90515
1.94715
1.9894
2.03188
2.07454
2.11734
2.16026
2.20324
2.24625
2.28925
2.33219
2.37502
2.41772
2.46022
2.50249
2.54448
2.58616
2.62748
2.6684
2.7089
2.74892
2.78843
2.82741
2.86582
2.90364
2.94084
2.97741
3.01333
3.04857
3.08313
3.11699
3.15015
3.1826
3.21434
3.24537
3.27571
3.30536
3.33435
3.36269
3.39039
3.41749
3.44399
3.46992
3.4953
3.52013
3.54443
3.56819
3.59139
3.61402
3.63602
3.65734
3.6779
3.69759
3.71632
3.73393
3.75026
3.76511
3.77823
3.78939
3.79833
3.8043
3.8072
3.8072
3.80399
3.79722
3.78664
3.77204
3.75329
3.73027
3.70296
3.67142
3.63577
3.59623
3.55307
3.50665
3.45734
3.40542
3.35116
3.29482
3.23671
3.1772
3.11666
3.05546
2.99393
2.93239
2.87113
2.8104
2.7504
2.69134
2.6334
2.57675
2.52149
2.46771
2.41549
2.36487
2.31584
2.26842
2.22262
2.17845
2.1359
2.09496
2.05561
2.01784
1.98161
1.94695
1.91385
1.88259
1.84221
0.0538727
0.103375
0.130435
0.150239
0.166939
0.182086
0.196446
0.210439
0.22431
0.238203
0.252205
0.266374
0.280754
0.295389
0.310322
0.325602
0.341277
0.357391
0.373987
0.391106
0.40878
0.427037
0.445892
0.465352
0.48541
0.506057
0.527288
0.549095
0.571465
0.594379
0.617813
0.64174
0.666143
0.691016
0.716357
0.742169
0.768457
0.795227
0.822485
0.850238
0.878495
0.907264
0.936553
0.966372
0.99673
1.02764
1.0591
1.09114
1.12375
1.15695
1.19074
1.22513
1.26013
1.29574
1.33197
1.36882
1.40628
1.44437
1.48307
1.52239
1.56232
1.60286
1.64398
1.6857
1.72798
1.77082
1.81419
1.85809
1.90248
1.94734
1.99265
2.03838
2.08449
2.13095
2.17772
2.22478
2.27206
2.31954
2.36717
2.41489
2.46267
2.51045
2.55817
2.6058
2.65327
2.70052
2.74752
2.79419
2.8405
2.88638
2.9318
2.9767
3.02104
3.06476
3.10783
3.15022
3.19187
3.23276
3.27285
3.31212
3.35053
3.38807
3.42471
3.46044
3.49525
3.52912
3.56207
3.59409
3.6252
3.6554
3.68471
3.71316
3.74078
3.76758
3.79359
3.81885
3.84337
3.86718
3.89029
3.91271
3.93442
3.95539
3.97561
3.99499
4.01349
4.03098
4.04736
4.06247
4.07611
4.08807
4.09811
4.10596
4.11091
4.11296
4.11204
4.10786
4.10008
4.08843
4.07267
4.05263
4.0282
3.99937
3.96617
3.92875
3.88729
3.84206
3.79335
3.7415
3.6868
3.62953
3.57
3.50853
3.44551
3.38132
3.31633
3.25092
3.18541
3.12013
3.05535
2.9913
2.9282
2.86626
2.80564
2.74646
2.68882
2.6328
2.57846
2.52581
2.47487
2.42565
2.37816
2.33238
2.28833
2.24598
2.20536
2.16647
2.12936
2.09405
2.06043
2.0207
0.0627748
0.116527
0.146066
0.167635
0.185706
0.20196
0.217241
0.232028
0.246615
0.261194
0.275889
0.290788
0.305959
0.321454
0.337323
0.353611
0.370359
0.387603
0.405376
0.423704
0.442607
0.462102
0.4822
0.502906
0.524218
0.546132
0.568639
0.59173
0.615394
0.639618
0.664389
0.689694
0.715523
0.74187
0.768734
0.796118
0.824025
0.852461
0.881435
0.910953
0.941025
0.971661
1.00287
1.03467
1.06706
1.10006
1.13369
1.16794
1.20284
1.23839
1.2746
1.31149
1.34906
1.38732
1.42627
1.46592
1.50627
1.54733
1.58909
1.63155
1.67472
1.71857
1.76311
1.80832
1.8542
1.90071
1.94786
1.99561
2.04394
2.09283
2.14225
2.19216
2.24253
2.29333
2.3445
2.39602
2.44782
2.49987
2.55211
2.60449
2.65694
2.70942
2.76186
2.8142
2.86637
2.91832
2.96997
3.02127
3.07214
3.12254
3.17239
3.22163
3.2702
3.31806
3.36514
3.41138
3.45675
3.5012
3.54468
3.58714
3.62855
3.66888
3.70809
3.74617
3.78309
3.81883
3.8534
3.88678
3.91898
3.95001
3.97989
4.00865
4.0363
4.06289
4.08845
4.11302
4.13663
4.15932
4.18112
4.20206
4.22215
4.2414
4.25979
4.2773
4.29388
4.30947
4.32398
4.33726
4.34917
4.35948
4.368
4.37441
4.37817
4.37923
4.37739
4.37233
4.36374
4.35132
4.33484
4.31409
4.28897
4.25943
4.22549
4.18727
4.14491
4.09865
4.04873
3.99546
3.93912
3.87999
3.81838
3.75464
3.68916
3.62233
3.55453
3.48616
3.41758
3.3491
3.28105
3.21368
3.14723
3.08192
3.01792
2.95537
2.89439
2.83507
2.77746
2.7216
2.66752
2.61523
2.56473
2.51604
2.46915
2.42408
2.38085
2.33949
2.30007
2.26262
2.22679
2.18668
0.0705292
0.12768
0.159296
0.182378
0.201649
0.218898
0.235018
0.250532
0.26577
0.280955
0.296242
0.311744
0.327544
0.343708
0.360291
0.377336
0.394883
0.412963
0.431602
0.45082
0.470634
0.491053
0.512085
0.533733
0.555998
0.578874
0.602358
0.626441
0.651117
0.676377
0.702214
0.728621
0.755594
0.783131
0.811233
0.839902
0.869144
0.898966
0.929376
0.960383
0.992
1.02424
1.05711
1.09062
1.12479
1.15964
1.19517
1.23141
1.26835
1.30603
1.34444
1.3836
1.42353
1.46422
1.5057
1.54796
1.59101
1.63486
1.67951
1.72495
1.77118
1.8182
1.866
1.91457
1.9639
2.01397
2.06476
2.11626
2.16842
2.22123
2.27466
2.32866
2.38321
2.43826
2.49375
2.54966
2.60592
2.66247
2.71926
2.77624
2.83332
2.89045
2.94756
3.00457
3.06142
3.11802
3.1743
3.23019
3.2856
3.34047
3.39471
3.44826
3.50104
3.55297
3.604
3.65406
3.70308
3.75101
3.79778
3.84334
3.88764
3.93064
3.9723
4.01257
4.05143
4.08886
4.12483
4.15933
4.19237
4.22395
4.25409
4.28281
4.31013
4.3361
4.36077
4.38417
4.40637
4.4274
4.44734
4.46621
4.48406
4.50094
4.51686
4.53182
4.54584
4.55887
4.57086
4.58172
4.59132
4.59949
4.60604
4.61065
4.61296
4.61279
4.60987
4.60393
4.59465
4.58173
4.56491
4.54397
4.51878
4.48926
4.45539
4.41724
4.37492
4.3286
4.27849
4.22484
4.16791
4.10798
4.04535
3.98037
3.91342
3.84489
3.7752
3.70474
3.63388
3.56298
3.49237
3.42233
3.35314
3.28502
3.21816
3.15273
3.08885
3.02662
2.96612
2.90739
2.85047
2.79539
2.74215
2.69077
2.64125
2.59364
2.54795
2.50424
2.46258
2.423
2.38502
2.34391
0.0770176
0.136785
0.170074
0.194403
0.21469
0.232801
0.249666
0.265835
0.28166
0.297386
0.313189
0.329198
0.34551
0.362201
0.37933
0.396943
0.415079
0.433767
0.453031
0.472889
0.493354
0.514435
0.53614
0.558471
0.581428
0.605011
0.629217
0.654041
0.679482
0.705533
0.732194
0.759461
0.787334
0.815816
0.844909
0.874618
0.904952
0.935918
0.967528
0.999792
1.03272
1.06633
1.10064
1.13566
1.1714
1.20789
1.24513
1.28315
1.32196
1.36158
1.40201
1.44328
1.4854
1.52838
1.57223
1.61695
1.66257
1.70908
1.75648
1.80477
1.85396
1.90404
1.955
2.00684
2.05953
2.11306
2.16741
2.22256
2.27848
2.33514
2.3925
2.45053
2.50918
2.56841
2.62817
2.68841
2.74905
2.81006
2.87135
2.93287
2.99453
3.05626
3.11799
3.17963
3.2411
3.30231
3.36317
3.4236
3.48351
3.5428
3.6014
3.6592
3.71613
3.7721
3.82702
3.88083
3.93343
3.98476
4.03475
4.08333
4.13044
4.17601
4.22
4.26235
4.30302
4.34198
4.37919
4.41464
4.44831
4.48022
4.51035
4.53875
4.56544
4.59046
4.61387
4.63571
4.65606
4.67498
4.69254
4.70881
4.72386
4.73777
4.75059
4.76238
4.77316
4.78297
4.79179
4.79958
4.80626
4.81171
4.81575
4.81814
4.8186
4.81685
4.81263
4.80572
4.79579
4.78254
4.76568
4.74498
4.72025
4.69137
4.65828
4.62099
4.57956
4.53411
4.48478
4.43177
4.37529
4.31559
4.25297
4.18776
4.12033
4.05106
3.98038
3.90867
3.83635
3.76378
3.69131
3.61926
3.54792
3.47754
3.40833
3.34047
3.27412
3.20937
3.14633
3.08505
3.02559
2.96796
2.91221
2.85834
2.80638
2.75636
2.70834
2.66237
2.61851
2.57679
2.53666
2.49417
0.082194
0.143886
0.178466
0.203782
0.224894
0.243725
0.261228
0.277967
0.294308
0.310509
0.326756
0.343189
0.359915
0.377015
0.394554
0.41258
0.431134
0.450244
0.469936
0.490226
0.511128
0.532654
0.554809
0.577601
0.60103
0.625098
0.649806
0.675155
0.701144
0.727774
0.755045
0.782959
0.81152
0.840734
0.870607
0.901147
0.932365
0.964271
0.99688
1.0302
1.06426
1.09906
1.13462
1.17097
1.20812
1.24608
1.28488
1.32454
1.36507
1.40649
1.44882
1.49207
1.53627
1.58142
1.62754
1.67464
1.72272
1.7718
1.82188
1.87295
1.92503
1.97809
2.03215
2.08717
2.14316
2.20009
2.25795
2.31669
2.37631
2.43675
2.49799
2.55998
2.62268
2.68603
2.74999
2.81448
2.87945
2.94483
3.01054
3.07652
3.14268
3.20893
3.27519
3.34137
3.40738
3.47311
3.53846
3.60334
3.66765
3.73128
3.79413
3.8561
3.91708
3.97698
4.0357
4.09315
4.14924
4.20388
4.25698
4.30847
4.35826
4.40629
4.45249
4.49679
4.53914
4.57948
4.61778
4.654
4.68813
4.72015
4.75007
4.7779
4.80369
4.82747
4.84929
4.86922
4.88734
4.90373
4.91846
4.93165
4.94338
4.95376
4.96288
4.97085
4.97776
4.98367
4.98863
4.99267
4.99577
4.99786
4.9988
4.99843
4.99653
4.99274
4.98695
4.9789
4.96828
4.95477
4.93806
4.91788
4.89402
4.86629
4.8346
4.79889
4.75915
4.71544
4.66782
4.61643
4.56143
4.50302
4.44146
4.37705
4.31013
4.2411
4.17035
4.09829
4.02534
3.95188
3.87828
3.8049
3.73204
3.65997
3.58893
3.51913
3.45073
3.38387
3.31865
3.25514
3.19342
3.13352
3.07547
3.01932
2.96508
2.91281
2.86257
2.81441
2.7684
2.72454
2.68226
2.63817
0.0860765
0.149092
0.184617
0.210676
0.232429
0.251832
0.269853
0.287064
0.303838
0.320435
0.337047
0.353821
0.370866
0.38827
0.4061
0.424408
0.443234
0.462611
0.482564
0.503113
0.524273
0.546058
0.568479
0.591542
0.615254
0.639619
0.664643
0.69033
0.716684
0.743709
0.771409
0.799789
0.828859
0.858627
0.889104
0.920301
0.952234
0.984915
1.01836
1.05259
1.08762
1.12347
1.16016
1.19771
1.23613
1.27546
1.31571
1.35691
1.39907
1.44222
1.48637
1.53154
1.57775
1.62502
1.67336
1.72278
1.7733
1.82491
1.87763
1.93145
1.98638
2.0424
2.09952
2.15771
2.21697
2.27727
2.33858
2.40089
2.46415
2.52833
2.59338
2.65927
2.72594
2.79333
2.86139
2.93005
2.99923
3.06887
3.13889
3.2092
3.27972
3.35035
3.421
3.49157
3.56195
3.63203
3.70171
3.77088
3.83941
3.90721
3.97414
4.04009
4.10495
4.16861
4.23095
4.29187
4.35126
4.40903
4.46507
4.51929
4.57161
4.62193
4.67017
4.71625
4.7601
4.80165
4.84085
4.87765
4.91203
4.94395
4.97343
5.00046
5.02509
5.04735
5.06729
5.08499
5.10053
5.11401
5.12551
5.13516
5.14308
5.1494
5.15426
5.15782
5.16021
5.16154
5.16196
5.16154
5.16036
5.15843
5.1556
5.1518
5.1469
5.14069
5.13298
5.12354
5.11206
5.09823
5.08172
5.06225
5.03954
5.01338
4.9836
4.95009
4.91278
4.87163
4.82664
4.77785
4.72535
4.66928
4.60984
4.54729
4.48194
4.41416
4.34432
4.27285
4.20015
4.12663
4.05269
3.97869
3.90497
3.83183
3.75954
3.68831
3.61835
3.5498
3.48278
3.41741
3.35374
3.29184
3.23176
3.17354
3.11722
3.06285
3.01051
2.96025
2.91214
2.86616
2.82175
2.77594
0.0887096
0.152549
0.188715
0.215298
0.237512
0.257339
0.275753
0.293327
0.310434
0.327337
0.344228
0.361252
0.378523
0.39613
0.414142
0.432613
0.451586
0.471096
0.491171
0.511834
0.533103
0.554996
0.577525
0.600704
0.624542
0.649051
0.674237
0.700112
0.726682
0.753955
0.78194
0.810646
0.840085
0.87027
0.901218
0.932944
0.965468
0.998807
1.03298
1.06802
1.10393
1.14074
1.17847
1.21715
1.2568
1.29745
1.33911
1.38182
1.42559
1.47044
1.51641
1.5635
1.61173
1.66113
1.71171
1.76348
1.81644
1.87061
1.926
1.98259
2.04039
2.09939
2.15958
2.22094
2.28346
2.34711
2.41187
2.4777
2.54456
2.61242
2.68123
2.75093
2.82147
2.8928
2.96483
3.03751
3.11075
3.18448
3.25861
3.33306
3.40772
3.4825
3.55729
3.63199
3.70649
3.78066
3.85439
3.92755
4.00003
4.07169
4.14241
4.21206
4.28051
4.34763
4.4133
4.4774
4.53981
4.60042
4.65913
4.71582
4.77038
4.82273
4.87275
4.92036
4.96547
5.00798
5.04784
5.08498
5.11935
5.15093
5.1797
5.20567
5.22886
5.24931
5.26708
5.28224
5.29487
5.30507
5.31296
5.31866
5.32231
5.32409
5.32415
5.32273
5.32
5.31609
5.31129
5.30572
5.29954
5.29281
5.28555
5.27775
5.26933
5.26015
5.25007
5.23887
5.22627
5.21196
5.19561
5.17691
5.15554
5.13124
5.1038
5.07304
5.03882
5.00102
4.95954
4.9143
4.86533
4.81267
4.75646
4.69687
4.63418
4.56871
4.50083
4.43093
4.35943
4.28675
4.2133
4.13947
4.06562
3.99209
3.91915
3.84706
3.77605
3.70629
3.63792
3.57106
3.50581
3.44223
3.38039
3.32035
3.26215
3.20587
3.15158
3.09934
3.04921
3.00116
2.95467
2.9071
0.090261
0.154475
0.190981
0.217878
0.240386
0.260492
0.279171
0.296992
0.314326
0.331433
0.348505
0.365687
0.38309
0.400805
0.418899
0.437428
0.456439
0.475969
0.496049
0.516705
0.537963
0.55984
0.582358
0.605532
0.629379
0.653915
0.679152
0.705105
0.731787
0.75921
0.787385
0.816327
0.846051
0.876575
0.907916
0.940102
0.973156
1.0071
1.04197
1.07777
1.11455
1.15231
1.19109
1.23092
1.27183
1.31382
1.35695
1.40122
1.44667
1.49331
1.54117
1.59027
1.64062
1.69225
1.74517
1.79938
1.85489
1.91172
1.96986
2.02931
2.09006
2.1521
2.21541
2.27999
2.3458
2.41282
2.48101
2.55033
2.62075
2.69221
2.76467
2.83806
2.91233
2.98741
3.06323
3.1397
3.21676
3.29431
3.37226
3.45052
3.52899
3.60756
3.68613
3.76457
3.84277
3.92061
3.99796
4.07469
4.15067
4.22576
4.29982
4.37271
4.44429
4.51443
4.58298
4.64982
4.71482
4.77785
4.8388
4.89755
4.95397
5.00796
5.05939
5.10817
5.15417
5.1973
5.23747
5.2746
5.30864
5.33955
5.36729
5.39188
5.41331
5.43164
5.44691
5.45919
5.46857
5.47516
5.47906
5.48042
5.47938
5.47618
5.47091
5.46394
5.45549
5.44582
5.43519
5.42385
5.41201
5.39984
5.3875
5.37506
5.3625
5.34981
5.33686
5.32348
5.30944
5.29442
5.27811
5.26016
5.24022
5.21801
5.19325
5.16571
5.13518
5.10148
5.06436
5.02363
4.9792
4.93106
4.87919
4.82371
4.76481
4.70278
4.63795
4.57068
4.50139
4.43051
4.35846
4.28565
4.21246
4.13926
4.06636
3.99405
3.92257
3.85212
3.78287
3.71497
3.64852
3.58362
3.52035
3.45877
3.39896
3.34098
3.28492
3.23084
3.1788
3.12879
3.08028
3.03099
0.0905319
0.154811
0.19152
0.218602
0.241275
0.261534
0.280357
0.298312
0.315766
0.332977
0.350132
0.367373
0.384811
0.402534
0.420614
0.439109
0.458064
0.477522
0.497517
0.518081
0.539241
0.561023
0.583452
0.60655
0.63034
0.654843
0.680077
0.706061
0.732813
0.760353
0.788698
0.817866
0.847874
0.878738
0.910471
0.943128
0.976744
1.01135
1.04696
1.08362
1.12134
1.16016
1.20012
1.24123
1.28353
1.32704
1.3718
1.41783
1.46515
1.51378
1.56375
1.61507
1.66776
1.72183
1.77729
1.83415
1.89242
1.95208
2.01315
2.07561
2.13944
2.20464
2.27118
2.33903
2.40816
2.47855
2.55015
2.62291
2.69678
2.77172
2.84767
2.92455
3.00231
3.08087
3.16015
3.24008
3.32056
3.40151
3.48284
3.56443
3.6462
3.72802
3.8098
3.8914
3.97271
4.0536
4.13394
4.2136
4.29242
4.37028
4.44703
4.52251
4.59658
4.66908
4.73988
4.80884
4.8758
4.94065
5.00326
5.06348
5.1212
5.17629
5.22861
5.27803
5.32444
5.3677
5.40771
5.44439
5.47765
5.50745
5.53375
5.55654
5.57583
5.59164
5.60403
5.61307
5.61885
5.62146
5.62099
5.61769
5.61151
5.60283
5.59187
5.57892
5.56427
5.5483
5.53131
5.51362
5.49556
5.47736
5.45906
5.44102
5.42345
5.40641
5.3899
5.37379
5.3579
5.34194
5.32559
5.30847
5.29021
5.27048
5.24899
5.22546
5.19953
5.17067
5.13873
5.10343
5.06458
5.02205
4.97568
4.92547
4.87154
4.81413
4.7535
4.68999
4.624
4.55594
4.48626
4.41539
4.34372
4.27166
4.19954
4.12769
4.05637
3.98582
3.91623
3.84778
3.78059
3.71477
3.65043
3.58765
3.5265
3.46708
3.40947
3.35374
3.29996
3.2481
3.1977
3.14676
0.0902343
0.154303
0.190931
0.217981
0.240641
0.260897
0.279719
0.29767
0.315116
0.33231
0.349439
0.366642
0.384029
0.401687
0.419688
0.438089
0.456941
0.476285
0.496161
0.516605
0.537648
0.55932
0.581651
0.604668
0.628401
0.652877
0.678119
0.704154
0.731008
0.758707
0.787278
0.816739
0.847113
0.878424
0.910697
0.943992
0.978349
1.01381
1.05039
1.08814
1.12708
1.16724
1.20866
1.25137
1.2954
1.34078
1.38753
1.43569
1.48526
1.53627
1.58872
1.64264
1.69804
1.75491
1.81327
1.87311
1.93442
1.99721
2.06145
2.12713
2.19423
2.26272
2.33257
2.40375
2.47621
2.54992
2.62483
2.70087
2.77801
2.85617
2.93529
3.0153
3.09614
3.17772
3.25996
3.34278
3.42608
3.50979
3.5938
3.678
3.76231
3.8466
3.93076
4.01468
4.09824
4.1813
4.26373
4.3454
4.42617
4.50589
4.58442
4.66159
4.73724
4.81124
4.88341
4.95362
5.02172
5.08757
5.15102
5.21195
5.27022
5.32568
5.37818
5.42757
5.47371
5.51647
5.55571
5.59132
5.62322
5.65136
5.67567
5.69615
5.7128
5.72563
5.7347
5.74005
5.74183
5.74014
5.73499
5.72647
5.71483
5.70034
5.68329
5.66396
5.64253
5.61945
5.59521
5.57025
5.545
5.51985
5.49526
5.4717
5.44919
5.42786
5.40776
5.38886
5.371
5.35395
5.33738
5.32091
5.30413
5.28668
5.2683
5.24867
5.22755
5.20455
5.17905
5.15056
5.11879
5.08319
5.0435
4.99976
4.952
4.90044
4.84522
4.78663
4.72507
4.66093
4.59466
4.52671
4.45749
4.38744
4.31691
4.24626
4.1758
4.10579
4.03646
3.96799
3.90056
3.83428
3.76929
3.70567
3.64353
3.58297
3.52407
3.46693
3.41159
3.35808
3.30594
3.25349
0.0893262
0.152872
0.189145
0.215997
0.238505
0.258627
0.277325
0.295158
0.312487
0.329563
0.34657
0.363644
0.380895
0.398408
0.416258
0.434503
0.453194
0.472379
0.492103
0.512406
0.533328
0.554906
0.577178
0.600182
0.623956
0.648537
0.673956
0.700248
0.727453
0.755608
0.784763
0.814907
0.846069
0.878281
0.911563
0.94596
0.981552
1.01838
1.05648
1.09588
1.13663
1.17874
1.22227
1.26723
1.31367
1.36162
1.4111
1.46211
1.51465
1.56874
1.62439
1.68158
1.74033
1.80061
1.86243
1.92578
1.99062
2.05694
2.12472
2.19391
2.2645
2.33644
2.40968
2.48419
2.55991
2.63679
2.71477
2.79379
2.8738
2.95472
3.03649
3.11903
3.20227
3.28613
3.37052
3.45537
3.54059
3.62608
3.71176
3.79752
3.88327
3.96889
4.05429
4.13934
4.22394
4.30795
4.39125
4.47371
4.55518
4.63553
4.71461
4.79225
4.8683
4.9426
5.015
5.08533
5.15345
5.21921
5.28247
5.34307
5.40089
5.45575
5.50749
5.55594
5.60094
5.64231
5.67993
5.71366
5.7434
5.7691
5.79068
5.80814
5.82146
5.83065
5.83579
5.83682
5.8343
5.82751
5.81676
5.80228
5.78432
5.76315
5.73909
5.71254
5.6841
5.65415
5.62304
5.59125
5.55928
5.52763
5.49678
5.46704
5.43887
5.41257
5.38831
5.36615
5.34602
5.32773
5.31096
5.29529
5.28029
5.26556
5.25084
5.23577
5.22041
5.20341
5.18448
5.16299
5.13872
5.11117
5.07977
5.04419
5.00434
4.95995
4.91142
4.859
4.80306
4.74401
4.68225
4.61825
4.55247
4.48533
4.41725
4.3486
4.27973
4.21093
4.14246
4.07455
4.00738
3.94111
3.87589
3.81182
3.74904
3.68763
3.62772
3.56939
3.51271
3.45771
3.404
3.35017
0.0874064
0.150161
0.185982
0.212506
0.234733
0.254603
0.273071
0.290695
0.307832
0.324731
0.341572
0.358492
0.375601
0.392987
0.410726
0.428882
0.447514
0.466675
0.486416
0.506787
0.52784
0.549615
0.57216
0.595525
0.619764
0.644948
0.671072
0.69818
0.72632
0.755524
0.785801
0.817168
0.849711
0.883493
0.918584
0.955026
0.992859
1.03212
1.07284
1.11505
1.15878
1.20406
1.2509
1.29933
1.34937
1.40103
1.45431
1.50921
1.56571
1.6238
1.68347
1.7447
1.80747
1.87174
1.93751
2.00472
2.07335
2.14335
2.21469
2.28731
2.36118
2.43624
2.51244
2.58972
2.66803
2.74731
2.8275
2.90854
2.99036
3.07289
3.15607
3.23984
3.3241
3.4088
3.49386
3.5792
3.66474
3.75039
3.83608
3.92171
4.00719
4.09242
4.17731
4.26176
4.34565
4.42887
4.51131
4.59283
4.67332
4.75263
4.83062
4.90713
4.982
5.05507
5.12619
5.19519
5.26193
5.32626
5.38801
5.44703
5.5032
5.55631
5.60617
5.6526
5.69541
5.73442
5.76945
5.80038
5.82703
5.84932
5.86723
5.88074
5.88985
5.89457
5.89496
5.89145
5.88346