/*--------------------------------*- C++ -*----------------------------------*\
  =========                 |
  \\      /  F ield         | OpenFOAM: The Open Source CFD Toolbox
   \\    /   O peration     | Website:  https://openfoam.org
    \\  /    A nd           | Version:  8
     \\/     M anipulation  |
\*---------------------------------------------------------------------------*/
FoamFile
{
    version     2.0;
    format      ascii;
    class       volScalarField;
    location    "165";
    object      nut;
}
// * * * * * * * * * * * * * * * * * * * * * * * * * * * * * * * * * * * * * //

dimensions      [0 2 -1 0 0 0 0];

internalField   nonuniform List<scalar> 
12225
(
4.14973e-05
3.93418e-05
3.74831e-05
3.54334e-05
3.37827e-05
3.24224e-05
3.15069e-05
3.09122e-05
3.09177e-05
3.10982e-05
3.15691e-05
3.21114e-05
3.31465e-05
3.38198e-05
3.51207e-05
3.57059e-05
3.73621e-05
3.67606e-05
0.000332377
0.000215176
0.000179303
0.000157647
0.000146229
0.000138183
0.000132715
0.000131688
0.000129464
0.000130111
0.000128999
0.000129492
0.000128613
0.000128605
0.000128057
0.000127433
0.000127459
0.00012648
0.000675105
0.000450707
0.000355853
0.000309757
0.000275344
0.000251034
0.000231739
0.00021723
0.000202653
0.000192116
0.000182583
0.000175183
0.000169342
0.000163618
0.000160273
0.000155452
0.000153759
0.000149705
0.000833732
0.000684768
0.000572117
0.00049986
0.000449539
0.000411871
0.000380817
0.000355942
0.000334013
0.000314727
0.000298301
0.000281656
0.000270258
0.000255973
0.00024811
0.000236025
0.00023022
0.000220237
0.000861296
0.00080251
0.000742216
0.000676471
0.000624074
0.000581298
0.000545908
0.000514498
0.000489525
0.000464374
0.000445834
0.000424004
0.000409872
0.000390706
0.000379756
0.000362944
0.000354247
0.000339243
0.000854991
0.000840349
0.000822237
0.000786434
0.000750919
0.000715851
0.000685788
0.00065609
0.000632548
0.000607474
0.000588968
0.000567188
0.000552217
0.000533004
0.000520658
0.000503574
0.000493093
0.000477226
0.000852912
0.000850686
0.000844244
0.000832826
0.000817432
0.000796976
0.000777899
0.000756714
0.000738895
0.000719118
0.000703507
0.000685576
0.000672068
0.000655846
0.000644206
0.0006294
0.000619339
0.00060494
0.000851925
0.000851811
0.000850177
0.00084739
0.000841457
0.000833726
0.000824897
0.000813405
0.000802803
0.000790455
0.000779697
0.00076751
0.000757386
0.000745729
0.000736468
0.000725434
0.000717032
0.000705889
0.000851752
0.00085154
0.000851037
0.000850336
0.000848881
0.000846167
0.000843035
0.0008383
0.000833399
0.000827353
0.000821205
0.000814756
0.000808386
0.000801493
0.000795197
0.00078836
0.000782095
0.000775158
0.00085177
0.000851388
0.000851047
0.000850632
0.000850248
0.000849367
0.000848405
0.000846779
0.000844954
0.000842526
0.000839918
0.000836791
0.000833782
0.000830135
0.000826947
0.000822894
0.000819861
0.000815247
0.000851787
0.000851358
0.000851012
0.000850613
0.000850329
0.000849905
0.000849525
0.000848928
0.000848302
0.000847391
0.000846463
0.000845172
0.000843984
0.000842343
0.000840985
0.000839017
0.000837621
0.000835337
0.000851789
0.000851359
0.000850996
0.000850605
0.000850292
0.000849938
0.000849646
0.00084928
0.000848954
0.000848503
0.000848097
0.000847505
0.000846994
0.00084624
0.000845636
0.000844713
0.000844049
0.000842965
0.000851786
0.000851363
0.000850986
0.000850604
0.000850269
0.000849926
0.00084963
0.000849313
0.000849042
0.000848728
0.000848461
0.000848125
0.000847842
0.000847463
0.000847154
0.000846722
0.000846383
0.000845898
0.000851783
0.000851364
0.000850978
0.000850602
0.000850256
0.000849916
0.000849607
0.0008493
0.000849022
0.00084874
0.000848488
0.000848223
0.000847988
0.000847734
0.000847507
0.000847256
0.000847032
0.000846782
0.000851781
0.000851364
0.000850973
0.000850598
0.000850246
0.000849909
0.000849592
0.000849286
0.000849
0.000848723
0.000848463
0.000848211
0.000847975
0.000847744
0.000847527
0.000847316
0.000847115
0.00084692
0.00085178
0.000851363
0.000850969
0.000850594
0.000850239
0.000849901
0.00084958
0.000849275
0.000848984
0.000848707
0.000848443
0.000848191
0.000847951
0.000847722
0.000847503
0.000847293
0.000847094
0.000846902
0.000851779
0.000851362
0.000850967
0.000850591
0.000850234
0.000849895
0.000849572
0.000849265
0.000848973
0.000848694
0.000848429
0.000848175
0.000847933
0.000847702
0.000847481
0.00084727
0.000847069
0.000846876
0.000851779
0.000851362
0.000850965
0.000850589
0.000850231
0.000849891
0.000849567
0.000849259
0.000848966
0.000848686
0.000848419
0.000848164
0.000847921
0.000847688
0.000847466
0.000847254
0.00084705
0.000846856
0.000851779
0.000851362
0.000850965
0.000850588
0.00085023
0.000849889
0.000849565
0.000849256
0.000848962
0.000848682
0.000848414
0.000848159
0.000847915
0.000847681
0.000847458
0.000847245
0.000847041
0.000846845
0.000851779
0.000851362
0.000850966
0.000850589
0.000850231
0.000849891
0.000849568
0.00084926
0.000848966
0.000848686
0.000848418
0.000848163
0.000847918
0.000847685
0.000847461
0.000847248
0.000847043
0.000846847
0.000851779
0.000851363
0.000850967
0.000850592
0.000850235
0.000849897
0.000849573
0.000849267
0.000848973
0.000848694
0.000848425
0.000848169
0.000847921
0.000847685
0.000847452
0.000847233
0.000847014
0.000846808
0.000851778
0.000851366
0.000850968
0.000850599
0.00085024
0.000849908
0.00084958
0.000849274
0.000848965
0.000848672
0.000848365
0.000848073
0.000847757
0.000847457
0.000847124
0.000846813
0.000846459
0.000846138
0.000851777
0.000851374
0.000850972
0.000850615
0.000850241
0.00084989
0.000849479
0.000849054
0.00084853
0.000847979
0.000847302
0.000846606
0.000845768
0.000844941
0.000843957
0.000843032
0.000841921
0.000840943
0.000851802
0.00085141
0.00085097
0.000850549
0.000849861
0.000848967
0.000847608
0.000845981
0.000843905
0.000841637
0.000838957
0.000836217
0.00083312
0.000830118
0.000826768
0.000823686
0.000820191
0.000817185
0.000852138
0.000851404
0.000850234
0.000848253
0.000844473
0.000839356
0.000832713
0.000825765
0.000817917
0.000810004
0.00080162
0.000793633
0.000785339
0.000777715
0.000769753
0.000762711
0.000755136
0.000748809
0.000854142
0.000847718
0.000840126
0.000827123
0.000808709
0.000789649
0.000769975
0.000751421
0.000733309
0.000716901
0.000700942
0.00068679
0.000672841
0.000660684
0.000648393
0.000637958
0.000626972
0.000618041
0.00085497
0.000818337
0.00077623
0.000726636
0.00068494
0.00064986
0.000618464
0.000592027
0.000568388
0.00054832
0.000529698
0.000514004
0.000498763
0.000486032
0.000473219
0.000462727
0.000451643
0.000442827
0.000807486
0.00066688
0.000570552
0.000509857
0.000465651
0.000431198
0.000404137
0.000382506
0.0003642
0.000349074
0.000335948
0.000325087
0.00031449
0.000306259
0.000297975
0.000291382
0.000284297
0.000278948
0.000501854
0.000348405
0.000292691
0.000259175
0.000236324
0.000221178
0.000211545
0.000204018
0.000198482
0.000195062
0.00019222
0.00019037
0.000188583
0.000187441
0.000186166
0.000185475
0.000184555
0.000184143
7.27285e-05
7.02231e-05
6.79539e-05
6.56136e-05
6.33827e-05
6.12765e-05
5.94928e-05
5.79572e-05
5.67102e-05
5.57027e-05
5.49772e-05
5.44178e-05
5.41078e-05
5.38859e-05
5.38758e-05
5.39602e-05
5.40694e-05
5.43197e-05
1.09594e-06
2.04203e-05
3.43558e-05
4.755e-05
6.08827e-05
7.4385e-05
8.80304e-05
0.000101685
0.000115135
0.000128151
0.00014051
0.000151985
0.000162307
0.000171084
0.000177696
0.000181129
0.000179849
0.000172044
0.000155314
2.99343e-05
2.972e-05
3.0756e-05
3.20978e-05
3.59845e-05
0.000178374
3.88679e-05
3.99711e-05
4.03208e-05
4.13862e-05
4.3415e-05
4.74442e-05
4.79657e-05
4.93588e-05
5.0491e-05
5.16398e-05
5.28251e-05
5.39909e-05
5.51623e-05
5.63224e-05
5.74788e-05
5.86284e-05
5.97725e-05
6.09113e-05
6.20448e-05
6.31741e-05
6.42988e-05
6.54199e-05
6.65369e-05
6.7651e-05
6.87614e-05
6.9869e-05
7.09732e-05
7.20746e-05
7.31724e-05
7.42672e-05
7.53581e-05
7.64456e-05
7.75288e-05
7.86079e-05
7.96821e-05
8.07515e-05
8.18152e-05
8.28731e-05
8.39246e-05
8.49692e-05
8.60064e-05
8.70358e-05
8.80567e-05
8.90686e-05
9.0071e-05
9.10631e-05
9.20448e-05
9.30149e-05
9.39735e-05
9.49193e-05
9.58526e-05
9.67718e-05
9.76775e-05
9.8568e-05
9.94441e-05
0.000100304
0.000101149
0.000101976
0.000102788
0.000103582
0.000104359
0.000105117
0.000105859
0.000106582
0.000107288
0.000107976
0.000108646
0.000109297
0.000109929
0.000110542
0.000111135
0.000111708
0.000112261
0.000112793
0.000113306
0.000113803
0.00011428
0.00011474
0.000115185
0.000115613
0.000116026
0.000116423
0.000116807
0.000117177
0.000117533
0.000117877
0.000118209
0.000118527
0.000118835
0.000119131
0.000119415
0.000119688
0.000119949
0.000120198
0.000120436
0.00012066
0.00012087
0.000121061
0.000121234
0.000121385
0.000121514
0.000121621
0.000121723
0.000121809
0.000122019
0.000121636
0.000122055
0.000121902
0.000121756
0.000121576
0.00012138
0.00012115
0.000120848
0.000120468
0.000120029
0.000119509
0.000118909
0.000118227
0.00011747
0.000116626
0.000115645
0.000114744
0.000113203
0.000111619
0.000110863
0.000110177
0.000109447
0.000108665
0.000107836
0.000106956
0.000106027
0.000105078
0.000104096
0.000103112
0.000102089
0.000101044
9.99933e-05
9.89299e-05
9.78949e-05
9.68431e-05
9.57972e-05
9.47648e-05
9.37403e-05
9.27266e-05
9.17279e-05
9.07472e-05
8.97849e-05
8.88406e-05
8.79109e-05
8.69946e-05
8.60723e-05
8.51699e-05
8.40957e-05
8.32294e-05
8.05182e-05
3.72912e-06
5.22395e-05
0.000106379
0.000144561
0.000171394
0.000192339
0.000210256
0.000226556
0.000241789
0.00025603
0.000269071
0.000280485
0.000289581
0.000295276
0.000295935
0.000289308
0.000272829
0.00024463
0.000205477
0.000160983
0.000158748
0.000166273
0.000179914
0.000202423
0.000232592
0.000217168
0.000216711
0.000229333
0.000252209
0.000257689
0.000284473
0.000292671
0.000299611
0.000306243
0.000313647
0.000321338
0.000329333
0.000337529
0.00034581
0.000354154
0.00036255
0.00037099
0.000379472
0.000387997
0.000396564
0.000405179
0.000413842
0.00042256
0.000431335
0.000440173
0.000449076
0.000458048
0.000467093
0.000476212
0.000485407
0.00049468
0.00050403
0.000513458
0.000522964
0.000532544
0.000542198
0.000551922
0.000561714
0.000571569
0.000581483
0.000591451
0.000601467
0.000611524
0.000621617
0.000631737
0.000641877
0.000652027
0.000662183
0.000672331
0.000682466
0.000692575
0.00070265
0.00071268
0.000722658
0.000732572
0.000742417
0.000752182
0.000761861
0.000771446
0.000780931
0.000790307
0.000799569
0.00080871
0.000817735
0.000826644
0.000835448
0.000844148
0.000852744
0.000861237
0.000869631
0.000877926
0.000886114
0.000894176
0.000902061
0.000909669
0.000916776
0.000923498
0.000930164
0.000936739
0.000943245
0.00094969
0.000956087
0.000962448
0.00096879
0.000975125
0.000981472
0.00098784
0.000994249
0.00100071
0.00100723
0.00101383
0.00102051
0.00102728
0.00103415
0.0010411
0.00104815
0.00105528
0.00106246
0.00106968
0.00107689
0.00108406
0.00109121
0.00109849
0.00110586
0.00111292
0.00111864
0.00112648
0.00113303
0.0011378
0.00114222
0.00114637
0.00115002
0.00115297
0.00115509
0.00115638
0.00115681
0.00115636
0.00115499
0.00115272
0.00114956
0.00114524
0.00114039
0.00113365
0.00112221
0.00110896
0.00109463
0.00107957
0.00106397
0.00104799
0.00103174
0.00101527
0.000998665
0.000982019
0.00096545
0.000948887
0.000932595
0.000916587
0.000900863
0.00088551
0.000870662
0.000856243
0.000842187
0.000828351
0.000814827
0.000801683
0.000788939
0.000776576
0.000764556
0.000752848
0.000741333
0.000730075
0.000718253
0.000706544
0.000687104
0.000634748
6.99118e-06
7.815e-05
0.000157276
0.000218509
0.000263951
0.000297963
0.00032444
0.000346122
0.000364717
0.000381154
0.000395806
0.000408648
0.000419324
0.000427164
0.000431204
0.000430341
0.000423778
0.000411817
0.000397171
0.000385664
0.000391153
0.000405994
0.000426152
0.000448622
0.000467603
0.000475889
0.000489379
0.000508917
0.000530096
0.000548559
0.000570395
0.00058732
0.000603421
0.000619354
0.000635518
0.000651871
0.000668397
0.000685039
0.000701739
0.000718511
0.000735354
0.000752267
0.000769255
0.000786321
0.000803471
0.000820714
0.000838057
0.000855507
0.000873073
0.000890761
0.000908578
0.000926531
0.000944624
0.00096286
0.000981241
0.000999769
0.00101844
0.00103726
0.00105622
0.00107532
0.00109455
0.00111391
0.00113339
0.00115299
0.00117269
0.00119248
0.00121235
0.00123229
0.00125229
0.00127233
0.0012924
0.00131248
0.00133255
0.00135261
0.00137263
0.0013926
0.00141249
0.00143229
0.00145199
0.00147155
0.00149098
0.00151024
0.00152933
0.00154823
0.00156692
0.0015854
0.00160364
0.00162164
0.0016394
0.0016569
0.00167416
0.00169117
0.00170792
0.00172439
0.0017406
0.00175651
0.00177211
0.00178737
0.00180225
0.00181665
0.00183061
0.00184423
0.00185763
0.00187082
0.00188381
0.00189661
0.00190926
0.00192178
0.00193418
0.00194651
0.00195878
0.00197102
0.00198327
0.00199555
0.00200788
0.00202029
0.0020328
0.00204541
0.00205814
0.002071
0.00208397
0.00209704
0.00211019
0.00212334
0.00213646
0.00214949
0.00216236
0.00217508
0.00218752
0.00219936
0.00221095
0.00222332
0.00223417
0.00224225
0.00224994
0.00225679
0.00226243
0.0022667
0.00226946
0.00227062
0.00227013
0.00226793
0.00226398
0.00225827
0.00225081
0.00224143
0.00223038
0.00221695
0.00219905
0.00217812
0.00215515
0.00213066
0.002105
0.00207844
0.00205119
0.00202338
0.00199518
0.00196674
0.00193825
0.0019099
0.00188185
0.00185415
0.00182683
0.0018
0.00177418
0.00174902
0.00172435
0.00169974
0.00167556
0.001652
0.00162911
0.00160682
0.00158503
0.00156368
0.00154259
0.00152167
0.00149985
0.00147811
0.00145025
0.00137478
1.03537e-05
9.82288e-05
0.000196437
0.00027458
0.0003341
0.00037928
0.000414274
0.000442267
0.000465524
0.000485555
0.000503292
0.00051925
0.000533653
0.000546508
0.00055768
0.000566992
0.000574418
0.000580429
0.000586413
0.000594855
0.000608595
0.000626548
0.000647166
0.000668819
0.000689755
0.000709006
0.000729826
0.000752423
0.000775866
0.000799305
0.000823318
0.000846417
0.000869328
0.00089224
0.000915273
0.000938455
0.000961817
0.000985412
0.00100906
0.00103277
0.00105656
0.00108044
0.0011044
0.00112847
0.00115265
0.00117695
0.00120139
0.00122597
0.0012507
0.00127559
0.00130066
0.0013259
0.00135134
0.00137696
0.00140278
0.00142879
0.00145499
0.00148138
0.00150796
0.00153472
0.00156165
0.00158875
0.00161601
0.00164341
0.00167094
0.00169859
0.00172634
0.00175418
0.00178209
0.00181005
0.00183804
0.00186604
0.00189404
0.00192199
0.0019499
0.00197773
0.00200545
0.00203305
0.0020605
0.00208778
0.00211486
0.00214172
0.00216834
0.0021947
0.00222077
0.00224654
0.00227199
0.00229711
0.00232188
0.00234628
0.00237032
0.00239398
0.00241724
0.00244009
0.00246252
0.00248451
0.00250602
0.00252704
0.00254752
0.00256748
0.00258696
0.00260602
0.00262472
0.00264307
0.00266108
0.00267879
0.00269622
0.00271339
0.00273033
0.00274708
0.00276368
0.00278016
0.00279655
0.0028129
0.00282923
0.00284558
0.00286198
0.00287844
0.00289498
0.00291162
0.00292835
0.00294515
0.00296201
0.00297886
0.00299566
0.00301234
0.00302883
0.00304506
0.00306085
0.00307619
0.00309216
0.00310757
0.00312098
0.00313207
0.00314238
0.0031515
0.00315909
0.00316494
0.00316887
0.00317078
0.00317055
0.0031681
0.00316338
0.00315635
0.00314699
0.00313523
0.00312106
0.00310407
0.00308327
0.00305922
0.00303262
0.00300397
0.00297365
0.00294195
0.00290913
0.00287539
0.00284095
0.00280598
0.00277071
0.00273538
0.00270018
0.0026652
0.00263054
0.0025963
0.00256279
0.00252996
0.00249773
0.00246594
0.00243467
0.00240423
0.00237465
0.00234572
0.00231735
0.00228944
0.00226183
0.00223426
0.0022059
0.0021772
0.00214328
0.00206621
1.36084e-05
0.000115256
0.000229376
0.000321715
0.000393709
0.00044914
0.000492408
0.00052702
0.000555626
0.000580147
0.000601933
0.000621902
0.000640669
0.000658636
0.000676062
0.000693116
0.000709956
0.000726844
0.000744284
0.000763027
0.000783714
0.000806287
0.000830349
0.000855317
0.000880612
0.000906122
0.000932299
0.000959239
0.000986793
0.00101479
0.00104317
0.00107168
0.00110028
0.00112896
0.00115773
0.00118657
0.00121547
0.00124438
0.00127334
0.00130237
0.00133149
0.00136071
0.00139003
0.00141948
0.00144906
0.00147879
0.00150867
0.00153873
0.00156896
0.00159937
0.00162998
0.0016608
0.00169183
0.00172309
0.00175458
0.00178629
0.00181822
0.00185038
0.00188275
0.00191532
0.0019481
0.00198106
0.00201421
0.00204751
0.00208097
0.00211456
0.00214826
0.00218206
0.00221594
0.00224986
0.00228382
0.00231779
0.00235174
0.00238565
0.00241948
0.00245322
0.00248684
0.00252031
0.00255359
0.00258667
0.00261951
0.00265209
0.00268439
0.00271636
0.00274799
0.00277926
0.00281013
0.0028406
0.00287063
0.00290022
0.00292933
0.00295797
0.0029861
0.00301371
0.00304078
0.00306729
0.00309323
0.00311858
0.00314335
0.00316753
0.00319115
0.00321424
0.00323684
0.00325897
0.00328064
0.00330187
0.0033227
0.00334315
0.00336325
0.00338306
0.00340259
0.0034219
0.00344103
0.00346002
0.00347892
0.00349776
0.00351658
0.00353541
0.00355429
0.00357322
0.00359223
0.0036113
0.00363042
0.00364955
0.00366865
0.00368768
0.00370654
0.00372515
0.00374336
0.00376159
0.00378002
0.00379758
0.00381299
0.00382659
0.00383915
0.00385042
0.00386005
0.0038678
0.0038735
0.00387698
0.00387812
0.00387681
0.00387296
0.00386652
0.00385744
0.00384564
0.00383104
0.00381339
0.00379225
0.00376787
0.00374068
0.0037111
0.00367946
0.00364607
0.00361117
0.00357501
0.00353782
0.0034998
0.0034612
0.00342226
0.00338318
0.00334412
0.0033052
0.00326654
0.00322838
0.00319075
0.00315367
0.00311709
0.00308106
0.00304573
0.00301117
0.00297729
0.00294404
0.00291133
0.00287905
0.00284708
0.00281464
0.00278161
0.00274391
0.00267239
1.66572e-05
0.000129659
0.000257231
0.000361993
0.000445309
0.000510449
0.000561924
0.000603446
0.000637922
0.000667555
0.000693977
0.000718373
0.000741591
0.000764237
0.000786738
0.000809389
0.000832401
0.000855942
0.000880198
0.000905373
0.000931626
0.00095897
0.000987303
0.00101642
0.00104612
0.00107631
0.00110701
0.00113822
0.00116988
0.00120194
0.00123432
0.00126692
0.00129967
0.00133252
0.00136545
0.00139844
0.00143147
0.00146454
0.00149766
0.00153085
0.00156413
0.00159749
0.00163097
0.00166457
0.0016983
0.00173219
0.00176624
0.00180048
0.00183491
0.00186955
0.00190441
0.00193948
0.00197479
0.00201032
0.00204608
0.00208207
0.00211829
0.00215473
0.0021914
0.00222828
0.00226536
0.00230264
0.0023401
0.00237773
0.00241552
0.00245344
0.00249148
0.00252962
0.00256784
0.00260611
0.00264441
0.00268273
0.00272102
0.00275927
0.00279745
0.00283552
0.00287347
0.00291125
0.00294885
0.00298622
0.00302333
0.00306017
0.00309668
0.00313285
0.00316865
0.00320404
0.00323899
0.00327348
0.00330748
0.00334096
0.00337391
0.00340629
0.00343809
0.00346928
0.00349984
0.00352975
0.003559
0.00358758
0.00361549
0.00364272
0.0036693
0.00369523
0.00372055
0.00374526
0.00376937
0.00379293
0.00381594
0.00383844
0.00386047
0.00388205
0.00390325
0.0039241
0.00394465
0.00396495
0.00398505
0.004005
0.00402485
0.00404464
0.00406441
0.00408421
0.00410405
0.00412395
0.0041439
0.00416391
0.00418394
0.00420396
0.00422391
0.00424369
0.00426343
0.00428349
0.00430326
0.00432215
0.00433919
0.00435487
0.00436949
0.00438288
0.0043947
0.00440472
0.00441274
0.00441858
0.00442208
0.00442312
0.00442158
0.00441737
0.00441042
0.00440062
0.00438787
0.00437201
0.00435286
0.00433051
0.00430523
0.0042773
0.00424701
0.00421462
0.00418037
0.00414451
0.00410726
0.00406887
0.00402955
0.00398956
0.00394911
0.00390838
0.00386754
0.00382672
0.00378612
0.00374584
0.00370594
0.00366646
0.00362743
0.00358897
0.00355115
0.00351396
0.00347738
0.00344136
0.0034058
0.00337059
0.0033352
0.00329922
0.00325911
0.00319435
1.94138e-05
0.00014159
0.000280415
0.000396292
0.000489696
0.000564103
0.000623669
0.00067224
0.00071288
0.000747976
0.000779345
0.000808347
0.000835982
0.000862973
0.000889837
0.00091693
0.00094449
0.00097267
0.00100157
0.00103126
0.00106176
0.00109308
0.00112516
0.00115791
0.00119123
0.00122504
0.0012593
0.00129396
0.00132898
0.00136431
0.00139988
0.00143563
0.00147152
0.0015075
0.00154354
0.00157963
0.00161576
0.00165192
0.00168813
0.00172439
0.00176073
0.00179715
0.00183367
0.0018703
0.00190706
0.00194398
0.00198105
0.00201829
0.00205573
0.00209337
0.00213122
0.00216928
0.00220757
0.00224609
0.00228484
0.00232381
0.00236302
0.00240246
0.00244212
0.00248201
0.0025221
0.00256239
0.00260287
0.00264353
0.00268436
0.00272532
0.00276642
0.00280763
0.00284893
0.00289029
0.0029317
0.00297312
0.00301454
0.00305593
0.00309725
0.00313848
0.00317959
0.00322054
0.0032613
0.00330184
0.00334213
0.00338213
0.00342181
0.00346112
0.00350005
0.00353854
0.00357657
0.0036141
0.00365111
0.00368755
0.0037234
0.00375862
0.0037932
0.00382709
0.00386028
0.00389274
0.00392445
0.00395541
0.0039856
0.00401502
0.00404366
0.00407155
0.00409868
0.00412507
0.00415073
0.00417568
0.00419995
0.00422356
0.00424654
0.00426894
0.0042908
0.00431216
0.00433309
0.00435364
0.00437387
0.00439383
0.00441359
0.00443321
0.00445275
0.00447225
0.00449177
0.00451133
0.00453098
0.00455072
0.00457056
0.0045905
0.00461049
0.00463051
0.004651
0.0046716
0.00469182
0.00471146
0.00472979
0.00474719
0.00476372
0.00477917
0.00479329
0.00480586
0.00481666
0.0048255
0.00483219
0.00483657
0.00483851
0.00483787
0.00483454
0.00482839
0.0048193
0.00480713
0.00479177
0.00477324
0.00475168
0.00472729
0.00470026
0.00467083
0.0046392
0.00460561
0.00457028
0.00453343
0.00449531
0.00445616
0.00441618
0.0043756
0.00433458
0.0042933
0.00425194
0.00421062
0.00416946
0.00412853
0.0040879
0.00404767
0.00400792
0.00396869
0.00392999
0.00389182
0.00385413
0.00381683
0.00377956
0.0037418
0.00370051
0.00364179
2.18172e-05
0.000151201
0.000299289
0.000424945
0.000527388
0.000610399
0.000677741
0.000733266
0.000780105
0.000820745
0.000857118
0.000890698
0.000922587
0.000953594
0.000984299
0.00101511
0.00104628
0.00107799
0.00111033
0.00114335
0.00117705
0.00121141
0.00124641
0.00128197
0.00131804
0.00135454
0.00139143
0.00142865
0.00146614
0.00150387
0.00154178
0.00157982
0.00161795
0.00165615
0.00169439
0.00173265
0.00177093
0.00180924
0.00184757
0.00188594
0.00192437
0.00196286
0.00200143
0.00204011
0.00207889
0.00211781
0.00215688
0.00219611
0.00223551
0.0022751
0.00231489
0.00235489
0.00239511
0.00243555
0.00247621
0.0025171
0.00255822
0.00259958
0.00264116
0.00268296
0.00272498
0.00276721
0.00280964
0.00285226
0.00289506
0.00293802
0.00298113
0.00302436
0.00306771
0.00311115
0.00315465
0.0031982
0.00324177
0.00328533
0.00332885
0.0033723
0.00341566
0.00345888
0.00350194
0.0035448
0.00358742
0.00362977
0.0036718
0.00371349
0.00375478
0.00379564
0.00383603
0.00387591
0.00391523
0.00395397
0.00399207
0.00402951
0.00406624
0.00410223
0.00413745
0.00417187
0.00420546
0.00423821
0.00427009
0.00430109
0.00433121
0.00436043
0.00438877
0.00441622
0.00444279
0.00446849
0.00449335
0.00451739
0.00454064
0.00456313
0.00458493
0.00460606
0.00462661
0.00464661
0.00466615
0.00468529
0.00470412
0.00472269
0.00474109
0.0047594
0.00477768
0.004796
0.00481441
0.00483298
0.00485173
0.00487071
0.00488989
0.00490957
0.00492974
0.00494998
0.00497023
0.00499021
0.00500955
0.00502834
0.00504653
0.00506399
0.00508052
0.00509588
0.00510984
0.0051222
0.00513276
0.00514131
0.00514768
0.00515171
0.00515323
0.00515207
0.00514808
0.00514109
0.00513099
0.00511774
0.00510137
0.005082
0.00505975
0.0050348
0.00500732
0.00497752
0.00494561
0.0049118
0.00487634
0.00483945
0.00480136
0.00476229
0.00472243
0.00468198
0.00464111
0.00459998
0.00455873
0.00451748
0.00447631
0.00443534
0.00439466
0.00435435
0.00431447
0.00427503
0.00423605
0.00419748
0.00415908
0.00412034
0.00407865
0.00402478
2.38303e-05
0.000158645
0.000314129
0.00044811
0.000558576
0.000649441
0.000724071
0.000786244
0.000839091
0.000885134
0.000926366
0.000964333
0.00100021
0.00103487
0.00106894
0.00110289
0.001137
0.00117148
0.00120643
0.00124191
0.00127795
0.00131452
0.0013516
0.00138916
0.00142716
0.00146553
0.00150421
0.00154315
0.00158229
0.0016216
0.00166103
0.00170054
0.00174009
0.00177967
0.00181925
0.00185882
0.00189838
0.00193794
0.0019775
0.00201708
0.00205668
0.00209633
0.00213604
0.00217582
0.0022157
0.00225569
0.00229581
0.00233607
0.0023765
0.00241709
0.00245788
0.00249886
0.00254004
0.00258145
0.00262308
0.00266493
0.00270702
0.00274935
0.00279191
0.0028347
0.00287772
0.00292098
0.00296445
0.00300813
0.00305202
0.0030961
0.00314036
0.00318478
0.00322935
0.00327405
0.00331886
0.00336375
0.0034087
0.00345369
0.00349869
0.00354367
0.00358859
0.00363343
0.00367815
0.0037227
0.00376706
0.00381118
0.00385502
0.00389854
0.00394169
0.00398442
0.00402669
0.00406845
0.00410966
0.00415026
0.00419022
0.00422947
0.00426798
0.00430571
0.00434261
0.00437863
0.00441376
0.00444795
0.00448117
0.00451341
0.00454463
0.00457484
0.00460401
0.00463215
0.00465924
0.00468531
0.00471035
0.0047344
0.00475747
0.00477961
0.00480086
0.00482127
0.0048409
0.00485982
0.00487811
0.00489584
0.00491311
0.00493
0.00494662
0.00496305
0.0049794
0.00499576
0.00501223
0.00502889
0.00504583
0.00506315
0.00508096
0.00509945
0.00511844
0.0051379
0.0051577
0.0051777
0.0051977
0.00521756
0.00523719
0.00525662
0.00527563
0.00529397
0.00531141
0.00532773
0.0053427
0.00535609
0.00536769
0.00537728
0.00538466
0.00538961
0.00539189
0.00539131
0.0053877
0.00538095
0.00537101
0.00535791
0.00534169
0.00532248
0.0053004
0.00527563
0.00524835
0.00521878
0.00518714
0.00515365
0.00511855
0.00508207
0.00504441
0.00500579
0.0049664
0.00492641
0.00488599
0.00484527
0.00480439
0.00476348
0.00472265
0.004682
0.00464163
0.00460161
0.00456197
0.00452273
0.00448373
0.00444453
0.00440292
0.00435287
2.54384e-05
0.000164098
0.000325229
0.000466073
0.000583497
0.000681355
0.000762632
0.000830972
0.000889449
0.000940575
0.000986364
0.0010284
0.0010679
0.00110579
0.00114277
0.00117933
0.0012158
0.0012524
0.00128928
0.00132651
0.00136412
0.0014021
0.00144044
0.00147921
0.00151839
0.00155792
0.00159764
0.00163751
0.00167753
0.00171765
0.00175783
0.00179802
0.00183819
0.00187833
0.00191842
0.00195846
0.00199845
0.0020384
0.00207832
0.00211821
0.00215811
0.00219802
0.00223796
0.00227796
0.00231803
0.00235819
0.00239846
0.00243885
0.0024794
0.0025201
0.00256099
0.00260206
0.00264335
0.00268485
0.00272657
0.00276854
0.00281075
0.00285321
0.00289593
0.0029389
0.00298214
0.00302563
0.00306938
0.00311338
0.00315763
0.00320212
0.00324683
0.00329177
0.0033369
0.00338223
0.00342772
0.00347337
0.00351914
0.00356501
0.00361096
0.00365696
0.00370297
0.00374896
0.0037949
0.00384073
0.00388644
0.00393196
0.00397725
0.00402226
0.00406695
0.00411127
0.00415515
0.00419854
0.0042414
0.00428365
0.00432525
0.00436613
0.00440625
0.00444555
0.00448397
0.00452146
0.00455797
0.00459346
0.0046279
0.00466123
0.00469343
0.00472448
0.00475434
0.00478301
0.00481048
0.00483673
0.00486178
0.00488564
0.00490833
0.00492989
0.00495034
0.00496975
0.00498818
0.00500571
0.0050224
0.00503836
0.00505368
0.00506848
0.00508286
0.00509694
0.00511086
0.00512475
0.00513871
0.00515292
0.00516752
0.00518264
0.0051984
0.00521493
0.00523229
0.00525049
0.00526942
0.00528907
0.00530932
0.00532982
0.00535078
0.00537212
0.00539362
0.00541505
0.00543618
0.00545677
0.00547657
0.00549531
0.00551276
0.00552864
0.0055427
0.00555466
0.0055642
0.00557106
0.00557499
0.00557581
0.00557338
0.00556762
0.00555852
0.00554613
0.00553053
0.00551184
0.00549024
0.0054659
0.00543905
0.00540992
0.00537873
0.00534572
0.00531112
0.00527515
0.00523802
0.00519993
0.00516107
0.00512159
0.00508167
0.00504145
0.00500107
0.00496067
0.00492037
0.00488027
0.00484046
0.00480099
0.00476179
0.00472246
0.00468117
0.00463412
2.66466e-05
0.000167753
0.000332909
0.000479172
0.000602432
0.000706319
0.00079347
0.000867344
0.000930912
0.000986644
0.00103655
0.0010822
0.00112485
0.00116544
0.00120482
0.00124347
0.00128175
0.00131989
0.00135806
0.00139637
0.00143487
0.00147356
0.00151241
0.00155168
0.00159126
0.00163112
0.00167101
0.00171099
0.00175109
0.0017913
0.00183149
0.0018716
0.00191159
0.00195147
0.00199123
0.00203087
0.00207041
0.00210986
0.00214923
0.00218855
0.00222783
0.0022671
0.00230638
0.00234568
0.00238504
0.00242447
0.00246401
0.00250366
0.00254346
0.00258341
0.00262355
0.00266389
0.00270445
0.00274524
0.00278629
0.00282759
0.00286917
0.00291104
0.0029532
0.00299567
0.00303844
0.00308153
0.00312493
0.00316865
0.00321268
0.00325702
0.00330167
0.0033466
0.00339183
0.00343732
0.00348307
0.00352906
0.00357526
0.00362166
0.00366822
0.00371491
0.00376171
0.00380858
0.00385548
0.00390236
0.00394919
0.00399591
0.00404248
0.00408884
0.00413494
0.00418071
0.0042261
0.00427104
0.00431547
0.00435932
0.00440253
0.00444503
0.00448674
0.00452761
0.00456756
0.00460654
0.00464447
0.0046813
0.00471698
0.00475146
0.00478468
0.00481661
0.00484721
0.00487646
0.00490433
0.0049308
0.00495587
0.00497955
0.00500185
0.00502279
0.00504241
0.00506077
0.00507791
0.00509392
0.00510889
0.00512292
0.00513611
0.0051486
0.0051605
0.00517195
0.00518312
0.00519418
0.00520528
0.00521662
0.00522842
0.00524077
0.00525393
0.00526805
0.0052833
0.00529982
0.00531741
0.00533617
0.00535611
0.00537712
0.00539921
0.0054223
0.00544621
0.00547074
0.00549565
0.00552068
0.00554557
0.00557002
0.00559375
0.00561647
0.00563786
0.00565755
0.00567516
0.00569032
0.0057027
0.00571202
0.00571805
0.00572061
0.0057196
0.005715
0.00570683
0.00569517
0.00568016
0.00566195
0.00564076
0.0056168
0.00559031
0.00556155
0.00553073
0.00549812
0.00546392
0.00542837
0.00539168
0.00535403
0.00531562
0.00527662
0.00523719
0.00519751
0.00515772
0.00511796
0.00507836
0.00503901
0.00499988
0.00496067
0.00491986
0.00487514
2.74682e-05
0.000169813
0.00033749
0.00048773
0.000615707
0.000724481
0.000816656
0.000895294
0.000963256
0.00102293
0.00107639
0.00112516
0.00117045
0.00121317
0.00125425
0.00129424
0.00133353
0.00137243
0.00141113
0.00144976
0.00148843
0.00152718
0.00156604
0.00160505
0.00164417
0.00168338
0.00172267
0.00176201
0.00180136
0.00184088
0.00188027
0.00191949
0.00195849
0.00199724
0.00203576
0.00207409
0.00211224
0.00215025
0.00218813
0.00222591
0.00226363
0.00230132
0.00233899
0.00237668
0.00241441
0.00245223
0.00249014
0.00252819
0.0025664
0.00260479
0.00264339
0.00268223
0.00272132
0.00276069
0.00280035
0.00284034
0.00288066
0.00292133
0.00296237
0.00300378
0.00304558
0.00308778
0.00313038
0.00317339
0.00321681
0.00326063
0.00330486
0.00334949
0.00339451
0.00343991
0.00348567