/*--------------------------------*- C++ -*----------------------------------*\
  =========                 |
  \\      /  F ield         | OpenFOAM: The Open Source CFD Toolbox
   \\    /   O peration     | Website:  https://openfoam.org
    \\  /    A nd           | Version:  8
     \\/     M anipulation  |
\*---------------------------------------------------------------------------*/
FoamFile
{
    version     2.0;
    format      ascii;
    class       volScalarField;
    location    "165";
    object      p;
}
// * * * * * * * * * * * * * * * * * * * * * * * * * * * * * * * * * * * * * //

dimensions      [0 2 -2 0 0 0 0];

internalField   nonuniform List<scalar> 
12225
(
-0.154457
-2.34243
-3.44219
-3.76261
-3.94356
-4.11222
-4.24335
-4.33792
-4.41384
-4.48036
-4.53927
-4.5927
-4.64059
-4.68427
-4.72368
-4.75286
-4.78831
-4.73644
-3.31688
-4.08554
-4.24595
-4.15343
-4.14061
-4.2081
-4.2852
-4.35038
-4.40932
-4.46591
-4.51944
-4.56895
-4.61498
-4.6575
-4.69725
-4.72945
-4.76697
-4.78202
-3.71752
-3.70319
-3.83046
-3.9086
-4.00319
-4.12302
-4.22978
-4.31409
-4.38524
-4.44977
-4.50883
-4.56241
-4.61183
-4.6572
-4.69993
-4.73708
-4.78026
-4.81595
-3.59613
-3.53941
-3.78087
-3.93897
-4.0404
-4.14624
-4.24349
-4.32301
-4.3911
-4.45339
-4.51096
-4.56373
-4.61279
-4.65834
-4.7018
-4.7422
-4.7872
-4.83347
-3.58622
-3.61052
-3.83839
-3.9797
-4.06302
-4.15471
-4.2455
-4.32269
-4.38961
-4.45107
-4.50826
-4.5611
-4.61052
-4.65694
-4.70172
-4.74503
-4.7918
-4.84273
-3.64435
-3.69307
-3.86713
-3.99078
-4.072
-4.15946
-4.24708
-4.32308
-4.38945
-4.45043
-4.50737
-4.5603
-4.61002
-4.65716
-4.70295
-4.7481
-4.79589
-4.84783
-3.70469
-3.74875
-3.88373
-3.9998
-4.08324
-4.16703
-4.25053
-4.32468
-4.3902
-4.45055
-4.50706
-4.55993
-4.60984
-4.65749
-4.70397
-4.75019
-4.79828
-4.8495
-3.7582
-3.79571
-3.90548
-4.01353
-4.09623
-4.1755
-4.25452
-4.32654
-4.39107
-4.45069
-4.50671
-4.55943
-4.60943
-4.65741
-4.7043
-4.75097
-4.79877
-4.84845
-3.80792
-3.84096
-3.9317
-4.02942
-4.10922
-4.18428
-4.25907
-4.32877
-4.39211
-4.45089
-4.50631
-4.55875
-4.60869
-4.65677
-4.70375
-4.75034
-4.7974
-4.8452
-3.85498
-3.88416
-3.95951
-4.0465
-4.12244
-4.19369
-4.26447
-4.33159
-4.39348
-4.45126
-4.50594
-4.55793
-4.60761
-4.65552
-4.70227
-4.74839
-4.79438
-4.84023
-3.89931
-3.92474
-3.98779
-4.06475
-4.13619
-4.20374
-4.27066
-4.33503
-4.39526
-4.45187
-4.50566
-4.55701
-4.60622
-4.65373
-4.69996
-4.7453
-4.79002
-4.83395
-3.93736
-3.95965
-4.0137
-4.08234
-4.14924
-4.21339
-4.27695
-4.33871
-4.39724
-4.45264
-4.50548
-4.55608
-4.60469
-4.65161
-4.69717
-4.7416
-4.78507
-4.82732
-3.97251
-3.99217
-4.03887
-4.10009
-4.16238
-4.22317
-4.28354
-4.34273
-4.39948
-4.45358
-4.50537
-4.5551
-4.60296
-4.64916
-4.69389
-4.73732
-4.77952
-4.82021
-4.00935
-4.0265
-4.06641
-4.12027
-4.17743
-4.23442
-4.29136
-4.34767
-4.40229
-4.45479
-4.50527
-4.55389
-4.60074
-4.64595
-4.68961
-4.73181
-4.77255
-4.81161
-4.04664
-4.06139
-4.0953
-4.14228
-4.19403
-4.24689
-4.30022
-4.35343
-4.40561
-4.4562
-4.50509
-4.55231
-4.59787
-4.64181
-4.68415
-4.72491
-4.76406
-4.80144
-4.08242
-4.09503
-4.1239
-4.16478
-4.21126
-4.2599
-4.30958
-4.35961
-4.40915
-4.45757
-4.50462
-4.55017
-4.59419
-4.63661
-4.67742
-4.71657
-4.75407
-4.78975
-4.1138
-4.12466
-4.14959
-4.18549
-4.22734
-4.27205
-4.31831
-4.36529
-4.41218
-4.45834
-4.50339
-4.54712
-4.58941
-4.63016
-4.6693
-4.70679
-4.74261
-4.77667
-4.13641
-4.14606
-4.16832
-4.20079
-4.23926
-4.28094
-4.32445
-4.36891
-4.41352
-4.45761
-4.50077
-4.54271
-4.58328
-4.62236
-4.65985
-4.69573
-4.72995
-4.76249
-4.14335
-4.15252
-4.17376
-4.20495
-4.24211
-4.28247
-4.32463
-4.36772
-4.41095
-4.45369
-4.49547
-4.53603
-4.5752
-4.61287
-4.64897
-4.68347
-4.71634
-4.74761
-4.12737
-4.13716
-4.1598
-4.19294
-4.23202
-4.27382
-4.3169
-4.36057
-4.40412
-4.44689
-4.48846
-4.52863
-4.56726
-4.60429
-4.63966
-4.67339
-4.70545
-4.73594
-4.10062
-4.11144
-4.13675
-4.17384
-4.2167
-4.26132
-4.30654
-4.35193
-4.39674
-4.44028
-4.48226
-4.52259
-4.56121
-4.59807
-4.63318
-4.66655
-4.69825
-4.72832
-4.06549
-4.07733
-4.10673
-4.15038
-4.19875
-4.24685
-4.29479
-4.34267
-4.38939
-4.43417
-4.47689
-4.51766
-4.55649
-4.59339
-4.6284
-4.66161
-4.69307
-4.72289
-4.02501
-4.03692
-4.07142
-4.12477
-4.18041
-4.23248
-4.2835
-4.33409
-4.38277
-4.42883
-4.47244
-4.51382
-4.55301
-4.59008
-4.62511
-4.65827
-4.68961
-4.71931
-3.98136
-3.99235
-4.03417
-4.09866
-4.16093
-4.21772
-4.27348
-4.32749
-4.37791
-4.4249
-4.46921
-4.51107
-4.55052
-4.58766
-4.62269
-4.65576
-4.687
-4.71655
-3.9345
-3.93998
-4.00268
-4.08096
-4.14299
-4.20136
-4.26264
-4.32114
-4.37382
-4.42205
-4.46724
-4.50968
-4.5494
-4.58661
-4.62159
-4.65457
-4.68571
-4.71519
-3.89126
-3.85484
-3.96442
-4.07547
-4.13781
-4.19322
-4.25556
-4.31545
-4.36883
-4.41772
-4.4636
-4.50658
-4.54662
-4.58402
-4.61909
-4.65212
-4.68328
-4.71275
-3.90538
-3.74641
-3.87539
-4.02956
-4.11977
-4.19125
-4.26032
-4.32137
-4.37433
-4.42278
-4.46823
-4.51066
-4.55011
-4.58694
-4.62147
-4.65398
-4.68472
-4.71391
-4.02811
-3.84814
-3.8624
-3.93463
-4.0231
-4.12244
-4.21327
-4.28719
-4.34905
-4.40435
-4.45483
-4.50077
-4.54275
-4.5814
-4.61723
-4.6507
-4.68226
-4.71252
-3.73543
-4.32703
-4.41593
-4.29177
-4.23754
-4.26482
-4.31193
-4.35532
-4.39703
-4.43938
-4.48104
-4.52053
-4.55766
-4.59255
-4.62525
-4.65594
-4.68481
-4.71364
-0.747178
-2.50997
-3.51472
-3.81394
-3.96321
-4.10695
-4.22112
-4.30222
-4.3666
-4.42363
-4.47505
-4.52126
-4.5631
-4.60148
-4.63691
-4.66919
-4.69816
-4.72206
-5.6711
-5.67099
-5.67154
-5.67316
-5.67556
-5.67857
-5.68213
-5.68617
-5.69068
-5.69567
-5.7012
-5.70739
-5.7144
-5.72242
-5.73138
-5.74075
-5.75039
-5.76076
-5.77227
-5.78511
-5.79858
-5.8127
-5.82809
-5.84403
-5.86087
-5.8805
-5.90279
-5.92462
-5.94472
-5.96338
-5.98064
-5.99953
-6.02137
-6.04449
-6.06862
-6.09352
-6.119
-6.14496
-6.17128
-6.19788
-6.22467
-6.2516
-6.27856
-6.30552
-6.33237
-6.35907
-6.38554
-6.4117
-6.43748
-6.4628
-6.48757
-6.51172
-6.53513
-6.55774
-6.5794
-6.60006
-6.61954
-6.63778
-6.65461
-6.66994
-6.6836
-6.69549
-6.70543
-6.71331
-6.71893
-6.72221
-6.72293
-6.72101
-6.71623
-6.70849
-6.69756
-6.68337
-6.66569
-6.64446
-6.61944
-6.59059
-6.55765
-6.52059
-6.47917
-6.43337
-6.38296
-6.32793
-6.26805
-6.20336
-6.13365
-6.05893
-5.97895
-5.89361
-5.80266
-5.70601
-5.60366
-5.4955
-5.38141
-5.26129
-5.13508
-5.00272
-4.86416
-4.71922
-4.56772
-4.40929
-4.24353
-4.07018
-3.88909
-3.70013
-3.503
-3.29742
-3.08304
-2.85956
-2.62662
-2.38388
-2.13094
-1.86744
-1.59295
-1.3071
-1.00943
-0.69957
-0.377081
-0.0416574
0.307001
0.669061
1.04473
1.4341
1.83728
2.25413
2.68439
3.12754
3.58293
4.04963
4.52652
5.01222
5.50506
6.00321
6.5046
7.0071
7.50841
8.00617
8.4979
8.98117
9.45364
9.91313
10.3576
10.7851
11.194
11.5831
11.9514
12.2982
12.6236
12.9278
13.211
13.4732
13.7142
13.9347
14.1351
14.3165
14.4796
14.6256
14.7556
14.8706
14.9717
15.06
15.1365
15.2023
15.2583
15.3054
15.3444
15.3761
15.4014
15.4208
15.435
15.4447
15.4505
15.453
15.4531
15.4518
15.4503
15.4506
15.4575
15.4768
15.5299
15.6148
-5.66803
-5.66866
-5.66961
-5.67084
-5.6721
-5.67349
-5.6753
-5.67766
-5.68063
-5.68424
-5.68852
-5.69347
-5.69912
-5.70546
-5.71225
-5.71944
-5.72762
-5.73693
-5.7472
-5.75804
-5.76912
-5.78096
-5.79367
-5.80693
-5.82241
-5.83935
-5.85621
-5.87369
-5.89347
-5.91575
-5.94148
-5.96836
-5.99344
-6.01823
-6.04317
-6.06843
-6.09404
-6.11996
-6.14616
-6.17258
-6.19916
-6.22583
-6.25254
-6.27923
-6.30583
-6.33228
-6.35851
-6.38446
-6.41004
-6.43518
-6.4598
-6.48382
-6.50714
-6.52968
-6.55131
-6.57195
-6.59147
-6.60976
-6.62669
-6.64215
-6.65598
-6.66806
-6.67824
-6.68639
-6.69234
-6.69596
-6.69707
-6.69556
-6.69123
-6.68396
-6.67356
-6.65992
-6.64284
-6.6222
-6.59784
-6.56964
-6.53741
-6.50104
-6.46038
-6.41532
-6.3657
-6.31144
-6.25239
-6.18851
-6.11965
-6.04578
-5.96672
-5.88236
-5.79249
-5.69706
-5.59601
-5.48925
-5.37661
-5.25799
-5.13326
-5.00231
-4.86502
-4.72118
-4.57059
-4.41303
-4.24838
-4.0765
-3.89721
-3.71016
-3.5151
-3.31169
-3.09966
-2.87864
-2.64835
-2.40841
-2.15847
-1.89815
-1.62706
-1.34479
-1.05096
-0.745144
-0.426953
-0.0960388
0.247873
0.604996
0.975527
1.35961
1.75734
2.16865
2.5933
3.03086
3.48071
3.94202
4.41378
4.89465
5.38312
5.87738
6.37547
6.8753
7.37463
7.87114
8.36241
8.84595
9.31936
9.7804
10.227
10.6572
11.0693
11.462
11.8341
12.1849
12.5141
12.8215
13.1077
13.3729
13.6175
13.8417
14.0462
14.2316
14.3991
14.5494
14.6836
14.8028
14.9081
15.0004
15.0809
15.1504
15.2099
15.2604
15.3026
15.3374
15.3655
15.3876
15.4043
15.4163
15.4243
15.429
15.4311
15.4316
15.432
15.4342
15.4423
15.4607
15.5091
15.5784
-5.66018
-5.66244
-5.66557
-5.66806
-5.66973
-5.67109
-5.67259
-5.67448
-5.67691
-5.67994
-5.68366
-5.68808
-5.69319
-5.69894
-5.70519
-5.71188
-5.7193
-5.72772
-5.73727
-5.74791
-5.75944
-5.7719
-5.78531
-5.79973
-5.81536
-5.83174
-5.84814
-5.86491
-5.88296
-5.90294
-5.92523
-5.94905
-5.97315
-5.99749
-6.02209
-6.04698
-6.07215
-6.09759
-6.12325
-6.14911
-6.1751
-6.2012
-6.22733
-6.25346
-6.27952
-6.30544
-6.33117
-6.35665
-6.38178
-6.40651
-6.43075
-6.45442
-6.47743
-6.49968
-6.52107
-6.5415
-6.56086
-6.57902
-6.59587
-6.61127
-6.6251
-6.63723
-6.6475
-6.65577
-6.6619
-6.66574
-6.66713
-6.66592
-6.66195
-6.65508
-6.64514
-6.63199
-6.61546
-6.59541
-6.57169
-6.54416
-6.51266
-6.47706
-6.43722
-6.39301
-6.34429
-6.29095
-6.23287
-6.16996
-6.10211
-6.02925
-5.95125
-5.86799
-5.77931
-5.68515
-5.58548
-5.4802
-5.36915
-5.25223
-5.12929
-5.00023
-4.86486
-4.723
-4.57442
-4.41897
-4.25652
-4.08696
-3.9101
-3.72564
-3.53333
-3.33282
-3.12386
-2.9061
-2.67927
-2.44298
-2.19693
-1.94069
-1.67394
-1.39625
-1.10726
-0.806543
-0.493738
-0.168476
0.169498
0.520435
0.884519
1.26194
1.65278
2.057
2.47442
2.90463
3.3471
3.80107
4.26561
4.73951
5.22133
5.70935
6.20175
6.69648
7.19139
7.68413
8.17234
8.65364
9.1257
9.58633
10.0334
10.4651
10.8796
11.2757
11.6523
12.0084
12.3438
12.6582
12.9517
13.2244
13.4765
13.7083
13.9203
14.1132
14.2879
14.4453
14.5863
14.7121
14.8236
14.9219
15.008
15.0829
15.1475
15.2027
15.2493
15.2881
15.32
15.3456
15.3655
15.3805
15.3913
15.3985
15.403
15.4058
15.4082
15.4122
15.4214
15.4383
15.4798
15.5233
-5.64808
-5.65218
-5.65826
-5.66292
-5.66594
-5.66815
-5.6701
-5.67211
-5.67442
-5.67717
-5.68049
-5.68444
-5.68906
-5.69434
-5.70022
-5.70668
-5.71379
-5.72174
-5.73064
-5.74059
-5.75159
-5.7637
-5.77698
-5.79153
-5.80731
-5.82403
-5.84134
-5.85921
-5.87788
-5.89765
-5.91869
-5.94085
-5.96375
-5.9872
-6.01109
-6.03535
-6.05994
-6.08481
-6.10991
-6.13521
-6.16067
-6.18624
-6.21186
-6.2375
-6.26308
-6.28856
-6.31387
-6.33896
-6.36373
-6.38814
-6.41208
-6.43549
-6.45827
-6.48033
-6.50156
-6.52187
-6.54113
-6.55924
-6.57606
-6.59148
-6.60535
-6.61756
-6.62794
-6.63637
-6.64269
-6.64675
-6.6484
-6.64748
-6.64384
-6.63732
-6.62777
-6.61504
-6.59897
-6.5794
-6.5562
-6.52922
-6.49831
-6.46333
-6.42415
-6.38063
-6.33264
-6.28007
-6.22279
-6.1607
-6.09369
-6.02168
-5.94456
-5.8622
-5.77447
-5.68132
-5.58271
-5.47851
-5.36864
-5.25294
-5.13132
-5.00364
-4.86973
-4.72941
-4.5825
-4.42884
-4.2683
-4.10074
-3.92594
-3.74367
-3.55363
-3.35554
-3.14913
-2.93408
-2.71009
-2.47682
-2.23393
-1.98104
-1.71779
-1.4438
-1.15868
-0.86203
-0.553484
-0.232695
0.10061
0.446686
0.805739
1.17796
1.56345
1.96217
2.37395
2.79843
3.23511
3.68331
4.14214
4.61045
5.08688
5.5698
6.05747
6.54791
7.03901
7.52848
8.014
8.49324
8.96392
9.42389
9.87108
10.3037
10.7201
11.1189
11.4989
11.8594
12.1997
12.5196
12.8189
13.0976
13.3557
13.5936
13.8117
14.0108
14.1915
14.3548
14.5016
14.6329
14.7498
14.8532
14.9441
15.0236
15.0925
15.1518
15.2023
15.2447
15.2798
15.3085
15.3312
15.3489
15.362
15.3714
15.3778
15.3823
15.3861
15.3908
15.3996
15.4128
15.444
15.4626
-5.63486
-5.64086
-5.65013
-5.65727
-5.662
-5.66547
-5.66834
-5.67098
-5.67367
-5.67665
-5.68007
-5.68404
-5.68864
-5.6939
-5.69985
-5.7065
-5.71392
-5.72216
-5.73131
-5.74139
-5.75247
-5.76458
-5.77777
-5.7921
-5.80755
-5.82404
-5.8414
-5.85955
-5.87851
-5.89833
-5.91903
-5.94054
-5.96274
-5.98551
-6.00876
-6.03242
-6.05643
-6.08075
-6.10533
-6.13013
-6.1551
-6.1802
-6.20538
-6.23059
-6.25577
-6.28088
-6.30585
-6.33062
-6.35511
-6.37925
-6.40296
-6.42617
-6.44878
-6.47069
-6.4918
-6.51202
-6.53122
-6.54929
-6.5661
-6.58153
-6.59545
-6.60772
-6.61819
-6.62673
-6.63318
-6.6374
-6.63923
-6.63851
-6.63509
-6.62882
-6.61953
-6.60707
-6.5913
-6.57205
-6.54918
-6.52256
-6.49202
-6.45744
-6.41868
-6.37561
-6.3281
-6.27604
-6.21931
-6.15781
-6.09142
-6.02005
-5.9436
-5.86195
-5.775
-5.68264
-5.5849
-5.48161
-5.37269
-5.258
-5.13747
-5.01094
-4.87829
-4.73933
-4.59391
-4.44187
-4.28304
-4.1173
-3.94437
-3.76407
-3.57608
-3.38019
-3.17606
-2.96345
-2.74199
-2.51141
-2.27129
-2.02134
-1.76112
-1.4903
-1.20843
-0.915174
-0.610106
-0.292933
0.036685
0.378982
0.734227
1.1026
1.48422
1.87906
2.28695
2.70759
3.14049
3.58503
4.04031
4.50527
4.97854
5.45863
5.94377
6.43208
6.92141
7.40955
7.89417
8.37296
8.84368
9.30416
9.75242
10.1866
10.605
11.0062
11.3891
11.7529
12.0967
12.4204
12.7236
13.0063
13.2685
13.5105
13.7328
13.936
14.1209
14.2883
14.4391
14.5744
14.695
14.8021
14.8965
14.9793
15.0513
15.1135
15.1668
15.2118
15.2493
15.2801
15.3049
15.3244
15.3392
15.35
15.3576
15.363
15.3672
15.3716
15.3785
15.3869
15.4076
15.405
-5.6232
-5.63097
-5.64299
-5.6524
-5.65887
-5.66374
-5.66774
-5.67127
-5.67467
-5.67821
-5.68208
-5.68644
-5.69137
-5.69696
-5.70326
-5.71032
-5.71819
-5.72691
-5.73653
-5.74706
-5.75853
-5.77096
-5.78436
-5.79873
-5.81408
-5.83036
-5.84752
-5.8655
-5.88428
-5.90386
-5.92419
-5.94523
-5.96689
-5.98912
-6.01183
-6.03497
-6.05848
-6.08233
-6.10645
-6.13081
-6.15537
-6.18007
-6.20488
-6.22975
-6.25461
-6.27943
-6.30412
-6.32865
-6.35292
-6.37687
-6.40042
-6.42349
-6.44598
-6.4678
-6.48885
-6.50902
-6.52819
-6.54626
-6.56309
-6.57855
-6.59252
-6.60485
-6.61541
-6.62404
-6.6306
-6.63494
-6.63689
-6.63631
-6.63304
-6.62693
-6.6178
-6.60552
-6.58993
-6.57087
-6.5482
-6.52177
-6.49145
-6.45709
-6.41857
-6.37575
-6.32852
-6.27676
-6.22036
-6.15921
-6.09321
-6.02227
-5.9463
-5.86518
-5.77877
-5.68709
-5.59002
-5.4875
-5.37938
-5.2656
-5.14601
-5.02053
-4.88901
-4.7513
-4.60725
-4.4567
-4.29949
-4.13543
-3.9643
-3.78586
-3.59988
-3.40607
-3.20419
-2.99391
-2.77493
-2.54692
-2.30952
-2.06237
-1.80508
-1.53727
-1.25851
-0.968418
-0.66661
-0.35274
-0.026472
0.312485
0.664418
1.02953
1.40797
1.7997
2.2046
2.62239
3.05264
3.49474
3.94782
4.41082
4.88244
5.36122
5.84544
6.33318
6.82232
7.31065
7.79587
8.27569
8.74785
9.21018
9.66061
10.0972
10.5182
10.9223
11.3082
11.675
12.022
12.3487
12.655
12.9408
13.2061
13.4512
13.6765
13.8827
14.0706
14.2409
14.3945
14.5325
14.6558
14.7654
14.8622
14.9473
15.0216
15.0858
15.141
15.1878
15.227
15.2593
15.2854
15.306
15.3218
15.3334
15.3416
15.3472
15.3511
15.3542
15.3584
15.3615
15.3732
15.3528
-5.61508
-5.62428
-5.63834
-5.64956
-5.65756
-5.66376
-5.66889
-5.6734
-5.67763
-5.68188
-5.68638
-5.69129
-5.69674
-5.70282
-5.7096
-5.71713
-5.72547
-5.73464
-5.74468
-5.75561
-5.76743
-5.78015
-5.79377
-5.80829
-5.82368
-5.83992
-5.85697
-5.87481
-5.8934
-5.91272
-5.93273
-5.9534
-5.97465
-5.99645
-6.01873
-6.04145
-6.06455
-6.088
-6.11175
-6.13576
-6.15998
-6.18438
-6.20891
-6.23351
-6.25814
-6.28274
-6.30725
-6.33161
-6.35574
-6.37958
-6.40304
-6.42603
-6.44847
-6.47026
-6.4913
-6.51147
-6.53066
-6.54876
-6.56563
-6.58115
-6.59517
-6.60758
-6.6182
-6.62691
-6.63355
-6.63796
-6.64
-6.6395
-6.63631
-6.63027
-6.62123
-6.60902
-6.5935
-6.57451
-6.55191
-6.52555
-6.4953
-6.46102
-6.42258
-6.37985
-6.33272
-6.28108
-6.22482
-6.16384
-6.09804
-6.02734
-5.95165
-5.87084
-5.78486
-5.69361
-5.59709
-5.49517
-5.38773
-5.2747
-5.15595
-5.0314
-4.9009
-4.76433
-4.62154
-4.47236
-4.31665
-4.15416
-3.98472
-3.80805
-3.62398
-3.43218
-3.23245
-3.02441
-2.80783
-2.5823
-2.34753
-2.10307
-1.84861
-1.58367
-1.3079
-1.02083
-0.722128
-0.411367
-0.0882332
0.247654
0.59657
0.958777
1.3344
1.72348
2.1259
2.54143
2.96969
3.41004
3.8617
4.32356
4.79445
5.27285
5.75711
6.24526
6.73524
7.22479
7.71167
8.19357
8.66815
9.13321
9.58655
10.0262
10.4504
10.8577
11.2467
11.6166
11.9666
12.2963
12.6054
12.8938
13.1616
13.4091
13.6368
13.8453
14.0353
14.2077
14.3634
14.5034
14.6285
14.7399
14.8384
14.9251
15.0008
15.0665
15.1229
15.1709
15.2112
15.2444
15.2714
15.2927
15.309
15.3209
15.3291
15.3343
15.3373
15.3386
15.3397
15.3373
15.3412
15.3057
-5.61163
-5.62175
-5.63706
-5.64953
-5.65872
-5.66601
-5.67217
-5.67758
-5.68263
-5.68762
-5.69278
-5.6983
-5.70431
-5.71092
-5.71819
-5.7262
-5.73497
-5.74456
-5.75496
-5.76621
-5.77831
-5.79125
-5.80504
-5.81966
-5.8351
-5.85133
-5.86832
-5.88605
-5.90449
-5.92361
-5.94338
-5.96375
-5.9847
-6.00617
-6.02813
-6.05053
-6.07332
-6.09648
-6.11996
-6.14371
-6.1677
-6.19189
-6.21623
-6.24067
-6.26516
-6.28964
-6.31405
-6.33833
-6.36241
-6.38621
-6.40965
-6.43264
-6.4551
-6.47692
-6.49799
-6.51821
-6.53745
-6.55561
-6.57255
-6.58813
-6.60222
-6.61469
-6.62537
-6.63414
-6.64082
-6.64528
-6.64734
-6.64686
-6.64368
-6.63764
-6.62858
-6.61634
-6.60079
-6.58176
-6.5591
-6.53269
-6.50238
-6.46803
-6.42953
-6.38674
-6.33957
-6.28789
-6.23162
-6.17064
-6.10489
-6.03426
-5.95869
-5.87807
-5.79231
-5.7014
-5.60527
-5.50381
-5.39693
-5.28453
-5.16653
-5.04282
-4.91326
-4.77775
-4.63613
-4.48825
-4.33391
-4.17293
-4.00507
-3.83013
-3.64786
-3.45802
-3.26033
-3.05449
-2.84019
-2.61707
-2.38479
-2.14296
-1.89117
-1.62901
-1.35604
-1.07185
-0.776041
-0.468198
-0.147935
0.185142
0.531357
0.890984
1.26418
1.651
2.05139
2.46515
2.89192
3.33111
3.7819
4.24329
4.71407
5.19279
5.67779
6.1671
6.65864
7.15023
7.63954
8.12422
8.60189
9.07021
9.52694
9.97002
10.3976
10.8082
11.2005
11.5735
11.9264
12.2588
12.5704
12.8611
13.131
13.3805
13.6101
13.8203
14.012
14.1859
14.343
14.4843
14.6107
14.7233
14.8229
14.9106
14.9873
15.0539
15.1111
15.1598
15.2007
15.2344
15.2618
15.2834
15.2997
15.3116
15.3194
15.3238
15.3255
15.3247
15.3224
15.3147
15.3117
15.2632
-5.61313
-5.62368
-5.63946
-5.6526
-5.66256
-5.67066
-5.6776
-5.68377
-5.68952
-5.69517
-5.70093
-5.70701
-5.71353
-5.72061
-5.72833
-5.73673
-5.74588
-5.75579
-5.76649
-5.77799
-5.79029
-5.8034
-5.8173
-5.83199
-5.84745
-5.86366
-5.8806
-5.89824
-5.91656
-5.93554
-5.95512
-5.9753
-5.99603
-6.01728
-6.03902
-6.0612
-6.08379
-6.10676
-6.13006
-6.15367
-6.17753
-6.20161
-6.22586
-6.25023
-6.27467
-6.29912
-6.32352
-6.34781
-6.37191
-6.39575
-6.41924
-6.4423
-6.46483
-6.48672
-6.50787
-6.52818
-6.54751
-6.56575
-6.58276
-6.59841
-6.61257
-6.62508
-6.6358
-6.64459
-6.65127
-6.65572
-6.65775
-6.65722
-6.65397
-6.64784
-6.63867
-6.62631
-6.61061
-6.59141
-6.56859
-6.54199
-6.51148
-6.47693
-6.43822
-6.39524
-6.34787
-6.29602
-6.23958
-6.17848
-6.11262
-6.04194
-5.96636
-5.88578
-5.80017
-5.70943
-5.61358
-5.51248
-5.40607
-5.29423
-5.1769
-5.05395
-4.92529
-4.79079
-4.65028
-4.50365
-4.35064
-4.19111
-4.0248
-3.85155
-3.67106
-3.48315
-3.28746
-3.08377
-2.87169
-2.65094
-2.42108
-2.18179
-1.93258
-1.67308
-1.40279
-1.12134
-0.828238
-0.523104
-0.20545
0.125095
0.468926
0.826299
1.19742
1.58238
1.98115
2.39358
2.81931
3.2578
3.70822
4.16964
4.64084
5.12048
5.6068
6.09791
6.5917
7.08596
7.57834
8.06639
8.54765
9.01964
9.48009
9.92683
10.358
10.772
11.1675
11.5435
11.8992
12.234
12.5478
12.8405
13.1122
13.3632
13.5942
13.8057
13.9984
14.1734
14.3314
14.4735
14.6007
14.7139
14.8142
14.9024
14.9796
15.0466
15.1042
15.1532
15.1943
15.2283
15.2557
15.2772
15.2934
15.3048
15.3119
15.3153
15.3153
15.3121
15.3063
15.2935
15.2844
15.2248
-5.61931
-5.62982
-5.6454
-5.65864
-5.66895
-5.67751
-5.68496
-5.69166
-5.69795
-5.7041
-5.71034
-5.71687
-5.7238
-5.73125
-5.7393
-5.74801
-5.75742
-5.76757
-5.77846
-5.79013
-5.80257
-5.81577
-5.82974
-5.84447
-5.85994
-5.87613
-5.89303
-5.91061
-5.92885
-5.94772
-5.9672
-5.98725
-6.00785
-6.02897
-6.05058
-6.07265
-6.09514
-6.11802
-6.14125
-6.16481
-6.18864
-6.2127
-6.23695
-6.26135
-6.28583
-6.31034
-6.33482
-6.35919
-6.38339
-6.40734
-6.43094
-6.45411
-6.47675
-6.49876
-6.52002
-6.54043
-6.55986
-6.57818
-6.59527
-6.61098
-6.62517
-6.6377
-6.64842
-6.65717
-6.66381
-6.66817
-6.6701
-6.66944
-6.66603
-6.65971
-6.65032
-6.63772
-6.62176
-6.60228
-6.57915
-6.55223
-6.52139
-6.4865
-6.44745
-6.40413
-6.35643
-6.30427
-6.24754
-6.18617
-6.12009
-6.04922
-5.97351
-5.89289
-5.80725
-5.71666
-5.62098
-5.52017
-5.41414
-5.30281
-5.18609
-5.06388
-4.93608
-4.80255
-4.66315
-4.51771
-4.36604
-4.20793
-4.04319
-3.87159
-3.69291
-3.50687
-3.31322
-3.11164
-2.9018
-2.68335
-2.45591
-2.21907
-1.97239
-1.71543
-1.44774
-1.16887
-0.878346
-0.575707
-0.260467
0.0677957
0.409473
0.764857
1.13418
1.51757
1.91503
2.32644
2.75146
3.18959
3.64005
4.10193
4.57407
5.0551
5.54332
6.03679
6.5334
7.03091
7.52689
8.01879
8.50403
8.98006
9.44447
9.89505
10.3299
10.7473
11.1459
11.5247
11.883
12.2201
12.5358
12.8301
13.1033
13.3555
13.5874
13.7997
13.9932
14.1687
14.3272
14.4696
14.5971
14.7106
14.811
14.8995
14.9768
15.0438
15.1015
15.1505
15.1915
15.2253
15.2525
15.2737
15.2894
15.3001
15.3062
15.3083
15.3065
15.3007
15.2914
15.2738
15.2594
15.1902
-5.62951
-5.63959
-5.6544
-5.66724
-5.67749
-5.68618
-5.69385
-5.70084
-5.70743
-5.71391
-5.72047
-5.72728
-5.73449
-5.74218
-5.75045
-5.75935
-5.76893
-5.77921
-5.79022
-5.80198
-5.81448
-5.82773
-5.84173
-5.85647
-5.87193
-5.8881
-5.90497
-5.92251
-5.94071
-5.95953
-5.97896
-5.99896
-6.01951
-6.04058
-6.06215
-6.0842
-6.10668
-6.12957
-6.15283
-6.17643
-6.20032
-6.22446
-6.24881
-6.27331
-6.29791
-6.32255
-6.34717
-6.37169
-6.39604
-6.42014
-6.44389
-6.46721
-6.48999
-6.51213
-6.53351
-6.55402
-6.57353
-6.59192
-6.60905
-6.62478
-6.63896
-6.65145
-6.6621
-6.67076
-6.67727
-6.68146
-6.68319
-6.68229
-6.67861
-6.67199
-6.66227
-6.64931
-6.63295
-6.61306
-6.58949
-6.56212
-6.53081
-6.49544
-6.45592
-6.41212
-6.36396
-6.31135
-6.2542
-6.19245
-6.12602
-6.05487
-5.97894
-5.89815
-5.81248
-5.72187
-5.62633
-5.52576
-5.42007
-5.3092
-5.19306
-5.07157
-4.94462
-4.81205
-4.67376
-4.52951
-4.37917
-4.22248
-4.05932
-3.88938
-3.7125
-3.52835
-3.33673
-3.13724
-2.92963
-2.71345
-2.48839
-2.25396
-2.00977
-1.75529
-1.49014
-1.21376
-0.925712
-0.625436
-0.312482
0.0136384
0.353281
0.706813
1.07449
1.45647
1.85283
2.26344
2.68805
3.12613
3.57704
4.0398
4.51334
4.99624
5.48684
5.98317
6.48312
6.98436
7.48437
7.98052
8.47007
8.9504
9.41897
9.87352
10.312
10.7328
11.1345
11.516
11.8766
12.2157
12.5331
12.8288
13.1029
13.356
13.5885
13.8013
13.995
14.1706
14.3291
14.4716
14.599
14.7123
14.8126
14.9009
14.9779
15.0448
15.1021
15.1508
15.1915
15.225
15.2517
15.2723
15.2872
15.297
15.3021
15.3026
15.2988
15.2904
15.2776
15.2555
15.2364
15.1589
-5.64282
-5.65216
-5.66577
-5.67781
-5.68765
-5.69614
-5.70375
-5.71076
-5.71745
-5.72404
-5.73073
-5.73768
-5.74501
-5.75282
-5.76118
-5.77016
-5.77979
-5.79012
-5.80116
-5.81294
-5.82545
-5.8387
-5.85269
-5.86742
-5.88286
-5.89902
-5.91588
-5.93341
-5.95159
-5.97042
-5.98984
-6.00986
-6.03043
-6.05154
-6.07316
-6.09527
-6.11783
-6.14082
-6.16419
-6.18791
-6.21193
-6.23623
-6.26074
-6.28541
-6.31019
-6.33501
-6.35981
-6.38452
-6.40905
-6.43331
-6.45723
-6.4807
-6.50361
-6.52586
-6.54734
-6.56792
-6.58747
-6.60587
-6.62298
-6.63866
-6.65275
-6.66512
-6.67561
-6.68406
-6.69032
-6.69424
-6.69565
-6.69439
-6.69031
-6.68326
-6.67307
-6.65961
-6.64272
-6.62227
-6.59813
-6.57016
-6.53825
-6.50228
-6.46215
-6.41775
-6.36901
-6.31583
-6.25816
-6.19592
-6.12906
-6.05754
-5.9813
-5.90029
-5.81447
-5.72386
-5.62841
-5.52803
-5.42266
-5.31223
-5.19667
-5.07589
-4.94978
-4.81821
-4.68099
-4.53798
-4.38895
-4.23374
-4.07213
-3.9039
-3.72881
-3.5466
-3.35697
-3.15961
-2.95419
-2.74034
-2.51766
-2.28568
-2.04396
-1.79203
-1.52939
-1.25552
-0.969914
-0.672001
-0.361284
-0.0372822
0.300409
0.652183
1.01834
1.39911
1.79456
2.20464
2.62912
3.06754
3.51925
3.98331
4.45864
4.94383
5.43721
5.93683
6.44052
6.94587
7.45026
7.95093
8.44504
8.92985
9.40272
9.86127
10.3034
10.7275
11.1321
11.5161
11.8788
12.2197
12.5384
12.8352
13.1101
13.3636
13.5964
13.8091
14.0027
14.1782
14.3364
14.4785
14.6054
14.7183
14.8181
14.9059
14.9825
15.0488
15.1057
15.1538
15.194
15.2268
15.2529
15.2727
15.2868
15.2955
15.2992
15.2981
15.2922
15.2811
15.265
15.2387
15.2152
15.1306
-5.65829
-5.66667
-5.67879
-5.6897
-5.69883
-5.70684
-5.71412
-5.72092
-5.72746
-5.73397
-5.7406
-5.74751
-5.7548
-5.76258
-5.77091
-5.77985
-5.78944
-5.79973
-5.81074
-5.82247
-5.83495
-5.84817
-5.86214
-5.87684
-5.89228
-5.90844
-5.92529
-5.94283
-5.96104
-5.97989
-5.99937
-6.01946
-6.04012
-6.06133
-6.08307
-6.10532
-6.12803
-6.15118
-6.17472
-6.19863
-6.22285
-6.24733
-6.27204
-6.29692
-6.3219
-6.34692
-6.37191
-6.39679
-6.42149
-6.4459
-6.46995
-6.49352
-6.51651
-6.53882
-6.56032
-6.58088
-6.60039
-6.6187
-6.63569
-6.6512
-6.66508
-6.6772
-6.6874
-6.69552
-6.7014
-6.70489
-6.70583
-6.70407
-6.69945
-6.69181
-6.68101
-6.6669
-6.64935
-6.62821
-6.60335
-6.57466
-6.54202
-6.50532
-6.46447
-6.41937
-6.36994
-6.31611
-6.25783
-6.19502
-6.12766
-6.0557
-5.97911
-5.89784
-5.81188
-5.7212
-5.62582
-5.52562
-5.42056
-5.31058
-5.19562
-5.07558
-4.95034
-4.81978
-4.68369
-4.54195
-4.39429
-4.2406
-4.0806
-3.91414
-3.7409
-3.56069
-3.37313
-3.178
-2.97486
-2.76342
-2.54317
-2.31372
-2.07454
-1.8252
-1.56511
-1.29378
-1.01059
-0.715019
-0.406476
-0.0845235
0.251335
0.601484
0.966299
1.34603
1.7408
2.15061
2.57524
3.01433
3.46717
3.93292
4.4104
4.89824
5.39474
5.89799
6.40575
6.91549
7.42451
7.92989
8.42871
8.91807
9.39526
9.85777
10.3035
10.7307
11.138
11.5243
11.8888
12.2311
12.5509
12.8484
13.1236
13.3773
13.6099
13.8224
14.0156
14.1904
14.348
14.4894
14.6156
14.7277
14.8268
14.9138
14.9897
15.0553
15.1114
15.1589
15.1983
15.2304
15.2556
15.2746
15.2876
15.2951
15.2974
15.2946
15.2865
15.2728
15.2534
15.2232
15.1958
15.1052
-5.67499
-5.68227
-5.69269
-5.70227
-5.71045
-5.71773
-5.72444
-5.73078
-5.73696
-5.74317
-5.74955
-5.75624
-5.76334
-5.77094
-5.77911
-5.78792
-5.7974
-5.80758
-5.81849
-5.83015
-5.84256
-5.85574
-5.86966
-5.88434
-5.89976
-5.91591
-5.93277
-5.95034
-5.96859
-5.98751
-6.00708
-6.02728
-6.04807
-6.06944
-6.09134
-6.11377
-6.13667
-6.16002
-6.18377
-6.20787
-6.23229
-6.25697
-6.28186
-6.30692
-6.33207
-6.35725
-6.38238
-6.40738
-6.43217
-6.45665
-6.48072
-6.5043
-6.52726
-6.54949
-6.57088
-6.59129
-6.6106
-6.62868
-6.64539
-6.66057
-6.67409
-6.68579
-6.69553
-6.70315
-6.70848
-6.71139
-6.71171
-6.70928
-6.70396
-6.69559
-6.68404
-6.66915
-6.65079
-6.62883
-6.60314
-6.57362
-6.54014
-6.50262
-6.46095
-6.41507
-6.36488
-6.31034
-6.25139
-6.18798
-6.12008
-6.04766
-5.97069
-5.88916
-5.80302
-5.71233
-5.61701
-5.51703
-5.41232
-5.30285
-5.18854
-5.06931
-4.94504
-4.81555
-4.6807
-4.54029
-4.39414
-4.24204
-4.08379
-3.91916
-3.74791
-3.56976
-3.38442
-3.19157
-2.99085
-2.78186
-2.56416
-2.33728
-2.10073
-1.85398
-1.5965
-1.32767
-1.04689
-0.753572
-0.447153
-0.12714
0.206981
0.555646
0.919273
1.29815
1.69246
2.10223
2.52732
2.96733
3.42164
3.88937
4.36935
4.86015
5.36006
5.86718
6.3792
6.89351
7.40725
7.91742
8.42094
8.91483
9.39623
9.86253
10.3116
10.7416
11.1513
11.5396
11.9057
12.2491
12.5697
12.8674
13.1427
13.3961
13.6283
13.8401
14.0325
14.2065
14.3632
14.5036
14.6288
14.74
14.8381
14.9241
14.9991
15.0638
15.119
15.1656
15.2042
15.2354
15.2597
15.2776
15.2895
15.2958
15.2966
15.2919
15.2818
15.2654
15.243
15.2092
15.1781
15.0824
-5.69207
-5.69819
-5.70687
-5.71496
-5.722
-5.72834
-5.73425
-5.7399
-5.74549
-5.75118
-5.75711
-5.76341
-5.77017
-5.77747
-5.78539
-5.79397
-5.80324
-5.81325
-5.82401
-5.83554
-5.84784
-5.86093
-5.87478
-5.88941
-5.9048
-5.92095
-5.93783
-5.95544
-5.97376
-5.99278
-6.01245
-6.03277
-6.05371
-6.07523
-6.0973
-6.1199
-6.14297
-6.16648
-6.19038
-6.21463
-6.23917
-6.26397
-6.28896
-6.3141
-6.33931
-6.36452
-6.38966
-6.41463
-6.43936
-6.46374
-6.48768
-6.51108
-6.53382
-6.5558
-6.57688
-6.59695
-6.61588
-6.63353
-6.64976
-6.66442
-6.67739
-6.68849
-6.69759
-6.70453
-6.70915
-6.71131
-6.71084
-6.7076
-6.70143
-6.6922
-6.67976
-6.66396
-6.64469
-6.62181
-6.59521
-6.56477
-6.53039
-6.49198
-6.44945
-6.40273
-6.35176
-6.29648
-6.23685
-6.17283
-6.1044
-6.03153
-5.95424
-5.87245
-5.78624
-5.69553
-5.60037
-5.50068
-5.39643
-5.28756
-5.17404
-5.05573
-4.93253
-4.80425
-4.67076
-4.5318
-4.38726
-4.23687
-4.08049
-3.9178
-3.74863
-3.57264
-3.38961
-3.19913
-3.00091
-2.79444
-2.57936
-2.3551
-2.12122
-1.87709
-1.62218
-1.35579
-1.07735
-0.786203
-0.481845
-0.163677
0.168798
0.516106
0.878688
1.2569
1.65096
2.06092
2.4867
2.92788
3.38389
3.85382
4.33651
4.83047
5.33397
5.84502
6.3613
6.88013
7.39852
7.91335
8.42141
8.91961
9.40496
9.87475
10.3268
10.7594
11.1711
11.5611
11.9283
12.2725
12.5934
12.8911
13.1661
13.419
13.6504
13.8612
14.0526
14.2254
14.3809
14.5201
14.6441
14.7541
14.851
14.936
15.0099
15.0736
15.1279
15.1735
15.2111
15.2414
15.2647
15.2815
15.2923
15.2972
15.2965
15.2901
15.2778
15.2589
15.2335
15.1964
15.1619
15.062
-5.70956
-5.71455
-5.7215
-5.72803
-5.73373
-5.73888
-5.74371
-5.7484
-5.75312
-5.75803
-5.76327
-5.76896
-5.77517
-5.782
-5.78949
-5.7977
-5.80665
-5.81638
-5.82689
-5.8382
-5.85032
-5.86324
-5.87697
-5.89151
-5.90683
-5.92292
-5.93978
-5.95739
-5.97572
-5.99476
-6.01447
-6.03483
-6.05581
-6.07739
-6.09953
-6.12218
-6.1453
-6.16884
-6.19275
-6.21699
-6.2415
-6.26624
-6.29115
-6.31616
-6.34122
-6.36624
-6.39114
-6.41585
-6.44027
-6.46431
-6.48787
-6.51084
-6.53311
-6.55458
-6.57512
-6.59461
-6.61291
-6.62991
-6.64544
-6.65938
-6.67158
-6.68189
-6.69017
-6.69625
-6.7
-6.70125
-6.69986
-6.69567
-6.68855
-6.67835
-6.66493
-6.64816
-6.62791
-6.60406
-6.5765
-6.54512
-6.50983
-6.47052
-6.42715
-6.37962
-6.32791
-6.27193
-6.21169
-6.14714
-6.07826
-6.00506
-5.9275
-5.84561
-5.75937
-5.66882
-5.57393
-5.47466
-5.371
-5.26291
-5.1503
-5.03307
-4.91108
-4.78417
-4.65213
-4.51481
-4.37197
-4.22344
-4.06898
-3.90838
-3.74136
-3.56768
-3.38702
-3.19904
-3.00335
-2.79953
-2.58708
-2.36553
-2.13431
-1.89281
-1.64038
-1.37637
-1.10017
-0.81117
-0.50879
-0.192408
0.138542
0.484618
0.846297
1.22398
1.61792
2.02822
2.45478
2.89724
3.35502
3.82721
4.31262
4.80973
5.31679
5.83168
6.35203
6.87509
7.39783
7.91698
8.42926
8.93138
9.42026
9.89312
10.3477
10.7825
11.196
11.5872
11.9553
12.2998
12.6208
12.9182