/*--------------------------------*- C++ -*----------------------------------*\
  =========                 |
  \\      /  F ield         | OpenFOAM: The Open Source CFD Toolbox
   \\    /   O peration     | Website:  https://openfoam.org
    \\  /    A nd           | Version:  8
     \\/     M anipulation  |
\*---------------------------------------------------------------------------*/
FoamFile
{
    version     2.0;
    format      ascii;
    class       surfaceScalarField;
    location    "165";
    object      phi;
}
// * * * * * * * * * * * * * * * * * * * * * * * * * * * * * * * * * * * * * //

dimensions      [0 3 -1 0 0 0 0];

internalField   nonuniform List<scalar> 
24170
(
3.12889e-06
5.95176e-08
3.04663e-06
8.22589e-08
2.97352e-06
7.31033e-08
2.90486e-06
6.8657e-08
2.84051e-06
6.43463e-08
2.78315e-06
5.73518e-08
2.7338e-06
4.9352e-08
2.69181e-06
4.1988e-08
2.65608e-06
3.572e-08
2.62557e-06
3.05071e-08
2.59929e-06
2.62793e-08
2.57639e-06
2.28996e-08
2.55618e-06
2.02034e-08
2.53806e-06
1.81178e-08
2.52158e-06
1.64741e-08
2.50559e-06
1.59914e-08
2.49033e-06
1.52592e-08
2.30099e-08
2.46732e-06
3.45314e-06
2.36273e-08
3.45702e-06
7.83796e-08
3.45054e-06
7.9579e-08
3.43907e-06
8.01173e-08
3.42428e-06
7.91352e-08
3.40702e-06
7.46103e-08
3.38778e-06
6.859e-08
3.36723e-06
6.2537e-08
3.34605e-06
5.68969e-08
3.32482e-06
5.17265e-08
3.30404e-06
4.70599e-08
3.28397e-06
4.29705e-08
3.26479e-06
3.93755e-08
3.24654e-06
3.63618e-08
3.22932e-06
3.369e-08
3.21301e-06
3.22996e-08
3.19801e-06
3.02567e-08
3.41031e-08
3.18692e-06
3.66826e-06
1.7885e-08
3.67918e-06
6.74561e-08
3.68541e-06
7.33508e-08
3.68944e-06
7.60832e-08
3.69102e-06
7.75473e-08
3.69004e-06
7.55888e-08
3.68689e-06
7.17437e-08
3.68202e-06
6.74006e-08
3.67584e-06
6.30784e-08
3.66866e-06
5.8904e-08
3.66076e-06
5.49579e-08
3.65238e-06
5.13456e-08
3.6437e-06
4.80487e-08
3.63488e-06
4.5181e-08
3.62596e-06
4.26075e-08
3.61733e-06
4.09291e-08
3.6084e-06
3.91841e-08
3.99946e-08
3.60251e-06
3.92587e-06
1.74021e-08
3.93591e-06
5.74132e-08
3.94255e-06
6.6707e-08
3.94808e-06
7.05503e-08
3.95249e-06
7.31442e-08
3.95542e-06
7.26557e-08
3.95707e-06
7.00927e-08
3.95767e-06
6.67913e-08
3.95743e-06
6.33224e-08
3.95647e-06
5.98566e-08
3.95494e-06
5.6487e-08
3.95295e-06
5.33329e-08
3.95059e-06
5.04069e-08
3.94796e-06
4.78098e-08
3.94508e-06
4.54829e-08
3.94226e-06
4.375e-08
3.93924e-06
4.21951e-08
4.16028e-08
3.93763e-06
4.20819e-06
1.6337e-08
4.21598e-06
4.96257e-08
4.22167e-06
6.10147e-08
4.22676e-06
6.54566e-08
4.23149e-06
6.84091e-08
4.23545e-06
6.87011e-08
4.23859e-06
6.69457e-08
4.24104e-06
6.43412e-08
4.2429e-06
6.14638e-08
4.24425e-06
5.85033e-08
4.24517e-06
5.5561e-08
4.24575e-06
5.2754e-08
4.24603e-06
5.01195e-08
4.24611e-06
4.77365e-08
4.246e-06
4.55886e-08
4.24592e-06
4.38327e-08
4.24584e-06
4.22727e-08
4.10456e-08
4.24639e-06
4.51069e-06
1.47375e-08
4.51688e-06
4.3434e-08
4.52212e-06
5.57722e-08
4.52692e-06
6.06517e-08
4.53162e-06
6.37105e-08
4.53585e-06
6.44701e-08
4.5395e-06
6.32939e-08
4.54263e-06
6.12071e-08
4.54531e-06
5.87744e-08
4.54762e-06
5.61978e-08
4.54959e-06
5.35889e-08
4.55128e-06
5.10564e-08
4.55275e-06
4.86534e-08
4.55404e-06
4.64386e-08
4.55522e-06
4.44145e-08
4.5564e-06
4.26431e-08
4.55766e-06
4.10142e-08
3.94604e-08
4.55924e-06
4.8343e-06
1.3152e-08
4.83962e-06
3.81168e-08
4.84474e-06
5.06543e-08
4.84943e-06
5.59601e-08
4.85404e-06
5.90923e-08
4.85834e-06
6.01714e-08
4.86219e-06
5.94445e-08
4.86562e-06
5.77699e-08
4.8687e-06
5.56925e-08
4.87147e-06
5.34259e-08
4.87397e-06
5.1089e-08
4.87624e-06
4.87832e-08
4.87833e-06
4.6569e-08
4.88027e-06
4.44903e-08
4.88213e-06
4.25548e-08
4.884e-06
4.07757e-08
4.88593e-06
3.90775e-08
3.73528e-08
4.88804e-06
5.18103e-06
1.17036e-08
5.18574e-06
3.33991e-08
5.19074e-06
4.56592e-08
5.19538e-06
5.132e-08
5.19995e-06
5.45215e-08
5.20428e-06
5.5831e-08
5.20826e-06
5.54712e-08
5.21188e-06
5.41466e-08
5.2152e-06
5.23718e-08
5.21825e-06
5.03709e-08
5.22107e-06
4.82673e-08
5.22369e-06
4.61571e-08
5.22616e-06
4.41024e-08
5.22851e-06
4.21388e-08
5.23079e-06
4.02734e-08
5.23306e-06
3.84979e-08
5.23538e-06
3.67551e-08
3.49524e-08
5.23778e-06
5.55268e-06
1.03595e-08
5.55688e-06
2.91997e-08
5.56168e-06
4.08592e-08
5.56627e-06
4.67224e-08
5.57082e-06
4.99721e-08
5.5752e-06
5.14448e-08
5.57929e-06
5.1389e-08
5.58306e-06
5.03728e-08
5.58656e-06
4.88678e-08
5.58982e-06
4.71048e-08
5.59288e-06
4.52102e-08
5.59576e-06
4.32759e-08
5.5985e-06
4.13631e-08
5.60113e-06
3.95032e-08
5.6037e-06
3.77022e-08
5.60625e-06
3.59461e-08
5.60881e-06
3.41907e-08
3.23739e-08
5.61139e-06
5.95103e-06
9.10318e-09
5.95478e-06
2.54547e-08
5.95934e-06
3.62932e-08
5.96388e-06
4.21776e-08
5.96841e-06
4.54396e-08
5.97284e-06
4.70183e-08
5.97702e-06
4.72071e-08
5.98093e-06
4.64617e-08
5.98459e-06
4.52004e-08
5.98804e-06
4.36555e-08
5.99129e-06
4.19537e-08
5.99438e-06
4.01834e-08
5.99734e-06
3.84035e-08
6.0002e-06
3.6644e-08
6.00299e-06
3.49116e-08
6.00574e-06
3.31941e-08
6.00847e-06
3.14601e-08
2.96749e-08
6.01117e-06
6.37798e-06
7.93616e-09
6.38134e-06
2.20965e-08
6.38565e-06
3.19718e-08
6.39013e-06
3.77024e-08
6.39464e-06
4.09293e-08
6.39909e-06
4.25632e-08
6.40336e-06
4.29376e-08
6.40739e-06
4.24231e-08
6.41121e-06
4.13814e-08
6.41483e-06
4.00368e-08
6.41826e-06
3.85155e-08
6.42154e-06
3.69015e-08
6.42469e-06
3.52516e-08
6.42774e-06
3.35953e-08
6.43071e-06
3.19418e-08
6.43362e-06
3.02843e-08
6.43647e-06
2.86028e-08
2.68853e-08
6.43926e-06
5.74176e-06
7.01246e-09
5.74433e-06
1.95178e-08
5.7478e-06
2.85081e-08
5.75151e-06
3.39825e-08
5.7553e-06
3.71374e-08
5.75908e-06
3.87838e-08
5.76275e-06
3.92698e-08
5.76625e-06
3.89178e-08
5.76959e-06
3.80426e-08
5.77277e-06
3.68548e-08
5.7758e-06
3.54776e-08
5.77871e-06
3.39922e-08
5.78151e-06
3.24521e-08
5.78422e-06
3.08884e-08
5.78684e-06
2.93119e-08
5.7894e-06
2.7722e-08
5.7919e-06
2.61066e-08
2.44688e-08
5.79432e-06
6.99914e-06
6.03123e-09
7.00186e-06
1.67894e-08
7.00562e-06
2.47499e-08
7.00978e-06
2.9824e-08
7.01408e-06
3.28278e-08
7.01842e-06
3.44422e-08
7.02268e-06
3.50099e-08
7.02679e-06
3.48071e-08
7.03073e-06
3.40985e-08
7.03451e-06
3.30751e-08
7.03813e-06
3.18546e-08
7.04161e-06
3.05127e-08
7.04496e-06
2.91012e-08
7.04819e-06
2.76506e-08
7.05133e-06
2.6176e-08
7.05437e-06
2.46816e-08
7.05731e-06
2.31639e-08
2.1637e-08
7.06014e-06
8.53188e-06
5.0002e-09
8.53473e-06
1.39379e-08
8.53875e-06
2.07242e-08
8.54334e-06
2.5233e-08
8.54818e-06
2.79813e-08
8.55312e-06
2.94994e-08
8.55803e-06
3.01021e-08
8.56282e-06
3.00207e-08
8.56744e-06
2.94697e-08
8.5719e-06
2.86134e-08
8.5762e-06
2.75594e-08
8.58033e-06
2.63776e-08
8.58431e-06
2.51161e-08
8.58816e-06
2.38052e-08
8.59187e-06
2.24629e-08
8.59545e-06
2.10989e-08
8.5989e-06
1.97159e-08
1.83355e-08
8.6022e-06
1.04003e-05
3.9283e-09
1.04032e-05
1.09825e-08
1.04075e-05
1.6452e-08
1.04125e-05
2.02176e-08
1.04179e-05
2.25798e-08
1.04235e-05
2.3917e-08
1.04291e-05
2.449e-08
1.04346e-05
2.44873e-08
1.044e-05
2.40728e-08
1.04453e-05
2.33797e-08
1.04503e-05
2.24997e-08
1.04552e-05
2.14952e-08
1.04599e-05
2.04081e-08
1.04645e-05
1.92685e-08
1.04688e-05
1.80949e-08
1.0473e-05
1.69013e-08
1.0477e-05
1.56939e-08
1.44984e-08
1.04809e-05
1.26779e-05
2.82018e-09
1.2681e-05
7.91655e-09
1.26855e-05
1.19308e-08
1.26909e-05
1.47698e-08
1.26969e-05
1.65942e-08
1.27032e-05
1.76432e-08
1.27096e-05
1.81074e-08
1.27159e-05
1.81262e-08
1.27222e-05
1.78169e-08
1.27283e-05
1.72762e-08
1.27342e-05
1.65759e-08
1.27399e-05
1.57657e-08
1.27455e-05
1.48812e-08
1.27508e-05
1.39477e-08
1.27559e-05
1.29841e-08
1.27608e-05
1.20039e-08
1.27655e-05
1.10161e-08
1.00454e-08
1.27699e-05
1.54543e-05
1.66461e-09
1.54576e-05
4.69338e-09
1.54624e-05
7.10121e-09
1.54683e-05
8.82814e-09
1.5475e-05
9.9478e-09
1.5482e-05
1.05854e-08
1.54893e-05
1.08506e-08
1.54966e-05
1.08272e-08
1.55038e-05
1.05854e-08
1.55109e-05
1.0184e-08
1.55178e-05
9.66887e-09
1.55245e-05
9.0733e-09
1.55309e-05
8.42223e-09
1.55372e-05
7.73433e-09
1.55431e-05
7.02431e-09
1.55488e-05
6.30395e-09
1.55542e-05
5.58091e-09
4.87715e-09
1.55594e-05
1.88389e-05
4.21022e-10
1.88424e-05
1.18731e-09
1.88477e-05
1.78783e-09
1.88543e-05
2.19922e-09
1.88618e-05
2.44063e-09
1.88699e-05
2.53972e-09
1.88782e-05
2.51841e-09
1.88866e-05
2.39621e-09
1.8895e-05
2.19292e-09
1.89033e-05
1.92624e-09
1.89113e-05
1.61088e-09
1.89191e-05
1.25875e-09
1.89267e-05
8.80141e-10
1.89339e-05
4.83678e-10
1.89409e-05
7.69752e-11
1.89475e-05
-3.33041e-10
1.89538e-05
-7.42047e-10
-1.13309e-09
1.89598e-05
2.29648e-05
-1.01244e-09
2.29688e-05
-2.89181e-09
2.29751e-05
-4.43035e-09
2.29829e-05
-5.59511e-09
2.29917e-05
-6.40702e-09
2.30012e-05
-6.95304e-09
2.3011e-05
-7.3201e-09
2.3021e-05
-7.56348e-09
2.30309e-05
-7.7198e-09
2.30406e-05
-7.82091e-09
2.30501e-05
-7.89073e-09
2.30593e-05
-7.94422e-09
2.30682e-05
-7.9895e-09
2.30767e-05
-8.03114e-09
2.30849e-05
-8.0712e-09
2.30926e-05
-8.1097e-09
2.31e-05
-8.14709e-09
-8.17283e-09
2.31071e-05
1.68118e-05
-2.13838e-09
1.6815e-05
-6.06959e-09
1.68198e-05
-9.27345e-09
1.68259e-05
-1.1611e-08
1.68326e-05
-1.31434e-08
1.68397e-05
-1.40976e-08
1.68471e-05
-1.46625e-08
1.68545e-05
-1.49408e-08
1.68617e-05
-1.5013e-08
1.68689e-05
-1.495e-08
1.68758e-05
-1.48059e-08
1.68824e-05
-1.46129e-08
1.68888e-05
-1.43927e-08
1.6895e-05
-1.41583e-08
1.69008e-05
-1.39191e-08
1.69064e-05
-1.36788e-08
1.69117e-05
-1.34413e-08
-1.31994e-08
1.69167e-05
1.46356e-05
-3.21964e-09
1.46387e-05
-9.16328e-09
1.46435e-05
-1.40003e-08
1.46492e-05
-1.73728e-08
1.46555e-05
-1.9453e-08
1.46621e-05
-2.06914e-08
1.46688e-05
-2.13577e-08
1.46755e-05
-2.15888e-08
1.4682e-05
-2.15153e-08
1.46883e-05
-2.12543e-08
1.46943e-05
-2.08812e-08
1.47002e-05
-2.0441e-08
1.47057e-05
-1.99636e-08
1.4711e-05
-1.94705e-08
1.47161e-05
-1.89745e-08
1.47209e-05
-1.84832e-08
1.47255e-05
-1.8001e-08
-1.75243e-08
1.47298e-05
1.27411e-05
-4.23185e-09
1.27443e-05
-1.22965e-08
1.27491e-05
-1.88431e-08
1.27548e-05
-2.30355e-08
1.27608e-05
-2.54545e-08
1.2767e-05
-2.68743e-08
1.27732e-05
-2.75584e-08
1.27792e-05
-2.76558e-08
1.27851e-05
-2.73741e-08
1.27907e-05
-2.68786e-08
1.27961e-05
-2.62587e-08
1.28012e-05
-2.55665e-08
1.28061e-05
-2.48383e-08
1.28107e-05
-2.41004e-08
1.28151e-05
-2.33676e-08
1.28193e-05
-2.26485e-08
1.28232e-05
-2.19472e-08
-2.12614e-08
1.28269e-05
1.10918e-05
-5.07653e-09
1.1095e-05
-1.55237e-08
1.11001e-05
-2.39804e-08
1.11058e-05
-2.86754e-08
1.11115e-05
-3.1208e-08
1.11174e-05
-3.27092e-08
1.11231e-05
-3.33103e-08
1.11286e-05
-3.31936e-08
1.11339e-05
-3.26618e-08
1.1139e-05
-3.19119e-08
1.11437e-05
-3.1036e-08
1.11483e-05
-3.00904e-08
1.11525e-05
-2.91187e-08
1.11566e-05
-2.81488e-08
1.11604e-05
-2.71965e-08
1.1164e-05
-2.62691e-08
1.11674e-05
-2.5371e-08
-2.44994e-08
1.11707e-05
9.65582e-06
-5.6784e-09
9.65925e-06
-1.89576e-08
9.6646e-06
-2.9337e-08
9.67011e-06
-3.41859e-08
9.67568e-06
-3.67812e-08
9.68126e-06
-3.82855e-08
9.68661e-06
-3.86621e-08
9.69165e-06
-3.82424e-08
9.69642e-06
-3.7429e-08
9.70092e-06
-3.64161e-08
9.70517e-06
-3.52824e-08
9.70916e-06
-3.40875e-08
9.71292e-06
-3.28789e-08
9.71646e-06
-3.16862e-08
9.71978e-06
-3.05243e-08
9.72291e-06
-2.94001e-08
9.72586e-06
-2.83159e-08
-2.72673e-08
9.72862e-06
8.4053e-06
-5.62694e-09
8.40964e-06
-2.33002e-08
8.41489e-06
-3.45829e-08
8.41992e-06
-3.92243e-08
8.4253e-06
-4.2159e-08
8.43072e-06
-4.37072e-08
8.43582e-06
-4.37631e-08
8.44054e-06
-4.29655e-08
8.44492e-06
-4.18164e-08
8.449e-06
-4.04921e-08
8.45278e-06
-3.90622e-08
8.45628e-06
-3.75891e-08
8.45952e-06
-3.61225e-08
8.46252e-06
-3.46899e-08
8.4653e-06
-3.33064e-08
8.46788e-06
-3.19782e-08
8.47027e-06
-3.0707e-08
-2.94894e-08
8.47249e-06
7.3145e-06
-2.84584e-09
7.3212e-06
-2.99944e-08
7.32676e-06
-4.0144e-08
7.33171e-06
-4.41818e-08
7.33712e-06
-4.75662e-08
7.34245e-06
-4.90394e-08
7.34734e-06
-4.86537e-08
7.35176e-06
-4.73924e-08
7.35575e-06
-4.58096e-08
7.35932e-06
-4.40634e-08
7.3625e-06
-4.22349e-08
7.3653e-06
-4.03964e-08
7.36778e-06
-3.8601e-08
7.36996e-06
-3.68725e-08
7.37188e-06
-3.52257e-08
7.37356e-06
-3.36641e-08
7.37504e-06
-3.21874e-08
-3.07861e-08
7.37634e-06
6.36243e-06
4.7849e-09
6.3719e-06
-3.94615e-08
6.37933e-06
-4.75752e-08
6.38597e-06
-5.08263e-08
6.39226e-06
-5.38566e-08
6.39758e-06
-5.43624e-08
6.40189e-06
-5.29589e-08
6.40538e-06
-5.08848e-08
6.40819e-06
-4.86225e-08
6.41039e-06
-4.62614e-08
6.41203e-06
-4.38807e-08
6.41319e-06
-4.15573e-08
6.41393e-06
-3.93415e-08
6.41431e-06
-3.72521e-08
6.41438e-06
-3.53012e-08
6.41421e-06
-3.3487e-08
6.41383e-06
-3.18096e-08
-3.02475e-08
6.41329e-06
5.54129e-06
8.95477e-09
5.55033e-06
-4.84946e-08
5.55834e-06
-5.55936e-08
5.56605e-06
-5.85393e-08
5.57252e-06
-6.03252e-08
5.57685e-06
-5.86963e-08
5.5791e-06
-5.52096e-08
5.57967e-06
-5.14545e-08
5.57893e-06
-4.78802e-08
5.57715e-06
-4.44873e-08
5.57457e-06
-4.12989e-08
5.57137e-06
-3.83559e-08
5.56769e-06
-3.5666e-08
5.56366e-06
-3.32232e-08
5.55938e-06
-3.10192e-08
5.55493e-06
-2.90431e-08
5.55042e-06
-2.72948e-08
-2.5721e-08
5.54589e-06
4.86019e-06
-2.36287e-08
4.86538e-06
-5.36884e-08
4.86524e-06
-5.54485e-08
4.86218e-06
-5.54815e-08
4.85701e-06
-5.51595e-08
4.84951e-06
-5.12013e-08
4.83982e-06
-4.55253e-08
4.82844e-06
-4.00709e-08
4.81587e-06
-3.53129e-08
4.8026e-06
-3.12195e-08
4.78901e-06
-2.77119e-08
4.77539e-06
-2.47299e-08
4.76191e-06
-2.21933e-08
4.74872e-06
-2.00366e-08
4.73591e-06
-1.82042e-08
4.72353e-06
-1.66719e-08
4.71171e-06
-1.54764e-08
-1.51287e-08
4.70112e-06
4.17905e-06
4.12536e-06
4.06991e-06
4.01443e-06
3.95927e-06
3.90807e-06
3.86254e-06
3.82247e-06
3.78716e-06
3.75594e-06
3.72823e-06
3.7035e-06
3.6813e-06
3.66127e-06
3.64306e-06
3.62639e-06
3.61091e-06
3.59578e-06
1.74278e-08
-1.74987e-08
3.1681e-08
-1.43507e-08
3.83223e-08
-6.71119e-09
3.7218e-08
1.0395e-09
2.94697e-08
7.6959e-09
1.65389e-08
1.28807e-08
-2.0045e-10
1.66945e-08
-1.96688e-08
1.94304e-08
-4.11039e-08
2.13962e-08
-6.39619e-08
2.28301e-08
-8.79164e-08
2.39193e-08
-1.12736e-07
2.47963e-08
-1.38315e-07
2.55459e-08
-1.6456e-07
2.62202e-08
-1.91444e-07
2.6852e-08
-2.18957e-07
2.74865e-08
-2.47105e-07
2.81159e-08
-2.75903e-07
2.8772e-08
-3.05551e-07
2.96179e-08
-3.36117e-07
3.05434e-08
-3.67443e-07
3.12973e-08
-4.00019e-07
3.25563e-08
-4.35884e-07
3.58343e-08
-4.77726e-07
4.18166e-08
-5.11015e-07
3.32518e-08
-5.40525e-07
2.94871e-08
-5.78129e-07
3.7568e-08
-6.24352e-07
4.61974e-08
-6.6538e-07
4.09851e-08
-7.09163e-07
4.37566e-08
-7.55839e-07
4.66232e-08
-7.92471e-07
3.65956e-08
-8.31857e-07
3.93293e-08
-8.72999e-07
4.11033e-08
-9.15213e-07
4.21569e-08
-9.57918e-07
4.26635e-08
-1.00084e-06
4.2872e-08
-1.0438e-06
4.29112e-08
-1.0867e-06
4.28498e-08
-1.12946e-06
4.27282e-08
-1.17207e-06
4.25682e-08
-1.21449e-06
4.23871e-08
-1.25672e-06
4.2191e-08
-1.29874e-06
4.19883e-08
-1.34056e-06
4.17791e-08
-1.38216e-06
4.15678e-08
-1.42355e-06
4.13515e-08
-1.46471e-06
4.11327e-08
-1.50565e-06
4.09071e-08
-1.54636e-06
4.0676e-08
-1.58683e-06
4.04343e-08
-1.62704e-06
4.01828e-08
-1.667e-06
3.99164e-08
-1.70667e-06
3.96355e-08
-1.74605e-06
3.93353e-08
-1.78511e-06
3.90164e-08
-1.82383e-06
3.86743e-08
-1.86219e-06
3.83099e-08
-1.90016e-06
3.7919e-08
-1.93772e-06
3.75027e-08
-1.97483e-06
3.70574e-08
-2.01146e-06
3.65846e-08
-2.0476e-06
3.60813e-08
-2.0832e-06
3.5549e-08
-2.11824e-06
3.49854e-08
-2.15269e-06
3.43918e-08
-2.1865e-06
3.37667e-08
-2.21967e-06
3.31117e-08
-2.25214e-06
3.24262e-08
-2.28391e-06
3.17116e-08
-2.31492e-06
3.09685e-08
-2.34517e-06
3.01979e-08
-2.37461e-06
2.94011e-08
-2.40325e-06
2.85783e-08
-2.43102e-06
2.77325e-08
-2.45795e-06
2.68632e-08
-2.48398e-06
2.59749e-08
-2.50911e-06
2.50679e-08
-2.53331e-06
2.41466e-08
-2.55659e-06
2.32087e-08
-2.57891e-06
2.22599e-08
-2.60028e-06
2.12977e-08
-2.62065e-06
2.03274e-08
-2.64007e-06
1.93422e-08
-2.65847e-06
1.8349e-08
-2.67588e-06
1.73428e-08
-2.69225e-06
1.63344e-08
-2.70761e-06
1.53185e-08
-2.72191e-06
1.4301e-08
-2.73516e-06
1.32795e-08
-2.74738e-06
1.22387e-08
-2.75855e-06
1.1175e-08
-2.76863e-06
1.00827e-08
-2.77759e-06
8.95876e-09
-2.7854e-06
7.79393e-09
-2.79198e-06
6.57847e-09
-2.7973e-06
5.29583e-09
-2.80124e-06
3.92862e-09
-2.80373e-06
2.45921e-09
-2.80467e-06
8.97724e-10
-2.80406e-06
-6.66835e-10
-2.80202e-06
-2.12258e-09
-2.79863e-06
-3.50515e-09
-2.79385e-06
-4.91756e-09
-2.78764e-06
-6.37124e-09
-2.77993e-06
-7.89066e-09
-2.77062e-06
-9.46788e-09
-2.75967e-06
-1.1127e-08
-2.74695e-06
-1.28583e-08
-2.73242e-06
-1.469e-08
-2.71592e-06
-1.66092e-08
-2.6974e-06
-1.86462e-08
-2.67671e-06
-2.07845e-08
-2.65375e-06
-2.30556e-08
-2.62837e-06
-2.54394e-08
-2.60047e-06
-2.79679e-08
-2.56988e-06
-3.06185e-08
-2.53648e-06
-3.34217e-08
-2.5001e-06
-3.63536e-08
-2.46065e-06
-3.9443e-08
-2.41798e-06
-4.26697e-08
-2.37198e-06
-4.60516e-08
-2.32247e-06
-4.95517e-08
-2.26933e-06
-5.31791e-08
-2.2124e-06
-5.68867e-08
-2.15162e-06
-6.06891e-08
-2.0869e-06
-6.4544e-08
-2.01823e-06
-6.84596e-08
-1.94555e-06
-7.24047e-08
-1.86883e-06
-7.64134e-08
-1.78808e-06
-8.03945e-08
-1.7034e-06
-8.43225e-08
-1.61488e-06
-8.81589e-08
-1.52268e-06
-9.18484e-08
-1.42695e-06
-9.53999e-08
-1.3279e-06
-9.87528e-08
-1.22578e-06
-1.01875e-07
-1.12088e-06
-1.04723e-07
-1.01353e-06
-1.07279e-07
-9.04061e-07
-1.09502e-07
-7.92802e-07
-1.11371e-07
-6.80133e-07
-1.1286e-07
-5.66404e-07
-1.1396e-07
-4.52051e-07
-1.1465e-07
-3.3744e-07
-1.14938e-07
-2.22765e-07
-1.15051e-07
-1.07806e-07
-1.15351e-07
7.95935e-09
-1.16179e-07
1.23893e-07
-1.16328e-07
2.38061e-07
-1.14561e-07
3.49416e-07
-1.11728e-07
4.574e-07
-1.08355e-07
5.61684e-07
-1.04637e-07
6.62015e-07
-1.00678e-07
7.58239e-07
-9.65526e-08
8.50235e-07
-9.23156e-08
9.37954e-07
-8.80198e-08
1.02137e-06
-8.37006e-08
1.10049e-06
-7.93985e-08
1.17539e-06
-7.51465e-08
1.24612e-06
-7.09747e-08
1.31281e-06
-6.69005e-08
1.37554e-06
-6.29393e-08
1.43446e-06
-5.91022e-08
1.48969e-06
-5.5405e-08
1.54138e-06
-5.18439e-08
1.58965e-06
-4.84204e-08
1.63464e-06
-4.51215e-08
1.67646e-06
-4.19399e-08
1.71521e-06
-3.88573e-08
1.75095e-06
-3.58505e-08
1.78373e-06
-3.28702e-08
1.81347e-06
-2.98384e-08
1.84e-06
-2.6617e-08
1.86285e-06
-2.29312e-08
1.88101e-06
-1.8244e-08
1.89162e-06
-1.06891e-08
1.88748e-06
4.08054e-09
1.8508e-06
3.66169e-08
9.65617e-08
1.75419e-06
8.26486e-09
-2.58236e-08
7.89967e-09
-1.40514e-08
2.57838e-09
-1.43027e-09
-6.34547e-09
9.92917e-09
-1.84835e-08
1.98062e-08
-3.37406e-08
2.81119e-08
-5.19509e-08
3.48812e-08
-7.28278e-08
4.02864e-08
-9.60337e-08
4.45808e-08
-1.21254e-07
4.80324e-08
-1.48238e-07
5.08833e-08
-1.76788e-07
5.33298e-08
-2.06778e-07
5.55168e-08
-2.38127e-07
5.75511e-08
-2.70811e-07
5.95165e-08
-3.04823e-07
6.14795e-08
-3.40212e-07
6.34854e-08
-3.77028e-07
6.55696e-08
-4.15231e-07
6.78012e-08
-4.54906e-07
7.0202e-08
-4.96333e-07
7.27054e-08
-5.39202e-07
7.5409e-08
-5.81797e-07
7.84084e-08
-6.20916e-07
8.09179e-08
-6.68127e-07
8.04399e-08
-7.18467e-07
7.98086e-08
-7.64013e-07
8.30907e-08
-8.04228e-07
8.63929e-08
-8.50245e-07
8.69769e-08
-8.93692e-07
8.71827e-08
-9.34318e-07
8.72232e-08
-9.82486e-07
8.47404e-08
-1.02736e-06
8.41714e-08
-1.07031e-06
8.40327e-08
-1.1121e-06
8.39207e-08
-1.15318e-06
8.37204e-08
-1.19375e-06
8.34145e-08
-1.23389e-06
8.30271e-08
-1.27365e-06
8.25836e-08
-1.31305e-06
8.21049e-08
-1.35211e-06
8.16049e-08
-1.39084e-06
8.1094e-08
-1.42925e-06
8.05772e-08
-1.46733e-06
8.00581e-08
-1.50511e-06
7.95367e-08
-1.54258e-06
7.90129e-08
-1.57973e-06
7.84837e-08
-1.61656e-06
7.79472e-08
-1.65308e-06
7.7399e-08
-1.68926e-06
7.68362e-08
-1.7251e-06
7.62536e-08
-1.76058e-06
7.56482e-08
-1.79571e-06
7.50147e-08
-1.83045e-06
7.43505e-08
-1.86479e-06
7.36505e-08
-1.89871e-06
7.29124e-08
-1.9322e-06
7.21321e-08
-1.96523e-06
7.13079e-08
-1.99778e-06
7.04361e-08
-2.02982e-06
6.95157e-08
-2.06134e-06
6.85438e-08
-2.09231e-06
6.75203e-08
-2.1227e-06
6.64429e-08
-2.1525e-06
6.53119e-08
-2.18168e-06
6.41259e-08
-2.2102e-06
6.28858e-08
-2.23806e-06
6.1591e-08
-2.26523e-06
6.02432e-08
-2.29168e-06
5.88425e-08
-2.31739e-06
5.73912e-08
-2.34234e-06
5.589e-08
-2.36652e-06
5.43413e-08
-2.38989e-06
5.27468e-08
-2.41245e-06
5.11088e-08
-2.43418e-06
4.94295e-08
-2.45507e-06
4.77118e-08
-2.47509e-06
4.59592e-08
-2.49423e-06
4.41745e-08
-2.51248e-06
4.23608e-08
-2.52984e-06
4.05198e-08
-2.54627e-06
3.86552e-08
-2.56178e-06
3.67678e-08
-2.57635e-06
3.48599e-08
-2.58998e-06
3.29308e-08
-2.60265e-06
3.09836e-08
-2.61437e-06
2.90182e-08
-2.6251e-06
2.70388e-08
-2.63485e-06
2.50435e-08
-2.64358e-06
2.30355e-08
-2.65129e-06
2.10035e-08
-2.65798e-06
1.89395e-08
-2.66364e-06
1.68347e-08
-2.66824e-06
1.46814e-08
-2.67177e-06
1.24778e-08
-2.6742e-06
1.02143e-08
-2.67552e-06
7.8885e-09
-2.67573e-06
5.49362e-09
-2.67485e-06
3.03697e-09
-2.67294e-06
5.2698e-10
-2.67007e-06
-2.01113e-09
-2.6662e-06
-4.57807e-09
-2.66118e-06
-7.20242e-09
-2.65486e-06
-9.9215e-09
-2.64712e-06
-1.27473e-08
-2.63792e-06
-1.56896e-08
-2.62717e-06
-1.87588e-08
-2.61479e-06
-2.19651e-08
-2.6007e-06
-2.53241e-08
-2.58481e-06
-2.88485e-08
-2.56703e-06
-3.25568e-08
-2.54727e-06
-3.64611e-08
-2.5254e-06
-4.05803e-08
-2.50133e-06
-4.49239e-08
-2.47493e-06
-4.95107e-08
-2.44607e-06
-5.43468e-08
-2.41462e-06
-5.94496e-08
-2.38045e-06
-6.48218e-08
-2.3434e-06
-7.04752e-08
-2.30333e-06
-7.64104e-08
-2.26012e-06
-8.26415e-08
-2.21365e-06
-8.9162e-08
-2.16376e-06
-9.59743e-08
-2.11031e-06
-1.03047e-07
-2.05314e-06
-1.10364e-07
-1.99213e-06
-1.17881e-07
-1.92718e-06
-1.25584e-07
-1.85821e-06
-1.33426e-07
-1.78515e-06
-1.41393e-07
-1.70796e-06
-1.49435e-07
-1.62666e-06
-1.57535e-07
-1.54126e-06
-1.65604e-07
-1.45182e-06
-1.7357e-07
-1.35846e-06
-1.81314e-07
-1.26136e-06
-1.88766e-07
-1.16071e-06
-1.95878e-07
-1.05675e-06
-2.02561e-07
-9.49784e-07
-2.08724e-07
-8.40139e-07
-2.14304e-07
-7.28179e-07
-2.19221e-07
-6.14297e-07
-2.23432e-07
-4.98883e-07
-2.26857e-07
-3.82369e-07
-2.29487e-07
-2.65166e-07
-2.31283e-07
-1.47591e-07
-2.32379e-07
-2.98298e-08
-2.32854e-07
8.75849e-08
-2.32644e-07
2.03689e-07
-2.31626e-07
3.17071e-07
-2.29748e-07
4.2714e-07
-2.26575e-07
5.34298e-07
-2.2191e-07
6.38502e-07
-2.16113e-07
7.39483e-07
-2.09528e-07
8.37011e-07
-2.02346e-07
9.30882e-07
-1.94738e-07
1.02096e-06
-1.86806e-07
1.10713e-06
-1.78668e-07
1.18934e-06
-1.70398e-07
1.26756e-06
-1.62089e-07
1.3418e-06
-1.53797e-07
1.41209e-06
-1.45597e-07
1.47851e-06
-1.37532e-07
1.54112e-06
-1.29654e-07
1.60004e-06
-1.21984e-07
1.65538e-06
-1.14558e-07
1.70725e-06
-1.07387e-07
1.75579e-06
-1.00484e-07
1.80112e-06
-9.38421e-08
1.84337e-06
-8.74561e-08
1.88265e-06
-8.13041e-08
1.91908e-06
-7.53568e-08
1.95272e-06
-6.95597e-08
1.98361e-06
-6.38248e-08
2.01172e-06
-5.80017e-08
2.03688e-06
-5.18369e-08
2.05874e-06
-4.48459e-08
2.07658e-06
-3.61283e-08
2.08933e-06
-2.34923e-08
2.09615e-06
-2.77401e-09
2.09514e-06
3.75981e-08
1.15478e-07
2.0762e-06
-4.61924e-09
-2.12512e-08
-1.52945e-08
-3.42077e-09
-2.8374e-08
1.1623e-08
-4.32104e-08
2.47438e-08
-5.96939e-08
3.62719e-08
-7.7936e-08
4.63372e-08
-9.80826e-08
5.50122e-08
-1.20217e-07
6.24065e-08
-1.44339e-07
6.86883e-08
-1.70382e-07
7.40627e-08
-1.98253e-07
7.87397e-08
-2.27845e-07
8.29088e-08
-2.59068e-07
8.67258e-08
-2.91841e-07
9.03109e-08
-3.26091e-07
9.37518e-08
-3.6173e-07
9.71049e-08
-3.98661e-07
1.00402e-07
-4.36756e-07
1.03652e-07
-4.75832e-07
1.06863e-07
-5.15662e-07
1.1002e-07
-5.56029e-07
1.13058e-07
-5.96553e-07
1.15921e-07
-6.36666e-07
1.18506e-07
-6.76249e-07
1.20488e-07
-7.17346e-07
1.21522e-07
-7.59673e-07
1.22123e-07
-7.99969e-07
1.23371e-07
-8.3816e-07
1.2457e-07
-8.76211e-07
1.25011e-07
-9.13904e-07
1.24862e-07
-9.51089e-07
1.24391e-07
-9.89684e-07
1.2332e-07
-1.0279e-06
1.22368e-07
-1.06545e-06
1.21564e-07
-1.10238e-06
1.20834e-07
-1.13879e-06
1.20123e-07
-1.1748e-06
1.19403e-07
-1.21046e-06
1.18668e-07
-1.24581e-06
1.1792e-07
-1.28089e-06
1.17166e-07
-1.3157e-06
1.16409e-07
-1.35028e-06
1.15653e-07
-1.38461e-06
1.14898e-07
-1.41871e-06
1.14144e-07
-1.45258e-06
1.13388e-07
-1.4862e-06
1.12627e-07
-1.51959e-06
1.11857e-07
-1.55273e-06
1.11072e-07
-1.58561e-06
1.10269e-07
-1.61823e-06
1.0944e-07
-1.65057e-06
1.0858e-07
-1.68262e-06
1.07683e-07
-1.71437e-06
1.06744e-07
-1.74579e-06
1.05757e-07
-1.77687e-06
1.04717e-07
-1.8076e-06
1.0362e-07
-1.83795e-06
1.02462e-07
-1.8679e-06
1.01238e-07
-1.89743e-06
9.99444e-08
-1.92652e-06
9.85796e-08
-1.95514e-06
9.71406e-08
-1.98326e-06
9.56258e-08
-2.01088e-06
9.40334e-08
-2.03795e-06
9.23627e-08
-2.06446e-06
9.06131e-08
-2.09038e-06
8.87847e-08
-2.11569e-06
8.6878e-08
-2.14037e-06
8.4894e-08
-2.16438e-06
8.28342e-08
-2.18771e-06
8.07005e-08
-2.21034e-06
7.8495e-08
-2.23224e-06
7.62205e-08
-2.25339e-06
7.38794e-08
-2.27378e-06
7.14751e-08
-2.29339e-06
6.90109e-08
-2.31219e-06
6.64905e-08
-2.33017e-06
6.39182e-08
-2.34732e-06
6.12979e-08
-2.36362e-06
5.86333e-08
-2.37905e-06
5.59278e-08
-2.39361e-06
5.31853e-08
-2.40727e-06
5.04084e-08
-2.42004e-06
4.75995e-08
-2.4319e-06
4.47602e-08
-2.44283e-06
4.18928e-08
-2.45284e-06
3.89984e-08
-2.4619e-06
3.60787e-08
-2.47001e-06
3.31341e-08
-2.47713e-06
3.0162e-08
-2.48328e-06
2.71581e-08
-2.48844e-06
2.41101e-08
-2.49262e-06
2.10094e-08
-2.4958e-06
1.7852e-08
-2.49796e-06
1.46295e-08
-2.49909e-06
1.13398e-08
-2.49919e-06
7.97531e-09
-2.49825e-06
4.53744e-09
-2.49625e-06
1.02507e-09
-2.49319e-06
-2.55556e-09
-2.48902e-06
-6.21062e-09
-2.48368e-06
-9.96213e-09
-2.47709e-06
-1.38477e-08
-2.46919e-06
-1.78957e-08
-2.4599e-06
-2.21147e-08
-2.44916e-06
-2.65196e-08
-2.43688e-06
-3.11177e-08
-2.423e-06
-3.59307e-08
-2.40743e-06
-4.09718e-08
-2.39008e-06
-4.62685e-08
-2.37086e-06
-5.18363e-08
-2.34969e-06
-5.77042e-08
-2.32643e-06
-6.38871e-08
-2.30099e-06
-7.04131e-08
-2.27324e-06
-7.72954e-08
-2.24306e-06
-8.45596e-08
-2.21032e-06
-9.22158e-08
-2.17487e-06
-1.00283e-07
-2.13658e-06
-1.08765e-07
-2.09531e-06
-1.17678e-07
-2.05092e-06
-1.27026e-07
-2.00329e-06
-1.36814e-07
-1.95227e-06
-1.47027e-07
-1.89771e-06
-1.57642e-07
-1.83947e-06
-1.68618e-07
-1.77743e-06
-1.79916e-07
-1.71148e-06
-1.91491e-07
-1.64155e-06
-2.03294e-07
-1.56757e-06
-2.15273e-07
-1.48954e-06
-2.27364e-07
-1.40745e-06
-2.39495e-07
-1.32135e-06
-2.51565e-07
-1.23133e-06
-2.63456e-07
-1.13749e-06
-2.75006e-07
-1.04004e-06
-2.86085e-07
-9.39195e-07
-2.966e-07
-8.3523e-07
-3.06419e-07
-7.28461e-07
-3.15413e-07
-6.19239e-07
-3.23473e-07
-5.07958e-07
-3.30491e-07
-3.95015e-07
-3.36382e-07
-2.80842e-07
-3.41059e-07
-1.65843e-07
-3.44509e-07
-5.04073e-08
-3.46755e-07
6.49744e-08
-3.47791e-07
1.79609e-07
-3.47531e-07
2.92838e-07
-3.45907e-07
4.04066e-07
-3.42899e-07
5.12727e-07
-3.38443e-07
6.18488e-07
-3.32381e-07
7.21301e-07
-3.2476e-07
8.21003e-07
-3.15859e-07
9.1739e-07
-3.05952e-07
1.01027e-06
-2.95266e-07
1.09948e-06
-2.83989e-07
1.18491e-06
-2.72282e-07
1.26649e-06
-2.60283e-07
1.34417e-06
-2.4812e-07
1.41795e-06
-2.35905e-07
1.48786e-06
-2.23739e-07
1.55394e-06
-2.11708e-07
1.61626e-06
-1.99888e-07
1.67492e-06
-1.88342e-07
1.73003e-06
-1.77121e-07
1.7817e-06
-1.66256e-07
1.83006e-06
-1.55777e-07
1.87525e-06
-1.45694e-07
1.9174e-06
-1.36013e-07
1.95665e-06
-1.26719e-07
1.99311e-06
-1.17788e-07
2.0269e-06
-1.09166e-07
2.05811e-06
-1.00782e-07
2.08677e-06
-9.25036e-08
2.11288e-06
-8.41297e-08
2.13634e-06
-7.53087e-08
2.15689e-06
-6.54208e-08
2.17409e-06
-5.33414e-08
2.18732e-06
-3.67469e-08
2.19607e-06
-1.15414e-08
2.20176e-06
3.18954e-08
1.09548e-07
2.20768e-06
-1.45837e-08
-6.7071e-09
-3.22854e-08
1.42471e-08
-5.0968e-08
3.02855e-08
-7.03615e-08
4.41209e-08
-9.05278e-08
5.64242e-08
-1.11646e-07
6.74421e-08
-1.33924e-07
7.72784e-08
-1.57543e-07
8.60145e-08
-1.82626e-07
9.37587e-08
-2.09222e-07
1.00648e-07
-2.37329e-07
1.06835e-07
-2.66895e-07
1.12464e-07
-2.9784e-07
1.1766e-07
-3.30059e-07
1.22518e-07
-3.63419e-07
1.27101e-07
-3.97762e-07
1.31437e-07
-4.32901e-07
1.3553e-07
-4.68632e-07
1.39372e-07
-5.04732e-07
1.42952e-07
-5.40973e-07
1.46251e-07
-5.7716e-07
1.49234e-07
-6.13107e-07
1.51858e-07
-6.4868e-07
1.54069e-07
-6.83973e-07
1.55772e-07
-7.19377e-07
1.56914e-07
-7.54892e-07
1.57628e-07
-7.89727e-07
1.58193e-07
-8.2372e-07
1.58552e-07
-8.57271e-07
1.58549e-07
-8.90588e-07
1.58168e-07
-9.2371e-07
1.57501e-07
-9.56987e-07
1.56585e-07
-9.90215e-07
1.55584e-07
-1.02324e-06
1.54579e-07
-1.05601e-06
1.53589e-07
-1.08851e-06
1.52614e-07
-1.12077e-06
1.51649e-07
-1.1528e-06
1.5069e-07
-1.18463e-06
1.49738e-07
-1.21627e-06
1.48794e-07
-1.24773e-06
1.47857e-07
-1.27902e-06
1.46927e-07
-1.31013e-06
1.46e-07
-1.34107e-06
1.45073e-07
-1.37183e-06
1.44142e-07
-1.40242e-06
1.43201e-07
-1.43282e-06
1.42245e-07
-1.46302e-06
1.41265e-07
-1.49302e-06
1.40256e-07
-1.5228e-06
1.3921e-07
-1.55236e-06
1.3812e-07
-1.58166e-06
1.36978e-07
-1.61071e-06
1.35778e-07
-1.63948e-06
1.34513e-07
-1.66795e-06
1.33176e-07
-1.69611e-06
1.31762e-07
-1.72393e-06
1.30265e-07
-1.75139e-06
1.28682e-07
-1.77847e-06
1.27007e-07
-1.80514e-06
1.25237e-07
-1.83139e-06
1.23368e-07
-1.85718e-06
1.214e-07
-1.88249e-06
1.1933e-07
-1.9073e-06
1.17156e-07
-1.93159e-06
1.14878e-07
-1.95532e-06
1.12497e-07
-1.97847e-06
1.10012e-07
-2.00102e-06
1.07426e-07
-2.02294e-06
1.0474e-07
-2.04422e-06
1.01957e-07
-2.06482e-06
9.90784e-08
-2.08472e-06
9.61087e-08
-2.10391e-06
9.30514e-08
-2.12236e-06
8.99104e-08
-2.14006e-06
8.66901e-08
-2.15698e-06
8.33952e-08
-2.17311e-06
8.0031e-08
-2.18844e-06
7.66023e-08
-2.20294e-06
7.31141e-08
-2.2166e-06
6.9571e-08
-2.22941e-06
6.59776e-08
-2.24136e-06
6.23378e-08
-2.25244e-06
5.8655e-08
-2.26263e-06
5.4932e-08
-2.27193e-06
5.11712e-08
-2.28032e-06
4.73745e-08
-2.28781e-06
4.3543e-08
-2.29436e-06
3.96763e-08
-2.29997e-06
3.5774e-08
-2.30464e-06
3.18259e-08
-2.30835e-06
2.78284e-08
-2.31112e-06
2.37691e-08
-2.31292e-06
1.96425e-08
-2.31374e-06
1.54406e-08
-2.31357e-06
1.11581e-08
-2.31239e-06
6.78696e-09
-2.31019e-06
2.32292e-09
-2.30695e-06
-2.24111e-09
-2.30262e-06
-6.91235e-09
-2.29715e-06
-1.17094e-08
-2.29049e-06
-1.66606e-08
-2.2826e-06
-2.17988e-08
-2.27341e-06
-2.71515e-08
-2.26286e-06
-3.27329e-08
-2.25089e-06
-3.85623e-08
-2.23743e-06
-4.46527e-08
-2.2224e-06
-5.10308e-08
-2.20572e-06
-5.77154e-08
-2.18731e-06
-6.47402e-08
-2.16707e-06
-7.21261e-08
-2.14492e-06
-7.99099e-08
-2.12073e-06
-8.81114e-08
-2.09442e-06
-9.67678e-08
-2.06585e-06
-1.05896e-07
-2.0349e-06
-1.15531e-07
-2.00145e-06
-1.25685e-07
-1.96536e-06
-1.36385e-07
-1.92649e-06
-1.47635e-07
-1.88471e-06
-1.5946e-07
-1.83988e-06