/*--------------------------------*- C++ -*----------------------------------*\
  =========                 |
  \\      /  F ield         | OpenFOAM: The Open Source CFD Toolbox
   \\    /   O peration     | Website:  https://openfoam.org
    \\  /    A nd           | Version:  8
     \\/     M anipulation  |
\*---------------------------------------------------------------------------*/
FoamFile
{
    version     2.0;
    format      ascii;
    class       volVectorField;
    location    "165";
    object      U;
}
// * * * * * * * * * * * * * * * * * * * * * * * * * * * * * * * * * * * * * //

dimensions      [0 1 -1 0 0 0 0];

internalField   nonuniform List<vector> 
12225
(
(9.857 -0.886605 0)
(9.66627 -0.740727 0)
(9.45574 -0.429417 0)
(9.22442 -0.222147 0)
(9.00635 -0.106388 0)
(8.81414 -0.0457989 0)
(8.64712 -0.0151108 0)
(8.50485 0.000518672 0)
(8.38299 0.00845403 0)
(8.28006 0.0123532 0)
(8.19134 0.0140721 0)
(8.11485 0.0151043 0)
(8.04755 0.0155581 0)
(7.9879 0.0157966 0)
(7.93346 0.0159587 0)
(7.88563 0.016155 0)
(7.82753 0.0185043 0)
(7.81762 0.0153414 0)
(10.0545 0.227694 0)
(10.1213 0.326986 0)
(10.1196 0.261657 0)
(10.0856 0.186614 0)
(10.0434 0.134719 0)
(9.99663 0.101166 0)
(9.94387 0.0793424 0)
(9.88502 0.064625 0)
(9.82359 0.0543337 0)
(9.76093 0.0467667 0)
(9.69935 0.0410356 0)
(9.63932 0.036532 0)
(9.58179 0.0329431 0)
(9.52706 0.0302182 0)
(9.47476 0.0279358 0)
(9.4268 0.027566 0)
(9.37787 0.0251497 0)
(9.3451 0.0372759 0)
(10.0035 0.0581576 0)
(10.0305 0.0559543 0)
(10.056 0.0337917 0)
(10.0703 0.0329075 0)
(10.0769 0.0406696 0)
(10.0777 0.0465787 0)
(10.0724 0.0494074 0)
(10.0612 0.0503709 0)
(10.0458 0.0502952 0)
(10.0273 0.049616 0)
(10.0066 0.0486215 0)
(9.98424 0.0475283 0)
(9.96088 0.0464521 0)
(9.93692 0.0455622 0)
(9.91257 0.0447755 0)
(9.88869 0.044916 0)
(9.86461 0.0448515 0)
(9.84282 0.0492376 0)
(9.99772 0.0109523 0)
(10.0111 0.0266294 0)
(10.035 0.037142 0)
(10.0525 0.0480959 0)
(10.0643 0.055479 0)
(10.0733 0.0582281 0)
(10.0793 0.0584187 0)
(10.0822 0.0577031 0)
(10.0825 0.0566887 0)
(10.0808 0.0555398 0)
(10.0776 0.0543332 0)
(10.0731 0.0531989 0)
(10.0675 0.0521492 0)
(10.0611 0.0513224 0)
(10.054 0.0506589 0)
(10.0467 0.0506999 0)
(10.0393 0.050831 0)
(10.0324 0.0527856 0)
(9.99935 0.00710498 0)
(10.009 0.0317097 0)
(10.0274 0.0439335 0)
(10.0418 0.0499481 0)
(10.0527 0.0536545 0)
(10.0627 0.0552981 0)
(10.0714 0.0556033 0)
(10.0781 0.0553447 0)
(10.0831 0.0548435 0)
(10.0869 0.0541966 0)
(10.0895 0.0534666 0)
(10.0913 0.0527605 0)
(10.0923 0.0521122 0)
(10.0927 0.0516286 0)
(10.0926 0.0513041 0)
(10.0923 0.0514269 0)
(10.0921 0.0517208 0)
(10.0923 0.0526775 0)
(10.0003 0.00915595 0)
(10.0083 0.0312296 0)
(10.0227 0.0409773 0)
(10.0349 0.0454352 0)
(10.045 0.0490972 0)
(10.0547 0.0514534 0)
(10.0636 0.0524628 0)
(10.0712 0.0527323 0)
(10.0776 0.052647 0)
(10.083 0.0523494 0)
(10.0878 0.0519237 0)
(10.0918 0.0514695 0)
(10.0953 0.0510395 0)
(10.0983 0.050715 0)
(10.101 0.0505141 0)
(10.1036 0.0505725 0)
(10.1063 0.0507545 0)
(10.1093 0.051081 0)
(10.0004 0.00893184 0)
(10.0071 0.0271341 0)
(10.0191 0.0364552 0)
(10.0301 0.0414466 0)
(10.0395 0.0454881 0)
(10.0485 0.0481775 0)
(10.0571 0.0494782 0)
(10.0647 0.0499887 0)
(10.0714 0.0501159 0)
(10.0774 0.0500109 0)
(10.0829 0.0497593 0)
(10.0878 0.0494497 0)
(10.0923 0.0491404 0)
(10.0964 0.0488907 0)
(10.1003 0.0487213 0)
(10.1041 0.0486841 0)
(10.108 0.0486901 0)
(10.1122 0.0486218 0)
(10.0004 0.00791037 0)
(10.006 0.0234147 0)
(10.0161 0.0327836 0)
(10.0262 0.0381681 0)
(10.0351 0.0421839 0)
(10.0435 0.0448944 0)
(10.0516 0.0463404 0)
(10.059 0.047019 0)
(10.0656 0.0472996 0)
(10.0718 0.0473322 0)
(10.0774 0.0472028 0)
(10.0827 0.0469909 0)
(10.0876 0.0467546 0)
(10.0922 0.0465374 0)
(10.0966 0.0463548 0)
(10.101 0.0462143 0)
(10.1054 0.0460445 0)
(10.11 0.0457137 0)
(10.0004 0.00696215 0)
(10.005 0.020456 0)
(10.0137 0.029506 0)
(10.0228 0.0349363 0)
(10.0311 0.0388121 0)
(10.039 0.0415046 0)
(10.0467 0.0430752 0)
(10.0538 0.0438978 0)
(10.0604 0.0442998 0)
(10.0664 0.0444363 0)
(10.0721 0.0443945 0)
(10.0775 0.0442481 0)
(10.0825 0.044051 0)
(10.0873 0.0438367 0)
(10.092 0.0436139 0)
(10.0966 0.0433709 0)
(10.1012 0.0430463 0)
(10.1058 0.0425361 0)
(10.0004 0.00613646 0)
(10.0043 0.0178896 0)
(10.0116 0.0263323 0)
(10.0198 0.0316643 0)
(10.0276 0.0354177 0)
(10.035 0.0380781 0)
(10.0423 0.0397318 0)
(10.0491 0.0406611 0)
(10.0555 0.0411534 0)
(10.0614 0.0413662 0)
(10.0671 0.0413866 0)
(10.0724 0.0412822 0)
(10.0775 0.0411019 0)
(10.0823 0.0408727 0)
(10.0871 0.040599 0)
(10.0917 0.0402629 0)
(10.0963 0.0398142 0)
(10.1009 0.0391837 0)
(10.0003 0.00537988 0)
(10.0036 0.0155823 0)
(10.0099 0.0232986 0)
(10.0172 0.0284359 0)
(10.0244 0.0320504 0)
(10.0314 0.0346373 0)
(10.0383 0.036319 0)
(10.0448 0.037315 0)
(10.051 0.0378703 0)
(10.0568 0.0381366 0)
(10.0623 0.0381994 0)
(10.0676 0.0381201 0)
(10.0726 0.0379427 0)
(10.0775 0.0376903 0)
(10.0822 0.0373656 0)
(10.0868 0.036952 0)
(10.0913 0.0364115 0)
(10.0958 0.035705 0)
(10.0003 0.00471691 0)
(10.0032 0.013645 0)
(10.0086 0.0206567 0)
(10.0152 0.0255307 0)
(10.0219 0.0289818 0)
(10.0285 0.0314653 0)
(10.0349 0.03313 0)
(10.0412 0.034154 0)
(10.0472 0.0347437 0)
(10.0529 0.0350403 0)
(10.0583 0.0351262 0)
(10.0634 0.0350581 0)
(10.0684 0.0348753 0)
(10.0732 0.0345991 0)
(10.0778 0.0342325 0)
(10.0824 0.0337634 0)
(10.0868 0.0331644 0)
(10.0911 0.0324197 0)
(10.0003 0.00410365 0)
(10.0027 0.0118785 0)
(10.0075 0.0181612 0)
(10.0134 0.0226956 0)
(10.0196 0.0259481 0)
(10.0258 0.0283023 0)
(10.032 0.0299165 0)
(10.038 0.0309403 0)
(10.0437 0.0315445 0)
(10.0493 0.0318563 0)
(10.0545 0.0319538 0)
(10.0596 0.0318889 0)
(10.0645 0.0316974 0)
(10.0692 0.0313993 0)
(10.0737 0.0309991 0)
(10.0781 0.0304902 0)
(10.0824 0.0298545 0)
(10.0866 0.0290933 0)
(10.0002 0.0034701 0)
(10.0024 0.010043 0)
(10.0064 0.0154846 0)
(10.0117 0.0195542 0)
(10.0174 0.0225243 0)
(10.0232 0.0246888 0)
(10.0289 0.0262011 0)
(10.0346 0.0271859 0)
(10.0402 0.0277783 0)
(10.0455 0.0280867 0)
(10.0506 0.0281823 0)
(10.0556 0.0281118 0)
(10.0603 0.0279074 0)
(10.0649 0.0275875 0)
(10.0693 0.0271596 0)
(10.0736 0.0266226 0)
(10.0777 0.0259673 0)
(10.0817 0.0252077 0)
(10.0002 0.00281208 0)
(10.002 0.00813635 0)
(10.0055 0.0126364 0)
(10.0101 0.0161109 0)
(10.0153 0.0186959 0)
(10.0206 0.0205945 0)
(10.026 0.0219394 0)
(10.0314 0.0228321 0)
(10.0366 0.0233738 0)
(10.0418 0.0236515 0)
(10.0467 0.0237259 0)
(10.0515 0.0236379 0)
(10.0561 0.0234152 0)
(10.0606 0.0230759 0)
(10.0648 0.0226291 0)
(10.069 0.0220794 0)
(10.0729 0.0214243 0)
(10.0767 0.0206866 0)
(10.0002 0.00212877 0)
(10.0017 0.00615996 0)
(10.0047 0.00962429 0)
(10.0087 0.0123694 0)
(10.0134 0.0144489 0)
(10.0183 0.0159876 0)
(10.0233 0.0170847 0)
(10.0283 0.0178169 0)
(10.0333 0.018256 0)
(10.0382 0.0184654 0)
(10.0429 0.0184927 0)
(10.0475 0.0183713 0)
(10.052 0.0181243 0)
(10.0563 0.0177681 0)
(10.0604 0.0173132 0)
(10.0643 0.0167673 0)
(10.0681 0.0161329 0)
(10.0717 0.0154359 0)
(10.0002 0.00141692 0)
(10.0015 0.00409908 0)
(10.0041 0.00643084 0)
(10.0076 0.0083109 0)
(10.0118 0.00975289 0)
(10.0163 0.0108213 0)
(10.0209 0.0115774 0)
(10.0257 0.0120699 0)
(10.0304 0.0123438 0)
(10.035 0.0124393 0)
(10.0396 0.0123888 0)
(10.044 0.0122155 0)
(10.0482 0.0119372 0)
(10.0523 0.0115665 0)
(10.0563 0.0111137 0)
(10.06 0.0105868 0)
(10.0636 0.00999073 0)
(10.0671 0.00935047 0)
(10.0001 0.000659807 0)
(10.0013 0.00190115 0)
(10.0036 0.00298249 0)
(10.0069 0.00385353 0)
(10.0107 0.00451466 0)
(10.0149 0.00498833 0)
(10.0192 0.00529752 0)
(10.0237 0.00546195 0)
(10.0282 0.00550063 0)
(10.0326 0.00543108 0)
(10.037 0.00526797 0)
(10.0412 0.00502267 0)
(10.0453 0.00470446 0)
(10.0492 0.00432095 0)
(10.053 0.00387885 0)
(10.0566 0.00338469 0)
(10.06 0.00284226 0)
(10.0633 0.0022735 0)
(10.0001 -0.000186021 0)
(10.0013 -0.00055673 0)
(10.0035 -0.000895517 0)
(10.0066 -0.00119721 0)
(10.0103 -0.00146125 0)
(10.0143 -0.00170207 0)
(10.0185 -0.0019373 0)
(10.0229 -0.00217965 0)
(10.0272 -0.00243654 0)
(10.0315 -0.00271449 0)
(10.0357 -0.00301819 0)
(10.0398 -0.00335115 0)
(10.0437 -0.0037145 0)
(10.0475 -0.0041087 0)
(10.0511 -0.00453264 0)
(10.0546 -0.00498441 0)
(10.0579 -0.00546302 0)
(10.0611 -0.0059528 0)
(10.0001 -0.000995927 0)
(10.0013 -0.00291667 0)
(10.0037 -0.004626 0)
(10.007 -0.00604648 0)
(10.0109 -0.0071754 0)
(10.015 -0.00807257 0)
(10.0194 -0.00879988 0)
(10.0238 -0.00939921 0)
(10.0282 -0.00990563 0)
(10.0325 -0.0103506 0)
(10.0366 -0.0107599 0)
(10.0407 -0.0111502 0)
(10.0446 -0.0115336 0)
(10.0483 -0.0119174 0)
(10.0519 -0.0123076 0)
(10.0553 -0.012706 0)
(10.0585 -0.0131159 0)
(10.0616 -0.0135263 0)
(10.0002 -0.00169457 0)
(10.0015 -0.0049782 0)
(10.0041 -0.00788689 0)
(10.0078 -0.0102196 0)
(10.012 -0.0119984 0)
(10.0165 -0.0133733 0)
(10.0211 -0.0144509 0)
(10.0256 -0.0152882 0)
(10.0301 -0.0159427 0)
(10.0345 -0.0164727 0)
(10.0388 -0.0169237 0)
(10.0428 -0.017324 0)
(10.0467 -0.0176937 0)
(10.0504 -0.0180462 0)
(10.054 -0.0183916 0)
(10.0574 -0.018735 0)
(10.0606 -0.0190812 0)
(10.0636 -0.0194232 0)
(10.0002 -0.00235789 0)
(10.0017 -0.00701482 0)
(10.0047 -0.0111448 0)
(10.009 -0.0143 0)
(10.0137 -0.0165815 0)
(10.0186 -0.0183005 0)
(10.0234 -0.0196168 0)
(10.0283 -0.0206021 0)
(10.033 -0.0213374 0)
(10.0375 -0.0219046 0)
(10.0418 -0.0223601 0)
(10.0459 -0.0227412 0)
(10.0499 -0.0230739 0)
(10.0536 -0.0233787 0)
(10.0571 -0.0236679 0)
(10.0605 -0.0239504 0)
(10.0637 -0.0242305 0)
(10.0667 -0.0245053 0)
(10.0002 -0.00297821 0)
(10.0018 -0.00907703 0)
(10.0054 -0.0144253 0)
(10.0105 -0.0183036 0)
(10.0159 -0.0210358 0)
(10.0212 -0.0230463 0)
(10.0264 -0.0244906 0)
(10.0315 -0.025494 0)
(10.0364 -0.0262109 0)
(10.0411 -0.0267514 0)
(10.0455 -0.0271721 0)
(10.0497 -0.0275089 0)
(10.0536 -0.0277913 0)
(10.0574 -0.0280418 0)
(10.0609 -0.0282746 0)
(10.0643 -0.0284984 0)
(10.0675 -0.0287184 0)
(10.0705 -0.0289326 0)
(10.0001 -0.00352349 0)
(10.0018 -0.011538 0)
(10.0063 -0.0178706 0)
(10.0123 -0.0219591 0)
(10.0183 -0.0250158 0)
(10.0241 -0.0274157 0)
(10.0297 -0.0290448 0)
(10.0351 -0.0300466 0)
(10.0402 -0.0306915 0)
(10.045 -0.0311444 0)
(10.0496 -0.0314732 0)
(10.0538 -0.0317183 0)
(10.0578 -0.031914 0)
(10.0616 -0.0320839 0)
(10.0652 -0.0322421 0)
(10.0685 -0.0323955 0)
(10.0717 -0.0325481 0)
(10.0746 -0.032696 0)
(9.99991 -0.00336874 0)
(10.0016 -0.0149736 0)
(10.0073 -0.0227193 0)
(10.0143 -0.0262203 0)
(10.0206 -0.0287974 0)
(10.0269 -0.0311548 0)
(10.0332 -0.032869 0)
(10.0391 -0.0339507 0)
(10.0445 -0.0346448 0)
(10.0496 -0.0351036 0)
(10.0542 -0.0353976 0)
(10.0585 -0.0355811 0)
(10.0626 -0.0357003 0)
(10.0663 -0.0357863 0)
(10.0697 -0.035857 0)
(10.0729 -0.0359227 0)
(10.0758 -0.0359879 0)
(10.0786 -0.0360514 0)
(9.99859 -0.000377303 0)
(9.99904 -0.0157876 0)
(10.0076 -0.0274218 0)
(10.0166 -0.032472 0)
(10.0238 -0.0348416 0)
(10.0307 -0.0361919 0)
(10.0377 -0.0369387 0)
(10.0442 -0.0374013 0)
(10.05 -0.0377462 0)
(10.0551 -0.0379898 0)
(10.0597 -0.038132 0)
(10.0638 -0.0381977 0)
(10.0674 -0.0382172 0)
(10.0706 -0.0382118 0)
(10.0734 -0.0381964 0)
(10.0758 -0.03818 0)
(10.078 -0.038166 0)
(10.0798 -0.0381528 0)
(9.99487 0.0014088 0)
(9.99287 -0.00811648 0)
(10.0061 -0.02032 0)
(10.0202 -0.032248 0)
(10.0307 -0.0404504 0)
(10.0393 -0.0441205 0)
(10.0468 -0.0450305 0)
(10.053 -0.0448841 0)
(10.0579 -0.0444152 0)
(10.0618 -0.043817 0)
(10.0648 -0.0431705 0)
(10.067 -0.0425324 0)
(10.0684 -0.0419371 0)
(10.0693 -0.041393 0)
(10.0696 -0.0409089 0)
(10.0695 -0.0404828 0)
(10.0691 -0.0401114 0)
(10.0683 -0.039768 0)
(9.9947 -0.0305752 0)
(9.99944 -0.0228449 0)
(10.0146 -0.00261114 0)
(10.0304 -0.00188869 0)
(10.0435 -0.0116377 0)
(10.0533 -0.0209011 0)
(10.0594 -0.0272577 0)
(10.0619 -0.031483 0)
(10.0616 -0.0342563 0)
(10.0592 -0.0359513 0)
(10.0552 -0.0368818 0)
(10.0499 -0.0373146 0)
(10.0437 -0.0374394 0)
(10.0367 -0.0373771 0)
(10.0291 -0.0372162 0)
(10.0212 -0.0370148 0)
(10.0131 -0.0368358 0)
(10.0049 -0.0366469 0)
(10.0274 -0.183005 0)
(10.0766 -0.288321 0)
(10.0871 -0.247816 0)
(10.0777 -0.186551 0)
(10.0664 -0.140313 0)
(10.0538 -0.10823 0)
(10.0365 -0.0858805 0)
(10.0146 -0.0704198 0)
(9.98945 -0.0596466 0)
(9.96243 -0.0518684 0)
(9.93448 -0.0460444 0)
(9.90619 -0.0415456 0)
(9.87804 -0.0379887 0)
(9.85036 -0.0351123 0)
(9.82339 -0.0327495 0)
(9.79725 -0.0308266 0)
(9.77218 -0.0293089 0)
(9.7482 -0.0284945 0)
(9.93575 0.689542 0)
(9.86828 0.609597 0)
(9.7646 0.380609 0)
(9.62665 0.217416 0)
(9.48594 0.119248 0)
(9.35727 0.0631675 0)
(9.24279 0.0315565 0)
(9.14124 0.013606 0)
(9.05161 0.00325326 0)
(8.97266 -0.00280663 0)
(8.90279 -0.00635951 0)
(8.84065 -0.00847757 0)
(8.78498 -0.00972399 0)
(8.7349 -0.0104817 0)
(8.6895 -0.0109632 0)
(8.64818 -0.0112407 0)
(8.61002 -0.0114658 0)
(8.57469 -0.0121054 0)
(0.00899205 -0.0193031 -5.50647e-19)
(0.0238904 -0.0206989 3.57575e-19)
(0.0323585 -0.0119246 0)
(0.0349195 -0.00129158 0)
(0.0307971 0.00787659 0)
(0.0213353 0.0146043 -1.46788e-19)
(0.00789602 0.019057 0)
(-0.00838669 0.0217597 0)
(-0.026684 0.0232797 0)
(-0.0464597 0.0240673 0)
(-0.0673279 0.0244009 8.53464e-20)
(-0.0890431 0.0244413 0)
(-0.111504 0.0242918 0)
(-0.134712 0.0240662 0)
(-0.158621 0.0239568 0)
(-0.183102 0.0242601 6.07449e-20)
(-0.208097 0.0250498 0)
(-0.233622 0.0264625 0)
(-0.259769 0.028895 0)
(-0.286787 0.0317775 0)
(-0.314805 0.0344578 0)
(-0.343655 0.0391126 0)
(-0.373718 0.0490539 0)
(-0.40469 0.063963 5.57282e-20)
(-0.44213 0.0266706 -6.43845e-20)
(-0.476672 0.0124634 5.18531e-20)
(-0.502631 0.0438524 4.56016e-20)
(-0.536796 0.0779533 0)
(-0.578892 0.0622935 0)
(-0.619661 0.0690731 -5.08108e-20)
(-0.654697 0.0750873 -5.86127e-20)
(-0.698041 0.0335971 0)
(-0.731028 0.033957 0)
(-0.767699 0.035111 -5.97355e-20)
(-0.805606 0.0361115 0)
(-0.844404 0.036466 0)
(-0.883523 0.0365073 5.37977e-20)
(-0.922803 0.0363667 0)
(-0.962115 0.0361266 5.05319e-20)
(-1.00139 0.0358275 9.81441e-20)
(-1.04058 0.0354938 0)
(-1.07967 0.0351431 0)
(-1.11863 0.0347821 0)
(-1.15747 0.0344197 0)
(-1.19617 0.034056 0)
(-1.23473 0.0336957 8.42098e-20)
(-1.27315 0.0333361 8.23445e-20)
(-1.31143 0.0329797 8.05797e-20)
(-1.34956 0.0326224 0)
(-1.38754 0.0322658 -7.73142e-20)
(-1.42537 0.0319049 0)
(-1.46302 0.0315411 7.43527e-20)
(-1.5005 0.0311698 7.29701e-20)
(-1.53779 0.030792 0)
(-1.57487 0.030403 0)
(-1.61173 0.0300043 0)
(-1.64835 0.0295917 6.79794e-20)
(-1.68471 0.0291669 0)
(-1.72078 0.0287256 0)
(-1.75655 0.0282699 0)
(-1.79198 0.0277967 0)
(-1.82705 0.0273079 0)
(-1.86173 0.0268005 0)
(-1.896 0.0262768 0)
(-1.92982 0.0257343 0)
(-1.96317 0.0251756 -5.89047e-20)
(-1.99602 0.0245991 0)
(-2.02835 0.0240075 0)
(-2.06011 0.0233997 5.62778e-20)
(-2.09128 0.0227782 5.54276e-20)
(-2.12185 0.0221422 0)
(-2.15177 0.021494 -5.37549e-20)
(-2.18102 0.0208335 5.29291e-20)
(-2.20959 0.0201629 0)
(-2.23744 0.0194833 -5.12904e-20)
(-2.26456 0.0187963 0)
(-2.29092 0.0181048 0)
(-2.31651 0.0174112 4.88441e-20)
(-2.34131 0.0167181 0)
(-2.3653 0.0160273 -4.72057e-20)
(-2.38847 0.0153429 0)
(-2.4108 0.0146662 4.55503e-20)
(-2.43229 0.0140006 4.4714e-20)
(-2.45291 0.0133457 4.38708e-20)
(-2.47267 0.0127061 8.60412e-20)
(-2.49154 0.0120803 -8.43262e-20)
(-2.50952 0.0114706 0)
(-2.52658 0.0108692 0)
(-2.54271 0.0102739 0)
(-2.5579 0.00967165 -7.73082e-20)
(-2.57217 0.00904878 -7.55077e-20)
(-2.5855 0.00839823 7.36865e-20)
(-2.59787 0.00771363 0)
(-2.60925 0.00699335 -6.99785e-20)
(-2.61959 0.00623738 -6.80916e-20)
(-2.62886 0.0054514 -6.61846e-20)
(-2.637 0.00464345 0)
(-2.64393 0.00382587 0)
(-2.64958 0.00301146 0)
(-2.65384 0.00222024 -5.83987e-20)
(-2.65658 0.00148979 0)
(-2.65789 0.000850699 0)
(-2.658 0.000263201 5.23275e-20)
(-2.65683 -0.00032373 0)
(-2.65434 -0.00091339 0)
(-2.65047 -0.00151622 4.60085e-20)
(-2.64514 -0.00212939 0)
(-2.63828 -0.00276442 0)
(-2.62979 -0.00341835 -3.93952e-20)
(-2.6196 -0.00410517 -3.71094e-20)
(-2.6076 -0.0048208 0)
(-2.59369 -0.00558117 3.23856e-20)
(-2.57776 -0.0063815 0)
(-2.55969 -0.00723977 -2.74101e-20)
(-2.53935 -0.00815109 0)
(-2.51661 -0.00913616 -2.21039e-20)
(-2.49133 -0.010191 -1.92931e-20)
(-2.46336 -0.0113374 0)
(-2.43255 -0.0125714 0)
(-2.39877 -0.0139151 0)
(-2.3619 -0.0153678 0)
(-2.32179 -0.0169486 0)
(-2.27828 -0.0186524 0)
(-2.2312 -0.0204979 0)
(-2.18041 -0.0224786 9.85923e-21)
(-2.1258 -0.0246165 -1.48346e-20)
(-2.06727 -0.0269007 0)
(-2.00474 -0.029337 0)
(-1.93817 -0.0319219 0)
(-1.86749 -0.0347035 0)
(-1.79266 -0.0375317 -9.55293e-20)
(-1.71379 -0.0404126 0)
(-1.6309 -0.0434223 1.32188e-19)
(-1.54406 -0.0464749 -1.53438e-19)
(-1.45345 -0.0495587 0)
(-1.35922 -0.0526231 0)
(-1.26158 -0.0556351 0)
(-1.1608 -0.0585643 2.63078e-19)
(-1.05715 -0.0613888 2.98088e-19)
(-0.950968 -0.0640799 0)
(-0.842546 -0.0666223 3.79851e-19)
(-0.732232 -0.0689993 4.27654e-19)
(-0.620382 -0.0712019 -4.80956e-19)
(-0.50738 -0.0732196 0)
(-0.393663 -0.0750222 0)
(-0.279447 -0.0765867 -6.83727e-19)
(-0.165617 -0.0780185 0)
(-0.0506175 -0.0782115 0)
(0.0667277 -0.0763314 0)
(0.182939 -0.0734115 0)
(0.296951 -0.0702145 7.35455e-19)
(0.408213 -0.0669553 7.12447e-19)
(0.516247 -0.0637022 0)
(0.620746 -0.060484 6.75022e-19)
(0.721487 -0.0573161 0)
(0.818318 -0.0542124 0)
(0.911139 -0.0511871 6.33405e-19)
(0.999896 -0.0482477 0)
(1.08456 -0.0454071 6.12009e-19)
(1.16516 -0.0426735 0)
(1.24175 -0.0400504 0)
(1.3144 -0.03754 5.86198e-19)
(1.38319 -0.0351411 0)
(1.44824 -0.0328594 5.72056e-19)
(1.50967 -0.0306979 0)
(1.5676 -0.0286457 0)
(1.62216 -0.0267001 0)
(1.67346 -0.0248531 -5.49055e-19)
(1.72162 -0.023097 0)
(1.76673 -0.0214202 5.39818e-19)
(1.80888 -0.0198107 0)
(1.84809 -0.0182489 0)
(1.88436 -0.016706 0)
(1.91753 -0.0151336 0)
(1.94733 -0.0134417 0)
(1.97274 -0.0114611 0)
(1.993 -0.00865903 0)
(2.0005 -0.00362168 -1.04718e-18)
(1.99626 0.0072094 0)
(1.90587 0.024857 0)
(0.00462383 -0.0477228 1.21842e-18)
(0.00839937 -0.0328692 -5.78898e-19)
(0.00535679 -0.0123747 0)
(-0.000954492 0.00645153 1.71755e-19)
(-0.0102519 0.0224883 0)
(-0.0224851 0.035325 6.32276e-20)
(-0.0374489 0.0450955 -1.14674e-19)
(-0.054919 0.0522731 -1.05697e-19)
(-0.0746135 0.0574576 0)
(-0.0962392 0.0612164 -9.24127e-20)
(-0.119546 0.0640072 -4.37093e-20)
(-0.144345 0.0661706 0)
(-0.170526 0.0679425 0)
(-0.198018 0.0694921 0)
(-0.226742 0.0709486 0)
(-0.25664 0.0724082 -3.55473e-20)
(-0.287715 0.0739193 0)
(-0.320042 0.0755088 6.71317e-20)
(-0.353678 0.077286 0)
(-0.388638 0.0792879 0)
(-0.425029 0.0812384 -6.42623e-20)
(-0.462777 0.0831593 0)
(-0.501185 0.0856482 6.53223e-20)
(-0.538042 0.088762 -3.38527e-20)
(-0.579311 0.0895528 3.45908e-20)
(-0.622023 0.0877632 -3.15472e-20)
(-0.664168 0.0903225 -3.03815e-20)
(-0.703121 0.0927814 0)
(-0.743909 0.0938186 0)
(-0.782254 0.093771 2.93358e-20)
(-0.822352 0.0947468 -2.96051e-20)
(-0.862682 0.0941177 0)
(-0.904775 0.0949453 0)
(-0.94473 0.0953472 2.81275e-20)
(-0.983375 0.0952395 0)
(-1.02127 0.0947743 0)
(-1.05867 0.0940426 -2.62422e-20)
(-1.09569 0.0931443 0)
(-1.1324 0.0921424 2.49747e-20)
(-1.16883 0.0910822 -4.93111e-20)
(-1.20498 0.08999 0)
(-1.24089 0.0888867 0)
(-1.27655 0.087781 -9.29005e-20)
(-1.31196 0.0866816 -9.12845e-20)
(-1.34715 0.0855889 -8.9743e-20)
(-1.3821 0.0845059 4.39654e-20)
(-1.41682 0.0834289 -4.35977e-20)
(-1.4513 0.082358 -1.28424e-19)
(-1.48554 0.0812876 8.42028e-20)
(-1.51953 0.0802166 4.16391e-20)
(-1.55328 0.0791385 0)
(-1.58675 0.0780519 -4.04454e-20)
(-1.61996 0.0769507 3.95566e-20)
(-1.65287 0.0758336 0)
(-1.68548 0.0746949 0)
(-1.71778 0.0735341 0)
(-1.74973 0.0723464 -3.7752e-20)
(-1.78133 0.0711321 0)
(-1.81255 0.0698868 7.32309e-20)
(-1.84338 0.0686116 0)
(-1.87378 0.0673034 7.13341e-20)
(-1.90375 0.0659638 0)
(-1.93325 0.0645905 -6.94944e-20)
(-1.96227 0.0631854 0)
(-1.99078 0.0617469 6.76972e-20)
(-2.01876 0.0602775 -3.32807e-20)
(-2.04619 0.0587765 0)
(-2.07304 0.0572471 -6.50513e-20)
(-2.0993 0.0556896 -3.2201e-20)
(-2.12493 0.0541074 -3.17602e-20)
(-2.14993 0.0525015 0)
(-2.17427 0.050875 -3.06764e-20)
(-2.19793 0.0492295 -3.04342e-20)
(-2.22089 0.0475676 0)
(-2.24315 0.0458919 2.95414e-20)
(-2.26467 0.044205 -5.80153e-20)
(-2.28545 0.0425105 0)
(-2.30547 0.0408111 -2.81786e-20)
(-2.32472 0.0391096 0)
(-2.34318 0.0374071 8.16159e-20)
(-2.36084 0.0357074 0)
(-2.37768 0.0340107 -7.87815e-20)
(-2.3937 0.0323198 -2.58136e-20)
(-2.40889 0.0306331 2.52294e-20)
(-2.42323 0.0289556 4.94831e-20)
(-2.43673 0.0272877 -4.84943e-20)
(-2.44936 0.0256368 0)
(-2.4611 0.0240024 0)
(-2.47195 0.0223884 0)
(-2.48187 0.0207876 1.33446e-19)
(-2.49087 0.0191883 4.34545e-20)
(-2.49895 0.0175822 -4.23771e-20)
(-2.50608 0.0159618 0)
(-2.51223 0.0143221 -4.01201e-20)
(-2.51739 0.0126521 3.90633e-20)
(-2.52154 0.0109434 3.79329e-20)
(-2.52466 0.00918523 0)
(-2.52677 0.00737514 0)
(-2.5279 0.00551667 0)
(-2.52808 0.00363713 3.33108e-20)
(-2.5274 0.0017823 0)
(-2.52578 -1.60443e-05 -6.18752e-20)
(-2.52295 -0.0017983 -8.91831e-20)
(-2.51885 -0.00361391 5.70364e-20)
(-2.51339 -0.00547291 0)
(-2.5065 -0.00738698 2.60857e-20)
(-2.49811 -0.00935832 0)
(-2.48812 -0.0113997 4.71184e-20)
(-2.47647 -0.0135137 -2.23276e-20)
(-2.46305 -0.0157153 -2.10494e-20)
(-2.44776 -0.018005 0)
(-2.43051 -0.0203981 -5.51434e-20)
(-2.41118 -0.0228925 3.41287e-20)
(-2.38964 -0.0255031 1.56481e-20)
(-2.36579 -0.0282248 0)
(-2.33947 -0.0310722 1.28416e-20)
(-2.31055 -0.034038 3.43294e-20)
(-2.27888 -0.0371337 0)
(-2.24432 -0.040351 1.6903e-20)
(-2.20672 -0.0437019 1.3728e-20)
(-2.16595 -0.0471765 1.04291e-20)
(-2.12187 -0.0507795 0)
(-2.07432 -0.0544853 0)
(-2.02313 -0.0582883 0)
(-1.96816 -0.0621556 1.96704e-21)
(-1.90927 -0.0660864 4.65633e-21)
(-1.84637 -0.0700536 0)
(-1.77935 -0.0740619 1.81243e-20)
(-1.70817 -0.0780858 2.33278e-20)
(-1.63276 -0.0821201 0)
(-1.55314 -0.0861275 3.60632e-20)
(-1.46933 -0.0900729 8.26278e-20)
(-1.38142 -0.0938723 -4.96987e-20)
(-1.28948 -0.0975039 -5.3985e-20)
(-1.19371 -0.100959 0)
(-1.0943 -0.104197 0)
(-0.991507 -0.107178 0)
(-0.885622 -0.109873 -9.25954e-20)
(-0.776981 -0.112254 9.78928e-20)
(-0.665941 -0.114303 2.21657e-19)
(-0.552879 -0.115993 -1.24551e-19)
(-0.438193 -0.117326 1.30509e-19)
(-0.322293 -0.118285 1.48263e-19)
(-0.205621 -0.118903 0)
(-0.0883542 -0.119251 0)
(0.0293999 -0.119438 -1.7336e-19)
(0.14674 -0.119513 0)
(0.262213 -0.11871 0)
(0.374935 -0.116336 3.84034e-19)
(0.484858 -0.112874 0)
(0.592186 -0.108854 1.99175e-19)
(0.696745 -0.104524 -2.08799e-19)
(0.798262 -0.100006 0)
(0.896501 -0.0953885 2.12149e-19)
(0.991277 -0.0907246 0)
(1.08245 -0.0860665 0)
(1.16992 -0.0814487 -2.2671e-19)
(1.25364 -0.0769086 4.55291e-19)
(1.33357 -0.0724695 -2.32111e-19)
(1.40973 -0.0681598 0)
(1.48215 -0.0639954 0)
(1.5509 -0.0599929 2.35635e-19)
(1.61604 -0.0561571 0)
(1.67768 -0.0524956 2.3936e-19)
(1.73593 -0.0490116 0)
(1.79089 -0.045703 0)
(1.84269 -0.0425623 0)
(1.89144 -0.0395786 2.46716e-19)
(1.93725 -0.0367399 0)
(1.98023 -0.0340301 -2.48506e-19)
(2.02047 -0.031425 0)
(2.058 -0.0288859 0)
(2.09283 -0.0263501 5.00014e-19)
(2.12484 -0.0237152 -5.01488e-19)
(2.15379 -0.0207815 0)
(2.17903 -0.0171929 0)
(2.19988 -0.0118999 0)
(2.21345 -0.00294184 1.53827e-18)
(2.22548 0.0154049 0)
(2.21352 0.0494399 -1.06201e-18)
(-0.0037857 -0.0481601 -1.11891e-21)
(-0.00929969 -0.0193107 5.59048e-19)
(-0.0190564 0.00701475 0)
(-0.0312719 0.0299948 -2.24198e-19)
(-0.0452173 0.049781 0)
(-0.060674 0.0665029 0)
(-0.0777519 0.0803095 6.58807e-24)
(-0.0965781 0.0914848 6.96136e-20)
(-0.117198 0.100442 6.582e-20)
(-0.139581 0.107651 6.27486e-20)
(-0.163656 0.113566 0)
(-0.189342 0.118577 0)
(-0.216562 0.12299 -5.6098e-20)
(-0.245247 0.127026 -1.08881e-19)
(-0.275308 0.130837 1.05952e-19)
(-0.306644 0.134519 0)
(-0.339173 0.138144 1.00903e-19)
(-0.372822 0.14176 -4.93361e-20)
(-0.40748 0.145433 0)
(-0.44296 0.149166 9.4577e-20)
(-0.47905 0.152867 4.65002e-20)
(-0.515511 0.15655 -9.14762e-20)
(-0.551998 0.160171 -4.51811e-20)
(-0.588176 0.162947 0)
(-0.624917 0.163324 8.73158e-20)
(-0.66235 0.162838 8.43289e-20)
(-0.699516 0.16415 0)
(-0.735229 0.165516 8.07786e-20)
(-0.769936 0.164867 0)
(-0.804146 0.163532 7.75261e-20)
(-0.838415 0.161856 3.82448e-20)
(-0.873104 0.158747 0)
(-0.908129 0.156431 0)
(-0.94271 0.154506 0)
(-0.976768 0.152698 0)
(-1.01037 0.150881 0)
(-1.0436 0.149022 0)
(-1.07653 0.147125 6.64446e-20)
(-1.10922 0.145208 -9.79779e-20)
(-1.14169 0.143286 0)
(-1.17396 0.141373 0)
(-1.20605 0.139475 0)
(-1.23796 0.137598 1.78788e-22)
(-1.2697 0.135742 6.02845e-20)
(-1.30128 0.133906 1.18582e-19)
(-1.33269 0.132088 -1.16843e-19)
(-1.36393 0.130281 -5.74921e-20)
(-1.39499 0.128481 5.68646e-20)
(-1.42587 0.126683 -1.82327e-22)
(-1.45655 0.12488 5.51394e-20)
(-1.48704 0.123066 0)
(-1.51732 0.121235 5.36838e-20)
(-1.54738 0.119382 -1.80059e-22)
(-1.57719 0.117502 0)
(-1.60676 0.115589 0)
(-1.63605 0.11364 -5.09764e-20)
(-1.66506 0.111652 0)
(-1.69376 0.109622 0)
(-1.72213 0.107546 4.89077e-20)
(-1.75016 0.105425 9.69224e-20)
(-1.77781 0.103255 -4.80162e-20)
(-1.80508 0.101038 0)
(-1.83194 0.0987728 4.68101e-20)
(-1.85836 0.0964601 0)
(-1.88432 0.0941006 4.53202e-20)
(-1.9098 0.0916958 4.50268e-20)
(-1.93478 0.0892474 -8.85883e-20)
(-1.95923 0.086758 -4.35704e-20)
(-1.98313 0.08423 0)
(-2.00646 0.0816668 8.50627e-20)
(-2.02919 0.0790715 0)
(-2.05132 0.0764477 1.2416e-19)
(-2.0728 0.0737992 8.15007e-20)
(-2.09364 0.0711294 8.02988e-20)
(-2.1138 0.0684426 -7.90877e-20)
(-2.13327 0.0657427 1.16897e-19)
(-2.15204 0.0630348 0)
(-2.17008 0.0603224 0)
(-2.18738 0.0576098 -7.41291e-20)
(-2.20393 0.0548994 -1.09362e-19)
(-2.21971 0.0521954 0)
(-2.2347 0.0494994 3.51986e-20)
(-2.24891 0.046814 0)
(-2.2623 0.0441393 -1.01466e-19)
(-2.27488 0.0414784 -9.95849e-23)
(-2.28664 0.0388318 8.93598e-23)
(-2.29755 0.0362026 6.34937e-20)
(-2.30762 0.0335906 0)
(-2.3168 0.0309963 -6.06664e-20)
(-2.3251 0.0284131 -5.61387e-23)
(-2.33251 0.025832 0)
(-2.33903 0.0232456 0)
(-2.34464 0.0206498 0)
(-2.34933 0.0180404 5.33387e-20)
(-2.35309 0.0154137 0)
(-2.3559 0.0127664 0)
(-2.35775 0.0100985 0)
(-2.35863 0.00741458 0)
(-2.35854 0.00472196 0)
(-2.35743 0.0020247 4.39804e-20)
(-2.35527 -0.000694168 0)
(-2.35198 -0.003467 4.07155e-20)
(-2.34748 -0.00631497 3.90759e-20)
(-2.34171 -0.00924029 -3.74265e-20)
(-2.3346 -0.0122507 0)
(-2.32607 -0.0153509 -3.40972e-20)
(-2.31605 -0.0185518 0)
(-2.30445 -0.0218621 -3.07235e-20)
(-2.29119 -0.025296 2.90181e-20)
(-2.27619 -0.0288634 8.20497e-20)
(-2.25934 -0.0325779 0)
(-2.24053 -0.0364486 7.16163e-20)
(-2.21966 -0.0404871 2.22408e-20)
(-2.19662 -0.0447007 0)
(-2.17126 -0.0490982 3.70771e-20)
(-2.14346 -0.0536845 3.33897e-20)
(-2.11309 -0.0584639 -4.42976e-20)
(-2.07998 -0.0634372 0)
(-2.04401 -0.0686063 -1.0742e-20)
(-2.00502 -0.0739725 -8.69615e-21)
(-1.96288 -0.0795313 -2.0205e-20)
(-1.91745 -0.0852727 0)
(-1.86856 -0.0911737 0)
(-1.81606 -0.0972084 0)
(-1.75981 -0.103346 2.04642e-21)
(-1.69967 -0.109562 0)
(-1.63555 -0.115823 0)
(-1.56737 -0.122104 -1.11063e-20)
(-1.49505 -0.128367 -1.42216e-20)
(-1.41857 -0.134583 0)
(-1.33796 -0.14069 0)
(-1.25325 -0.146628 -4.9519e-20)
(-1.16452 -0.152299 0)
(-1.07189 -0.157639 6.58093e-20)
(-0.975567 -0.16261 7.24711e-20)
(-0.875772 -0.167146 0)
(-0.772778 -0.171186 0)
(-0.666904 -0.174682 -1.01112e-19)
(-0.558506 -0.177588 -2.88203e-21)
(-0.447964 -0.179873 -3.05158e-21)
(-0.33568 -0.181503 0)
(-0.222069 -0.182476 -2.93036e-19)
(-0.107525 -0.182814 0)
(0.00760874 -0.18259 0)
(0.122704 -0.181754 0)
(0.237021 -0.180179 1.84871e-19)
(0.349956 -0.177842 0)
(0.46091 -0.174794 -3.92224e-19)
(0.569417 -0.170919 -2.06785e-19)
(0.675305 -0.166205 0)
(0.778476 -0.160837 -2.2052e-19)
(0.878733 -0.155003 0)
(0.975859 -0.148834 0)
(1.06966 -0.142444 -7.1148e-19)
(1.16 -0.135914 4.83823e-19)
(1.24675 -0.129323 0)
(1.32984 -0.122732 5.04807e-19)
(1.40925 -0.116197 -2.59527e-19)
(1.48496 -0.109766 0)
(1.557 -0.10348 0)
(1.62541 -0.0973715 0)
(1.69026 -0.0914684 -8.22322e-19)
(1.75165 -0.0857881 0)
(1.80968 -0.0803429 -2.81631e-19)
(1.86446 -0.0751415 0)
(1.9161 -0.0701855 0)
(1.96474 -0.0654713 0)
(2.01049 -0.0609876 0)
(2.0535 -0.0567177 0)
(2.09385 -0.0526367 0)
(2.13165 -0.048709 -5.92246e-19)
(2.16696 -0.044876 0)
(2.19977 -0.0410467 -3.0017e-19)
(2.23004 -0.0370694 9.03436e-19)
(2.25758 -0.032672 0)
(2.28197 -0.0273578 0)
(2.30284 -0.0200472 -6.12656e-19)
(2.3184 -0.00879749 -6.19539e-19)
(2.33242 0.0112624 6.24119e-19)
(2.3367 0.0485633 6.41199e-19)
(-0.0109001 -0.028449 -1.79537e-18)
(-0.022579 0.00789085 -6.70027e-19)
(-0.0368743 0.0370481 -2.44178e-19)
(-0.0534894 0.0620373 -8.79193e-20)
(-0.0711336 0.0837673 0)
(-0.0895074 0.102653 1.27272e-19)
(-0.108798 0.118919 -5.81617e-20)
(-0.129219 0.132787 0)
(-0.150916 0.144548 -5.15474e-20)
(-0.17397 0.154547 0)
(-0.198403 0.163146 9.50369e-20)
(-0.224193 0.170676 0)
(-0.251289 0.177415 4.45755e-20)
(-0.279607 0.183573 8.67143e-20)
(-0.309035 0.189285 -8.4486e-20)
(-0.339429 0.194622 0)
(-0.370628 0.199596 -8.03996e-20)
(-0.402467 0.204202 0)
(-0.434767 0.208431 0)
(-0.467335 0.212268 -7.47223e-20)
(-0.49998 0.215664 0)
(-0.532542 0.218562 -3.51069e-23)
(-0.564886 0.220847 0)
(-0.596972 0.222247 0)
(-0.628997 0.222519 -3.83728e-23)
(-0.661064 0.222115 -6.49115e-20)
(-0.692911 0.221801 -6.32989e-20)
(-0.724166 0.221233 -6.19526e-20)
(-0.75489 0.219915 0)
(-0.785302 0.217927 -1.18673e-19)
(-0.815607 0.215436 0)
(-0.845953 0.212429 -5.70114e-20)
(-0.876356 0.209433 0)
(-0.906671 0.206553 0)
(-0.936815 0.203771 5.38025e-20)
(-0.966763 0.201051 0)
(-0.99652 0.198371 -5.18987e-20)
(-1.02611 0.195722 -6.64434e-23)
(-1.05554 0.193104 1.00383e-19)
(-1.08483 0.190521 -9.86917e-20)
(-1.114 0.187972 0)
(-1.14304 0.18546 0)
(-1.17197 0.182981 -4.70377e-20)
(-1.20079 0.180533 0)
(-1.22949 0.17811 -4.58417e-20)
(-1.25807 0.175706 4.52055e-20)
(-1.28652 0.173313 4.45904e-20)
(-1.31485 0.170925 0)
(-1.34303 0.168533 -4.34164e-20)
(-1.37107 0.166129 -4.28542e-20)
(-1.39894 0.163706 8.44513e-20)
(-1.42665 0.161255 -4.17722e-20)
(-1.45417 0.15877 -4.12495e-20)
(-1.48148 0.156244 0)
(-1.50858 0.153671 0)
(-1.53544 0.151047 3.97412e-20)
(-1.56205 0.148367 0)
(-1.58839 0.145627 0)
(-1.61443 0.142825 -7.66022e-20)
(-1.64015 0.139959 -7.56641e-20)
(-1.66554 0.137026 0)
(-1.69057 0.134028 0)
(-1.71522 0.130962 0)