/*--------------------------------*- C++ -*----------------------------------*\
| =========                 |                                                 |
| \\      /  F ield         | OpenFOAM: The Open Source CFD Toolbox           |
|  \\    /   O peration     | Version:  5.x                                   |
|   \\  /    A nd           | Web:      www.OpenFOAM.org                      |
|    \\/     M anipulation  |                                                 |
\*---------------------------------------------------------------------------*/
FoamFile
{
    version     2.0;
    format      ascii;
    class       volScalarField;
    location    "200";
    object      epsilon;
}
// * * * * * * * * * * * * * * * * * * * * * * * * * * * * * * * * * * * * * //

dimensions      [0 2 -3 0 0 0 0];

internalField   nonuniform List<scalar> 
20540
(
0.241032
0.157993
0.241032
0.258876
0.241032
0.347373
0.241032
0.418282
0.241032
0.466978
0.241032
0.48974
0.241032
0.4846
0.241032
0.452002
0.241032
0.395453
0.241032
0.321869
0.241032
0.241188
0.241032
0.164793
0.241032
0.102532
0.241032
0.0589948
0.241032
0.0326006
0.241032
0.0204062
0.241032
0.0171255
0.241032
0.0165617
0.241032
0.0164747
0.241032
0.0164606
0.241032
0.0164586
0.241032
0.0164589
0.241032
0.0164597
0.241032
0.0164609
0.241032
0.0164623
0.241032
0.016464
0.241032
0.016466
0.241032
0.0164681
0.241032
0.0164703
0.241032
0.0164724
0.241032
0.0164738
0.241032
0.0164745
0.241032
0.0164745
0.241032
0.0164738
0.241032
0.0164724
0.241032
0.0164704
0.241032
0.0164683
0.241032
0.0164663
0.241032
0.0164643
0.241032
0.0164627
0.241032
0.0164612
0.241032
0.0164601
0.241032
0.0164592
0.241032
0.0164587
0.241032
0.0164595
0.241032
0.0164662
0.241032
0.0165059
0.241032
0.0167469
0.241032
0.01821
0.241032
0.024951
0.241032
0.0431156
0.241032
0.0757989
0.241032
0.125671
0.241032
0.192172
0.241032
0.268937
0.241032
0.346142
0.241032
0.41362
0.241032
0.463025
0.241032
0.488835
0.241032
0.488496
0.241032
0.462036
0.241032
0.411518
0.241032
0.340555
0.241032
0.253851
0.241032
0.158299
655080
642478
597854
564728
540115
521430
506962
495545
486278
478518
471817
465890
460574
455763
451364
447289
443451
439782
436233
432776
429389
426065
422792
419562
416362
413183
410017
406861
403712
400566
397422
394281
391142
388008
384881
381766
378667
375588
372534
369508
366516
363561
360649
357784
354973
352224
349542
346937
344413
341977
339637
337396
335263
333243
331342
329567
327925
326421
325061
323848
322794
321916
321241
320049
318951
317913
316955
316051
315216
314448
313761
313140
312591
312099
311671
311302
311001
310767
310608
310527
310530
310630
310843
311211
311772
312817
314740
325854
696699
545313
483253
447778
423794
406483
393491
383432
375351
368632
362886
357881
353490
349615
346165
343047
340172
337471
334897
332418
330014
327671
325377
323120
320886
318665
316452
314241
312029
309815
307597
305376
303151
300924
298698
296475
294258
292050
289855
287675
285514
283375
281261
279178
277132
275127
273171
271270
269428
267652
265948
264322
262781
261334
259990
258758
257647
256661
255809
255094
254536
254121
253956
253508
253051
252593
252214
251888
251633
251459
251382
251391
251485
251652
251898
252224
252638
253147
253758
254484
255340
256356
257573
259062
260967
263471
267600
267906
470877
382144
337305
312142
295398
283419
274480
267589
262073
257499
253595
250200
247226
244607
242280
240184
238258
236455
234742
233095
231502
229953
228438
226948
225476
224014
222556
221101
219645
218187
216727
215264
213798
212331
210864
209400
207939
206485
205039
203603
202179
200770
199378
198006
196658
195338
194051
192799
191587
190419
189299
188231
187220
186272
185393
184589
183867
183231
182687
182237
181895
181654
181577
181311
181072
180833
180634
180470
180349
180278
180269
180318
180424
180580
180787
181045
181360
181734
182171
182678
183260
183931
184710
185633
186752
188172
189839
187142
326238
281260
248162
229370
216969
208145
201585
196543
192519
189191
186354
183889
181727
179821
178128
176602
175201
173891
172648
171455
170301
169181
168087
167012
165952
164900
163853
162808
161764
160719
159674
158627
157579
156530
155482
154436
153393
152356
151324
150301
149286
148283
147291
146315
145356
144416
143500
142610
141748
140918
140121
139362
138644
137970
137345
136773
136259
135805
135417
135096
134852
134682
134619
134409
134246
134092
133960
133851
133770
133720
133708
133735
133799
133897
134028
134193
134393
134630
134906
135223
135585
135996
136464
137004
137625
138381
138863
136397
229585
213950
189365
174841
165275
158493
153464
149607
146536
144002
141846
139972
138328
136877
135585
134421
133352
132354
131408
130501
129625
128776
127947
127135
126335
125543
124755
123971
123188
122406
121624
120842
120060
119278
118497
117719
116943
116172
115406
114645
113893
113148
112413
111689
110978
110282
109603
108943
108305
107689
107098
106535
106002
105501
105035
104608
104223
103881
103587
103342
103151
103018
102953
102763
102629
102510
102404
102316
102246
102194
102167
102163
102185
102228
102294
102381
102489
102619
102773
102951
103153
103382
103638
103927
104236
104586
104539
102767
161960
165908
147976
136551
128977
123613
119643
116602
114186
112196
110505
109038
107749
106610
105596
104682
103843
103061
102321
101613
100931
100270
99627.3
98998.4
98379.8
97768.5
97162.2
96559.4
95958.9
95360
94762.1
94165.1
93568.8
92973.6
92379.8
91788.2
91199.3
90614
90032.9
89456.9
88886.7
88323
87766.7
87219
86681
86154.3
85640.3
85140.6
84656.6
84189.8
83741.6
83313.7
82907.7
82525.5
82169.2
81840.9
81542.9
81276.9
81045.1
80849.4
80693.3
80579.6
80509.7
80332.7
80206.9
80100.1
80004.2
79920.5
79849.7
79790.2
79745.2
79714.3
79699.1
79698
79710.8
79736.2
79774.1
79824.6
79887.5
79963.4
80051.4
80151.4
80261.2
80379.9
80488.5
80587.8
80317.7
79073.9
113264
129869
117447
108432
102342
98019.2
94819.6
92370.3
90427
88829.2
87474.4
86299.4
85268.4
84357.2
83545.6
82814.4
82144.8
81521.8
80933.9
80373.4
79834.7
79314.4
78809.3
78316.3
77832.6
77355.8
76883.9
76415.8
75950.4
75487.1
75025.5
74565.2
74106.3
73648.8
73193
72739.4
72288.3
71840.3
71395.9
70955.5
70519.8
70089.2
69664.3
69246
68835.2
68432.7
68039.7
67657.3
67286.6
66928.5
66584.1
66254.6
65941.1
65645.1
65367.9
65111
64876.1
64664.2
64477
64316
64183.3
64081.9
64007.4
63841.6
63717.6
63613.2
63518.2
63432.6
63356.3
63286.7
63225.5
63172
63127.7
63091.5
63063.3
63042
63026.9
63017.9
63014.3
63016.2
63022.2
63031.2
63039.7
63044.1
63023.5
62969
62614.8
61697.9
77716.4
101802
94119.3
87099.4
82175.3
78650.3
76035.4
74032.3
72444.1
71140.1
70036.5
69081.4
68244.2
67505.1
66847.4
66255.7
65715.6
65214.7
64744
64296.9
63869
63456.9
63058.2
62670.3
62290.8
61917.7
61549.4
61184.9
60823.3
60464.2
60107
59751.5
59397.6
59045.4
58695.1
58346.7
58000.7
57657.4
57316.9
56979.8
56646.3
56316.8
55991.8
55671.6
55357.1
55048.7
54747.4
54453.7
54168.6
53892.6
53626.5
53371.1
53127.2
52895.8
52677.9
52474.5
52286.8
52115.4
51961.5
51826.2
51710.5
51617.5
51540.1
51386.8
51263.8
51158.3
51061
50970.9
50887.6
50808.3
50733.4
50662.3
50595.8
50533.3
50474.5
50418.7
50365
50313.1
50262.1
50211.8
50160.6
50107.1
50047.2
49976.4
49874.8
49730.5
49354.6
48633.6
51760.3
79304.3
75777
70503.6
66542.9
63655.9
61501
59845.9
58533
57456.1
56546.7
55761.4
55074.6
54469.3
53931.8
53449.7
53011.3
52606.7
52228.4
51870.8
51530.3
51203.8
50889.2
50584.3
50287.1
49995.7
49709.1
49426.1
49146.1
48868.5
48593
48319.4
48047.6
47777.4
47509.1
47242.6
46978.2
46716
46456.3
46199.1
45944.8
45693.5
45445.6
45201.3
44961
44725.3
44494.6
44269.4
44050.1
43837.4
43631.6
43433.2
43242.8
43061.1
42888.8
42726.5
42575
42434.7
42306.5
42191.1
42088.7
42002.2
41923.9
41784.7
41664.7
41558.1
41458.4
41364.1
41274.5
41187.1
41101.9
41017.9
40935.6
40854.5
40774.3
40694.6
40614.2
40533
40449.9
40364.7
40275.7
40181.5
40078.1
39961
39812.4
39620.9
39252.5
38657
33048.6
60886.4
60988.5
57318.7
54197.1
51842.8
50063
48688
47595.1
46698.7
45943.1
45292.5
44725
44226.2
43784.6
43390.1
43033.1
42705.6
42401.2
42115.4
41844.8
41586.8
41339.4
41100.8
40869.3
40643.2
40421.4
40203.2
39987.9
39775
39564.1
39355.1
39147.9
38942.3
38738.3
38536.1
38335.6
38137
37940.4
37745.7
37553.2
37362.9
37175.1
36989.8
36807.5
36628.3
36452.6
36280.6
36112.7
35949.1
35790.3
35636.3
35487.7
35344.7
35208
35077.8
34954.8
34839
34731.2
34631.8
34540.6
34459.7
34382.3
34258.2
34144.3
34039
33938.6
33841.8
33748.1
33655.3
33563.2
33470.8
33378.5
33285.6
33191.9
33097
32999.9
32900.6
32797.9
32691.5
32580
32462
32334
32191.6
32020.1
31809.5
31464.4
30961.9
19919.9
45612.7
48785
46639
44288.1
42400.3
40938.9
39797.3
38885.4
38136.5
37505.9
36964.3
36493.4
36080.9
35717.1
35393.5
35102.4
34837.2
34592.6
34364.6
34150.2
33947.2
33753.9
33568.4
33389.4
33215.4
33045.4
32878.8
32714.9
32553.3
32393.7
32235.8
32079.5
31924.8
31771.5
31619.8
31469.5
31320.7
31173.5
31027.7
30883.5
30741
30600.1
30461
30323.8
30188.7
30055.9
29925.5
29797.7
29672.7
29550.5
29431.4
29315.5
29203.1
29094.4
28989.7
28889.4
28793.4
28702.2
28616.1
28534.6
28459.3
28384.6
28276
28170.9
28069.8
27971.5
27875.1
27780.2
27685.1
27589.7
27493.4
27396
27297.2
27196.6
27093.9
26988.3
26879.8
26767.2
26650.5
26528.2
26399.2
26260.4
26108
25930.1
25718.7
25405.8
24982.9
11107.2
32916
38493.9
37818.5
36210.6
34753.4
33575
32635.6
31877.8
31252.9
30726.6
30275.4
29884.2
29542.6
29242.6
28977.1
28739.9
28525.3
28329.1
28147.8
27978.7
27819.9
27669.8
27526.8
27389.6
27257.2
27128.4
27002.7
26879.5
26758.5
26639.3
26521.7
26405.5
26290.7
26177.3
26065
25954
25844.2
25735.4
25627.8
25521.3
25415.9
25311.5
25208.3
25106.3
25005.6
24906.2
24808.2
24711.7
24616.7
24523.3
24431.5
24341.5
24253.2
24166.9
24082.6
24000.6
23920.8
23843.5
23768.7
23696.1
23626.5
23555.9
23462.6
23368.2
23274.3
23181.1
23088
22995.1
22901.1
22806.1
22709.7
22611.6
22511.8
22409.7
22305.2
22197.6
22086.7
21972
21852.8
21728.5
21597.7
21458
21306.2
21133
20932.1
20656.2
20305
5572.29
22485.9
29653.1
30380.5
29516.2
28478.1
27564.8
26809
26187.9
25671
25234.2
24859.8
24535.6
24253.4
24006.5
23789.1
23596.1
23422.9
23266
23122.3
22989.7
22866.2
22750.5
22641.3
22537.4
22437.6
22341.4
22247.9
22156.7
22067.5
21979.9
21893.8
21808.9
21725.3
21642.7
21561.1
21480.6
21400.8
21322
21243.8
21166.4
21089.7
21013.6
20938.1
20863.3
20789.1
20715.5
20642.6
20570.4
20498.8
20427.9
20357.5
20287.8
20218.6
20150.2
20082.3
20015.2
19948.8
19883.3
19818.5
19754.1
19690.6
19625.1
19546
19463.5
19379
19293.4
19206.6
19118.7
19029
18937.6
18844.5
18749.5
18652.6
18553.3
18451.6
18346.8
18239
18127.4
18011.8
17891.4
17765.3
17631.5
17487.2
17325.4
17141.5
16903.9
16616.5
2418.13
14185.7
21970.8
23969.5
23861.4
23250.6
22599.6
22019.7
21525.9
21107.3
20750.2
20443
20176.9
19945.4
19743.3
19566.2
19409.9
19270.8
19145.9
19032.7
18929.2
18833.9
18745.5
18662.8
18585
18510.9
18439.9
18371.5
18305.2
18240.6
18177.5
18115.7
18054.9
17995.2
17936.4
17878.4
17821.1
17764.5
17708.4
17652.8
17597.6
17542.8
17488.2
17433.9
17379.8
17325.9
17272.2
17218.5
17165
17111.4
17057.9
17004.2
16950.4
16896.3
16842
16787.4
16732.6
16677.3
16621.9
16565.9
16509.3
16452
16392.4
16326.3
16255.8
16181.8
16105.5
16027.2
15946.8
15864
15779.1
15692.1
15603.1
15512.2
15418.9
15323.3
15224.9
15123.7
15019.2
14911
14798.6
14681.3
14557.4
14424.7
14278.2
14114.5
13913.8
13681.1
860.044
7967.59
15313.6
18329.2
18978.2
18815.9
18437.7
18036.1
17667.6
17343
17060.3
16814.3
16600.1
16413.2
16250.1
16107.4
15982.2
15871.4
15772.8
15684.2
15604.1
15531.2
15464.3
15402.5
15344.9
15290.7
15239.3
15190.1
15142.8
15097.1
15052.6
15009.2
14966.9
14925.3
14884.4
14844.2
14804.5
14765.2
14726.3
14687.6
14649.1
14610.7
14572.4
14534
14495.5
14456.9
14418.1
14379
14339.6
14299.8
14259.5
14218.7
14177.2
14135
14092
14048.1
14003.2
13957.3
13910.5
13862.4
13813
13762
13708.6
13654
13594.7
13531.5
13465.4
13396.7
13325.5
13251.4
13174.9
13096.1
13015.3
12932.4
12847.4
12760.2
12670.6
12578.3
12483.1
12384.8
12282.8
12176.5
12064.8
11945.9
11816.4
11673.8
11506.9
11319.4
238.247
3768.4
9702.42
13303.9
14660.3
14968.5
14883.8
14672.1
14434.2
14204.8
13995.4
13808.3
13642.6
13496.6
13368.5
13256.3
13157.9
13071.2
12994.6
12926.3
12865.3
12810.2
12760.4
12714.9
12673
12634
12597.5
12563
12530.1
12498.5
12468
12438.5
12409.8
12381.8
12354.2
12327.2
12300.5
12274
12247.8
12221.6
12195.4
12169.1
12142.7
12116
12089
12061.7
12034
12005.7
11976.9
11947.4
11917.2
11886.1
11854.1
11821.1
11786.9
11751.5
11714.8
11676.7
11637.2
11596.1
11553.2
11508.4
11461.3
11416.4
11367.2
11314.1
11258
11199.3
11137.8
11073.5
11006.4
10937
10865.5
10792
10716.5
10638.9
10559.2
10477.1
10392.5
10305.1
10214.6
10120.5
10021.8
9917.37
9804.97
9683.08
9545.78
9395.02
51.8677
1377.53
5287.64
8858.96
10767.2
11545
11776.9
11774.3
11678.9
11551.6
11418.8
11291.4
11173.9
11067.5
10972.6
10888.5
10814.5
10749.2
10691.6
10640.6
10595.4
10555
10518.8
10486.2
10456.5
10429.4
10404.2
10380.8
10358.7
10337.7
10317.6
10298.3
10279.7
10261.5
10243.7
10226.3
10209
10191.8
10174.7
10157.5
10140.2
10122.6
10104.8
10086.5
10067.9
10048.7
10029
10008.6
9987.54
9965.65
9942.88
9919.13
9894.31
9868.28
9840.99
9812.26
9782.13
9750.4
9717.09
9682.01
9645.03
9606.01
9564.81
9527.89
9487.28
9443.18
9396.25
9346.86
9294.9
9240.18
9182.79
9123.04
9061.16
8997.36
8931.67
8864.11
8794.57
8722.98
8649.17
8572.93
8494.02
8412
8326.28
8235.99
8139.92
8037.23
7925.07
7803.66
9.56175
346.457
2258.97
5105.86
7247.89
8429.5
8987.01
9213.94
9278.38
9265.11
9216.62
9153.76
9086.95
9021.39
8959.9
8903.62
8853.04
8807.88
8767.82
8732.32
8700.88
8673.04
8648.3
8626.26
8606.49
8588.63
8572.34
8557.36
8543.43
8530.38
8518.03
8506.27
8494.94
8483.96
8473.22
8462.63
8452.09
8441.53
8430.87
8420.03
8408.94
8397.53
8385.73
8373.47
8360.69
8347.31
8333.28
8318.52
8302.97
8286.56
8269.22
8250.84
8231.34
8210.6
8188.56
8165.07
8140.13
8113.57
8085.39
8055.43
8023.57
7989.74
7953.93
7923.35
7889.71
7853.1
7813.98
7772.7
7729.2
7683.26
7634.87
7584.22
7531.53
7476.99
7420.67
7362.63
7302.82
7241.18
7177.59
7111.89
7043.88
6973.25
6899.63
6822.49
6741.25
6655.56
6564.14
6465.95
1.56372
56.7582
652.157
2292.63
4182.86
5579.54
6423.17
6887.21
7128.19
7244.18
7291.66
7301.59
7291.26
7270.42
7244.96
7218.12
7191.9
7167.19
7144.54
7124.05
7105.74
7089.48
7075.07
7062.34
7051.03
7040.97
7031.93
7023.75
7016.27
7009.36
7002.9
6996.79
6990.92
6985.21
6979.57
6973.93
6968.2
6962.32
6956.22
6949.83
6943.1
6935.96
6928.36
6920.24
6911.54
6902.19
6892.15
6881.35
6869.72
6857.22
6843.78
6829.3
6813.72
6796.93
6778.87
6759.4
6738.53
6716.09
6692.09
6666.38
6638.88
6609.54
6578.43
6552.65
6524.41
6493.73
6460.89
6426.22
6389.69
6351.13
6310.46
6267.75
6223.15
6176.8
6128.8
6079.21
6028.02
5975.19
5920.65
5864.28
5805.92
5745.4
5682.49
5616.94
5548.54
5477.21
5402.39
5322.32
0.230849
6.98416
108.99
668.155
1816.23
3076.63
4064.12
4728.38
5147.09
5404.11
5560.24
5653.75
5708.42
5738.88
5754.44
5760.79
5761.7
5759.46
5755.62
5751.1
5746.46
5742.03
5737.94
5734.28
5731.04
5728.21
5725.73
5723.57
5721.64
5719.9
5718.29
5716.74
5715.18
5713.57
5711.83
5709.9
5707.74
5705.29
5702.49
5699.3
5695.68
5691.58
5686.95
5681.74
5675.91
5669.41
5662.19
5654.19
5645.38
5635.69
5625.08
5613.46
5600.79
5586.95
5571.92
5555.56
5537.89
5518.71
5498.08
5475.86
5451.98
5426.43
5399.29
5377.02
5352.77
5326.55
5298.52
5268.91
5237.78
5205
5170.46
5134.16
5096.16
5056.55
5015.43
4972.83
4928.78
4883.27
4836.23
4787.61
4737.31
4685.24
4631.29
4575.4
4517.53
4457.75
4395.76
4329.58
0.0342543
0.731838
11.3056
103.426
471.468
1180.8
2018.82
2748.78
3297.57
3686.45
3955.99
4141.79
4270.57
4360.53
4424.03
4469.2
4501.84
4525.78
4543.78
4557.63
4568.57
4577.44
4584.77
4591.02
4596.42
4601.21
4605.5
4609.41
4612.97
4616.23
4619.18
4621.82
4624.14
4626.12
4627.73
4628.94
4629.72
4630.05
4629.9
4629.24
4628.05
4626.29
4623.94
4620.96
4617.31
4612.96
4607.88
4602.01
4595.33
4587.8
4579.35
4569.95
4559.54
4548.03
4535.39
4521.52
4506.41
4489.89
4472.02
4452.68
4431.83
4409.46
4385.65
4365.89
4344.51
4321.53
4297.02
4271.15
4243.98
4215.45
4185.47
4154.01
4121.06
4086.66
4050.87
4013.72
3975.24
3935.43
3894.26
3851.71
3807.75
3762.33
3715.46
3667.14
3617.43
3566.43
3513.94
3458.1
0.00731823
0.067612
0.924887
8.96918
58.507
237.514
606.694
1113.89
1639.5
2092.42
2448.66
2720.18
2925.65
3080.89
3198.68
3288.82
3358.83
3414.03
3458.27
3494.26
3523.91
3548.72
3569.69
3587.7
3603.32
3617.06
3629.24
3640.14
3649.93
3658.76
3666.72
3673.88
3680.3
3686
3691.02
3695.36
3699.05
3702.08
3704.45
3706.18
3707.24
3707.64
3707.37
3706.39
3704.7
3702.27
3699.07
3695.09
3690.28
3684.62
3678.07
3670.6
3662.14
3652.66
3642.09
3630.39
3617.48
3603.3
3587.83
3571
3552.77
3533.17
3512.2
3494.32
3475.07
3454.46
3432.54
3409.4
3385.1
3359.64
3332.95
3304.99
3275.74
3245.19
3213.37
3180.3
3146
3110.47
3073.72
3035.75
2996.56
2956.17
2914.62
2871.94
2828.23
2783.55
2737.8
2689.4
0.00240898
0.005978
0.0643085
0.590848
4.01354
20.7439
80.2161
222.881
461.214
768.223
1096.24
1401.34
1660.67
1871.48
2040.99
2177.82
2289.16
2380.29
2455.35
2517.63
2569.73
2613.81
2651.45
2683.97
2712.3
2737.23
2759.26
2778.87
2796.38
2812.07
2826.14
2838.77
2850.1
2860.25
2869.31
2877.34
2884.41
2890.58
2895.87
2900.33
2903.96
2906.8
2908.84
2910.09
2910.54
2910.19
2909.03
2907.04
2904.21
2900.51
2895.93
2890.42
2883.97
2876.51
2868.02
2858.45
2847.7
2835.77
2822.62
2808.19
2792.46
2775.44
2757.12
2740.85
2723.38
2704.73
2684.89
2663.93
2641.9
2618.8
2594.61
2569.3
2542.83
2515.19
2486.39
2456.43
2425.33
2393.08
2359.71
2325.24
2289.7
2253.12
2215.55
2177.06
2137.7
2097.55
2056.53
2013.47
0.00184145
0.000870187
0.00395915
0.0324609
0.212128
1.09633
4.68739
16.8906
50.3677
121.233
237.81
395.107
579.112
772.492
959.36
1128.74
1275.86
1400.72
1506.03
1595.26
1671.53
1737.38
1794.65
1844.77
1888.78
1927.61
1961.95
1992.44
2019.58
2043.83
2065.55
2085.06
2102.61
2118.41
2132.62
2145.4
2156.86
2167.09
2176.16
2184.16
2191.12
2197.09
2202.1
2206.18
2209.35
2211.61
2212.97
2213.43
2212.99
2211.65
2209.39
2206.2
2202.05
2196.91
2190.77
2183.58
2175.23
2165.75
2155.1
2143.25
2130.16
2115.83
2100.25
2085.72
2070.1
2053.41
2035.64
2016.81
1996.94
1976.07
1954.17
1931.23
1907.24
1882.16
1856.01
1828.77
1800.47
1771.1
1740.69
1709.27
1676.87
1643.54
1609.32
1574.27
1538.44
1501.89
1464.59
1425.8
0.00181808
0.000332157
0.000309872
0.00152729
0.00923701
0.0460182
0.192329
0.700715
2.27088
6.60055
17.073
38.8015
77.0231
134.629
210.93
302.387
404.065
510.693
617.339
719.939
815.585
902.651
980.556
1049.57
1110.43
1164.11
1211.61
1253.87
1291.67
1325.68
1356.4
1384.25
1409.55
1432.57
1453.5
1472.53
1489.8
1505.45
1519.58
1532.29
1543.67
1553.78
1562.7
1570.48
1577.16
1582.77
1587.36
1590.93
1593.52
1595.13
1595.76
1595.42
1594.1
1591.79
1588.47
1584.12
1578.65
1572.07
1564.36
1555.49
1545.44
1534.2
1521.74
1509.41
1496.09
1481.79
1466.48
1450.18
1432.89
1414.63
1395.41
1375.2
1354
1331.8
1308.61
1284.41
1259.23
1233.07
1205.96
1177.94
1149.02
1119.27
1088.73
1057.45
1025.49
992.915
959.751
925.664
0.00181776
0.000298707
8.18986e-05
8.91521e-05
0.000342445
0.00157113
0.00632816
0.0224771
0.0718309
0.210036
0.563903
1.39607
3.1996
6.81287
13.4681
24.6776
41.904
66.1659
97.7487
136.192
180.462
229.235
281.096
334.701
388.816
442.389
494.535
544.578
592.018
636.542
677.975
716.275
751.487
783.729
813.157
839.958
864.323
886.447
906.514
924.695
941.144
955.998
969.376
981.38
992.095
1001.59
1009.93
1017.17
1023.33
1028.45
1032.55
1035.65
1037.75
1038.86
1038.96
1038.06
1036.08
1033.03
1028.87
1023.6
1017.21
1009.68
1000.99
991.563
981.226
969.993
957.854
944.806
930.852
915.999
900.253
883.614
866.086
847.672
828.382
808.231
787.24
765.439
742.864
719.56
695.581
670.988
645.85
620.245
594.256
567.974
541.483
514.747
0.00181806
0.000297891
6.85292e-05
2.34296e-05
1.98639e-05
4.81641e-05
0.000167909
0.000570327
0.00177892
0.00513157
0.0136963
0.033939
0.0783187
0.169514
0.346443
0.673789
1.25403
2.24286
3.85714
6.37452
10.1119
15.3943
22.51
31.6739
42.9941
56.4663
71.9735
89.314
108.222
128.4
149.543
171.354
193.554
215.897
238.16
260.153
281.715
302.708
323.02
342.559
361.252
379.042
395.884
411.746
426.607
440.45
453.267
465.055
475.812
485.541
494.245
501.925
508.585
514.224
518.84
522.428
524.996
526.499
526.926
526.265
524.507
521.64
517.636
511.821
505.156
497.669
489.366
480.256
470.355
459.683
448.264
436.127
423.307
409.844
395.785
381.186
366.109
350.624
334.804
318.732
302.491
286.17
269.855
253.636
237.599
221.825
206.393
191.385
0.00181841
0.00029792
6.82314e-05
2.06226e-05
8.05454e-06
4.72998e-06
5.60737e-06
1.24919e-05
3.4537e-05
9.5924e-05
0.000252255
0.000621184
0.00142869
0.00308357
0.00628429
0.0121987
0.0227032
0.0407752
0.070878
0.119565
0.195935
0.31252
0.485803
0.737304
1.09349
1.58624
2.25115
3.12692
4.25213
5.66392
7.39447
9.46986
11.9074
14.7155
17.8923
21.4267
25.2987
29.4801
33.9362
38.6268
43.5076
48.5312
53.6487
58.8102
63.9661
69.0677
74.0675
78.9202
83.5822
88.0124
92.1715
96.0225
99.53
102.66
105.381
107.643
109.515
110.997
112.067
112.71
112.911
112.661
111.947
110.055
107.822
105.267
102.41
99.2722
95.8792
92.2584
88.4396
84.4546
80.3365
76.1194
71.8379
67.5264
63.2187
58.9471
54.742
50.6317
46.6416
42.7937
39.107
35.597
32.2753
29.1506
26.2279
23.5123
0.00181877
0.000297964
6.82372e-05
2.05741e-05
7.73447e-06
3.47399e-06
1.83794e-06
1.21268e-06
1.16297e-06
1.78109e-06
3.71065e-06
8.45874e-06
1.89596e-05
4.04924e-05
8.20311e-05
0.000158464
0.000293599
0.000525314
0.000910495
0.0015345
0.00251661
0.00402696
0.00629059
0.00961685
0.0143938
0.02113
0.0304252
0.0430229
0.0597525
0.0815874
0.109566
0.144846
0.188612
0.242121
0.306606
0.383299
0.473338
0.577749
0.697354
0.832714
0.984029
1.15108
1.33314
1.52892
1.73656
1.95358
2.17694
2.40298
2.62757
2.84606
3.05344
3.24431
3.41303
3.55332
3.65866
3.73865
3.80611
3.8586
3.89392
3.91025
3.90614
3.8806
3.83311
3.7209
3.59343
3.45248
3.3
3.1381
2.96895
2.79477
2.61772
2.4399
2.26325
2.08956
1.92042
1.75718
1.60096
1.45265
1.31289
1.1821
1.06052
0.948184
0.844976
0.750654
0.664875
0.587214
0.517195
0.454346
0.0018191
0.000298006
6.82466e-05
2.05763e-05
7.73126e-06
3.45466e-06
1.76878e-06
1.00861e-06
6.2898e-07
4.2722e-07
3.23485e-07
2.90683e-07
3.33251e-07
4.84864e-07
8.16722e-07
1.45097e-06
2.5865e-06
4.53943e-06
7.78296e-06
1.30432e-05
2.13161e-05
3.40911e-05
5.32664e-05
8.16292e-05
0.000122514
0.000180653
0.000261377
0.00037188
0.000519886
0.000715203
0.000967963
0.00129018
0.00169386
0.00219221
0.00279792
0.00352396
0.00438198
0.00538251
0.00653336
0.0078391
0.00929911
0.0109065
0.012646
0.0144926
0.0164101
0.0183502
0.0202514
0.0220397
0.0236285
0.0249207
0.0258092
0.0261797
0.0259199
0.0252792
0.0246418
0.0239994
0.0233468
0.0226796
0.0219939
0.0212869
0.0205566
0.0198021
0.0190236
0.0182402
0.0174419
0.0166331
0.0158186
0.015003
0.0141911
0.0133872
0.0125956
0.0118202
0.0110642
0.0103308
0.00962232
0.00894087
0.00828801
0.00766491
0.00707234
0.00651074
0.00598021
0.00548061
0.00501155
0.00457244
0.00416252
0.00378092
0.00342663
0.00309901
0.00181934
0.000298037
6.82533e-05
2.05781e-05
7.73187e-06
3.45474e-06
1.76827e-06
1.00665e-06
6.23412e-07
4.1288e-07
2.88779e-07
2.11339e-07
1.60901e-07
1.27173e-07
1.04712e-07
9.07443e-08
8.43188e-08
8.5902e-08
9.73109e-08
1.2232e-07
1.66101e-07
2.37737e-07
3.4746e-07
5.13227e-07
7.53207e-07
1.09883e-06
1.57983e-06
2.24516e-06
3.13962e-06
4.33142e-06
5.88225e-06
7.87713e-06
1.03922e-05
1.35213e-05
1.7346e-05
2.19549e-05
2.74176e-05
3.37953e-05
4.11164e-05
4.93783e-05
5.85215e-05
6.8425e-05
7.88802e-05
8.95861e-05
0.00010013
0.000109992
0.000118539
0.000125048
0.000128752
0.000128887
0.000126366
0.000123862
0.00012132
0.000118707
0.000116018
0.000113248
0.000110394
0.000107452
0.000104423
0.000101305
9.81008e-05
9.48134e-05
9.14482e-05
8.83748e-05
8.52388e-05
8.2049e-05
7.88155e-05
7.55494e-05
7.22622e-05
6.89659e-05
6.56729e-05
6.23954e-05
5.91456e-05
5.59353e-05
5.27758e-05
4.96776e-05
4.66507e-05
4.3704e-05
4.08454e-05
3.80821e-05
3.542e-05
3.28641e-05
3.04183e-05
2.80856e-05
2.58681e-05
2.37669e-05
2.17822e-05
1.99159e-05
0.00181945
0.000298051
6.82565e-05
2.05789e-05
7.73218e-06
3.45485e-06
1.76833e-06
1.00667e-06
6.23398e-07
4.12798e-07
2.88554e-07
2.10809e-07
1.5974e-07
1.24786e-07
1.00025e-07
8.19559e-08
6.84379e-08
5.81069e-08
5.00723e-08
4.37422e-08
3.87088e-08
3.47089e-08
3.15493e-08
2.91396e-08
2.73988e-08
2.63561e-08
2.60037e-08
2.64732e-08
2.78199e-08
3.02661e-08
3.39305e-08
3.91044e-08
4.59606e-08
5.48139e-08
6.58482e-08
7.93212e-08
9.53273e-08
1.13935e-07
1.3497e-07
1.581e-07
1.82623e-07
2.07524e-07
2.31287e-07
2.51983e-07
2.6718e-07
2.74137e-07
2.76514e-07
2.79526e-07
2.83061e-07
2.87071e-07
2.91731e-07
2.97577e-07
3.05392e-07
3.16314e-07
3.32008e-07
3.5489e-07
3.88433e-07
4.37595e-07
5.0938e-07
6.13594e-07
7.63805e-07
9.78486e-07
1.28231e-06
1.51307e-06
1.78336e-06
2.09488e-06
2.44819e-06
2.84253e-06
3.27565e-06
3.74373e-06
4.24141e-06
4.76182e-06
5.29679e-06
5.83714e-06
6.37291e-06
6.89383e-06
7.38961e-06
7.85039e-06
8.26702e-06
8.63147e-06
8.93699e-06
9.17836e-06
9.352e-06
9.45601e-06
9.49015e-06
9.45573e-06
9.35552e-06
9.19428e-06
0.00181945
0.000298051
6.82564e-05
2.05789e-05
7.73219e-06
3.45484e-06
1.76834e-06
1.00667e-06
6.23397e-07
4.12797e-07
2.88554e-07
2.10807e-07
1.59739e-07
1.24783e-07
1.0002e-07
8.19478e-08
6.84257e-08
5.80893e-08
5.00506e-08
4.37156e-08
3.86903e-08
3.47012e-08
3.15982e-08
2.92614e-08
2.77084e-08
2.69101e-08
2.70427e-08
2.81538e-08
3.05911e-08
3.44935e-08
4.03863e-08
4.85313e-08
5.96224e-08
7.40892e-08
9.28055e-08
1.16445e-07
1.46157e-07
1.83007e-07
2.28652e-07
2.84842e-07
3.54173e-07
4.39631e-07
5.4551e-07
6.77041e-07
8.41544e-07
1.04831e-06
1.31008e-06
1.64346e-06
2.07102e-06
2.62269e-06
3.33888e-06
4.27358e-06
5.49923e-06
7.11216e-06
9.24006e-06
1.20505e-05
1.57618e-05
2.06559e-05
2.70938e-05
3.55337e-05
4.65468e-05
6.0833e-05
7.92266e-05
9.22031e-05
0.000106507
0.000122041
0.000138663
0.000156183
0.00017437
0.000192955
0.000211638
0.0002301
0.000248012
0.000265044
0.000280882
0.000295234
0.000307841
0.000318485
0.000326994
0.00033325
0.000337183
0.000338779
0.000338069
0.000335136
0.000330099
0.000323114
0.000314365
0.000304071
0.00181934
0.000298036
6.82531e-05
2.0578e-05
7.7319e-06
3.45473e-06
1.76828e-06
1.00664e-06
6.23395e-07
4.12834e-07
2.88676e-07
2.11119e-07
1.60444e-07
1.26298e-07
1.03072e-07
8.78923e-08
7.95385e-08
7.81956e-08
8.56466e-08
1.04597e-07
1.41743e-07
2.0291e-07
3.04269e-07
4.55738e-07
6.9006e-07
1.02293e-06
1.51208e-06
2.18201e-06
3.12225e-06
4.37056e-06
6.04976e-06
8.21586e-06
1.10203e-05
1.45427e-05
1.89591e-05
2.43802e-05
3.10148e-05
3.90186e-05
4.86569e-05
6.01555e-05
7.38761e-05
9.01579e-05
0.000109517
0.00013248
0.000159802
0.000192311
0.000231138
0.000277585
0.000333367
0.000400541
0.000481733
0.000580142
0.000699758
0.00084541
0.00102297
0.00123945
0.00150317
0.00182385
0.00221284
0.00268306
0.00324888
0.0039257
0.00472934
0.00524532
0.0057817
0.00633095
0.00688488
0.0074347
0.0079713
0.00848556
0.0089686
0.00941203
0.00980821
0.0101505
0.0104334
0.0106527
0.0108055
0.0108905
0.0109076
0.0108581
0.0107445
0.0105705
0.0103404
0.0100597
0.00973412
0.00936985
0.00897331
0.00855118
0.0018191
0.000298005
6.82463e-05
2.0576e-05
7.73127e-06
3.45454e-06
1.76846e-06
1.00759e-06
6.2626e-07
4.20607e-07
3.08059e-07
2.57417e-07
2.63213e-07
3.46506e-07
5.49563e-07
9.66337e-07
1.74e-06
3.11278e-06
5.49842e-06
9.40717e-06
1.59032e-05
2.58918e-05
4.17723e-05
6.49534e-05
0.000100176
0.000149469
0.000221039
0.000317709
0.000451927
0.000627563
0.000861195
0.00115804
0.00153775
0.00200722
0.0025881
0.00328947
0.00413502
0.00513654
0.00632119
0.00770393
0.00931716
0.01118
0.0133315
0.0157969
0.0186235
0.0218454
0.0255199
0.0296941
0.0344381
0.0398178
0.045921
0.0528368
0.0606743
0.0695459
0.0795802
0.0909093
0.103677
0.118029
0.134115
0.152081
0.172049
0.194105
0.218275
0.231703
0.244703
0.257059
0.268564
0.279023
0.288263
0.296137
0.302525
0.307336
0.310509
0.312013
0.311847
0.310039
0.306647
0.30175
0.295452
0.287871
0.279143
0.269413
0.258831
0.247552
0.235728
0.223509
0.211038
0.198452
0.00181877
0.000297964
6.8237e-05
2.05735e-05
7.73217e-06
3.46354e-06
1.80161e-06
1.11122e-06
9.0536e-07
1.14651e-06
2.14149e-06
4.81044e-06
1.08349e-05
2.37815e-05
4.90952e-05
9.7468e-05
0.000185019
0.00033858
0.000603185
0.00103481
0.00174563
0.0028326
0.00454096
0.00701594
0.0107291
0.0158777
0.0232545
0.0331082
0.0465992
0.0640264
0.0868745
0.1155
0.151586
0.195565
0.249188
0.312959
0.388626
0.476698
0.578875
0.695522
0.828212
0.977002
1.1432
1.32648
1.52774
1.74625
1.98242
2.23523
2.50462
2.78943
3.08924
3.40291
3.72983
4.06883
4.41913
4.77957
5.14931
5.52723
5.91242
6.30367
6.6994
7.09733
7.49376
7.63782
7.75412
7.84069
7.896
7.91911
7.90966
7.86781
7.79423
7.68997
7.55651
7.39565
7.2095
7.00044
6.77103
6.52402
6.2622
5.98844
5.70556
5.41635
5.12346
4.82941
4.53655
4.247
3.9627
3.68545
0.00181842
0.000297921
6.82289e-05
2.05928e-05
7.8767e-06
4.08907e-06
3.70181e-06
6.76211e-06
1.75365e-05
4.95016e-05
0.000132706
0.000337702
0.000792246
0.00176034
0.00365685
0.00727537
0.0138307
0.0253213
0.0450274
0.0771153
0.129303
0.208755
0.33121
0.507429
0.765254
1.1192
1.61068
2.25634
3.10658
4.17606
5.51407
7.12804
9.05531
11.292
13.857
16.7334
19.9215
23.3915
27.1294
31.095
35.2648
39.5924
44.0498
48.589
53.1809
57.7801
62.359
66.8776
71.3112
75.6269
79.804
83.817
87.6496
91.2826
94.7036
97.8987
100.86
103.578
106.05
108.271
110.236
111.941
113.366
112.868
112.052
110.923
109.486
107.748
105.722
103.422
100.865
98.0712
95.0623
91.8615
88.494
84.9861
81.3646
77.6569
73.8902
70.0912
66.2857
62.4982
58.7515
55.0668
51.463
47.957
44.5633
41.2976
0.00181808
0.000297883
6.83431e-05
2.18613e-05
1.38455e-05
2.53275e-05
8.014e-05
0.000276436
0.00087403
0.00260627
0.00712091
0.0181998
0.0428444
0.0951903
0.198289
0.394478
0.749139
1.366
2.40274
4.05421
6.6024
10.2923
15.468
22.2974
31.0508
41.7012
54.3451
68.7497
84.8419
102.27
120.864
140.258
160.258
180.551
200.964
221.256
241.294
260.904
279.994
298.441
316.195
333.171
349.347
364.671
379.141
392.729
405.446
417.283
428.257