/*--------------------------------*- C++ -*----------------------------------*\
| =========                 |                                                 |
| \\      /  F ield         | OpenFOAM: The Open Source CFD Toolbox           |
|  \\    /   O peration     | Version:  5.x                                   |
|   \\  /    A nd           | Web:      www.OpenFOAM.org                      |
|    \\/     M anipulation  |                                                 |
\*---------------------------------------------------------------------------*/
FoamFile
{
    version     2.0;
    format      ascii;
    class       volScalarField;
    location    "200";
    object      k;
}
// * * * * * * * * * * * * * * * * * * * * * * * * * * * * * * * * * * * * * //

dimensions      [0 2 -2 0 0 0 0];

internalField   nonuniform List<scalar> 
20540
(
2.45293e-05
7.72556e-06
2.45293e-05
1.40225e-05
2.45293e-05
2.49929e-05
2.45293e-05
3.98302e-05
2.45293e-05
5.74888e-05
2.45293e-05
7.64293e-05
2.45293e-05
9.44968e-05
2.45293e-05
0.000108961
2.45293e-05
0.000116795
2.45293e-05
0.000115267
2.45293e-05
0.000102868
2.45293e-05
8.04539e-05
2.45293e-05
5.22724e-05
2.45293e-05
2.60235e-05
2.45293e-05
9.71888e-06
2.45293e-05
4.04172e-06
2.45293e-05
2.89788e-06
2.45293e-05
2.72128e-06
2.45293e-05
2.69425e-06
2.45293e-05
2.68982e-06
2.45293e-05
2.68913e-06
2.45293e-05
2.68912e-06
2.45293e-05
2.68924e-06
2.45293e-05
2.68942e-06
2.45293e-05
2.68965e-06
2.45293e-05
2.68991e-06
2.45293e-05
2.69022e-06
2.45293e-05
2.69055e-06
2.45293e-05
2.69089e-06
2.45293e-05
2.69121e-06
2.45293e-05
2.69145e-06
2.45293e-05
2.69155e-06
2.45293e-05
2.69155e-06
2.45293e-05
2.69144e-06
2.45293e-05
2.69122e-06
2.45293e-05
2.69091e-06
2.45293e-05
2.69058e-06
2.45293e-05
2.69026e-06
2.45293e-05
2.68997e-06
2.45293e-05
2.6897e-06
2.45293e-05
2.68948e-06
2.45293e-05
2.6893e-06
2.45293e-05
2.68916e-06
2.45293e-05
2.68912e-06
2.45293e-05
2.68942e-06
2.45293e-05
2.69156e-06
2.45293e-05
2.70395e-06
2.45293e-05
2.77878e-06
2.45293e-05
3.25489e-06
2.45293e-05
5.92202e-06
2.45293e-05
1.58876e-05
2.45293e-05
3.68303e-05
2.45293e-05
6.4212e-05
2.45293e-05
9.01624e-05
2.45293e-05
0.000108788
2.45293e-05
0.000117401
2.45293e-05
0.000116034
2.45293e-05
0.000106484
2.45293e-05
9.13724e-05
2.45293e-05
7.343e-05
2.45293e-05
5.50558e-05
2.45293e-05
3.81246e-05
2.45293e-05
2.39795e-05
2.45293e-05
1.35534e-05
2.45293e-05
7.61051e-06
3.68848
3.61736
3.36591
3.17934
3.04085
2.93585
2.85463
2.79054
2.73853
2.69498
2.65743
2.6243
2.59472
2.56807
2.54383
2.52148
2.50053
2.48058
2.46135
2.44266
2.42439
2.40649
2.38889
2.37153
2.35433
2.33724
2.32022
2.30324
2.28629
2.26934
2.25239
2.23544
2.21849
2.20155
2.18464
2.16778
2.15099
2.13429
2.11771
2.10127
2.08499
2.0689
2.05303
2.03739
2.02204
2.00701
1.99233
1.97805
1.9642
1.95082
1.93794
1.9256
1.91383
1.90267
1.89216
1.88234
1.87326
1.86492
1.85739
1.85067
1.84482
1.83995
1.83621
1.82962
1.82352
1.81774
1.81238
1.80733
1.80268
1.79839
1.79456
1.7911
1.78805
1.78532
1.78294
1.7809
1.77924
1.77797
1.77711
1.77671
1.77679
1.77744
1.77875
1.78102
1.78446
1.79091
1.80297
1.87055
16.8761
15.7527
14.7518
14.0692
13.5725
13.1984
12.9097
12.6817
12.4963
12.3406
12.2063
12.0881
11.9831
11.8892
11.8043
11.7267
11.6543
11.5857
11.5198
11.456
11.3937
11.3327
11.2727
11.2135
11.1548
11.0963
11.0379
10.9795
10.921
10.8624
10.8036
10.7446
10.6854
10.6261
10.5667
10.5073
10.4479
10.3887
10.3298
10.2711
10.2129
10.1551
10.0979
10.0415
9.98585
9.93124
9.87779
9.82566
9.77499
9.72593
9.67864
9.63326
9.58995
9.54892
9.51036
9.47446
9.44141
9.41135
9.38445
9.36081
9.34078
9.32449
9.31325
9.29223
9.27231
9.25313
9.23572
9.21953
9.20497
9.19205
9.18114
9.17194
9.16451
9.15856
9.15422
9.15143
9.15037
9.15112
9.15383
9.15869
9.16591
9.17597
9.18946
9.20768
9.23239
9.26928
9.32744
9.34314
18.5664
18.5043
17.5465
16.8341
16.3029
15.8981
15.5833
15.3338
15.1304
14.9595
14.8118
14.6816
14.5656
14.4616
14.3674
14.281
14.2004
14.124
14.0507
13.9796
13.9102
13.8423
13.7755
13.7096
13.6443
13.5792
13.5143
13.4493
13.3843
13.3191
13.2537
13.1881
13.1223
13.0563
12.9902
12.9241
12.858
12.7922
12.7265
12.6612
12.5963
12.532
12.4682
12.4053
12.3432
12.2823
12.2225
12.1642
12.1074
12.0524
11.9993
11.9482
11.8993
11.8528
11.8089
11.7679
11.7298
11.695
11.6634
11.6353
11.611
11.5909
11.5755
11.5482
11.5234
11.4997
11.4776
11.4567
11.4374
11.4195
11.4036
11.3893
11.3767
11.3655
11.3558
11.3475
11.3408
11.3357
11.3322
11.3306
11.3309
11.3334
11.3383
11.3467
11.3586
11.3804
11.3974
11.3423
18.423
19.5736
18.7686
18.08
17.5491
17.1385
16.8167
16.5603
16.3507
16.1743
16.0218
15.8872
15.7671
15.6591
15.5612
15.4714
15.3876
15.3081
15.2319
15.158
15.086
15.0156
14.9464
14.8781
14.8104
14.7431
14.6759
14.6087
14.5415
14.4741
14.4064
14.3386
14.2706
14.2023
14.134
14.0656
13.9973
13.9291
13.8611
13.7935
13.7262
13.6595
13.5934
13.5281
13.4636
13.4002
13.338
13.2772
13.218
13.1604
13.1047
13.051
12.9995
12.9504
12.9038
12.8599
12.819
12.7811
12.7464
12.7151
12.6875
12.6641
12.6445
12.6118
12.5824
12.5546
12.5281
12.5028
12.4789
12.4563
12.4352
12.4155
12.3973
12.3803
12.3645
12.3499
12.3366
12.3245
12.3137
12.3044
12.2964
12.2899
12.285
12.2823
12.2808
12.2863
12.2716
12.2001
17.5117
19.9466
19.3794
18.7484
18.2363
17.8321
17.5118
17.2548
17.044
16.8663
16.7124
16.5765
16.4551
16.3459
16.2469
16.156
16.0713
15.9911
15.9143
15.8399
15.7675
15.6967
15.6272
15.5587
15.4909
15.4235
15.3562
15.2889
15.2216
15.1541
15.0864
15.0185
14.9504
14.882
14.8135
14.745
14.6765
14.608
14.5398
14.4718
14.4042
14.3371
14.2705
14.2047
14.1396
14.0755
14.0126
13.9509
13.8908
13.8322
13.7753
13.7203
13.6674
13.6167
13.5683
13.5225
13.4794
13.4391
13.4018
13.3676
13.3368
13.3101
13.2863
13.2484
13.2143
13.1819
13.1508
13.1207
13.0919
13.0641
13.0375
13.012
12.9875
12.9641
12.9415
12.9199
12.8991
12.8792
12.8601
12.842
12.8248
12.8085
12.7928
12.7782
12.763
12.7518
12.7137
12.6427
16.1564
19.8927
19.6488
19.1082
18.6308
18.2425
17.9301
17.6772
17.4686
17.2921
17.1392
17.0041
16.8834
16.7748
16.6763
16.5861
16.5021
16.4229
16.3471
16.2738
16.2027
16.1332
16.0651
15.9981
15.9317
15.8657
15.8
15.7342
15.6684
15.6024
15.5362
15.4697
15.403
15.336
15.2689
15.2016
15.1343
15.0671
15
14.9331
14.8665
14.8003
14.7345
14.6693
14.6049
14.5413
14.4787
14.4173
14.3571
14.2984
14.2412
14.1858
14.1321
14.0805
14.0309
13.9836
13.9387
13.8964
13.8567
13.8198
13.7859
13.7557
13.7275
13.6848
13.6456
13.6084
13.5722
13.537
13.5028
13.4694
13.4369
13.405
13.3739
13.3434
13.3135
13.2842
13.2553
13.227
13.199
13.1716
13.1444
13.1176
13.0908
13.0639
13.0349
13.0074
12.9515
12.8801
14.5033
19.5038
19.6751
19.2624
18.8372
18.4747
18.1764
17.9319
17.7287
17.556
17.406
17.2735
17.155
17.0486
16.9523
16.8642
16.7824
16.7055
16.6321
16.5615
16.493
16.4263
16.361
16.2967
16.2332
16.1701
16.1071
16.0442
15.9812
15.918
15.8545
15.7907
15.7266
15.6623
15.5977
15.5329
15.4681
15.4032
15.3383
15.2735
15.209
15.1447
15.0807
15.0172
14.9543
14.892
14.8306
14.7702
14.7108
14.6527
14.5959
14.5405
14.4866
14.4345
14.3841
14.3357
14.2893
14.2451
14.2032
14.1637
14.1266
14.0928
14.0602
14.0131
13.9689
13.9265
13.885
13.8442
13.8043
13.7649
13.726
13.6874
13.6493
13.6114
13.5738
13.5363
13.499
13.4618
13.4246
13.3874
13.3501
13.3125
13.2743
13.2352
13.1928
13.1498
13.0796
13.0029
12.6435
18.8077
19.4926
19.2533
18.9014
18.5762
18.2993
18.068
17.8736
17.7073
17.5624
17.4342
17.3198
17.217
17.1242
17.0396
16.9615
16.8882
16.8186
16.7518
16.6873
16.6245
16.5632
16.503
16.4436
16.3845
16.3255
16.2666
16.2075
16.1482
16.0885
16.0285
15.9681
15.9074
15.8464
15.7851
15.7236
15.662
15.6002
15.5385
15.4769
15.4153
15.354
15.2929
15.2322
15.1721
15.1125
15.0537
14.9957
14.9387
14.8827
14.8279
14.7742
14.7219
14.6711
14.6218
14.5742
14.5283
14.4842
14.4421
14.4019
14.3644
14.3274
14.2765
14.2274
14.1797
14.1328
14.0862
14.0403
13.9946
13.9492
13.9037
13.8582
13.8127
13.7672
13.7215
13.6755
13.6293
13.5827
13.5357
13.4882
13.44
13.3905
13.3395
13.2843
13.2271
13.1445
13.0588
10.653
17.8044
19.1038
19.0934
18.8416
18.5683
18.3216
18.1093
17.9278
17.7711
17.6338
17.512
17.4033
17.3059
17.2181
17.1384
17.0651
16.9967
16.932
16.8703
16.8109
16.7533
16.6971
16.642
16.5877
16.5337
16.4798
16.4258
16.3716
16.3171
16.2622
16.2069
16.1511
16.0949
16.0382
15.9813
15.9239
15.8664
15.8086
15.7506
15.6926
15.6345
15.5764
15.5184
15.4606
15.4031
15.3459
15.2893
15.2332
15.1777
15.1229
15.069
15.0159
14.9638
14.9127
14.8628
14.8141
14.7667
14.7206
14.676
14.6327
14.5915
14.5501
14.496
14.4426
14.3898
14.3374
14.2851
14.2331
14.181
14.1289
14.0764
14.0236
13.9705
13.917
13.863
13.8085
13.7534
13.6976
13.6411
13.5836
13.525
13.4648
13.4025
13.3355
13.2653
13.1717
13.075
8.60896
16.4837
18.4912
18.7772
18.6596
18.4568
18.2516
18.0658
17.9026
17.7592
17.6325
17.5197
17.4188
17.3284
17.2473
17.1739
17.1068
17.0445
16.986
16.9304
16.8771
16.8257
16.7756
16.7266
16.6783
16.6302
16.5823
16.5341
16.4857
16.4368
16.3874
16.3376
16.2871
16.2361
16.1846
16.1326
16.0801
16.0273
15.974
15.9204
15.8666
15.8125
15.7582
15.7038
15.6493
15.5949
15.5406
15.4864
15.4326
15.379
15.3258
15.2731
15.2209
15.1692
15.1181
15.0677
15.0181
14.9693
14.9213
14.8743
14.8281
14.7832
14.7376
14.681
14.6238
14.5664
14.5089
14.4511
14.3932
14.3348
14.2761
14.2167
14.1568
14.0963
14.035
13.9731
13.9103
13.8467
13.782
13.7164
13.6495
13.5812
13.511
13.4383
13.3605
13.2788
13.1753
13.0677
6.59736
14.8371
17.6237
18.2848
18.3451
18.2372
18.0884
17.9388
17.8005
17.6755
17.5631
17.4622
17.3716
17.2905
17.2178
17.1523
17.0927
17.0378
16.9866
16.9382
16.8921
16.8477
16.8046
16.7625
16.721
16.6797
16.6384
16.5967
16.5547
16.5122
16.469
16.4252
16.3807
16.3355
16.2897
16.2432
16.1961
16.1484
16.1002
16.0515
16.0022
15.9525
15.9024
15.852
15.8012
15.7503
15.6991
15.6478
15.5965
15.5451
15.4938
15.4425
15.3913
15.3403
15.2894
15.2388
15.1884
15.1384
15.0887
15.0395
14.9905
14.9421
14.8924
14.8339
14.7737
14.7124
14.6504
14.5875
14.5241
14.4598
14.3949
14.329
14.2623
14.1948
14.1262
14.0568
13.9862
13.9146
13.8418
13.7677
13.6921
13.615
13.5356
13.4535
13.3661
13.2741
13.1622
13.0451
4.71378
12.8716
16.4599
17.5834
17.8765
17.8954
17.8225
17.7219
17.6174
17.5173
17.4242
17.3391
17.2619
17.1925
17.1303
17.0745
17.0241
16.9779
16.9352
16.895
16.8569
16.8205
16.7852
16.7508
16.7167
16.6828
16.6487
16.6142
16.5792
16.5435
16.507
16.4698
16.4317
16.3928
16.3531
16.3125
16.2712
16.2291
16.1862
16.1427
16.0984
16.0534
16.0078
15.9616
15.9148
15.8675
15.8197
15.7715
15.7229
15.6739
15.6246
15.575
15.525
15.4748
15.4243
15.3736
15.3227
15.2716
15.2204
15.1691
15.1175
15.0658
15.0125
14.9525
14.8901
14.8257
14.76
14.6928
14.6246
14.5551
14.4845
14.4127
14.3398
14.2658
14.1906
14.1143
14.0367
13.9579
13.8776
13.7959
13.7125
13.6274
13.5398
13.4493
13.3534
13.2526
13.1337
13.0094
3.05914
10.625
14.9558
16.6279
17.2206
17.4077
17.4364
17.4019
17.3431
17.2763
17.2091
17.1447
17.0849
17.0305
16.9814
16.9375
16.898
16.8621
16.8291
16.7983
16.7693
16.7416
16.7149
16.6888
16.6629
16.637
16.6106
16.5838
16.5562
16.5277
16.4984
16.4681
16.4368
16.4044
16.3711
16.3368
16.3015
16.2653
16.228
16.1899
16.1507
16.1107
16.0698
16.028
15.9853
15.9418
15.8975
15.8525
15.8068
15.7603
15.7131
15.6652
15.6167
15.5674
15.5174
15.4667
15.4155
15.3635
15.311
15.2579
15.204
15.1493
15.0926
15.0317
14.9677
14.9011
14.8325
14.7619
14.6897
14.6158
14.5404
14.4635
14.3851
14.3055
14.2245
14.1421
14.0583
13.973
13.8862
13.7978
13.7075
13.6153
13.5205
13.4226
13.3193
13.2109
13.0867
12.9572
1.72866
8.18437
13.0757
15.3622
16.3313
16.7389
16.9034
16.9576
16.9604
16.9385
16.9056
16.8686
16.8314
16.7961
16.7636
16.7342
16.7079
16.6841
16.6624
16.6424
16.6236
16.6056
16.5883
16.5712
16.5541
16.5366
16.5185
16.4997
16.4799
16.4591
16.4372
16.4141
16.3898
16.3644
16.3377
16.3098
16.2808
16.2505
16.219
16.1864
16.1526
16.1176
16.0814
16.044
16.0056
15.966
15.9253
15.8835
15.8407
15.7968
15.7518
15.7057
15.6586
15.6103
15.561
15.5105
15.4591
15.4064
15.3528
15.2981
15.2421
15.1848
15.1252
15.0635
14.9986
14.9304
14.8598
14.7867
14.7115
14.6341
14.5548
14.4736
14.3908
14.3064
14.2204
14.1329
14.0437
13.953
13.8605
13.7662
13.67
13.5716
13.4705
13.3661
13.2565
13.1415
13.0133
12.8802
0.794693
5.70484
10.8145
13.7258
15.1491
15.8409
16.1851
16.3583
16.4438
16.4823
16.4953
16.4947
16.487
16.4763
16.4647
16.4536
16.4434
16.4342
16.4258
16.4181
16.4109
16.4038
16.3968
16.3896
16.382
16.3736
16.3643
16.3539
16.3424
16.3295
16.3153
16.2997
16.2828
16.2643
16.2445
16.2232
16.2005
16.1763
16.1507
16.1236
16.0951
16.0652
16.0338
16.0009
15.9667
15.931
15.8938
15.8553
15.8154
15.774
15.7313
15.6871
15.6414
15.5943
15.5457
15.4955
15.4439
15.3908
15.3363
15.2802
15.2224
15.1627
15.1006
15.0384
14.9727
14.9035
14.8315
14.7568
14.6795
14.5995
14.5172
14.4327
14.3463
14.2581
14.1679
14.0762
13.9825
13.8871
13.7898
13.6905
13.589
13.4853
13.3786
13.2685
13.1535
13.033
12.9017
12.7659
0.276728
3.4177
8.23217
11.669
13.6041
14.6506
15.2295
15.561
15.7576
15.8773
15.952
15.9996
16.0309
16.0522
16.0677
16.0796
16.0895
16.0981
16.1058
16.1127
16.1189
16.1243
16.129
16.1327
16.1354
16.1369
16.1371
16.1357
16.1329
16.1284
16.1223
16.1145
16.105
16.0939
16.081
16.0664
16.0502
16.0322
16.0125
15.9911
15.968
15.9431
15.9164
15.8881
15.858
15.8261
15.7925
15.7572
15.7202
15.6814
15.6408
15.5985
15.5543
15.5083
15.4605
15.4107
15.3591
15.3056
15.2504
15.1931
15.1337
15.0721
15.0078
14.945
14.8787
14.8087
14.7357
14.6597
14.5809
14.4991
14.4146
14.3276
14.2383
14.1469
14.0535
13.9581
13.8607
13.7614
13.6599
13.5562
13.4502
13.3416
13.23
13.1148
12.995
12.8699
12.7361
12.5979
0.0740813
1.60313
5.50182
9.18634
11.6276
13.0921
13.9683
14.5076
14.8525
15.0812
15.2386
15.351
15.4341
15.4977
15.5484
15.5901
15.6256
15.6566
15.684
15.7086
15.7308
15.7509
15.7691
15.7854
15.7998
15.8123
15.8228
15.8313
15.8379
15.8424
15.8448
15.8453
15.8437
15.8401
15.8346
15.8269
15.8173
15.8057
15.792
15.7763
15.7586
15.7388
15.717
15.6931
15.6672
15.6392
15.6092
15.577
15.5429
15.5066
15.4682
15.4278
15.3851
15.3403
15.2933
15.244
15.1925
15.1387
15.0829
15.0246
14.9638
14.9004
14.8342
14.7706
14.7035
14.6327
14.5587
14.4816
14.4016
14.3183
14.232
14.143
14.0513
13.9572
13.8609
13.7624
13.6616
13.5587
13.4534
13.3457
13.2354
13.1223
13.0061
12.8862
12.7619
12.6327
12.4967
12.3558
0.0165817
0.505897
2.95562
6.37892
9.1832
11.0866
12.3191
13.1231
13.6625
14.0365
14.3049
14.504
14.6564
14.7764
14.8737
14.9545
15.0233
15.083
15.1355
15.1822
15.2243
15.2622
15.2966
15.3278
15.3558
15.3811
15.4034
15.4231
15.4401
15.4546
15.4665
15.4759
15.4828
15.4874
15.4895
15.4893
15.4867
15.4817
15.4743
15.4646
15.4524
15.4379
15.421
15.4018
15.3801
15.3561
15.3296
15.3008
15.2696
15.2359
15.1998
15.1613
15.1202
15.0766
15.0305
14.9818
14.9305
14.8767
14.8203
14.7611
14.6991
14.6341
14.566
14.5013
14.4331
14.3611
14.2858
14.2074
14.1259
14.0411
13.953
13.8619
13.7679
13.6712
13.572
13.4703
13.3662
13.2595
13.1504
13.0385
12.9239
12.8062
12.6852
12.5605
12.4318
12.2986
12.1599
12.0158
0.00324232
0.101341
1.07397
3.54823
6.3373
8.58679
10.1976
11.3179
12.1039
12.6675
13.0831
13.3982
13.6434
13.8388
13.9983
14.1311
14.2439
14.3412
14.4264
14.5017
14.569
14.6295
14.6841
14.7336
14.7784
14.8189
14.8555
14.8883
14.9175
14.9435
14.9661
14.9857
15.0023
15.0159
15.0266
15.0345
15.0395
15.0418
15.0412
15.0379
15.0318
15.023
15.0114
14.997
14.98
14.9601
14.9376
14.9123
14.8842
14.8534
14.8198
14.7834
14.7442
14.702
14.657
14.609
14.5582
14.5044
14.4477
14.3877
14.3246
14.2582
14.1883
14.122
14.0521
13.9784
13.9013
13.8209
13.7374
13.6505
13.5603
13.4666
13.3699
13.2701
13.1675
13.0621
12.954
12.8431
12.7294
12.6128
12.4931
12.3702
12.2439
12.114
11.9802
11.8424
11.7001
11.5515
0.000552011
0.0150667
0.218096
1.29091
3.39062
5.66101
7.56073
9.00741
10.0812
10.8808
11.486
11.9533
12.3217
12.6179
12.8607
13.0631
13.2348
13.3824
13.5108
13.6238
13.7242
13.814
13.8948
13.9678
14.0338
14.0936
14.1477
14.1968
14.241
14.2808
14.3165
14.3482
14.3761
14.4004
14.4211
14.4384
14.4522
14.4628
14.47
14.474
14.4748
14.4724
14.4668
14.4581
14.4463
14.4313
14.4132
14.392
14.3676
14.3401
14.3095
14.2757
14.2387
14.1985
14.155
14.1082
14.0582
14.0047
13.9479
13.8874
13.8234
13.7557
13.6842
13.6158
13.5437
13.4678
13.3881
13.3051
13.2188
13.129
13.0356
12.9387
12.8383
12.7346
12.6277
12.5176
12.4045
12.2882
12.1689
12.0463
11.9205
11.7912
11.6584
11.5221
11.3821
11.2385
11.0909
10.9364
7.80808e-05
0.00187453
0.0271434
0.24001
1.08329
2.67953
4.52177
6.17418
7.51949
8.58032
9.41264
10.0707
10.5979
11.0261
11.3793
11.6746
11.9251
12.14
12.3265
12.4901
12.6347
12.7635
12.8789
12.9828
13.0766
13.1615
13.2385
13.3084
13.3719
13.4294
13.4814
13.5282
13.5703
13.6077
13.6407
13.6695
13.6941
13.7147
13.7314
13.7443
13.7534
13.7588
13.7605
13.7586
13.7531
13.7441
13.7315
13.7154
13.6957
13.6725
13.6458
13.6155
13.5816
13.5441
13.5029
13.458
13.4094
13.3569
13.3005
13.2401
13.1757
13.1071
13.0343
12.9635
12.8889
12.8102
12.7276
12.6412
12.5513
12.4577
12.3603
12.259
12.154
12.0452
11.9328
11.8169
11.6974
11.5745
11.448
11.318
11.1844
11.0472
10.9064
10.7621
10.6142
10.4631
10.3081
10.1459
7.63623e-06
0.000196266
0.00262772
0.0246954
0.159191
0.647673
1.66648
3.05011
4.47033
5.72788
6.78101
7.65026
8.36647
8.95855
9.45222
9.86802
10.2221
10.5266
10.7907
11.022
11.226
11.4072
11.5691
11.7145
11.8455
11.964
12.0714
12.169
12.2578
12.3385
12.4119
12.4786
12.5389
12.5933
12.6421
12.6856
12.724
12.7575
12.7863
12.8105
12.8302
12.8456
12.8567
12.8636
12.8664
12.8651
12.8598
12.8504
12.8371
12.8197
12.7984
12.7731
12.7437
12.7102
12.6727
12.6309
12.585
12.5346
12.4798
12.4204
12.3565
12.2879
12.2144
12.1416
12.0645
11.983
11.8973
11.8074
11.7134
11.6154
11.5133
11.407
11.2965
11.1818
11.063
10.9401
10.8131
10.6822
10.5473
10.4085
10.2657
10.1191
9.96876
9.81474
9.65723
9.49641
9.33199
9.15999
8.06288e-07
1.65714e-05
0.000211428
0.00190615
0.0128055
0.0661575
0.257869
0.726118
1.52449
2.55547
3.64714
4.66604
5.55742
6.32019
6.97252
7.53277
8.01612
8.43478
8.79943
9.11912
9.4013
9.65207
9.87604
10.0771
10.2583
10.4221
10.5705
10.7054
10.8282
10.9401
11.0421
11.1351
11.2198
11.2968
11.3666
11.4296
11.4862
11.5368
11.5816
11.6208
11.6547
11.6833
11.707
11.7258
11.7397
11.749
11.7536
11.7536
11.7491
11.74
11.7264
11.7084
11.6857
11.6585
11.6266
11.5901
11.5488
11.5024
11.451
11.3944
11.3326
11.2657
11.193
11.1191
11.0404
10.957
10.8687
10.7758
10.6783
10.5763
10.4696
10.3583
10.2422
10.1215
9.99603
9.86592
9.73118
9.59188
9.44806
9.2998
9.14721
8.99043
8.82959
8.6649
8.49656
8.32479
8.14939
7.96656
4.7495e-07
1.00891e-06
1.37264e-05
0.000120417
0.000783939
0.00405193
0.0174307
0.0634533
0.191842
0.469075
0.936418
1.58038
2.33928
3.1341
3.89967
4.5984
5.21831
5.76297
6.24239
6.66706
7.04557
7.38457
7.68904
7.96322
8.21056
8.43431
8.63713
8.82154
8.98952
9.1429
9.28309
9.41137
9.52875
9.63611
9.73417
9.8236
9.90491
9.97861
10.0451
10.1047
10.1578
10.2046
10.2455
10.2804
10.3098
10.3336
10.352
10.3651
10.373
10.3757
10.3733
10.3658
10.3531
10.3353
10.3123
10.2841
10.2502
10.2108
10.1656
10.1146
10.0577
9.99494
9.92576
9.85286
9.77471
9.6913
9.60258
9.50859
9.4094
9.30502
9.19545
9.08064
8.96055
8.83514
8.70443
8.56844
8.42721
8.28081
8.12933
7.97291
7.81169
7.64587
7.47565
7.30127
7.12301
6.94112
6.75558
6.56329
4.64285e-07
1.42291e-07
6.75547e-07
6.08765e-06
3.8838e-05
0.00019475
0.000819124
0.00301106
0.00987101
0.0290678
0.0763187
0.176259
0.355633
0.632013
1.00655
1.46416
1.97863
2.51976
3.05987
3.57804
4.0612
4.50349
4.90407
5.26549
5.59161
5.88689
6.15531
6.40039
6.62492
6.83118
7.02093
7.19565
7.35654
7.50462
7.64081
7.7659
7.88062
7.98561
8.08147
8.16873
8.24784
8.31924
8.38328
8.44028
8.49051
8.5342
8.57155
8.60272
8.62784
8.64702
8.66034
8.66784
8.66954
8.66545
8.65555
8.63981
8.61773
8.58931
8.55448
8.51314
8.46521
8.41064
8.34891
8.28061
8.20657
8.12681
8.04126
7.94992
7.85279
7.74989
7.64122
7.52674
7.40644
7.2803
7.14833
7.01057
6.86709
6.718
6.56343
6.40357
6.23863
6.06887
5.8946
5.71613
5.53385
5.34814
5.15926
4.96536
4.64093e-07
1.15527e-07
5.54786e-08
2.36656e-07
1.51071e-06
7.45366e-06
3.05002e-05
0.000109387
0.000353171
0.00104442
0.00284052
0.00713239
0.0165862
0.0358443
0.0719348
0.133791
0.230493
0.369051
0.55264
0.780153
1.04667
1.34461
1.6649
1.99816
2.33553
2.66945
2.99383
3.30429
3.59791
3.8731
4.12925
4.36653
4.58558
4.78737
4.97303
5.14373
5.30061
5.44478
5.57721
5.69879
5.81028
5.91237
6.00562
6.09052
6.16747
6.23682
6.29885
6.35379
6.40184
6.44315
6.47785
6.50601
6.52769
6.54292
6.5517
6.554
6.54932
6.53758
6.5187
6.49262
6.45925
6.41852
6.36998
6.31134
6.24657
6.17575
6.09881
6.01574
5.92653
5.83121
5.72978
5.62227
5.50872
5.38917
5.26373
5.1325
4.99567
4.85344
4.7061
4.55397
4.39742
4.2369
4.0729
3.90596
3.73666
3.56565
3.39352
3.21987
4.64165e-07
1.14964e-07
3.85813e-08
2.09826e-08
4.84759e-08
2.19012e-07
8.81017e-07
3.09539e-06
9.79366e-06
2.85618e-05
7.71084e-05
0.000193481
0.000452443
0.000992746
0.00205722
0.00405621
0.00764981
0.0138562
0.0241227
0.0403471
0.0647609
0.0997301
0.147453
0.209689
0.28752
0.381271
0.490485
0.614063
0.750372
0.897451
1.05313
1.21518
1.38141
1.54976
1.71835
1.88548
2.04972
2.20983
2.3648
2.51383
2.65629
2.79171
2.91976
3.04019
3.15288
3.25776
3.3548
3.44404
3.52552
3.59931
3.66548
3.7241
3.77523
3.81892
3.85521
3.88409
3.90534
3.91869
3.92408
3.92147
3.9108
3.89201
3.86477
3.822
3.77282
3.71741
3.65581
3.58807
3.5143
3.43463
3.34925
3.25837
3.16225
3.06119
2.95557
2.84582
2.7324
2.61586
2.49678
2.37577
2.25349
2.13061
2.0078
1.88576
1.76512
1.64654
1.53059
1.41777
4.64249e-07
1.14971e-07
3.82763e-08
1.61601e-08
8.77758e-09
8.72165e-09
2.08393e-08
6.64137e-08
2.04564e-07
5.87857e-07
1.57141e-06
3.91944e-06
9.12808e-06
1.99548e-05
4.11986e-05
8.10052e-05
0.000152642
0.0002774
0.000487668
0.000831649
0.00137738
0.00221971
0.00348514
0.0053404
0.00799362
0.0116986
0.0167443
0.0234506
0.0321448
0.0431502
0.0567584
0.0732165
0.0927054
0.115334
0.141127
0.170033
0.201919
0.236584
0.273766
0.313151
0.354383
0.397077
0.440825
0.485209
0.529804
0.574188
0.617947
0.660677
0.70199
0.741514
0.778894
0.813791
0.845883
0.874861
0.900434
0.922155
0.940435
0.955221
0.966323
0.973579
0.976863
0.97608
0.971131
0.954993
0.93576
0.913614
0.888736
0.861332
0.831634
0.799896
0.766393
0.731417
0.695269
0.658261
0.620706
0.582912
0.545183
0.507806
0.471053
0.43517
0.40038
0.366875
0.334818
0.304339
0.275538
0.248483
0.223214
0.199767
4.64335e-07
1.14987e-07
3.82776e-08
1.60898e-08
8.09679e-09
4.70691e-09
3.20402e-09
2.92725e-09
4.35885e-09
9.54901e-09
2.35227e-08
5.7182e-08
1.31882e-07
2.86667e-07
5.89062e-07
1.1527e-06
2.16169e-06
3.91171e-06
6.8527e-06
1.16664e-05
1.932e-05
3.12048e-05
4.91882e-05
7.58509e-05
0.000114479
0.0001694
0.000245807
0.000350181
0.000489882
0.000673615
0.000910837
0.00121215
0.00158863
0.00205204
0.00261418
0.0032869
0.00408136
0.00500782
0.0060748
0.00728854
0.00865212
0.0101648
0.0118214
0.0136114
0.0155191
0.0175231
0.0195962
0.0217061
0.0238151
0.0258811
0.0278577
0.0296953
0.0313413
0.0327372
0.0338218
0.034673
0.0353982
0.0359745
0.0363817
0.0366025
0.0366235
0.0364356
0.0360339
0.0349901
0.0337984
0.0324762
0.0310427
0.0295181
0.0279238
0.0262809
0.0246105
0.0229325
0.0212657
0.0196271
0.0180317
0.0164925
0.01502
0.0136224
0.0123059
0.0110743
0.00992972
0.00887243
0.0079013
0.00701396
0.00620713
0.00547679
0.00481843
0.00422756
4.64415e-07
1.15002e-07
3.82826e-08
1.60912e-08
8.09005e-09
4.65793e-09
2.97281e-09
2.05582e-09
1.5245e-09
1.22502e-09
1.12026e-09
1.26791e-09
1.84519e-09
3.20075e-09
5.95531e-09
1.11422e-08
2.04442e-08
3.65495e-08
6.35275e-08
1.07657e-07
1.77687e-07
2.86739e-07
4.51844e-07
6.97965e-07
1.05558e-06
1.56778e-06
2.28424e-06
3.27179e-06
4.60387e-06
6.37366e-06
8.6797e-06
1.1639e-05
1.53709e-05
2.00075e-05
2.56785e-05
3.25173e-05
4.06466e-05
5.01799e-05
6.12061e-05
7.37838e-05
8.79232e-05
0.000103575
0.000120609
0.000138803
0.000157823
0.000177219
0.00019641
0.000214686
0.000231216
0.000245056
0.000255157
0.000260393
0.000259644
0.000255146
0.00025044
0.00024546
0.00024017
0.00023454
0.000228542
0.000222161
0.000215389
0.000208229
0.000200694
0.000192733
0.00018455
0.000176199
0.000167736
0.000159216
0.000150695
0.000142225
0.000133856
0.000125631
0.000117593
0.000109776
0.00010221
9.492e-05
8.79262e-05
8.12435e-05
7.48827e-05
6.88504e-05
6.31499e-05
5.77811e-05
5.27411e-05
4.80248e-05
4.36249e-05
3.95326e-05
3.57376e-05
3.22325e-05
4.64474e-07
1.15014e-07
3.82863e-08
1.60925e-08
8.09066e-09
4.65789e-09
2.97115e-09
2.0486e-09
1.4999e-09
1.15088e-09
9.17027e-10
7.54172e-10
6.38582e-10
5.5768e-10
5.06459e-10
4.85562e-10
5.02035e-10
5.70335e-10
7.14169e-10
9.73134e-10
1.39949e-09
2.08075e-09
3.11791e-09
4.68332e-09
6.95794e-09
1.02465e-08
1.48496e-08
2.12492e-08
2.99055e-08
4.15036e-08
5.66879e-08
7.6332e-08
1.01248e-07
1.32427e-07
1.70762e-07
2.17223e-07
2.72612e-07
3.37652e-07
4.12748e-07
4.98002e-07
5.92943e-07
6.96481e-07
8.0663e-07
9.20449e-07
1.03384e-06
1.14156e-06
1.23713e-06
1.31311e-06
1.36146e-06
1.37401e-06
1.35922e-06
1.34345e-06
1.32619e-06
1.30717e-06
1.28635e-06
1.26372e-06
1.23924e-06
1.21294e-06
1.18482e-06
1.15491e-06
1.12327e-06
1.08997e-06
1.0551e-06
1.02124e-06
9.86267e-07
9.50315e-07
9.1354e-07
8.76106e-07
8.38182e-07
7.99943e-07
7.61562e-07
7.23216e-07
6.85073e-07
6.47298e-07
6.10048e-07
5.73469e-07
5.37697e-07
5.02854e-07
4.69049e-07
4.36379e-07
4.04924e-07
3.74753e-07
3.45919e-07
3.18462e-07
2.92409e-07
2.67776e-07
2.44566e-07
2.22797e-07
4.64501e-07
1.15019e-07
3.82879e-08
1.60932e-08
8.09097e-09
4.65804e-09
2.97125e-09
2.04862e-09
1.4998e-09
1.15047e-09
9.15802e-10
7.50987e-10
6.30967e-10
5.40848e-10
4.71461e-10
4.16869e-10
3.7317e-10
3.37701e-10
3.08633e-10
2.8474e-10
2.65157e-10
2.49462e-10
2.3733e-10
2.28992e-10
2.24528e-10
2.24868e-10
2.30499e-10
2.43152e-10
2.6381e-10
2.95042e-10
3.38431e-10
3.97259e-10
4.73687e-10
5.713e-10
6.92428e-10
8.40152e-10
1.01593e-09
1.22091e-09
1.45376e-09
1.71142e-09
1.98687e-09
2.26967e-09
2.5439e-09
2.78897e-09
2.97853e-09
3.08241e-09
3.13741e-09
3.19786e-09
3.26277e-09
3.33179e-09
3.40677e-09
3.49326e-09
3.59937e-09
3.73693e-09
3.92321e-09
4.18311e-09
4.55229e-09
5.0813e-09
5.84115e-09
6.93048e-09
8.48479e-09
1.06871e-08
1.37797e-08
1.60923e-08
1.87826e-08
2.18616e-08
2.53286e-08
2.91695e-08
3.33552e-08
3.78418e-08
4.25703e-08
4.74683e-08
5.24518e-08
5.74284e-08
6.23003e-08
6.69686e-08
7.13363e-08
7.53126e-08
7.88159e-08
8.17767e-08
8.414e-08
8.58664e-08
8.6933e-08
8.73335e-08
8.70774e-08
8.61888e-08
8.47049e-08
8.26799e-08
4.645e-07
1.15019e-07
3.82879e-08
1.60931e-08
8.09097e-09
4.65803e-09
2.97125e-09
2.04862e-09
1.4998e-09
1.15047e-09
9.158e-10
7.50981e-10
6.30958e-10
5.40829e-10
4.71426e-10
4.16809e-10
3.73074e-10
3.37557e-10
3.08452e-10
2.84515e-10
2.6501e-10
2.49428e-10
2.37854e-10
2.30268e-10
2.27698e-10
2.30574e-10
2.41186e-10
2.6055e-10
2.92556e-10
3.39109e-10
4.05904e-10
4.96148e-10
6.17363e-10
7.74585e-10
9.77347e-10
1.23334e-09
1.5551e-09
1.95452e-09
2.44956e-09
3.05936e-09
3.81177e-09
4.7389e-09
5.88639e-09
7.30979e-09
9.08626e-09
1.13134e-08
1.41244e-08
1.76922e-08
2.22505e-08
2.81077e-08
3.56785e-08
4.55136e-08
5.83479e-08
7.51531e-08
9.72094e-08
1.26187e-07
1.64246e-07
2.14156e-07
2.79443e-07
3.6454e-07
4.74935e-07
6.17288e-07
7.99462e-07
9.26167e-07
1.06491e-06
1.21452e-06
1.37341e-06
1.53957e-06
1.71057e-06
1.88368e-06
2.05593e-06
2.22418e-06
2.38528e-06
2.53614e-06
2.67385e-06
2.79581e-06
2.89976e-06
2.9839e-06
3.0469e-06
3.08796e-06
3.10677e-06
3.10355e-06
3.07895e-06
3.03407e-06
2.97036e-06
2.88956e-06
2.79364e-06
2.68483e-06
4.64472e-07
1.15013e-07
3.82861e-08
1.60924e-08
8.09068e-09
4.65787e-09
2.97116e-09
2.04857e-09
1.49983e-09
1.15067e-09
9.16476e-10
7.5286e-10
6.35582e-10
5.51532e-10
4.94284e-10
4.63485e-10
4.63734e-10
5.06872e-10
6.1606e-10
8.2191e-10
1.18948e-09
1.77894e-09
2.74256e-09
4.18477e-09
6.41494e-09
9.60384e-09
1.43029e-08
2.07847e-08
2.99163e-08
4.21219e-08
5.86111e-08
8.00134e-08
1.07849e-07
1.43005e-07
1.87281e-07
2.41893e-07
3.08991e-07
3.90252e-07
4.884e-07
6.05811e-07
7.46164e-07
9.12956e-07
1.11139e-06
1.34678e-06
1.62669e-06
1.95938e-06
2.35606e-06
2.8296e-06
3.39688e-06
4.07802e-06
4.89865e-06
5.8898e-06
7.09001e-06
8.54566e-06
1.03129e-05
1.24582e-05
1.506e-05
1.82094e-05
2.20116e-05
2.65852e-05
3.2061e-05
3.85767e-05
4.62717e-05
5.11239e-05
5.61307e-05
6.12161e-05
6.62991e-05
7.12942e-05
7.6114e-05
8.06727e-05
8.4888e-05
8.86839e-05
9.1993e-05
9.47586e-05
9.69358e-05
9.84929e-05
9.94118e-05
9.96882e-05
9.9331e-05
9.83612e-05
9.6811e-05
9.4722e-05
9.21438e-05
8.91318e-05
8.57454e-05
8.20468e-05
7.80985e-05
7.3964e-05
4.64413e-07
1.15002e-07
3.82824e-08
1.6091e-08
8.09004e-09
4.6577e-09
2.97183e-09
2.05211e-09
1.51234e-09
1.19053e-09
1.02924e-09
1.05087e-09
1.35227e-09
2.18169e-09
3.93435e-09
7.41231e-09
1.3842e-08
2.5306e-08
4.53453e-08
7.84955e-08
1.33915e-07
2.20023e-07
3.57647e-07
5.6062e-07
8.70526e-07
1.30841e-06
1.94717e-06
2.8175e-06
4.03166e-06
5.63308e-06
7.77398e-06
1.05137e-05
1.40363e-05
1.84198e-05
2.38706e-05
3.04892e-05
3.85039e-05
4.80413e-05
5.93631e-05
7.26254e-05
8.81387e-05
0.000106096
0.000126871
0.000150709
0.000178058
0.000209244
0.000244802
0.000285176
0.000331014
0.000382922
0.000441702
0.000508165
0.000583292
0.000668089
0.000763696
0.000871266
0.000992041
0.00112726
0.00127816
0.00144592
0.00163147
0.00183535
0.00205754
0.00217752
0.0022924
0.00240019
0.00249899
0.00258705
0.00266287
0.0027252
0.00277306
0.00280579
0.00282298
0.00282453
0.00281065
0.00278177
0.00273862
0.00268211
0.00261336
0.00253363
0.00244427
0.00234673
0.00224249
0.002133
0.00201972
0.00190402
0.00178721
0.0016705
4.64335e-07
1.14987e-07
3.82775e-08
1.60892e-08
8.09245e-09
4.68033e-09
3.07957e-09
2.48159e-09
2.93915e-09
5.57531e-09
1.31722e-08
3.25505e-08
7.62198e-08
1.70735e-07
3.57827e-07
7.19472e-07
1.38174e-06
2.55668e-06
4.59986e-06
7.97038e-06
1.35625e-05
2.22118e-05
3.58949e-05
5.59399e-05
8.61919e-05
0.000128574
0.000189639
0.000271979
0.00038535
0.000533066
0.000727853
0.000973813
0.00128569
0.00166844
0.00213771
0.0026992
0.00336874
0.00415208
0.00506472
0.00611111
0.00730556
0.0086497