/*--------------------------------*- C++ -*----------------------------------*\
| =========                 |                                                 |
| \\      /  F ield         | OpenFOAM: The Open Source CFD Toolbox           |
|  \\    /   O peration     | Version:  5.x                                   |
|   \\  /    A nd           | Web:      www.OpenFOAM.org                      |
|    \\/     M anipulation  |                                                 |
\*---------------------------------------------------------------------------*/
FoamFile
{
    version     2.0;
    format      ascii;
    class       volScalarField;
    location    "200";
    object      nut;
}
// * * * * * * * * * * * * * * * * * * * * * * * * * * * * * * * * * * * * * //

dimensions      [0 2 -1 0 0 0 0];

internalField   nonuniform List<scalar> 
20540
(
2.10937e-10
3.19213e-11
2.10937e-10
6.41824e-11
2.10937e-10
1.51947e-10
2.10937e-10
3.20488e-10
2.10937e-10
5.98036e-10
2.10937e-10
1.00788e-09
2.10937e-10
1.55707e-09
2.10937e-10
2.21952e-09
2.10937e-10
2.91481e-09
2.10937e-10
3.48811e-09
2.10937e-10
3.70734e-09
2.10937e-10
3.31904e-09
2.10937e-10
2.25187e-09
2.10937e-10
9.70007e-10
2.10937e-10
2.4483e-10
2.10937e-10
6.76437e-11
2.10937e-10
4.14357e-11
2.10937e-10
3.7783e-11
2.10937e-10
3.7232e-11
2.10937e-10
3.71411e-11
2.10937e-10
3.71268e-11
2.10937e-10
3.71258e-11
2.10937e-10
3.71273e-11
2.10937e-10
3.71297e-11
2.10937e-10
3.71327e-11
2.10937e-10
3.71362e-11
2.10937e-10
3.71402e-11
2.10937e-10
3.71446e-11
2.10937e-10
3.71491e-11
2.10937e-10
3.71533e-11
2.10937e-10
3.71563e-11
2.10937e-10
3.71578e-11
2.10937e-10
3.71578e-11
2.10937e-10
3.71563e-11
2.10937e-10
3.71534e-11
2.10937e-10
3.71493e-11
2.10937e-10
3.7145e-11
2.10937e-10
3.71408e-11
2.10937e-10
3.71369e-11
2.10937e-10
3.71335e-11
2.10937e-10
3.71305e-11
2.10937e-10
3.71281e-11
2.10937e-10
3.71264e-11
2.10937e-10
3.71262e-11
2.10937e-10
3.71328e-11
2.10937e-10
3.71768e-11
2.10937e-10
3.74298e-11
2.10937e-10
3.89609e-11
2.10937e-10
4.91609e-11
2.10937e-10
1.18771e-10
2.10937e-10
4.94697e-10
2.10937e-10
1.51218e-09
2.10937e-10
2.77238e-09
2.10937e-10
3.57451e-09
2.10937e-10
3.71846e-09
2.10937e-10
3.36469e-09
2.10937e-10
2.75059e-09
2.10937e-10
2.06929e-09
2.10937e-10
1.44319e-09
2.10937e-10
9.327e-10
2.10937e-10
5.54354e-10
2.10937e-10
2.98455e-10
2.10937e-10
1.42675e-10
2.10937e-10
6.1147e-11
2.10937e-10
3.09176e-11
1.75492e-06
1.721e-06
1.60128e-06
1.51249e-06
1.44664e-06
1.39678e-06
1.35825e-06
1.32786e-06
1.30319e-06
1.28254e-06
1.26475e-06
1.24911e-06
1.2352e-06
1.22273e-06
1.21145e-06
1.2011e-06
1.19145e-06
1.18229e-06
1.1735e-06
1.16498e-06
1.15667e-06
1.14855e-06
1.14057e-06
1.1327e-06
1.12491e-06
1.11718e-06
1.10946e-06
1.10177e-06
1.09407e-06
1.08638e-06
1.07868e-06
1.07097e-06
1.06326e-06
1.05554e-06
1.04783e-06
1.04013e-06
1.03246e-06
1.02483e-06
1.01724e-06
1.00971e-06
1.00224e-06
9.94854e-07
9.87556e-07
9.80362e-07
9.73289e-07
9.66354e-07
9.59576e-07
9.52972e-07
9.4656e-07
9.40356e-07
9.34377e-07
9.28638e-07
9.23159e-07
9.17958e-07
9.13055e-07
9.0847e-07
9.04224e-07
9.00329e-07
8.96804e-07
8.93658e-07
8.90925e-07
8.88645e-07
8.86888e-07
8.83814e-07
8.80954e-07
8.78233e-07
8.75709e-07
8.73326e-07
8.71131e-07
8.69114e-07
8.6731e-07
8.65686e-07
8.64248e-07
8.62968e-07
8.61854e-07
8.60906e-07
8.60132e-07
8.59551e-07
8.59161e-07
8.58994e-07
8.5906e-07
8.59412e-07
8.60098e-07
8.61269e-07
8.63045e-07
8.66385e-07
8.72735e-07
9.07342e-07
3.45427e-05
3.84524e-05
3.80514e-05
3.73539e-05
3.67302e-05
3.62126e-05
3.57892e-05
3.54426e-05
3.51545e-05
3.49092e-05
3.46943e-05
3.45015e-05
3.43257e-05
3.41639e-05
3.40138e-05
3.38729e-05
3.37388e-05
3.36096e-05
3.34839e-05
3.33607e-05
3.32393e-05
3.31195e-05
3.30009e-05
3.28834e-05
3.27665e-05
3.26498e-05
3.25331e-05
3.24162e-05
3.22991e-05
3.21815e-05
3.20635e-05
3.19449e-05
3.18259e-05
3.17064e-05
3.15866e-05
3.14665e-05
3.13465e-05
3.12265e-05
3.11068e-05
3.09876e-05
3.08691e-05
3.07513e-05
3.06345e-05
3.05189e-05
3.04046e-05
3.02921e-05
3.01815e-05
3.00731e-05
2.99672e-05
2.98641e-05
2.97638e-05
2.96668e-05
2.9573e-05
2.94828e-05
2.93963e-05
2.93137e-05
2.92352e-05
2.91608e-05
2.90909e-05
2.90257e-05
2.8965e-05
2.89112e-05
2.88603e-05
2.87809e-05
2.87094e-05
2.86426e-05
2.85778e-05
2.85145e-05
2.84533e-05
2.83931e-05
2.83345e-05
2.82768e-05
2.82205e-05
2.81651e-05
2.81108e-05
2.80574e-05
2.80049e-05
2.79533e-05
2.79025e-05
2.78524e-05
2.78028e-05
2.77535e-05
2.77036e-05
2.76536e-05
2.75993e-05
2.7556e-05
2.74723e-05
2.75334e-05
6.18592e-05
7.57138e-05
7.71286e-05
7.67157e-05
7.6029e-05
7.5356e-05
7.47597e-05
7.4249e-05
7.38136e-05
7.3437e-05
7.31026e-05
7.27977e-05
7.2514e-05
7.22469e-05
7.19935e-05
7.17512e-05
7.15173e-05
7.12895e-05
7.10659e-05
7.08451e-05
7.06265e-05
7.04097e-05
7.01946e-05
6.99809e-05
6.9768e-05
6.95555e-05
6.9343e-05
6.91303e-05
6.89171e-05
6.87032e-05
6.84886e-05
6.8273e-05
6.80566e-05
6.78394e-05
6.76215e-05
6.74032e-05
6.71847e-05
6.69663e-05
6.67482e-05
6.65309e-05
6.63144e-05
6.60992e-05
6.58855e-05
6.56736e-05
6.54639e-05
6.52567e-05
6.50523e-05
6.48513e-05
6.46539e-05
6.44605e-05
6.42714e-05
6.40868e-05
6.39067e-05
6.37312e-05
6.35603e-05
6.33939e-05
6.32321e-05
6.30747e-05
6.29219e-05
6.27738e-05
6.26295e-05
6.24957e-05
6.23556e-05
6.21533e-05
6.1968e-05
6.17955e-05
6.16254e-05
6.1457e-05
6.12909e-05
6.1124e-05
6.09564e-05
6.0787e-05
6.06169e-05
6.04454e-05
6.02732e-05
6.00995e-05
5.99241e-05
5.97469e-05
5.95674e-05
5.93854e-05
5.91998e-05
5.90095e-05
5.88119e-05
5.86055e-05
5.83774e-05
5.8159e-05
5.78204e-05
5.80884e-05
8.79108e-05
0.000115104
0.000119946
0.000120425
0.000119941
0.000119244
0.000118544
0.000117906
0.000117342
0.000116844
0.000116396
0.000115983
0.000115595
0.000115225
0.000114871
0.00011453
0.000114198
0.000113874
0.000113554
0.000113238
0.000112925
0.000112613
0.000112304
0.000111996
0.000111688
0.000111381
0.000111074
0.000110766
0.000110457
0.000110146
0.000109834
0.00010952
0.000109205
0.000108887
0.000108569
0.000108249
0.000107929
0.000107607
0.000107286
0.000106965
0.000106645
0.000106326
0.000106008
0.000105691
0.000105377
0.000105066
0.000104758
0.000104453
0.000104152
0.000103856
0.000103564
0.000103277
0.000102994
0.000102716
0.000102442
0.000102172
0.000101905
0.000101642
0.000101382
0.000101124
0.000100867
0.000100622
0.000100358
9.99964e-05
9.96513e-05
9.93257e-05
9.90041e-05
9.86842e-05
9.83671e-05
9.80475e-05
9.77249e-05
9.73965e-05
9.70642e-05
9.67271e-05
9.63864e-05
9.6041e-05
9.56909e-05
9.53356e-05
9.49743e-05
9.46072e-05
9.42324e-05
9.3849e-05
9.3453e-05
9.30429e-05
9.26012e-05
9.21771e-05
9.16375e-05
9.22101e-05
0.000112868
0.000157139
0.000167586
0.00016988
0.000170029
0.000169532
0.000168854
0.000168162
0.000167516
0.000166927
0.000166386
0.000165883
0.000165405
0.000164947
0.000164507
0.000164081
0.000163666
0.000163259
0.000162858
0.000162461
0.000162066
0.000161674
0.000161283
0.000160894
0.000160504
0.000160114
0.000159722
0.000159328
0.000158931
0.000158532
0.000158129
0.000157722
0.000157313
0.000156899
0.000156483
0.000156063
0.000155641
0.000155217
0.000154791
0.000154364
0.000153937
0.000153509
0.000153081
0.000152654
0.000152228
0.000151803
0.000151381
0.000150961
0.000150543
0.000150129
0.000149719
0.000149311
0.000148907
0.000148505
0.000148106
0.000147708
0.000147311
0.000146913
0.000146514
0.000146114
0.000145709
0.000145314
0.000144886
0.000144327
0.000143771
0.000143236
0.000142706
0.000142176
0.00014165
0.00014112
0.000140584
0.000140038
0.000139484
0.000138921
0.00013835
0.00013777
0.000137182
0.000136585
0.000135978
0.000135361
0.000134733
0.000134092
0.000133435
0.000132762
0.000132053
0.000131379
0.000130653
0.000131426
0.000136188
0.000201547
0.000220462
0.000225944
0.000227409
0.000227489
0.000227057
0.000226452
0.000225818
0.000225205
0.000224623
0.000224072
0.000223543
0.000223033
0.00022254
0.000222062
0.000221595
0.000221137
0.000220685
0.000220236
0.00021979
0.000219345
0.000218901
0.000218456
0.000218009
0.00021756
0.000217106
0.000216647
0.000216182
0.000215711
0.000215233
0.000214749
0.000214257
0.000213758
0.000213252
0.000212741
0.000212223
0.0002117
0.000211173
0.000210641
0.000210106
0.000209567
0.000209025
0.000208481
0.000207936
0.000207389
0.000206841
0.000206294
0.000205746
0.000205198
0.00020465
0.000204102
0.000203553
0.000203003
0.00020245
0.000201894
0.000201334
0.000200768
0.000200194
0.000199611
0.000199016
0.000198425
0.000197785
0.00019699
0.00019617
0.000195361
0.000194557
0.00019375
0.000192945
0.000192134
0.000191315
0.000190482
0.000189635
0.000188774
0.0001879
0.000187013
0.000186113
0.0001852
0.000184273
0.000183333
0.000182378
0.000181408
0.000180419
0.000179414
0.000178378
0.000177407
0.000176476
0.00017728
0.000156928
0.000247507
0.000278514
0.000289149
0.000292979
0.000294239
0.000294426
0.000294156
0.000293704
0.000293192
0.000292668
0.000292151
0.000291643
0.000291147
0.000290662
0.000290189
0.000289725
0.000289268
0.000288816
0.000288366
0.000287915
0.000287464
0.00028701
0.000286553
0.00028609
0.00028562
0.00028514
0.00028465
0.000284148
0.000283634
0.000283108
0.000282568
0.000282016
0.00028145
0.000280871
0.000280281
0.000279679
0.000279066
0.000278444
0.000277811
0.000277169
0.000276519
0.00027586
0.000275194
0.000274521
0.000273842
0.000273157
0.000272467
0.000271771
0.000271069
0.000270362
0.000269648
0.000268927
0.000268198
0.000267459
0.00026671
0.000265948
0.000265171
0.000264377
0.000263565
0.00026273
0.000261888
0.000260981
0.00025991
0.000258774
0.000257626
0.000256477
0.000255316
0.000254153
0.00025298
0.000251798
0.000250596
0.000249376
0.000248136
0.000246877
0.000245601
0.000244307
0.000242997
0.000241669
0.000240325
0.000238963
0.000237586
0.000236191
0.000234786
0.00023336
0.000232043
0.000230869
0.000231562
0.000173812
0.000293611
0.000341128
0.000359626
0.000367371
0.000370742
0.000372144
0.00037261
0.000372629
0.000372432
0.000372136
0.000371793
0.000371428
0.000371054
0.000370677
0.000370301
0.000369926
0.000369552
0.000369177
0.000368799
0.000368415
0.000368024
0.000367626
0.000367217
0.000366796
0.000366359
0.000365905
0.000365431
0.000364938
0.000364422
0.000363884
0.000363324
0.00036274
0.000362134
0.000361505
0.000360856
0.000360186
0.000359496
0.000358787
0.00035806
0.000357315
0.000356552
0.000355773
0.000354979
0.000354169
0.000353345
0.000352506
0.000351654
0.000350788
0.000349908
0.000349013
0.000348103
0.000347176
0.00034623
0.000345265
0.000344279
0.000343269
0.000342232
0.000341166
0.00034007
0.000338937
0.000337782
0.000336546
0.000335158
0.000333657
0.000332107
0.000330539
0.000328945
0.00032734
0.00032572
0.000324085
0.000322426
0.000320744
0.000319035
0.000317302
0.000315548
0.000313772
0.000311978
0.000310162
0.00030833
0.000306479
0.000304616
0.000302739
0.000300864
0.000298989
0.000297277
0.000295811
0.000296297
0.000185268
0.000337766
0.000406965
0.000436931
0.000450807
0.000457678
0.00046121
0.000463045
0.000463992
0.000464459
0.000464665
0.000464724
0.000464696
0.000464613
0.000464497
0.000464357
0.0004642
0.000464027
0.000463841
0.000463639
0.000463421
0.000463184
0.000462929
0.000462652
0.00046235
0.000462021
0.000461661
0.000461268
0.00046084
0.000460377
0.000459877
0.000459339
0.000458764
0.000458152
0.000457503
0.000456819
0.000456102
0.000455351
0.000454567
0.000453753
0.000452907
0.000452032
0.000451127
0.000450195
0.000449235
0.000448248
0.000447235
0.000446197
0.000445132
0.000444041
0.000442923
0.000441777
0.000440602
0.000439395
0.000438154
0.000436878
0.000435565
0.00043421
0.000432812
0.000431369
0.000429873
0.000428335
0.000426702
0.00042495
0.000423037
0.000421027
0.000418972
0.000416868
0.000414739
0.000412581
0.000410402
0.000408192
0.000405953
0.000403683
0.000401383
0.000399058
0.000396708
0.000394339
0.000391947
0.000389539
0.000387116
0.000384685
0.00038225
0.000379835
0.000377449
0.000375292
0.000373483
0.000373693
0.000189498
0.000377089
0.000473741
0.000519783
0.000542856
0.00055524
0.000562267
0.000566435
0.000569019
0.00057069
0.000571827
0.00057264
0.000573246
0.000573715
0.000574086
0.000574387
0.000574633
0.000574832
0.000574991
0.00057511
0.000575192
0.000575236
0.000575241
0.000575205
0.000575126
0.000574998
0.00057482
0.000574589
0.000574303
0.00057396
0.000573559
0.0005731
0.000572582
0.000572006
0.000571374
0.000570687
0.000569946
0.000569152
0.000568308
0.000567413
0.00056647
0.000565478
0.000564439
0.000563355
0.000562226
0.000561053
0.000559838
0.00055858
0.000557279
0.000555936
0.00055455
0.00055312
0.000551643
0.000550118
0.000548543
0.000546915
0.000545233
0.000543492
0.000541692
0.000539831
0.000537898
0.000535901
0.000533794
0.000531621
0.000529249
0.000526728
0.000524124
0.00052144
0.000518706
0.000515925
0.000513112
0.000510257
0.000507367
0.000504439
0.000501476
0.000498485
0.000495466
0.000492428
0.000489368
0.000486295
0.000483211
0.00048013
0.000477058
0.000474028
0.000471066
0.000468399
0.000466185
0.000466044
0.000184634
0.000407822
0.000537975
0.000605742
0.000642108
0.000662832
0.000675334
0.000683263
0.000688548
0.000692244
0.000694964
0.000697064
0.000698753
0.000700156
0.000701352
0.000702389
0.000703303
0.000704113
0.000704835
0.000705475
0.000706041
0.000706532
0.000706953
0.000707302
0.000707577
0.000707774
0.00070789
0.000707923
0.000707872
0.000707734
0.000707509
0.000707196
0.000706796
0.000706309
0.000705738
0.000705083
0.000704348
0.000703533
0.000702642
0.000701674
0.000700633
0.000699518
0.000698332
0.000697077
0.000695754
0.000694364
0.000692909
0.000691389
0.000689805
0.000688158
0.000686447
0.00068467
0.000682827
0.000680915
0.000678934
0.000676879
0.000674752
0.000672546
0.000670263
0.000667902
0.000665449
0.000662908
0.000660243
0.000657577
0.00065469
0.000651605
0.000648394
0.000645064
0.000641655
0.000638172
0.000634637
0.000631047
0.00062741
0.000623727
0.000620003
0.000616248
0.000612462
0.000608658
0.000604832
0.000600998
0.00059716
0.000593334
0.000589534
0.000585803
0.000582182
0.000578919
0.000576209
0.000575588
0.000169041
0.000425321
0.00059473
0.000690812
0.000745737
0.000778651
0.000799421
0.000813174
0.000822723
0.000829657
0.000834929
0.00083911
0.000842545
0.000845448
0.000847955
0.000850157
0.000852117
0.000853876
0.000855464
0.0008569
0.000858197
0.000859364
0.000860408
0.00086133
0.000862132
0.000862811
0.000863366
0.000863795
0.000864096
0.000864271
0.000864317
0.000864236
0.000864028
0.000863694
0.000863238
0.000862661
0.000861966
0.000861157
0.000860235
0.000859203
0.000858062
0.000856816
0.000855467
0.000854016
0.000852466
0.00085082
0.000849079
0.000847244
0.000845319
0.000843302
0.000841195
0.000838998
0.000836709
0.000834327
0.000831854
0.000829283
0.000826619
0.000823853
0.000820993
0.000818037
0.000814968
0.000811789
0.000808468
0.000805213
0.000801734
0.00079802
0.000794139
0.000790099
0.000785942
0.000781681
0.000777341
0.000772925
0.000768445
0.000763908
0.000759319
0.000754695
0.000750034
0.000745356
0.000740656
0.00073595
0.000731245
0.000726563
0.000721923
0.000717377
0.000712983
0.000708996
0.000705642
0.000704321
0.000141913
0.000424229
0.000637391
0.000769016
0.000848973
0.000899138
0.000932002
0.000954483
0.000970533
0.000982466
0.000991705
0.000999126
0.00100528
0.0010105
0.00101503
0.00101901
0.00102255
0.00102574
0.00102862
0.00103123
0.0010336
0.00103576
0.0010377
0.00103945
0.00104101
0.00104238
0.00104357
0.00104456
0.00104537
0.001046
0.00104644
0.0010467
0.00104678
0.00104668
0.00104641
0.00104597
0.00104536
0.00104459
0.00104367
0.00104258
0.00104134
0.00103996
0.00103843
0.00103675
0.00103494
0.00103299
0.00103091
0.0010287
0.00102636
0.0010239
0.00102131
0.00101861
0.00101578
0.00101283
0.00100976
0.00100656
0.00100325
0.000999818
0.00099627
0.000992607
0.00098881
0.00098488
0.000980789
0.000976815
0.000972632
0.000968193
0.000963556
0.000958722
0.000953735
0.000948607
0.000943369
0.000938028
0.000932599
0.000927095
0.000921523
0.000915908
0.000910246
0.000904562
0.000898851
0.000893134
0.000887419
0.000881733
0.0008761
0.000870579
0.000865244
0.000860341
0.000856108
0.000853767
0.000104423
0.000399004
0.000657574
0.000831967
0.0009445
0.0010183
0.00106833
0.0011035
0.00112918
0.00114861
0.00116384
0.00117618
0.00118644
0.00119517
0.00120273
0.00120937
0.00121528
0.00122057
0.00122534
0.00122967
0.00123359
0.00123716
0.0012404
0.00124333
0.00124596
0.00124831
0.00125038
0.00125217
0.0012537
0.00125496
0.00125597
0.00125672
0.00125722
0.00125747
0.00125749
0.00125727
0.00125682
0.00125614
0.00125524
0.00125413
0.00125281
0.00125129
0.00124956
0.00124764
0.00124553
0.00124323
0.00124075
0.00123809
0.00123527
0.00123227
0.00122911
0.00122579
0.00122231
0.00121868
0.00121489
0.00121095
0.00120687
0.00120263
0.00119827
0.00119376
0.0011891
0.00118428
0.00117928
0.00117442
0.00116936
0.00116405
0.00115853
0.00115277
0.00114683
0.00114072
0.00113446
0.00112806
0.00112154
0.00111493
0.00110822
0.00110146
0.00109463
0.00108776
0.00108086
0.00107394
0.00106701
0.00106011
0.00105327
0.00104654
0.00104001
0.00103391
0.00102845
0.00102466
6.2049e-05
0.000345157
0.000645349
0.000868545
0.00102183
0.00112691
0.00120056
0.00125369
0.00129325
0.00132364
0.0013477
0.0013673
0.00138366
0.00139759
0.00140964
0.0014202
0.00142956
0.00143793
0.00144545
0.00145225
0.00145841
0.001464
0.00146908
0.00147368
0.00147783
0.00148155
0.00148486
0.00148778
0.00149032
0.00149249
0.0014943
0.00149575
0.00149686
0.00149764
0.00149808
0.00149821
0.00149802
0.00149753
0.00149674
0.00149566
0.00149429
0.00149264
0.00149073
0.00148855
0.00148611
0.00148343
0.0014805
0.00147733
0.00147394
0.00147032
0.00146649
0.00146245
0.0014582
0.00145375
0.00144911
0.00144428
0.00143927
0.00143408
0.00142875
0.00142323
0.00141754
0.00141166
0.00140557
0.00139959
0.00139344
0.00138704
0.00138042
0.00137354
0.00136645
0.00135916
0.00135168
0.00134404
0.00133624
0.0013283
0.00132024
0.0013121
0.00130386
0.00129556
0.00128721
0.00127881
0.00127039
0.00126197
0.0012536
0.00124533
0.00123724
0.00122952
0.00122235
0.00121656
2.71605e-05
0.000261919
0.000590208
0.000864855
0.00106673
0.00121169
0.00131678
0.00139456
0.0014536
0.0014996
0.00153638
0.00156652
0.00159176
0.00161325
0.00163184
0.00164811
0.00166249
0.0016753
0.00168679
0.00169714
0.0017065
0.00171499
0.00172269
0.00172966
0.00173596
0.00174163
0.00174671
0.00175123
0.0017552
0.00175866
0.00176162
0.00176409
0.0017661
0.00176765
0.00176875
0.00176943
0.00176968
0.00176952
0.00176897
0.00176802
0.00176669
0.00176499
0.00176293
0.00176052
0.00175776
0.00175468
0.00175127
0.00174755
0.00174353
0.00173921
0.00173462
0.00172974
0.0017246
0.00171921
0.00171357
0.00170769
0.00170159
0.00169527
0.00168877
0.00168205
0.00167512
0.00166797
0.00166057
0.00165318
0.00164564
0.00163784
0.0016298
0.0016215
0.00161297
0.00160419
0.00159521
0.00158601
0.00157661
0.00156704
0.00155731
0.00154744
0.00153745
0.00152735
0.00151715
0.00150688
0.00149654
0.00148618
0.00147581
0.0014655
0.00145533
0.00144542
0.00143589
0.00142743
8.94081e-06
0.000157651
0.000483735
0.000804931
0.00106103
0.00125453
0.00139995
0.00151048
0.00159607
0.00166374
0.00171842
0.00176351
0.00180141
0.00183375
0.00186173
0.00188618
0.00190777
0.00192696
0.00194414
0.00195959
0.00197353
0.00198615
0.00199758
0.00200793
0.0020173
0.00202576
0.00203336
0.00204015
0.00204619
0.00205151
0.00205614
0.00206011
0.00206344
0.00206616
0.00206828
0.00206983
0.00207081
0.00207124
0.00207115
0.00207053
0.00206941
0.0020678
0.00206571
0.00206316
0.00206015
0.00205671
0.00205285
0.00204858
0.0020439
0.00203885
0.00203342
0.00202763
0.0020215
0.00201503
0.00200826
0.00200117
0.0019938
0.00198616
0.00197829
0.00197014
0.00196172
0.00195304
0.00194405
0.00193489
0.00192556
0.00191596
0.0019061
0.00189594
0.00188552
0.00187483
0.00186387
0.00185267
0.00184122
0.00182954
0.00181764
0.00180555
0.00179328
0.00178084
0.00176825
0.00175552
0.00174267
0.00172973
0.00171672
0.00170368
0.00169069
0.00167781
0.00166511
0.0016531
2.42984e-06
6.24212e-05
0.000326771
0.000673414
0.00098318
0.00123212
0.00142692
0.00157936
0.0017
0.0017969
0.0018761
0.00194194
0.00199754
0.00204514
0.00208637
0.00212243
0.00215425
0.00218252
0.00220779
0.00223048
0.00225095
0.00226945
0.00228621
0.0023014
0.00231515
0.00232758
0.0023388
0.00234889
0.00235791
0.00236594
0.00237301
0.00237919
0.0023845
0.00238899
0.00239268
0.0023956
0.00239778
0.00239923
0.00239997
0.00240004
0.00239943
0.00239818
0.00239631
0.00239382
0.00239075
0.0023871
0.00238289
0.00237814
0.00237288
0.00236711
0.00236085
0.00235412
0.00234694
0.00233933
0.0023313
0.00232286
0.00231407
0.00230493
0.00229546
0.00228563
0.00227546
0.00226495
0.00225402
0.00224266
0.00223107
0.00221917
0.00220694
0.00219438
0.00218149
0.00216827
0.00215473
0.00214088
0.00212672
0.00211225
0.0020975
0.00208247
0.00206719
0.00205166
0.00203589
0.00201989
0.00200368
0.00198729
0.00197073
0.00195403
0.00193723
0.00192037
0.00190344
0.00188681
5.68078e-07
1.52897e-05
0.000149448
0.000464031
0.000811319
0.00111666
0.00136806
0.00157162
0.00173671
0.00187176
0.0019836
0.00207745
0.00215724
0.00222584
0.00228544
0.00233767
0.00238381
0.00242483
0.00246149
0.00249441
0.0025241
0.00255094
0.00257526
0.00259733
0.00261733
0.00263547
0.00265188
0.00266671
0.00268006
0.00269203
0.0027027
0.00271214
0.00272042
0.00272759
0.00273369
0.00273877
0.00274286
0.002746
0.00274821
0.00274951
0.00274995
0.00274954
0.00274831
0.00274629
0.00274349
0.00273994
0.00273566
0.00273068
0.00272501
0.00271869
0.00271172
0.00270413
0.00269595
0.00268719
0.00267788
0.00266804
0.00265771
0.00264692
0.00263566
0.00262391
0.00261171
0.00259904
0.0025858
0.00257176
0.00255739
0.0025426
0.00252739
0.00251174
0.00249567
0.00247916
0.00246225
0.00244491
0.00242717
0.00240903
0.00239049
0.00237157
0.00235228
0.00233263
0.00231262
0.00229227
0.00227158
0.00225057
0.00222925
0.00220764
0.00218576
0.00216361
0.00214115
0.00211853
1.11538e-07
2.74651e-06
3.68778e-05
0.000210751
0.000534865
0.000880176
0.00118855
0.00144992
0.00166846
0.0018512
0.00200494
0.00213547
0.00224741
0.00234424
0.00242874
0.00250305
0.00256887
0.00262749
0.00267996
0.00272713
0.0027697
0.00280823
0.00284319
0.00287496
0.00290383
0.00293008
0.00295393
0.00297556
0.00299515
0.00301284
0.00302876
0.00304301
0.00305569
0.00306688
0.00307665
0.00308506
0.00309217
0.00309801
0.00310264
0.00310609
0.0031084
0.00310961
0.00310975
0.00310885
0.00310694
0.00310405
0.00310022
0.00309546
0.00308982
0.0030833
0.00307594
0.00306777
0.0030588
0.00304906
0.0030386
0.00302741
0.00301557
0.00300308
0.00298993
0.0029761
0.00296164
0.00294652
0.00293062
0.00291341
0.0028957
0.00287741
0.00285853
0.00283906
0.00281899
0.00279833
0.0027771
0.0027553
0.00273294
0.00271002
0.00268655
0.00266253
0.00263799
0.00261292
0.00258732
0.00256122
0.0025346
0.00250749
0.00247989
0.00245181
0.00242325
0.00239419
0.00236459
0.00233433
1.50394e-08
4.05721e-07
5.50671e-06
4.70637e-05
0.000210327
0.000513803
0.000855804
0.00117186
0.0014489
0.00168754
0.00189245
0.00206912
0.00222233
0.00235593
0.00247326
0.00257699
0.00266924
0.00275168
0.00282566
0.00289232
0.00295259
0.00300728
0.00305701
0.0031023
0.00314359
0.00318125
0.00321558
0.00324688
0.00327536
0.00330127
0.00332476
0.003346
0.00336513
0.00338227
0.00339752
0.00341097
0.0034227
0.00343277
0.00344125
0.00344819
0.00345365
0.00345767
0.0034603
0.00346158
0.00346156
0.00346026
0.00345774
0.00345401
0.00344912
0.0034431
0.00343598
0.00342777
0.00341852
0.00340825
0.00339699
0.00338478
0.00337166
0.00335762
0.00334265
0.00332674
0.00330993
0.0032922
0.00327338
0.00325261
0.00323107
0.00320871
0.00318552
0.00316148
0.00313661
0.0031109
0.00308438
0.00305705
0.00302891
0.00299998
0.00297027
0.00293978
0.00290853
0.00287651
0.00284374
0.00281022
0.00277597
0.00274098
0.00270526
0.00266883
0.00263169
0.00259382
0.00255518
0.00251534
6.733e-10
4.81417e-08
6.30848e-07
5.7456e-06
3.66004e-05
0.000149238
0.000386798
0.000705741
0.00102997
0.00132494
0.00158678
0.00181807
0.00202171
0.00220118
0.00236023
0.00250194
0.00262876
0.00274259
0.00284512
0.0029378
0.00302189
0.00309844
0.00316827
0.0032321
0.00329047
0.0033439
0.0033928
0.00343757
0.00347854
0.00351601
0.00355025
0.00358148
0.00360988
0.00363565
0.00365891
0.00367979
0.00369841
0.00371487
0.00372925
0.00374162
0.00375208
0.00376067
0.00376746
0.0037725
0.00377586
0.00377758
0.00377771
0.00377629
0.00377336
0.00376896
0.00376312
0.00375587
0.00374724
0.00373727
0.00372598
0.00371342
0.00369962
0.0036845
0.0036681
0.00365041
0.00363144
0.00361119
0.00358942
0.0035649
0.00353926
0.00351245
0.00348446
0.00345528
0.00342492
0.00339339
0.00336068
0.00332682
0.00329181
0.00325566
0.00321839
0.00318001
0.00314052
0.00309995
0.00305829
0.00301555
0.00297177
0.00292694
0.0028811
0.00283425
0.00278643
0.00273764
0.00268784
0.00263628
2.28036e-11
3.88166e-09
5.87372e-08
5.1963e-07
3.4524e-06
1.78289e-05
7.00476e-05
0.000199893
0.0004258
0.000718309
0.00102531
0.00131283
0.00157152
0.00180356
0.00201277
0.00220163
0.00237197
0.00252566
0.00266472
0.00279107
0.00290633
0.00301179
0.00310842
0.00319707
0.00327843
0.00335315
0.0034218
0.00348493
0.003543
0.00359643
0.00364557
0.00369074
0.00373219
0.00377016
0.00380485
0.00383643
0.00386504
0.00389083
0.00391393
0.00393443
0.00395243
0.00396804
0.00398133
0.00399239
0.00400128
0.00400806
0.00401281
0.00401557
0.00401638
0.00401531
0.00401237
0.00400762
0.00400108
0.00399278
0.00398275
0.00397104
0.00395762
0.00394242
0.00392546
0.00390674
0.00388626
0.00386401
0.00383969
0.00381163
0.00378199
0.00375072
0.00371782
0.00368328
0.0036471
0.00360927
0.00356981
0.00352873
0.00348602
0.00344171
0.0033958
0.00334832
0.00329927
0.00324868
0.00319656
0.00314294
0.00308785
0.00303133
0.00297341
0.00291416
0.00285361
0.00279184
0.0027288
0.0026635
1.03513e-11
9.8844e-11
4.02133e-09
3.77464e-08
2.44807e-07
1.26543e-06
5.47716e-06
2.01428e-05
6.17435e-05
0.000153364
0.000311577
0.000534153
0.00079847
0.00107445
0.00133947
0.00158298
0.00180349
0.00200354
0.00218637
0.00235448
0.00250942
0.00265223
0.0027837
0.00290465
0.00301592
0.00311843
0.00321298
0.00330035
0.00338118
0.00345605
0.00352538
0.00358958
0.00364897
0.00370383
0.0037544
0.00380092
0.00384359
0.00388258
0.00391807
0.00395022
0.00397916
0.00400502
0.00402793
0.00404798
0.00406528
0.00407991
0.00409195
0.00410147
0.00410853
0.00411318
0.00411547
0.00411545
0.00411313
0.00410856
0.00410177
0.00409278
0.00408149
0.00406784
0.00405184
0.00403349
0.00401277
0.00398967
0.00396382
0.00393302
0.00390007
0.00386495
0.00382764
0.00378813
0.0037464
0.00370246
0.00365629
0.0036079
0.0035573
0.0035045
0.00344951
0.00339234
0.00333303
0.00327159
0.00320808
0.00314253
0.00307501
0.00300559
0.00293434
0.00286137
0.00278677
0.00271067
0.00263309
0.00255294
1.00187e-11
5.15072e-12
1.24448e-10
2.05038e-09
1.37987e-08
6.96439e-08
2.94789e-07
1.09334e-06
3.62565e-06
1.08168e-05
2.88276e-05
6.7657e-05
0.000138752
0.000250709
0.000405874
0.00059906
0.000818719
0.00105054
0.00128156
0.00150262
0.00170882
0.00189861
0.00207252
0.00223213
0.00237925
0.00251556
0.00264237
0.00276069
0.00287121
0.00297447
0.00307084
0.00316069
0.00324431
0.003322
0.00339406
0.00346079
0.00352247
0.00357937
0.00363173
0.0036798
0.00372378
0.00376386
0.00380022
0.003833
0.00386233
0.00388834
0.00391112
0.00393075
0.00394733
0.0039609
0.00397153
0.00397926
0.00398412
0.00398614
0.00398535
0.00398178
0.00397517
0.00396553
0.00395282
0.00393704
0.00391815
0.00389613
0.00387059
0.00383861
0.00380384
0.00376627
0.00372588
0.00368265
0.00363656
0.0035876
0.00353575
0.00348101
0.00342339
0.0033629
0.00329956
0.00323339
0.00316445
0.00309277
0.00301845
0.00294157
0.00286224
0.00278059
0.00269677
0.00261097
0.00252336
0.00243416
0.00234354
0.00225063
1.00122e-11
3.77551e-12
3.17564e-12
5.30834e-11
5.63159e-10
2.98803e-09
1.24218e-08
4.4983e-08
1.46729e-07
4.38849e-07
1.20907e-06
3.07908e-06
7.26528e-06
1.59355e-05
3.24659e-05
6.12925e-05
0.000107131
0.000173938
0.000264016
0.000377629
0.000512968
0.000666455
0.000833254
0.001008
0.00118545
0.00136112
0.00153149
0.00169415
0.00184766
0.00199134
0.00212513
0.00224931
0.00236441
0.00247107
0.00256995
0.00266168
0.00274684
0.00282595
0.00289945
0.00296772
0.00303107
0.00308975
0.00314399
0.00319395
0.0032398
0.00328165
0.0033196
0.00335375
0.00338417
0.00341092
0.00343405
0.00345361
0.00346962
0.00348212
0.00349112
0.00349662
0.00349828
0.00349606
0.00348994
0.00347988
0.00346585
0.00344779
0.00342534
0.00339453
0.00336024
0.00332251
0.00328131
0.00323662
0.00318843
0.00313674
0.00308154
0.00302286
0.00296072
0.00289516
0.00282626
0.0027541
0.00267878
0.00260044
0.00251924
0.0024354
0.00234912
0.00226068
0.00217036
0.00207849
0.00198541
0.0018915
0.0017971
0.00170192
1.00136e-11
3.74906e-12
1.83542e-12
1.58785e-12
9.9964e-12
8.41527e-11
3.90618e-10
1.41959e-09
4.55607e-09
1.34331e-08
3.66823e-08
9.32036e-08
2.20861e-07
4.91278e-07
1.03225e-06
2.06336e-06
3.94321e-06
7.23339e-06
1.27481e-05
2.15792e-05
3.5047e-05
5.45945e-05
8.1618e-05
0.000117302
0.000162474
0.000217538
0.000282446
0.000356749
0.000439639
0.000530044
0.000626688
0.000728185
0.000833101
0.000940028
0.00104763
0.00115471
0.00126019
0.00136317
0.00146291
0.00155881
0.00165043
0.00173745
0.00181963
0.00189683
0.00196899
0.00203609
0.00209815
0.00215521
0.00220733
0.0022546
0.00229708
0.00233485
0.00236799
0.00239655
0.00242057
0.0024401
0.00245481
0.00246456
0.00246935
0.00246917
0.00246398
0.00245377
0.00243825
0.00241168
0.00238103
0.00234638
0.00230776
0.00226519
0.00221875
0.0021685
0.00211456
0.00205705
0.00199615
0.00193206
0.00186501
0.00179529
0.0017232
0.00164909
0.00157335
0.00149637
0.00141858
0.00134042
0.00126232
0.00118472
0.00110806
0.00103273
0.000959128
0.000887484
1.00154e-11
3.74913e-12
1.8144e-12
1.07004e-12
8.08288e-13
1.35892e-12
6.54432e-12
2.98362e-11
1.02384e-10
3.04419e-10
8.27172e-10
2.08971e-09
4.92807e-09
1.09118e-08
2.28226e-08
4.54535e-08
8.67195e-08
1.59468e-07
2.83526e-07
4.88802e-07
8.18188e-07
1.33221e-06
2.11269e-06
3.26857e-06
4.93775e-06
7.29044e-06
1.05241e-05
1.48609e-05
2.05339e-05
2.77783e-05
3.68137e-05
4.78334e-05
6.09887e-05
7.63825e-05
9.40615e-05
0.000114016
0.00013618
0.000160435