/*--------------------------------*- C++ -*----------------------------------*\
| =========                 |                                                 |
| \\      /  F ield         | OpenFOAM: The Open Source CFD Toolbox           |
|  \\    /   O peration     | Version:  5.x                                   |
|   \\  /    A nd           | Web:      www.OpenFOAM.org                      |
|    \\/     M anipulation  |                                                 |
\*---------------------------------------------------------------------------*/
FoamFile
{
    version     2.0;
    format      ascii;
    class       volScalarField;
    location    "200";
    object      p;
}
// * * * * * * * * * * * * * * * * * * * * * * * * * * * * * * * * * * * * * //

dimensions      [0 2 -2 0 0 0 0];

internalField   nonuniform List<scalar> 
20540
(
64.3192
66.3509
64.3192
66.3512
64.3192
66.3519
64.3192
66.3527
64.3192
66.3533
64.3192
66.3533
64.3192
66.3523
64.3192
66.3501
64.3192
66.3459
64.3192
66.339
64.3192
66.3286
64.3192
66.3137
64.3192
66.2933
64.3192
66.2664
64.3192
66.232
64.3192
66.1892
64.3192
66.1374
64.3192
66.0753
64.3191
66.0013
64.319
65.9136
64.3189
65.8101
64.3187
65.6886
64.3183
65.5473
64.3178
65.3842
64.317
65.1984
64.316
64.9901
64.3146
64.7617
64.3127
64.5189
64.3106
64.2731
64.3082
64.0437
64.3064
63.8837
64.3054
63.8062
64.3054
63.8066
64.3063
63.8851
64.3081
64.0436
64.3103
64.2651
64.3124
64.5032
64.3142
64.7394
64.3156
64.9632
64.3166
65.1685
64.3174
65.353
64.3179
65.5161
64.3183
65.6586
64.3185
65.7818
64.3187
65.8876
64.3188
65.978
64.3189
66.0548
64.3189
66.1197
64.3189
66.1744
64.3189
66.2201
64.319
66.2576
64.319
66.2877
64.319
66.3111
64.319
66.3288
64.319
66.3416
64.319
66.3505
64.3189
66.3564
64.3189
66.36
64.3189
66.3619
64.3189
66.3626
64.3189
66.3625
64.3189
66.3619
64.3189
66.3611
64.3189
66.3604
64.3189
66.3602
60.1128
45.3451
34.0582
25.5934
18.5967
11.9545
5.31759
-1.29068
-7.70023
-13.7043
-19.2692
-24.4362
-29.3139
-34.018
-38.6055
-43.0939
-47.4635
-51.6848
-55.735
-59.6055
-63.2887
-66.7943
-70.1171
-73.2709
-76.25
-79.0706
-81.7325
-84.2558
-86.6463
-88.9242
-91.098
-93.1851
-95.1939
-97.1369
-99.0201
-100.851
-102.633
-104.37
-106.062
-107.711
-109.319
-110.885
-112.413
-113.906
-115.366
-116.798
-118.206
-119.596
-120.97
-122.333
-123.691
-125.048
-126.414
-127.796
-129.209
-130.662
-132.172
-133.743
-135.39
-137.11
-138.912
-140.819
-142.746
-144.627
-146.194
-147.662
-149.181
-150.713
-152.282
-153.885
-155.551
-157.269
-159.05
-160.88
-162.769
-164.71
-166.713
-168.776
-170.905
-173.106
-175.387
-177.765
-180.261
-182.915
-185.764
-188.99
-192.245
-198.166
60.1264
45.3471
34.0588
25.5938
18.5969
11.9547
5.31774
-1.29056
-7.70013
-13.7043
-19.2691
-24.4362
-29.3139
-34.018
-38.6055
-43.0939
-47.4635
-51.6847
-55.735
-59.6055
-63.2887
-66.7943
-70.1171
-73.2709
-76.25
-79.0705
-81.7324
-84.2557
-86.6463
-88.9242
-91.098
-93.1851
-95.1938
-97.1368
-99.0201
-100.851
-102.633
-104.37
-106.062
-107.711
-109.318
-110.885
-112.413
-113.906
-115.366
-116.798
-118.206
-119.595
-120.97
-122.333
-123.691
-125.048
-126.414
-127.796
-129.209
-130.662
-132.172
-133.743
-135.39
-137.11
-138.912
-140.819
-142.746
-144.627
-146.194
-147.662
-149.181
-150.713
-152.282
-153.885
-155.551
-157.269
-159.051
-160.881
-162.77
-164.711
-166.713
-168.776
-170.906
-173.107
-175.388
-177.766
-180.263
-182.917
-185.766
-188.994
-192.25
-198.085
60.143
45.3509
34.06
25.5945
18.5974
11.9551
5.31802
-1.29032
-7.69993
-13.7041
-19.2689
-24.436
-29.3138
-34.0179
-38.6054
-43.0938
-47.4634
-51.6846
-55.7349
-59.6054
-63.2886
-66.7942
-70.117
-73.2708
-76.2499
-79.0704
-81.7323
-84.2556
-86.6462
-88.9241
-91.0979
-93.185
-95.1937
-97.1367
-99.0199
-100.851
-102.633
-104.369
-106.062
-107.711
-109.318
-110.885
-112.413
-113.905
-115.366
-116.798
-118.206
-119.595
-120.97
-122.333
-123.691
-125.048
-126.414
-127.796
-129.209
-130.662
-132.172
-133.743
-135.39
-137.11
-138.912
-140.819
-142.746
-144.627
-146.195
-147.662
-149.181
-150.714
-152.282
-153.885
-155.552
-157.27
-159.051
-160.881
-162.77
-164.711
-166.714
-168.777
-170.907
-173.108
-175.39
-177.768
-180.265
-182.92
-185.769
-188.999
-192.254
-198.002
60.1552
45.3564
34.0617
25.5955
18.5981
11.9556
5.31841
-1.29001
-7.69967
-13.7039
-19.2687
-24.4358
-29.3136
-34.0177
-38.6053
-43.0937
-47.4633
-51.6845
-55.7348
-59.6053
-63.2885
-66.7941
-70.1169
-73.2707
-76.2498
-79.0703
-81.7322
-84.2555
-86.6461
-88.9239
-91.0978
-93.1848
-95.1936
-97.1365
-99.0198
-100.851
-102.633
-104.369
-106.061
-107.711
-109.318
-110.885
-112.413
-113.905
-115.365
-116.797
-118.206
-119.595
-120.969
-122.333
-123.69
-125.048
-126.413
-127.796
-129.209
-130.662
-132.172
-133.743
-135.39
-137.11
-138.912
-140.819
-142.746
-144.628
-146.195
-147.662
-149.181
-150.714
-152.283
-153.886
-155.553
-157.27
-159.052
-160.882
-162.772
-164.713
-166.716
-168.779
-170.909
-173.11
-175.392
-177.771
-180.268
-182.924
-185.774
-189.005
-192.258
-197.935
60.1643
45.3637
34.0643
25.5968
18.599
11.9562
5.31891
-1.28962
-7.69933
-13.7036
-19.2685
-24.4356
-29.3134
-34.0175
-38.6051
-43.0935
-47.4631
-51.6844
-55.7347
-59.6052
-63.2884
-66.794
-70.1168
-73.2706
-76.2496
-79.0702
-81.7321
-84.2554
-86.6459
-88.9238
-91.0976
-93.1847
-95.1934
-97.1364
-99.0196
-100.851
-102.633
-104.369
-106.061
-107.711
-109.318
-110.885
-112.413
-113.905
-115.365
-116.797
-118.206
-119.595
-120.969
-122.333
-123.69
-125.048
-126.413
-127.796
-129.209
-130.662
-132.172
-133.743
-135.39
-137.11
-138.912
-140.82
-142.747
-144.628
-146.195
-147.663
-149.182
-150.715
-152.284
-153.887
-155.554
-157.272
-159.054
-160.884
-162.773
-164.715
-166.718
-168.781
-170.912
-173.113
-175.396
-177.775
-180.273
-182.929
-185.78
-189.012
-192.259
-197.883
60.1714
45.3729
34.0677
25.5987
18.6002
11.9571
5.31957
-1.28909
-7.6989
-13.7032
-19.2682
-24.4353
-29.3131
-34.0173
-38.6049
-43.0934
-47.463
-51.6843
-55.7346
-59.605
-63.2883
-66.7939
-70.1167
-73.2704
-76.2495
-79.0701
-81.732
-84.2552
-86.6457
-88.9236
-91.0974
-93.1845
-95.1932
-97.1362
-99.0194
-100.85
-102.632
-104.369
-106.061
-107.71
-109.318
-110.884
-112.412
-113.905
-115.365
-116.797
-118.205
-119.595
-120.969
-122.332
-123.69
-125.047
-126.413
-127.796
-129.209
-130.662
-132.172
-133.743
-135.39
-137.11
-138.912
-140.82
-142.747
-144.629
-146.196
-147.664
-149.183
-150.716
-152.285
-153.888
-155.555
-157.273
-159.055
-160.886
-162.776
-164.717
-166.721
-168.784
-170.915
-173.117
-175.4
-177.78
-180.278
-182.935
-185.786
-189.016
-192.256
-197.833
60.1765
45.3843
34.0724
25.6012
18.6019
11.9583
5.32046
-1.28839
-7.69832
-13.7027
-19.2677
-24.4349
-29.3128
-34.017
-38.6046
-43.0931
-47.4628
-51.6841
-55.7344
-59.6048
-63.2881
-66.7937
-70.1165
-73.2703
-76.2493
-79.0699
-81.7317
-84.255
-86.6455
-88.9234
-91.0972
-93.1842
-95.193
-97.1359
-99.0191
-100.85
-102.632
-104.369
-106.061
-107.71
-109.317
-110.884
-112.412
-113.904
-115.364
-116.796
-118.205
-119.594
-120.968
-122.332
-123.689
-125.047
-126.413
-127.795
-129.208
-130.661
-132.172
-133.743
-135.39
-137.11
-138.913
-140.821
-142.748
-144.63
-146.197
-147.665
-149.184
-150.717
-152.286
-153.89
-155.557
-157.276
-159.058
-160.889
-162.779
-164.721
-166.724
-168.788
-170.92
-173.122
-175.405
-177.785
-180.284
-182.941
-185.793
-189.017
-192.25
-197.775
60.1791
45.3979
34.0786
25.6046
18.6041
11.9598
5.32163
-1.28746
-7.69755
-13.702
-19.2671
-24.4344
-29.3124
-34.0166
-38.6043
-43.0928
-47.4625
-51.6838
-55.7341
-59.6046
-63.2878
-66.7934
-70.1162
-73.27
-76.249
-79.0696
-81.7315
-84.2547
-86.6452
-88.9231
-91.0969
-93.1839
-95.1926
-97.1355
-99.0187
-100.85
-102.632
-104.368
-106.06
-107.71
-109.317
-110.884
-112.412
-113.904
-115.364
-116.796
-118.204
-119.594
-120.968
-122.331
-123.689
-125.047
-126.412
-127.795
-129.208
-130.661
-132.172
-133.743
-135.39
-137.111
-138.913
-140.821
-142.749
-144.631
-146.199
-147.666
-149.185
-150.719
-152.288
-153.892
-155.56
-157.279
-159.061
-160.893
-162.783
-164.725
-166.729
-168.793
-170.925
-173.128
-175.411
-177.792
-180.291
-182.948
-185.799
-189.014
-192.24
-197.689
60.1788
45.4138
34.0867
25.609
18.607
11.9619
5.32318
-1.28624
-7.69655
-13.7012
-19.2664
-24.4337
-29.3118
-34.0161
-38.6038
-43.0924
-47.4621
-51.6834
-55.7338
-59.6042
-63.2875
-66.7931
-70.1159
-73.2697
-76.2487
-79.0692
-81.7311
-84.2543
-86.6448
-88.9227
-91.0964
-93.1835
-95.1922
-97.1351
-99.0183
-100.849
-102.631
-104.368
-106.06
-107.709
-109.316
-110.883
-112.411
-113.903
-115.363
-116.795
-118.204
-119.593
-120.967
-122.331
-123.689
-125.046
-126.412
-127.794
-129.208
-130.661
-132.172
-133.743
-135.39
-137.111
-138.914
-140.822
-142.75
-144.633
-146.201
-147.668
-149.187
-150.721
-152.29
-153.895
-155.563
-157.282
-159.065
-160.897
-162.788
-164.73
-166.734
-168.799
-170.931
-173.134
-175.418
-177.799
-180.298
-182.953
-185.802
-189.003
-192.221
-197.554
60.1752
45.4316
34.0969
25.6149
18.6108
11.9646
5.32523
-1.28463
-7.69522
-13.7
-19.2654
-24.4329
-29.311
-34.0154
-38.6032
-43.0918
-47.4616
-51.683
-55.7333
-59.6038
-63.2871
-66.7927
-70.1155
-73.2692
-76.2482
-79.0688
-81.7306
-84.2538
-86.6443
-88.9221
-91.0959
-93.1829
-95.1916
-97.1345
-99.0177
-100.849
-102.631
-104.367
-106.059
-107.708
-109.316
-110.882
-112.41
-113.903
-115.363
-116.795
-118.203
-119.592
-120.967
-122.33
-123.688
-125.046
-126.411
-127.794
-129.207
-130.661
-132.171
-133.743
-135.39
-137.112
-138.914
-140.823
-142.751
-144.634
-146.203
-147.671
-149.19
-150.723
-152.293
-153.898
-155.567
-157.287
-159.07
-160.903
-162.793
-164.736
-166.74
-168.805
-170.937
-173.141
-175.424
-177.805
-180.303
-182.955
-185.8
-188.98
-192.186
-197.352
60.168
45.451
34.1096
25.6226
18.6159
11.9683
5.32794
-1.2825
-7.69347
-13.6986
-19.2641
-24.4317
-29.3099
-34.0145
-38.6024
-43.0911
-47.4609
-51.6823
-55.7327
-59.6032
-63.2865
-66.7921
-70.1149
-73.2686
-76.2476
-79.0681
-81.73
-84.2532
-86.6436
-88.9214
-91.0952
-93.1822
-95.1909
-97.1337
-99.0169
-100.848
-102.63
-104.366
-106.058
-107.708
-109.315
-110.882
-112.41
-113.902
-115.362
-116.794
-118.202
-119.592
-120.966
-122.329
-123.687
-125.045
-126.411
-127.793
-129.207
-130.66
-132.171
-133.743
-135.39
-137.112
-138.915
-140.824
-142.753
-144.637
-146.206
-147.674
-149.193
-150.727
-152.296
-153.901
-155.57
-157.291
-159.075
-160.908
-162.8
-164.742
-166.747
-168.812
-170.944
-173.146
-175.429
-177.809
-180.304
-182.952
-185.788
-188.938
-192.127
-197.073
60.1568
45.4713
34.1249
25.6324
18.6225
11.973
5.33152
-1.27968
-7.69116
-13.6966
-19.2624
-24.4302
-29.3086
-34.0133
-38.6013
-43.0901
-47.46
-51.6815
-55.7319
-59.6024
-63.2857
-66.7913
-70.1141
-73.2679
-76.2469
-79.0674
-81.7292
-84.2524
-86.6428
-88.9206
-91.0943
-93.1813
-95.1899
-97.1328
-99.016
-100.847
-102.629
-104.365
-106.057
-107.707
-109.314
-110.881
-112.409
-113.901
-115.361
-116.793
-118.201
-119.591
-120.965
-122.329
-123.686
-125.044
-126.41
-127.793
-129.206
-130.66
-132.171
-133.743
-135.391
-137.112
-138.916
-140.825
-142.754
-144.639
-146.209
-147.678
-149.197
-150.731
-152.299
-153.904
-155.573
-157.295
-159.08
-160.914
-162.806
-164.749
-166.753
-168.817
-170.948
-173.15
-175.431
-177.808
-180.299
-182.938
-185.761
-188.871
-192.029
-196.71
60.1414
45.492
34.1426
25.6448
18.631
11.9792
5.33623
-1.27597
-7.6881
-13.694
-19.2601
-24.4281
-29.3067
-34.0116
-38.5998
-43.0888
-47.4588
-51.6803
-55.7308
-59.6014
-63.2848
-66.7904
-70.1132
-73.2669
-76.2459
-79.0664
-81.7282
-84.2513
-86.6417
-88.9195
-91.0932
-93.1801
-95.1888
-97.1317
-99.0148
-100.846
-102.628
-104.364
-106.056
-107.706
-109.313
-110.879
-112.408
-113.9
-115.36
-116.792
-118.2
-119.59
-120.964
-122.328
-123.685
-125.043
-126.409
-127.792
-129.206
-130.659
-132.17
-133.742
-135.391
-137.113
-138.917
-140.826
-142.756
-144.642
-146.212
-147.681
-149.201
-150.736
-152.303
-153.906
-155.575
-157.298
-159.084
-160.919
-162.811
-164.754
-166.757
-168.82
-170.949
-173.149
-175.427
-177.799
-180.283
-182.908
-185.709
-188.766
-191.876
-196.256
60.1213
45.5126
34.162
25.6597
18.6419
11.9873
5.34237
-1.2711
-7.68409
-13.6905
-19.2571
-24.4254
-29.3043
-34.0095
-38.5979
-43.087
-47.4571
-51.6789
-55.7294
-59.6001
-63.2835
-66.7892
-70.112
-73.2658
-76.2447
-79.0652
-81.7269
-84.2501
-86.6404
-88.9182
-91.0918
-93.1788
-95.1874
-97.1303
-99.0134
-100.844
-102.626
-104.363
-106.055
-107.704
-109.312
-110.878
-112.406
-113.899
-115.359
-116.791
-118.199
-119.589
-120.963
-122.327
-123.685
-125.042
-126.408
-127.791
-129.205
-130.659
-132.17
-133.742
-135.39
-137.113
-138.917
-140.827
-142.757
-144.644
-146.215
-147.684
-149.205
-150.741
-152.306
-153.908
-155.574
-157.298
-159.084
-160.921
-162.813
-164.756
-166.757
-168.818
-170.944
-173.139
-175.412
-177.776
-180.247
-182.853
-185.621
-188.608
-191.65
-195.704
60.0957
45.5332
34.182
25.6772
18.6555
11.9976
5.35034
-1.26477
-7.67887
-13.6861
-19.2531
-24.4219
-29.3011
-34.0066
-38.5953
-43.0846
-47.455
-51.6769
-55.7276
-59.5984
-63.2819
-66.7876
-70.1105
-73.2643
-76.2433
-79.0637
-81.7255
-84.2486
-86.6389
-88.9166
-91.0902
-93.1771
-95.1858
-97.1286
-99.0118
-100.843
-102.625
-104.361
-106.053
-107.703
-109.31
-110.877
-112.405
-113.897
-115.357
-116.79
-118.198
-119.587
-120.962
-122.326
-123.684
-125.042
-126.407
-127.79
-129.204
-130.658
-132.169
-133.741
-135.389
-137.112
-138.916
-140.826
-142.758
-144.646
-146.217
-147.686
-149.207
-150.746
-152.309
-153.907
-155.57
-157.292
-159.079
-160.916
-162.808
-164.75
-166.75
-168.807
-170.928
-173.116
-175.379
-177.73
-180.183
-182.759
-185.481
-188.379
-191.326
-195.046
60.063
45.5547
34.2014
25.6963
18.6718
12.0106
5.36058
-1.25661
-7.67215
-13.6803
-19.248
-24.4172
-29.2969
-34.0027
-38.5918
-43.0815
-47.4522
-51.6743
-55.7252
-59.5962
-63.2798
-66.7857
-70.1087
-73.2625
-76.2415
-79.062
-81.7237
-84.2468
-86.6371
-88.9148
-91.0884
-93.1752
-95.1838
-97.1266
-99.0098
-100.841
-102.623
-104.359
-106.052
-107.701
-109.309
-110.875
-112.404
-113.896
-115.356
-116.788
-118.197
-119.586
-120.961
-122.325
-123.683
-125.041
-126.407
-127.79
-129.203
-130.657
-132.168
-133.74
-135.388
-137.11
-138.915
-140.824
-142.757
-144.646
-146.217
-147.685
-149.206
-150.749
-152.311
-153.905
-155.561
-157.28
-159.064
-160.901
-162.792
-164.733
-166.728
-168.78
-170.893
-173.07
-175.319
-177.65
-180.075
-182.608
-185.265
-188.053
-190.878
-194.262
60.0212
45.5782
34.2193
25.7157
18.6905
12.0266
5.37354
-1.24619
-7.66359
-13.6729
-19.2414
-24.4112
-29.2914
-33.9977
-38.5872
-43.0774
-47.4484
-51.6709
-55.7221
-59.5932
-63.2771
-66.7831
-70.1063
-73.2603
-76.2394
-79.0599
-81.7217
-84.2448
-86.635
-88.9127
-91.0862
-93.173
-95.1816
-97.1244
-99.0075
-100.839
-102.621
-104.357
-106.05
-107.699
-109.307
-110.874
-112.402
-113.894
-115.355
-116.787
-118.196
-119.585
-120.96
-122.324
-123.682
-125.04
-126.406
-127.789
-129.202
-130.655
-132.166
-133.737
-135.385
-137.107
-138.911
-140.818
-142.754
-144.644
-146.214
-147.68
-149.199
-150.747
-152.31
-153.899
-155.546
-157.257
-159.035
-160.869
-162.757
-164.694
-166.684
-168.727
-170.828
-172.989
-175.216
-177.518
-179.902
-182.377
-184.947
-187.602
-190.272
-193.332
59.9686
45.6048
34.2362
25.7333
18.7103
12.0453
5.38959
-1.23306
-7.65282
-13.6638
-19.2331
-24.4036
-29.2842
-33.991
-38.5812
-43.0719
-47.4435
-51.6664
-55.7179
-59.5894
-63.2735
-66.7798
-70.1032
-73.2574
-76.2367
-79.0574
-81.7192
-84.2424
-86.6327
-88.9103
-91.0838
-93.1705
-95.179
-97.1218
-99.0049
-100.836
-102.618
-104.355
-106.047
-107.697
-109.305
-110.872
-112.4
-113.893
-115.353
-116.786
-118.194
-119.584
-120.959
-122.323
-123.681
-125.039
-126.404
-127.787
-129.2
-130.653
-132.163
-133.734
-135.38
-137.1
-138.904
-140.808
-142.747
-144.636
-146.206
-147.668
-149.182
-150.736
-152.303
-153.886
-155.521
-157.22
-158.987
-160.813
-162.694
-164.624
-166.603
-168.633
-170.716
-172.854
-175.05
-177.31
-179.637
-182.032
-184.491
-186.989
-189.477
-192.224
59.9043
45.6343
34.2535
25.7477
18.729
12.0658
5.4087
-1.21681
-7.63945
-13.6525
-19.2231
-24.3941
-29.2752
-33.9825
-38.5732
-43.0647
-47.437
-51.6604
-55.7125
-59.5844
-63.2689
-66.7756
-70.0993
-73.2538
-76.2334
-79.0543
-81.7163
-84.2396
-86.6299
-88.9075
-91.081
-93.1677
-95.1762
-97.1188
-99.0019
-100.833
-102.615
-104.352
-106.044
-107.694
-109.302
-110.869
-112.398
-113.891
-115.351
-116.784
-118.193
-119.583
-120.957
-122.321
-123.679
-125.037
-126.403
-127.785
-129.198
-130.65
-132.158
-133.728
-135.372
-137.09
-138.891
-140.791
-142.732
-144.62
-146.187
-147.644
-149.151
-150.709
-152.281
-153.861
-155.483
-157.165
-158.914
-160.724
-162.59
-164.505
-166.467
-168.477
-170.533
-172.637
-174.789
-176.99
-179.239
-181.531
-183.851
-186.171
-188.452
-190.896
59.8276
45.6672
34.2724
25.7588
18.7443
12.086
5.43008
-1.19733
-7.62308
-13.6389
-19.2112
-24.383
-29.2642
-33.9719
-38.5631
-43.0554
-47.4285
-51.6527
-55.7054
-59.5779
-63.2628
-66.77
-70.0942
-73.2492
-76.2292
-79.0505
-81.7128
-84.2363
-86.6268
-88.9045
-91.078
-93.1647
-95.173
-97.1156
-98.9985
-100.829
-102.612
-104.348
-106.041
-107.691
-109.299
-110.867
-112.395
-113.888
-115.349
-116.782
-118.191
-119.581
-120.956
-122.32
-123.677
-125.035
-126.4
-127.782
-129.194
-130.645
-132.151
-133.718
-135.359
-137.074
-138.871
-140.764
-142.708
-144.591
-146.153
-147.602
-149.097
-150.657
-152.235
-153.814
-155.422
-157.081
-158.804
-160.588
-162.428
-164.317
-166.25
-168.227
-170.243
-172.297
-174.387
-176.509
-178.656
-180.817
-182.974
-185.094
-187.151
-189.305
59.737
45.7051
34.2939
25.7677
18.7541
12.1024
5.45146
-1.17529
-7.60343
-13.6226
-19.1973
-24.3702
-29.2516
-33.9592
-38.5507
-43.0436
-47.4176
-51.6428
-55.6964
-59.5695
-63.2551
-66.7628
-70.0875
-73.2431
-76.2238
-79.0456
-81.7084
-84.2322
-86.623
-88.901
-91.0746
-93.1613
-95.1697
-97.1122
-98.995
-100.826
-102.608
-104.344
-106.037
-107.687
-109.295
-110.863
-112.392
-113.885
-115.346
-116.779
-118.188
-119.578
-120.952
-122.316
-123.674
-125.031
-126.395
-127.776
-129.186
-130.635
-132.139
-133.703
-135.338
-137.048
-138.839
-140.723
-142.667
-144.543
-146.095
-147.531
-149.01
-150.566
-152.147
-153.727
-155.321
-156.955
-158.643
-160.388
-162.187
-164.032
-165.92
-167.843
-169.8
-171.783
-173.786
-175.802
-177.819
-179.823
-181.791
-183.695
-185.52
-187.4
59.6305
45.7489
34.3195
25.7766
18.7599
12.1121
5.46799
-1.15366
-7.58132
-13.6031
-19.1809
-24.3556
-29.2375
-33.9448
-38.5361
-43.0294
-47.4043
-51.6306
-55.6851
-59.5591
-63.2453
-66.7537
-70.0791
-73.2354
-76.2168
-79.0394
-81.7028
-84.2273
-86.6186
-88.8969
-91.0708
-93.1577
-95.1661
-97.1085
-98.9911
-100.822
-102.603
-104.34
-106.032
-107.682
-109.29
-110.858
-112.387
-113.881
-115.342
-116.774
-118.183
-119.573
-120.947
-122.31
-123.667
-125.024
-126.387
-127.766
-129.173
-130.619
-132.118
-133.677
-135.305
-137.006
-138.787
-140.659
-142.602
-144.466
-146
-147.418
-148.873
-150.414
-151.993
-153.571
-155.152
-156.757
-158.403
-160.096
-161.835
-163.616
-165.432
-167.277
-169.145
-171.025
-172.91
-174.787
-176.642
-178.46
-180.218
-181.894
-183.481
-185.096
59.5062
45.7989
34.3505
25.7869
18.7656
12.1187
5.47792
-1.13903
-7.56279
-13.5832
-19.1622
-24.3388
-29.2215
-33.9285
-38.5192
-43.0125
-47.388
-51.6155
-55.6713
-59.5464
-63.2335
-66.7426
-70.0688
-73.2259
-76.2082
-79.0317
-81.6961
-84.2213
-86.6133
-88.8921
-91.0665
-93.1537
-95.1621
-97.1045
-98.9869
-100.817
-102.598
-104.334
-106.026
-107.676
-109.284
-110.852
-112.381
-113.874
-115.335
-116.767
-118.176
-119.564
-120.937
-122.3
-123.655
-125.01
-126.37
-127.747
-129.15
-130.592
-132.084
-133.635
-135.252
-136.94
-138.707
-140.562
-142.499
-144.348
-145.854
-147.243
-148.663
-150.176
-151.739
-153.307
-154.871
-156.443
-158.04
-159.667
-161.328
-163.019
-164.734
-166.467
-168.208
-169.947
-171.673
-173.371
-175.029
-176.63
-178.157
-179.594
-180.94
-182.287
59.3626
45.855
34.3877
25.799
18.7719
12.1264
5.48808
-1.127
-7.55019
-13.571
-19.1505
-24.3264
-29.2069
-33.9109
-38.4994
-42.9916
-47.3676
-51.5963
-55.6537
-59.5302
-63.2187
-66.7289
-70.0561
-73.2143
-76.1978
-79.0225
-81.688
-84.2143
-86.6072
-88.8868
-91.0618
-93.1495
-95.1582
-97.1006
-98.9828
-100.812
-102.593
-104.328
-106.02
-107.668
-109.276
-110.843
-112.372
-113.864
-115.324
-116.755
-118.162
-119.549
-120.921
-122.28
-123.633
-124.985
-126.342
-127.713
-129.111
-130.545
-132.028
-133.566
-135.167
-136.836
-138.582
-140.414
-142.339
-144.163
-145.634
-146.98
-148.349
-149.812
-151.338
-152.88
-154.415
-155.947
-157.484
-159.033
-160.594
-162.168
-163.749
-165.33
-166.902
-168.454
-169.975
-171.454
-172.879
-174.238
-175.519
-176.714
-177.822
-178.912
59.1985
45.9169
34.4318
25.8129
18.7786
12.1348
5.50002
-1.11186
-7.53442
-13.5581
-19.1429
-24.3234
-29.2056
-33.9071
-38.4906
-42.9768
-47.348
-51.5735
-55.6298
-59.5066
-63.1964
-66.7082
-70.0375
-73.1976
-76.1832
-79.0098
-81.6772
-84.2051
-86.5995
-88.8804
-91.0565
-93.1451
-95.1545
-97.0971
-98.9793
-100.809
-102.588
-104.323
-106.013
-107.66
-109.266
-110.832
-112.359
-113.85
-115.308
-116.738
-118.142
-119.526
-120.894
-122.249
-123.597
-124.943
-126.293
-127.657
-129.045
-130.467
-131.934
-133.453
-135.031
-136.673
-138.388
-140.188
-142.085
-143.875
-145.301
-146.59
-147.887
-149.275
-150.735
-152.221
-153.705
-155.176
-156.634
-158.081
-159.517
-160.941
-162.349
-163.736
-165.093
-166.413
-167.687
-168.909
-170.07
-171.164
-172.187
-173.135
-174.01
-174.862
59.0144
45.9834
34.4832
25.829
18.7857
12.1436
5.51303
-1.09482
-7.51574
-13.541
-19.1308
-24.3175
-29.205
-33.909
-38.4924
-42.9762
-47.3443
-51.5667
-55.6202
-59.4944
-63.1818
-66.6913
-70.0187
-73.1772
-76.1621
-78.9886
-81.6568
-84.1858
-86.5819
-88.8646
-91.0428
-93.1333
-95.1445
-97.0886
-98.9718
-100.801
-102.581
-104.315
-106.004
-107.65
-109.255
-110.819
-112.344
-113.833
-115.288
-116.714
-118.114
-119.493
-120.854
-122.203
-123.542
-124.878
-126.218
-127.569
-128.941
-130.344
-131.787
-133.277
-134.821
-136.423
-138.094
-139.847
-141.697
-143.435
-144.805
-146.024
-147.23
-148.513
-149.871
-151.263
-152.656
-154.029
-155.373
-156.683
-157.957
-159.193
-160.388
-161.537
-162.636
-163.681
-164.667
-165.593
-166.454
-167.25
-167.982
-168.651
-169.265
-169.859
58.8123
46.0528
34.5419
25.8472
18.793
12.1529
5.52692
-1.07624
-7.49501
-13.5219
-19.1169
-24.31
-29.2031
-33.9093
-38.4922
-42.9734
-47.3393
-51.5601
-55.6138
-59.4886
-63.1773
-66.6878
-70.016
-73.1749
-76.1599
-78.9863
-81.6544
-84.1829
-86.5784
-88.8603
-91.0376
-93.127
-95.1371
-97.0798
-98.9614
-100.789
-102.566
-104.298
-105.984
-107.627
-109.229
-110.789
-112.311
-113.795
-115.246
-116.666
-118.059
-119.43
-120.781
-122.118
-123.445
-124.766
-126.088
-127.419
-128.767
-130.141
-131.549
-132.996
-134.488
-136.033
-137.642
-139.326
-141.098
-142.755
-144.049
-145.183
-146.281
-147.436
-148.658
-149.915
-151.173
-152.403
-153.59
-154.724
-155.798
-156.808
-157.753
-158.631
-159.439
-160.177
-160.842
-161.434
-161.951
-162.391
-162.755
-163.043
-163.257
-163.416
58.5973
46.1223
34.6067
25.8674
18.8005
12.1622
5.54131
-1.05652
-7.47266
-13.5009
-19.1014
-24.3017
-29.2011
-33.9101
-38.4929
-42.9713
-47.3342
-51.5523
-55.6045
-59.4784
-63.1674
-66.6783
-70.0077
-73.1678
-76.1548
-78.9833
-81.6539
-84.1849
-86.5828
-88.8667
-91.046
-93.1369
-95.1481
-97.0915
-98.9731
-100.8
-102.576
-104.305
-105.988
-107.628
-109.225
-110.781
-112.296
-113.773
-115.215
-116.624
-118.004
-119.36
-120.694
-122.01
-123.313
-124.609
-125.901
-127.199
-128.508
-129.836
-131.187
-132.568
-133.986
-135.449
-136.963
-138.537
-140.177
-141.686
-142.86
-143.873
-144.83
-145.822
-146.866
-147.937
-149.003
-150.032
-151.005
-151.907
-152.731
-153.473
-154.13
-154.705
-155.198
-155.61
-155.942
-156.194
-156.362
-156.443
-156.432
-156.321
-156.102
-155.766
58.3796
46.1881
34.6746
25.8888
18.8078
12.1714
5.55559
-1.03645
-7.4496
-13.4789
-19.0848
-24.2926
-29.1989
-33.9111
-38.494
-42.9696
-47.3294
-51.5444
-55.5952
-59.4684
-63.1578
-66.6694
-70
-73.1614
-76.1499
-78.98
-81.6522
-84.1846
-86.5837
-88.8687
-91.0487
-93.1404
-95.152
-97.0957
-98.9771
-100.804
-102.578
-104.306
-105.987
-107.624
-109.217
-110.767
-112.275
-113.744
-115.174
-116.57
-117.933
-119.268
-120.578
-121.867
-123.138
-124.397
-125.648
-126.898
-128.152
-129.415
-130.692
-131.988
-133.31
-134.662
-136.049
-137.472
-138.93
-140.244
-141.255
-142.106
-142.889
-143.687
-144.521
-145.374
-146.213
-147.008
-147.738
-148.387
-148.949
-149.422
-149.808
-150.114
-150.346
-150.511
-150.618
-150.672
-150.679
-150.643
-150.564
-150.446
-150.288
-150.091
58.1766
46.2456
34.7397
25.9096
18.8144
12.1798
5.56866
-1.01737
-7.42775
-13.4573
-19.0685
-24.283
-29.1962
-33.9116
-38.4951
-42.9679
-47.325
-51.5368
-55.5862
-59.4585
-63.1481
-66.6603
-69.9919
-73.1546
-76.1444
-78.9763
-81.6499
-84.1842
-86.5845
-88.8711
-91.0521
-93.145
-95.1574
-97.1017
-98.9832
-100.809
-102.583
-104.309
-105.987
-107.62
-109.208
-110.751
-112.25
-113.707
-115.123
-116.5
-117.841
-119.15
-120.428
-121.68
-122.909
-124.12
-125.317
-126.504
-127.686
-128.867
-130.049
-131.237
-132.435
-133.645
-134.867
-136.1
-137.336
-138.42
-139.228
-139.884
-140.463
-141.045
-141.653
-142.273
-142.874
-143.428
-143.913
-144.317
-144.635
-144.867
-145.021
-145.106
-145.132
-145.112
-145.056
-144.974
-144.872
-144.755
-144.626
-144.486
-144.336
-144.178
58.0351
46.2837
34.7859
25.9247
18.8189
12.1859
5.57748
-1.00352
-7.41245
-13.4412
-19.0562
-24.275
-29.1935
-33.911
-38.4956
-42.966
-47.3215
-51.5307
-55.5793
-59.4508
-63.1407
-66.6534
-69.9857
-73.1497
-76.1402
-78.9737
-81.6481
-84.184
-86.5849
-88.8728
-91.0541
-93.1479
-95.1603
-97.1048
-98.9858
-100.811
-102.584
-104.307
-105.982
-107.61
-109.192
-110.728
-112.217
-113.661
-115.06
-116.417
-117.733
-119.012
-120.255
-121.466
-122.649
-123.806
-124.94
-126.057
-127.157
-128.243
-129.318
-130.383
-131.441
-132.492
-133.533
-134.56
-135.56
-136.401
-137.002
-137.459
-137.841
-138.218
-138.615
-139.021
-139.41
-139.752
-140.028
-140.227
-140.346
-140.387
-140.36
-140.276
-140.148
-139.989
-139.808
-139.616
-139.418
-139.218
-139.016
-138.814
-138.608
-138.399
57.9666
46.3023
34.8086
25.9325
18.8213
12.1896
5.58163
-0.995841
-7.40464
-13.4317
-19.0488
-24.2692
-29.1912
-33.9094
-38.4952
-42.9638
-47.319
-51.5262
-55.5747
-59.4456
-63.1359
-66.6491
-69.9817
-73.1466
-76.1373
-78.9721
-81.6465
-84.1837
-86.5845
-88.8734
-91.0544
-93.1487
-95.1606
-97.1053
-98.9854
-100.81
-102.581
-104.302
-105.974
-107.599
-109.175
-110.703
-112.182
-113.613
-114.996
-116.333
-117.625
-118.874
-120.083
-121.253
-122.388
-123.491
-124.563
-125.608
-126.626
-127.618
-128.586
-129.529
-130.45
-131.345
-132.21
-133.038
-133.817
-134.437
-134.849
-135.13
-135.341
-135.543
-135.763
-135.991
-136.205
-136.376
-136.486
-136.524
-136.49
-136.387
-136.226
-136.02
-135.78
-135.521
-135.251
-134.98
-134.711
-134.447
-134.189
-133.934
-133.681
-133.427
57.9666
46.3026
34.8075
25.9329
18.8215
12.1905
5.58086
-0.994669
-7.40466
-13.4294
-19.0473
-24.2667
-29.1903
-33.908
-38.4953
-42.9624
-47.3183
-51.5241
-55.5731
-59.4435
-63.1341
-66.6476
-69.9802
-73.1458
-76.136
-78.9717
-81.6453
-84.1836
-86.5834
-88.8731
-91.053
-93.1478
-95.1586
-97.1032
-98.982
-100.806
-102.575
-104.295
-105.964
-107.584
-109.155
-110.675
-112.145
-113.563
-114.93
-116.247
-117.514
-118.734
-119.907
-121.037
-122.124
-123.172
-124.182
-125.154
-126.09
-126.988
-127.85
-128.673
-129.457
-130.199
-130.892
-131.528
-132.096
-132.508
-132.747
-132.872
-132.931
-132.982
-133.048
-133.125
-133.189
-133.217
-133.189
-133.097
-132.94
-132.723
-132.458
-132.158
-131.835
-131.501
-131.167
-130.837
-130.517
-130.207
-129.905
-129.612
-129.322
-129.034
58.0351
46.2848
34.7827
25.9258
18.8195
12.1888
5.57508
-1
-7.41265
-13.4342
-19.0516
-24.2673
-29.1909
-33.9065
-38.4956
-42.9615
-47.3193
-51.5241
-55.5744
-59.4442
-63.1354
-66.6488
-69.9811
-73.1471
-76.1362
-78.9725
-81.6446
-84.1835
-86.5815
-88.8719
-91.05
-93.1452
-95.1541
-97.0987
-98.9757
-100.799
-102.566
-104.284
-105.95
-107.567
-109.132
-110.646
-112.106
-113.513
-114.864
-116.161
-117.404
-118.595
-119.733
-120.823
-121.863
-122.857
-123.805
-124.707
-125.562
-126.369
-127.128
-127.834
-128.487
-129.081
-129.609
-130.063
-130.434
-130.655
-130.738
-130.722
-130.65
-130.569
-130.503
-130.448
-130.386
-130.292
-130.148
-129.947
-129.689
-129.381
-129.034
-128.661
-128.275
-127.886
-127.502
-127.129
-126.77
-126.424
-126.089
-125.764
-125.445
-125.13
58.1745
46.2478
34.7348
25.912
18.8155
12.185
5.56462
-1.01111
-7.42832
-13.4453
-19.0611
-24.2698
-29.192
-33.9035
-38.4952
-42.9596
-47.3215
-51.5252
-55.5784
-59.4471
-63.1395
-66.6523
-69.9844
-73.1502
-76.1378
-78.9742
-81.644
-84.1833
-86.5787
-88.8696
-91.0451
-93.1405
-95.1469
-97.0915
-98.9661
-100.789
-102.554
-104.271
-105.934
-107.549
-109.109
-110.617
-112.068
-113.463
-114.799
-116.077
-117.297
-118.46
-119.565
-120.616
-121.611
-122.552
-123.44
-124.274
-125.052
-125.772
-126.432
-127.027
-127.553
-128.005
-128.377
-128.66
-128.848
-128.891
-128.828
-128.686
-128.496
-128.299
-128.117
-127.948
-127.773
-127.572
-127.328
-127.036
-126.695
-126.314
-125.903
-125.474
-125.04
-124.61
-124.189
-123.783
-123.392
-123.016
-122.654
-122.302
-121.959
-121.623
58.37
46.1931
34.6696
25.893
18.8093
12.1793
5.55023
-1.02679
-7.45041
-13.4614
-19.0751
-24.2737
-29.1939
-33.8992
-38.4948
-42.957
-47.3253
-51.5274
-55.5853
-59.452
-63.1468
-66.6578
-69.9903
-73.1548
-76.1411
-78.9768
-81.6441
-84.1832
-86.5757
-88.8667
-91.039
-93.1345
-95.1378
-97.0821
-98.954
-100.777
-102.539
-104.256
-105.916
-107.529
-109.085
-110.588
-112.031
-113.417
-114.739
-116.002
-117.202
-118.341
-119.418
-120.434
-121.39
-122.287
-123.123
-123.899
-124.611
-125.257
-125.831
-126.33
-126.748
-127.079
-127.316
-127.457
-127.496
-127.382
-127.186
-126.934
-126.651
-126.364
-126.089
-125.826
-125.559
-125.271
-124.947
-124.583
-124.18
-123.746
-123.291
-122.826
-122.359
-121.899
-121.449
-121.012
-120.587
-120.174
-119.771
-119.374
-118.981
-118.589
58.5803
46.1302
34.6016
25.8733
18.8023
12.1729
5.53486
-1.04363
-7.47391
-13.4786
-19.0902
-24.2778
-29.196
-33.8945
-38.4947
-42.9544
-47.3301
-51.53
-55.5936
-59.4574
-63.1553
-66.6635
-69.9969
-73.1591