/*--------------------------------*- C++ -*----------------------------------*\
| =========                 |                                                 |
| \\      /  F ield         | OpenFOAM: The Open Source CFD Toolbox           |
|  \\    /   O peration     | Version:  5.x                                   |
|   \\  /    A nd           | Web:      www.OpenFOAM.org                      |
|    \\/     M anipulation  |                                                 |
\*---------------------------------------------------------------------------*/
FoamFile
{
    version     2.0;
    format      ascii;
    class       surfaceScalarField;
    location    "200";
    object      phi;
}
// * * * * * * * * * * * * * * * * * * * * * * * * * * * * * * * * * * * * * //

dimensions      [0 3 -1 0 0 0 0];

internalField   nonuniform List<scalar> 
40747
(
1.48851e-05
-4.64989e-09
6.49094e-06
8.39419e-06
1.80065e-05
-9.8252e-09
1.28336e-05
1.16638e-05
2.17825e-05
-1.56496e-08
1.94339e-05
1.51822e-05
2.63502e-05
-2.20084e-08
2.63928e-05
1.93912e-05
3.18755e-05
-2.86381e-08
3.37369e-05
2.45312e-05
3.85591e-05
-3.50464e-08
4.14444e-05
3.08512e-05
4.66436e-05
-4.04137e-08
4.94482e-05
3.86393e-05
5.64225e-05
-4.34814e-08
5.76313e-05
4.82385e-05
6.82511e-05
-4.24419e-08
6.58226e-05
6.00585e-05
8.25588e-05
-3.48403e-08
7.37925e-05
7.4587e-05
9.98654e-05
-1.74889e-08
8.12559e-05
9.23991e-05
0.0001208
1.36151e-08
8.78848e-05
0.000114167
0.000146122
6.33719e-08
9.33382e-05
0.000140663
0.000176754
1.37644e-07
9.73164e-05
0.000172767
0.000213808
2.43249e-07
9.9651e-05
0.000211462
0.000258633
3.87799e-07
0.000100431
0.000257836
0.000312858
5.79251e-07
0.000100028
0.00031324
0.000378459
8.25145e-07
9.88409e-05
0.000379616
0.000457822
1.13176e-06
9.71049e-05
0.00045952
0.000553839
1.50314e-06
9.48948e-05
0.000556001
0.000670007
1.93976e-06
9.21898e-05
0.000672651
0.000810557
2.43646e-06
8.89188e-05
0.000813752
0.000980611
2.97959e-06
8.49822e-05
0.000984453
0.00118637
3.54302e-06
8.02589e-05
0.00119097
0.00143532
4.08324e-06
7.46064e-05
0.00144083
0.00173655
4.53349e-06
6.7858e-05
0.00174312
0.00210103
4.79811e-06
5.98186e-05
0.00210886
0.00254204
4.75086e-06
5.02662e-05
0.00255135
0.00307564
4.23897e-06
3.89473e-05
0.00308669
0.00372121
3.10238e-06
2.55181e-05
0.00373434
0.0035659
1.65181e-06
1.27628e-05
0.00357833
0.00356607
3.40458e-08
6.598e-08
0.00357842
0.00356606
-1.58263e-06
-1.26319e-05
0.00357841
0.0035659
-3.029e-06
-2.53782e-05
0.00357832
0.00360832
-4.1355e-06
-3.84038e-05
0.00362104
0.00300134
-4.65652e-06
-4.94597e-05
0.00301209
0.00249644
-4.73411e-06
-5.88449e-05
0.00250554
0.00207649
-4.50827e-06
-6.68018e-05
0.00208418
0.00172719
-4.09645e-06
-7.35343e-05
0.0017337
0.00143668
-3.58861e-06
-7.92174e-05
0.00144216
0.00119505
-3.04906e-06
-8.40023e-05
0.00119966
0.000994076
-2.52098e-06
-8.80204e-05
0.000997951
0.000826917
-2.03132e-06
-9.13846e-05
0.000830161
0.00068788
-1.59511e-06
-9.41905e-05
0.000690586
0.000572231
-1.21905e-06
-9.65121e-05
0.000574471
0.000476034
-9.04166e-07
-9.83883e-05
0.000477844
0.000396016
-6.47782e-07
-9.97913e-05
0.000397366
0.000329455
-4.4484e-07
-0.000100574
0.000330196
0.000274085
-2.88828e-07
-0.000100429
0.000273907
0.000228024
-1.72528e-07
-9.89682e-05
0.000226538
0.000189705
-8.87439e-08
-9.59689e-05
0.000186687
0.000157827
-3.08356e-08
-9.14747e-05
0.000153319
0.000131306
7.0192e-09
-8.57024e-05
0.000125523
0.000109241
2.97618e-08
-7.89465e-05
0.000102478
9.08848e-05
4.14852e-08
-7.15165e-05
8.34498e-05
7.56125e-05
4.55039e-08
-6.36991e-05
6.77916e-05
6.29061e-05
4.44303e-08
-5.57386e-05
5.49433e-05
5.23347e-05
4.02517e-08
-4.78289e-05
4.44234e-05
4.35394e-05
3.44117e-08
-4.01136e-05
3.58231e-05
3.62219e-05
2.79028e-08
-3.26891e-05
2.87968e-05
3.0134e-05
2.13638e-08
-2.56092e-05
2.30537e-05
2.50691e-05
1.51701e-08
-1.88878e-05
1.83473e-05
2.08554e-05
9.51221e-09
-1.24947e-05
1.44622e-05
1.73498e-05
4.4957e-09
-6.32862e-06
1.11835e-05
1.44336e-05
8.10496e-06
2.16408e-06
6.23011e-06
1.89826e-06
2.65814e-07
1.8002e-06
9.80698e-08
1.73638e-06
6.38353e-08
1.69045e-06
4.59384e-08
1.65599e-06
3.44812e-08
1.62931e-06
2.6674e-08
1.608e-06
2.13217e-08
1.59036e-06
1.76271e-08
1.57536e-06
1.50093e-08
1.56234e-06
1.30245e-08
1.55094e-06
1.14164e-08
1.54092e-06
1.00365e-08
1.53205e-06
8.8854e-09
1.52411e-06
7.95501e-09
1.51686e-06
7.25911e-09
1.51011e-06
6.75466e-09
1.50371e-06
6.39578e-09
1.49757e-06
6.13349e-09
1.49163e-06
5.93289e-09
1.48585e-06
5.77763e-09
1.48019e-06
5.65372e-09
1.47463e-06
5.56629e-09
1.46912e-06
5.50846e-09
1.46364e-06
5.4821e-09
1.45818e-06
5.47328e-09
1.45271e-06
5.47911e-09
1.44723e-06
5.49122e-09
1.44173e-06
5.5097e-09
1.43622e-06
5.53045e-09
1.43068e-06
5.5526e-09
1.42512e-06
5.57347e-09
1.41954e-06
5.59152e-09
1.41395e-06
5.60463e-09
1.40834e-06
5.61159e-09
1.40273e-06
5.61205e-09
1.39712e-06
5.60558e-09
1.39152e-06
5.59242e-09
1.38594e-06
5.57258e-09
1.38038e-06
5.54615e-09
1.37485e-06
5.51199e-09
1.36936e-06
5.46826e-09
1.36393e-06
5.41228e-09
1.35856e-06
5.34178e-09
1.35329e-06
5.25478e-09
1.34812e-06
5.1506e-09
1.34306e-06
5.02871e-09
1.33815e-06
4.88966e-09
1.33339e-06
4.73304e-09
1.3288e-06
4.55854e-09
1.32441e-06
4.36374e-09
1.32023e-06
4.14666e-09
1.31629e-06
3.90258e-09
1.31263e-06
3.63126e-09
1.30928e-06
3.32746e-09
1.30625e-06
2.99984e-09
1.30358e-06
2.63777e-09
1.30128e-06
2.26672e-09
1.29936e-06
1.85792e-09
1.29786e-06
1.43348e-09
1.29678e-06
9.76998e-10
1.29626e-06
4.31561e-10
1.29596e-06
1.71885e-10
1.29518e-06
6.50494e-10
1.29394e-06
1.0362e-09
1.29303e-06
7.59362e-10
1.29234e-06
5.22916e-10
1.29189e-06
3.28889e-10
1.29172e-06
5.63632e-11
1.29191e-06
-2.61106e-10
1.2924e-06
-5.285e-10
1.29318e-06
-8.08766e-10
1.29421e-06
-9.98941e-10
1.2955e-06
-1.28282e-09
1.29708e-06
-1.48307e-09
1.29897e-06
-1.85817e-09
1.3012e-06
-2.11909e-09
1.3038e-06
-2.5613e-09
1.30683e-06
-2.88183e-09
1.31036e-06
-3.34088e-09
1.31454e-06
-3.7992e-09
1.31954e-06
-4.46914e-09
1.32571e-06
-5.34478e-09
1.33361e-06
-6.91797e-09
1.34435e-06
-9.22922e-09
1.3626e-06
-1.70171e-08
1.42108e-06
-5.70384e-08
-7.03252e-07
2.12531e-06
5.26908e-06
1.26248e-05
4.63385e-06
9.01032e-07
4.41568e-06
3.16255e-07
4.28174e-06
1.9781e-07
4.18736e-06
1.40344e-07
4.1173e-06
1.0458e-07
4.06333e-06
8.06305e-08
4.02033e-06
6.43339e-08
3.98476e-06
5.31785e-08
3.95455e-06
4.52319e-08
3.92842e-06
3.91665e-08
3.90569e-06
3.41776e-08
3.88588e-06
2.98785e-08
3.86854e-06
2.62656e-08
3.85315e-06
2.33612e-08
3.83925e-06
2.11762e-08
3.82641e-06
1.95993e-08
3.81433e-06
1.84693e-08
3.80282e-06
1.76391e-08
3.79173e-06
1.70044e-08
3.781e-06
1.65065e-08
3.77052e-06
1.61198e-08
3.76025e-06
1.58409e-08
3.7501e-06
1.56662e-08
3.74001e-06
1.55819e-08
3.72994e-06
1.55617e-08
3.71986e-06
1.55827e-08
3.70974e-06
1.56301e-08
3.69958e-06
1.56953e-08
3.68937e-06
1.57717e-08
3.6791e-06
1.5853e-08
3.66877e-06
1.59337e-08
3.65838e-06
1.60082e-08
3.64793e-06
1.60708e-08
3.63743e-06
1.61177e-08
3.6269e-06
1.61472e-08
3.61634e-06
1.61577e-08
3.60577e-06
1.6149e-08
3.59519e-06
1.61207e-08
3.58464e-06
1.60723e-08
3.57411e-06
1.59999e-08
3.56364e-06
1.58973e-08
3.55326e-06
1.57562e-08
3.54299e-06
1.55695e-08
3.53287e-06
1.53314e-08
3.52294e-06
1.50398e-08
3.51323e-06
1.46933e-08
3.50378e-06
1.42929e-08
3.49462e-06
1.38371e-08
3.4858e-06
1.33232e-08
3.47736e-06
1.27423e-08
3.46936e-06
1.2086e-08
3.46186e-06
1.13379e-08
3.45493e-06
1.04965e-08
3.44866e-06
9.54692e-09
3.4431e-06
8.51445e-09
3.43828e-06
7.37938e-09
3.43428e-06
6.20231e-09
3.43108e-06
4.92293e-09
3.42884e-06
3.55023e-09
3.42746e-06
2.14419e-09
3.42748e-06
2.31279e-10
3.42823e-06
-8.47114e-10
3.42787e-06
7.48112e-10
3.42676e-06
1.76478e-09
3.42611e-06
1.1099e-09
3.42606e-06
2.44764e-10
3.42658e-06
-4.20471e-10
3.42776e-06
-1.34048e-09
3.42971e-06
-2.34362e-09
3.43241e-06
-3.30249e-09
3.43576e-06
-4.20459e-09
3.4398e-06
-4.97425e-09
3.44442e-06
-5.87716e-09
3.44984e-06
-6.70837e-09
3.4559e-06
-7.86554e-09
3.46291e-06
-8.9067e-09
3.47075e-06
-1.03211e-08
3.47981e-06
-1.16243e-08
3.4902e-06
-1.33166e-08
3.50242e-06
-1.52122e-08
3.51688e-06
-1.78208e-08
3.53455e-06
-2.13008e-08
3.5567e-06
-2.70606e-08
3.5862e-06
-3.56041e-08
3.63394e-06
-6.23743e-08
3.7345e-06
-1.5508e-07
-9.31018e-07
3.96421e-06
8.24237e-06
1.95646e-05
7.22802e-06
1.91538e-06
6.88432e-06
6.59978e-07
6.68114e-06
4.01028e-07
6.54045e-06
2.81051e-07
6.43706e-06
2.08013e-07
6.35797e-06
1.59706e-07
6.29522e-06
1.27098e-07
6.24346e-06
1.04918e-07
6.19958e-06
8.9126e-08
6.16173e-06
7.70258e-08
6.12895e-06
6.69936e-08
6.10057e-06
5.82984e-08
6.07592e-06
5.09577e-08
6.05425e-06
4.50497e-08
6.03485e-06
4.05917e-08
6.01708e-06
3.73719e-08
6.00049e-06
3.50568e-08
5.98476e-06
3.33525e-08
5.96971e-06
3.20474e-08
5.95518e-06
3.10248e-08
5.94105e-06
3.02375e-08
5.92723e-06
2.96735e-08
5.91357e-06
2.93269e-08
5.9e-06
2.91637e-08
5.88645e-06
2.91342e-08
5.87287e-06
2.91889e-08
5.85922e-06
2.92992e-08
5.8455e-06
2.9445e-08
5.83169e-06
2.96136e-08
5.81779e-06
2.97912e-08
5.80378e-06
2.99677e-08
5.78968e-06
3.01323e-08
5.7755e-06
3.02742e-08
5.76124e-06
3.03866e-08
5.74693e-06
3.04657e-08
5.73257e-06
3.05097e-08
5.71818e-06
3.05172e-08
5.70378e-06
3.04883e-08
5.6894e-06
3.04211e-08
5.67505e-06
3.0308e-08
5.66077e-06
3.01359e-08
5.6466e-06
2.98879e-08
5.63257e-06
2.95494e-08
5.61875e-06
2.91089e-08
5.60518e-06
2.8562e-08
5.59192e-06
2.79065e-08
5.57902e-06
2.71442e-08
5.56652e-06
2.62721e-08
5.5545e-06
2.52836e-08
5.54301e-06
2.41597e-08
5.53215e-06
2.28799e-08
5.52201e-06
2.14089e-08
5.51271e-06
1.97402e-08
5.50435e-06
1.78432e-08
5.49705e-06
1.57668e-08
5.49086e-06
1.34818e-08
5.4859e-06
1.10973e-08
5.48215e-06
8.52134e-09
5.47983e-06
5.7223e-09
5.47883e-06
2.92364e-09
5.47993e-06
-1.07001e-09
5.48249e-06
-3.69828e-09
5.48337e-06
-4.15644e-10
5.48326e-06
1.45192e-09
5.48365e-06
4.02627e-10
5.48486e-06
-1.3242e-09
5.48686e-06
-2.66655e-09
5.48984e-06
-4.54074e-09
5.49396e-06
-6.61394e-09
5.49924e-06
-8.65356e-09
5.50552e-06
-1.05418e-08
5.51284e-06
-1.22136e-08
5.52107e-06
-1.40696e-08
5.53044e-06
-1.58652e-08
5.54083e-06
-1.81973e-08
5.55258e-06
-2.04154e-08
5.5656e-06
-2.32514e-08
5.58033e-06
-2.60011e-08
5.59695e-06
-2.94658e-08
5.61609e-06
-3.34416e-08
5.63835e-06
-3.88384e-08
5.66499e-06
-4.60401e-08
5.69793e-06
-5.77723e-08
5.74066e-06
-7.48504e-08
5.80847e-06
-1.27615e-07
5.92394e-06
-2.67978e-07
-1.05561e-06
6.0507e-06
1.17469e-05
2.72088e-05
1.02636e-05
3.39865e-06
9.7557e-06
1.16795e-06
9.46437e-06
6.92407e-07
9.26589e-06
4.79555e-07
9.1214e-06
3.52555e-07
9.01159e-06
2.69501e-07
8.92484e-06
2.1386e-07
8.85352e-06
1.76221e-07
8.79318e-06
1.49474e-07
8.74129e-06
1.2894e-07
8.69649e-06
1.11835e-07
8.65788e-06
9.69472e-08
8.62455e-06
8.43363e-08
8.59546e-06
7.41669e-08
8.5696e-06
6.6473e-08
8.54607e-06
6.09043e-08
8.52423e-06
5.68886e-08
8.50365e-06
5.39264e-08
8.48402e-06
5.16545e-08
8.46516e-06
4.98764e-08
8.44687e-06
4.85135e-08
8.42901e-06
4.75422e-08
8.41139e-06
4.69491e-08
8.39391e-06
4.66729e-08
8.37643e-06
4.66293e-08
8.35892e-06
4.67328e-08
8.34131e-06
4.69336e-08
8.3236e-06
4.71954e-08
8.30576e-06
4.74953e-08
8.28778e-06
4.78101e-08
8.26966e-06
4.81224e-08
8.25141e-06
4.84148e-08
8.23304e-06
4.86695e-08
8.21456e-06
4.88757e-08
8.196e-06
4.90278e-08
8.17738e-06
4.9123e-08
8.15871e-06
4.91594e-08
8.14003e-06
4.91374e-08
8.12135e-06
4.90538e-08
8.10272e-06
4.88957e-08
8.08416e-06
4.86406e-08
8.06574e-06
4.82595e-08
8.0475e-06
4.7727e-08
8.02953e-06
4.70235e-08
8.0119e-06
4.61414e-08
7.99467e-06
4.50772e-08
7.97791e-06
4.38339e-08
7.96171e-06
4.24062e-08
7.94613e-06
4.07819e-08
7.93128e-06
3.89275e-08
7.91727e-06
3.6805e-08
7.90425e-06
3.43509e-08
7.89236e-06
3.15507e-08
7.88178e-06
2.835e-08
7.87266e-06
2.48282e-08
7.8651e-06
2.09445e-08
7.85923e-06
1.68724e-08
7.85509e-06
1.24819e-08
7.85296e-06
7.67732e-09
7.85268e-06
2.92791e-09
7.85534e-06
-3.97568e-09
7.86034e-06
-9.0572e-09
7.86305e-06
-3.47553e-09
7.86465e-06
-6.6432e-10
7.86678e-06
-2.12059e-09
7.86998e-06
-4.94892e-09
7.87421e-06
-7.20377e-09
7.87977e-06
-1.03709e-08
7.88691e-06
-1.39293e-08
7.89566e-06
-1.74918e-08
7.90584e-06
-2.07909e-08
7.91748e-06
-2.37533e-08
7.93042e-06
-2.69608e-08
7.94493e-06
-3.01133e-08
7.96088e-06
-3.40798e-08
7.97869e-06
-3.79361e-08
7.99829e-06
-4.27287e-08
8.02019e-06
-4.74696e-08
8.04466e-06
-5.33432e-08
8.07247e-06
-6.01336e-08
8.10443e-06
-6.92697e-08
8.14216e-06
-8.14296e-08
8.18814e-06
-1.01015e-07
8.24682e-06
-1.29259e-07
8.33584e-06
-2.13509e-07
8.46774e-06
-3.96839e-07
-1.20581e-06
8.6206e-06
1.60767e-05
3.56633e-05
1.40085e-05
5.46679e-06
1.32813e-05
1.89517e-06
1.28741e-05
1.09965e-06
1.26009e-05
7.52772e-07
1.24039e-05
5.49676e-07
1.22551e-05
4.18299e-07
1.2138e-05
3.30918e-07
1.20421e-05
2.72112e-07
1.19612e-05
2.30429e-07
1.18917e-05
1.98417e-07
1.18319e-05
1.71679e-07
1.17806e-05
1.48341e-07
1.17365e-05
1.28522e-07
1.16982e-05
1.12508e-07
1.16643e-05
1.00359e-07
1.16337e-05
9.15415e-08
1.16054e-05
8.51647e-08
1.15789e-05
8.04503e-08
1.15537e-05
7.68282e-08
1.15295e-05
7.39946e-08
1.15062e-05
7.18267e-08
1.14835e-05
7.02845e-08
1.14611e-05
6.93408e-08
1.14389e-05
6.88972e-08
1.14167e-05
6.8822e-08
1.13945e-05
6.8982e-08
1.13722e-05
6.92966e-08
1.13497e-05
6.97081e-08
1.13271e-05
7.01783e-08
1.13043e-05
7.06716e-08
1.12813e-05
7.11603e-08
1.12581e-05
7.16192e-08
1.12348e-05
7.20206e-08
1.12113e-05
7.23496e-08
1.11878e-05
7.25974e-08
1.11641e-05
7.27606e-08
1.11404e-05
7.28367e-08
1.11167e-05
7.28266e-08
1.1093e-05
7.27254e-08
1.10693e-05
7.25134e-08
1.10457e-05
7.21554e-08
1.10223e-05
7.16063e-08
1.09991e-05
7.08261e-08
1.09763e-05
6.97841e-08
1.09539e-05
6.84678e-08
1.0932e-05
6.68718e-08
1.09108e-05
6.50002e-08
1.08902e-05
6.28448e-08
1.08705e-05
6.03852e-08
1.08518e-05
5.75685e-08
1.08341e-05
5.43326e-08
1.08178e-05
5.05758e-08
1.0803e-05
4.62706e-08
1.07899e-05
4.13302e-08
1.07788e-05
3.58723e-08
1.07698e-05
2.98389e-08
1.0763e-05
2.34887e-08
1.07586e-05
1.66396e-08
1.0757e-05
9.11109e-09
1.07579e-05
1.70187e-09
1.07627e-05
-9.10235e-09
1.07708e-05
-1.76946e-08
1.07761e-05
-9.14742e-09
1.07802e-05
-5.47372e-09
1.0785e-05
-7.36672e-09
1.0791e-05
-1.15705e-08
1.07984e-05
-1.50169e-08
1.08076e-05
-1.98623e-08
1.08188e-05
-2.53711e-08
1.08322e-05
-3.09678e-08
1.08475e-05
-3.61822e-08
1.08648e-05
-4.09074e-08
1.08838e-05
-4.59516e-08
1.0905e-05
-5.09339e-08
1.09281e-05
-5.70851e-08
1.09536e-05
-6.31251e-08
1.09816e-05
-7.05131e-08
1.10125e-05
-7.78893e-08
1.10469e-05
-8.69244e-08
1.10856e-05
-9.73816e-08
1.11296e-05
-1.11343e-07
1.1181e-05
-1.29855e-07
1.12428e-05
-1.59334e-07
1.13207e-05
-2.01688e-07
1.14332e-05
-3.2201e-07
1.15863e-05
-5.46132e-07
-1.42852e-06
1.18124e-05
2.15107e-05
4.50037e-05
1.8715e-05
8.26246e-06
1.76934e-05
2.91684e-06
1.71317e-05
1.66145e-06
1.67603e-05
1.12423e-06
1.64948e-05
8.15243e-07
1.62955e-05
6.1752e-07
1.61395e-05
4.86939e-07
1.60121e-05
3.99489e-07
1.59049e-05
3.37692e-07
1.58131e-05
2.90267e-07
1.57342e-05
2.50613e-07
1.56667e-05
2.15946e-07
1.56088e-05
1.86451e-07
1.55588e-05
1.6257e-07
1.55148e-05
1.44402e-07
1.54752e-05
1.31174e-07
1.54388e-05
1.21577e-07
1.54047e-05
1.14464e-07
1.53725e-05
1.08989e-07
1.53418e-05
1.04703e-07
1.53122e-05
1.01425e-07
1.52834e-05
9.90884e-08
1.52551e-05
9.76458e-08
1.52271e-05
9.69488e-08
1.51991e-05
9.68022e-08
1.51712e-05
9.70103e-08
1.51431e-05
9.74508e-08
1.51148e-05
9.80367e-08
1.50863e-05
9.87089e-08
1.50577e-05
9.94155e-08
1.50288e-05
1.00115e-07
1.49997e-05
1.00774e-07
1.49704e-05
1.01351e-07
1.49409e-05
1.01826e-07
1.49113e-05
1.02186e-07
1.48817e-05
1.02429e-07
1.48519e-05
1.02549e-07
1.48221e-05
1.02548e-07
1.47924e-05
1.02421e-07
1.47627e-05
1.02137e-07
1.47331e-05
1.01645e-07
1.47037e-05
1.0088e-07
1.46747e-05
9.97808e-08
1.4646e-05
9.83033e-08
1.4618e-05
9.64276e-08
1.45906e-05
9.41451e-08
1.4564e-05
9.14608e-08
1.45384e-05
8.8362e-08
1.45138e-05
8.48178e-08
1.44905e-05
8.0749e-08
1.44686e-05
7.60621e-08
1.44485e-05
7.06051e-08
1.44303e-05
6.43322e-08
1.44144e-05
5.71129e-08
1.4401e-05
4.91127e-08
1.43904e-05
4.02477e-08
1.43829e-05
3.08892e-08
1.43784e-05
2.07767e-08
1.43776e-05
9.62884e-09
1.43802e-05
-1.3386e-09
1.43879e-05
-1.72296e-08
1.44001e-05
-3.05384e-08
1.44086e-05
-1.82552e-08
1.44163e-05
-1.40403e-08
1.44248e-05
-1.6477e-08
1.44348e-05
-2.23864e-08
1.44467e-05
-2.73621e-08
1.44607e-05
-3.43344e-08
1.44773e-05
-4.23217e-08
1.44968e-05
-5.05431e-08
1.45187e-05
-5.82692e-08
1.45433e-05
-6.53265e-08
1.45702e-05
-7.27982e-08
1.45999e-05
-8.01803e-08
1.46321e-05
-8.91778e-08
1.46676e-05
-9.80485e-08
1.47061e-05
-1.08792e-07
1.47485e-05
-1.19564e-07
1.47952e-05
-1.32647e-07
1.48475e-05
-1.47762e-07
1.49065e-05
-1.67799e-07
1.49748e-05
-1.94243e-07
1.50559e-05
-2.35863e-07
1.51568e-05
-2.95592e-07
1.5296e-05
-4.56029e-07
1.54769e-05
-7.22166e-07
-1.72995e-06
1.57826e-05
2.83688e-05
5.5274e-05
2.46766e-05
1.19546e-05
2.32598e-05
4.33371e-06
2.24902e-05
2.43117e-06
2.19882e-05
1.62629e-06
2.16326e-05
1.17094e-06
2.13674e-05
8.82701e-07
2.11607e-05
6.93671e-07
2.09925e-05
5.67678e-07
2.08512e-05
4.78947e-07
2.07306e-05
4.10967e-07
2.06272e-05
3.5414e-07
2.05388e-05
3.04436e-07
2.04633e-05
2.62092e-07
2.03981e-05
2.27741e-07
2.03411e-05
2.0153e-07
2.02899e-05
1.82377e-07
2.0243e-05
1.68435e-07
2.01994e-05
1.58068e-07
2.01582e-05
1.50071e-07
2.01191e-05
1.43803e-07
2.00815e-05
1.39001e-07
2.00451e-05
1.35563e-07
2.00093e-05
1.33408e-07
1.9974e-05
1.32323e-07
1.99388e-05
1.32027e-07
1.99036e-05
1.32246e-07
1.98684e-05
1.32801e-07
1.98329e-05
1.33565e-07
1.97973e-05
1.34452e-07
1.97614e-05
1.35389e-07
1.97253e-05
1.36318e-07
1.96889e-05
1.37192e-07
1.96524e-05
1.37958e-07
1.96157e-05
1.38587e-07
1.95788e-05
1.39063e-07
1.95418e-05
1.39381e-07
1.95048e-05
1.39535e-07
1.94677e-05
1.39529e-07
1.94307e-05
1.39351e-07
1.93937e-05
1.38961e-07
1.9357e-05
1.38288e-07
1.93205e-05
1.37237e-07
1.92844e-05
1.35725e-07
1.92489e-05
1.33686e-07
1.92141e-05
1.3109e-07
1.91802e-05
1.27926e-07
1.91473e-05
1.24197e-07
1.91156e-05
1.19884e-07
1.90853e-05
1.14943e-07
1.90566e-05
1.0926e-07
1.90298e-05
1.02701e-07
1.90051e-05
9.50494e-08
1.8983e-05
8.62347e-08
1.89639e-05
7.60687e-08
1.89481e-05
6.47779e-08
1.89359e-05
5.22372e-08
1.89276e-05
3.89688e-08
1.89234e-05
2.45895e-08
1.89239e-05
8.70735e-09
1.89288e-05
-6.94511e-09
1.89404e-05
-2.93347e-08
1.89577e-05
-4.87082e-08
1.89704e-05
-3.17531e-08
1.89828e-05
-2.76151e-08
1.89963e-05
-3.084e-08
1.90118e-05
-3.88824e-08
1.90295e-05
-4.58093e-08
1.905e-05
-5.54424e-08
1.90738e-05
-6.65135e-08
1.91011e-05
-7.80388e-08
1.91317e-05
-8.89743e-08
1.91656e-05
-9.90387e-08
1.92025e-05
-1.09649e-07
1.92431e-05
-1.20111e-07
1.92868e-05
-1.32746e-07
1.93346e-05
-1.4521e-07
1.93863e-05
-1.60208e-07
1.9443e-05
-1.75264e-07
1.95051e-05
-1.93429e-07
1.95742e-05
-2.14348e-07
1.96517e-05
-2.4189e-07
1.97407e-05
-2.78063e-07
1.98451e-05
-3.34298e-07
1.99737e-05
-4.15004e-07
2.01436e-05
-6.19221e-07
2.03593e-05
-9.31753e-07
-2.09519e-06
2.073e-05
3.70358e-05
6.64764e-05
3.22551e-05
1.67353e-05
3.03103e-05
6.27858e-06
2.92597e-05
3.48197e-06
2.85827e-05
2.30341e-06
2.81074e-05
1.64643e-06
2.77551e-05
1.23498e-06
2.74817e-05
9.67039e-07
2.72601e-05
7.89274e-07
2.70745e-05
6.64542e-07
2.69163e-05
5.69215e-07
2.6781e-05
4.89648e-07
2.66655e-05
4.2009e-07
2.65669e-05
3.60785e-07
2.64822e-05
3.12591e-07
2.64081e-05
2.757e-07
2.63418e-05
2.48634e-07
2.62814e-05
2.28854e-07
2.62253e-05
2.14093e-07
2.61726e-05
2.02678e-07
2.61227e-05
1.93711e-07
2.60749e-05
1.86821e-07
2.60286e-05
1.81852e-07
2.59833e-05
1.78677e-07
2.59387e-05
1.76992e-07
2.58944e-05
1.76411e-07
2.58502e-05
1.76553e-07
2.58059e-05
1.77166e-07
2.57616e-05
1.78074e-07
2.5717e-05
1.79152e-07
2.56722e-05
1.80301e-07
2.56272e-05
1.81443e-07
2.5582e-05
1.82517e-07
2.55366e-05
1.83452e-07
2.5491e-05
1.84213e-07
2.54453e-05
1.84778e-07
2.53995e-05
1.85142e-07
2.53536e-05
1.85296e-07
2.53078e-05
1.85243e-07
2.52621e-05
1.84967e-07
2.52165e-05
1.84413e-07
2.51711e-05
1.83483e-07
2.51261e-05
1.82049e-07
2.50817e-05
1.79993e-07
2.50379e-05
1.77226e-07
2.49951e-05
1.73706e-07
2.49535e-05
1.69411e-07
2.49131e-05
1.64346e-07
2.48743e-05
1.58482e-07
2.48372e-05
1.51754e-07
2.48022e-05
1.44006e-07
2.47696e-05
1.35051e-07
2.47398e-05
1.24593e-07
2.47132e-05
1.12528e-07
2.46905e-05
9.85917e-08
2.4672e-05
8.30901e-08
2.46581e-05
6.58339e-08
2.46492e-05
4.75487e-08
2.46455e-05
2.76569e-08
2.4648e-05
5.67185e-09
2.46562e-05
-1.6073e-08
2.46728e-05
-4.66392e-08
2.46965e-05
-7.35555e-08
2.47143e-05
-5.0738e-08
2.47328e-05
-4.76318e-08
2.47528e-05
-5.20927e-08
2.47754e-05
-6.28451e-08
2.48009e-05
-7.22644e-08
2.48298e-05
-8.52036e-08
2.48628e-05
-1.0006e-07
2.49002e-05
-1.15669e-07
2.49416e-05
-1.30622e-07
2.49874e-05
-1.44482e-07
2.5037e-05
-1.59073e-07
2.50911e-05
-1.73417e-07
2.51492e-05
-1.90623e-07
2.52124e-05
-2.07571e-07
2.52805e-05
-2.27868e-07
2.53548e-05
-2.4824e-07
2.54359e-05
-2.72678e-07
2.55256e-05
-3.00717e-07
2.56256e-05
-3.37391e-07
2.57396e-05
-3.85318e-07
2.58721e-05
-4.58876e-07
2.60334e-05
-5.6449e-07
2.62387e-05
-8.15761e-07
2.6496e-05
-1.18134e-06
-2.50169e-06
2.69092e-05
4.798e-05
7.85545e-05
4.19046e-05
2.28106e-05
3.92604e-05
8.92297e-06
3.7829e-05
4.91359e-06
3.69158e-05
3.21673e-06
3.62801e-05
2.28237e-06
3.58118e-05
1.70325e-06
3.54502e-05
1.32872e-06
3.5158e-05
1.08135e-06
3.49141e-05
9.08453e-07
3.47067e-05
7.76729e-07
3.45295e-05
6.67067e-07
3.43785e-05
5.71348e-07
3.42498e-05
4.89719e-07
3.41392e-05
4.23275e-07
3.40428e-05
3.72248e-07
3.39568e-05
3.3464e-07
3.38785e-05
3.07032e-07
3.38062e-05
2.86344e-07
3.37385e-05
2.70296e-07
3.36746e-05
2.57653e-07
3.36134e-05
2.47895e-07
3.35545e-05
2.40793e-07
3.34971e-05
2.36146e-07
3.34406e-05
2.33539e-07
3.33847e-05
2.3244e-07
3.3329e-05
2.32338e-07
3.32735e-05
2.32883e-07
3.32179e-05
2.33833e-07
3.31622e-05
2.35015e-07
3.31064e-05
2.36297e-07
3.30504e-05
2.37576e-07
3.29943e-05
2.38776e-07
3.29381e-05
2.39806e-07
3.28817e-05
2.40626e-07
3.28253e-05
2.41206e-07
3.27689e-05
2.4154e-07
3.27124e-05
2.41616e-07
3.26561e-05
2.41435e-07
3.25999e-05
2.40974e-07
3.25439e-05
2.40159e-07
3.24883e-05
2.38858e-07
3.24332e-05
2.36898e-07
3.23788e-05
2.34124e-07
3.23254e-05
2.30412e-07
3.22731e-05
2.25702e-07
3.22223e-05
2.19963e-07
3.21732e-05
2.13196e-07
3.2126e-05
2.05358e-07
3.2081e-05
1.96359e-07
3.20387e-05
1.85989e-07
3.19994e-05
1.73994e-07
3.19636e-05
1.59977e-07
3.1932e-05
1.43792e-07
3.19052e-05
1.25077e-07
3.18838e-05
1.04242e-07
3.18681e-05
8.09984e-08
3.18589e-05
5.63475e-08
3.18564e-05
2.94034e-08
3.18616e-05
-3.47224e-10
3.18742e-05
-2.992e-08
3.18972e-05
-7.06454e-08
3.19287e-05
-1.06718e-07
3.19529e-05
-7.64739e-08
3.19788e-05
-7.57044e-08
3.20071e-05
-8.211e-08
3.20388e-05
-9.63569e-08
3.20742e-05
-1.08972e-07
3.21139e-05
-1.26005e-07
3.21585e-05
-1.45468e-07
3.22086e-05
-1.66058e-07
3.22637e-05
-1.85962e-07
3.23241e-05
-2.04528e-07
3.23894e-05
-2.24081e-07
3.24602e-05
-2.4324e-07
3.25361e-05
-2.66101e-07
3.26183e-05
-2.88568e-07
3.27063e-05
-3.15361e-07
3.28021e-05
-3.42237e-07
3.29062e-05
-3.74297e-07
3.30208e-05
-4.10957e-07
3.31481e-05
-4.58594e-07
3.32922e-05
-5.20553e-07
3.3458e-05
-6.14367e-07
3.36578e-05
-7.49123e-07
3.39034e-05
-1.05014e-06
3.42079e-05
-1.47634e-06
-2.92721e-06
3.46413e-05
6.17699e-05
9.13708e-05
5.4197e-05
3.03834e-05
5.06375e-05
1.24826e-05
4.86906e-05
6.86088e-06
4.74572e-05
4.45034e-06
4.66051e-05
3.13482e-06
4.5981e-05
2.32722e-06
4.55014e-05
1.80842e-06
4.51154e-05
1.46722e-06
4.47943e-05
1.22966e-06
4.45218e-05
1.04936e-06
4.42894e-05
8.99807e-07
4.40914e-05
7.69596e-07
4.39229e-05
6.58595e-07
4.37782e-05
5.68111e-07
4.36522e-05
4.98382e-07
4.35402e-05
4.4673e-07
4.34385e-05
4.08622e-07
4.33449e-05
3.79927e-07
4.32574e-05
3.57587e-07
4.31751e-05
3.39924e-07
4.30967e-05
3.26215e-07
4.30214e-05
3.16125e-07
4.29483e-05
3.09351e-07
4.28766e-05
3.05327e-07
4.28058e-05
3.03334e-07
4.27357e-05
3.02695e-07
4.26658e-05
3.02929e-07
4.25962e-05
3.03715e-07
4.25267e-05
3.04811e-07
4.24572e-05
3.06049e-07
4.23877e-05
3.07293e-07
4.23182e-05
3.08454e-07
4.22488e-05
3.09418e-07
4.21794e-05
3.10139e-07
4.211e-05
3.1058e-07
4.20407e-05
3.10737e-07
4.19716e-05
3.1059e-07
4.19027e-05
3.10138e-07
4.18341e-05
3.09347e-07
4.17658e-05
3.08117e-07
4.1698e-05
3.06273e-07
4.1631e-05
3.03588e-07
4.15649e-05
2.99856e-07
4.15001e-05
2.9491e-07
4.14367e-05
2.88672e-07
4.13752e-05
2.81091e-07
4.13158e-05
2.72164e-07
4.12589e-05
2.61828e-07
4.12048e-05
2.49963e-07
4.1154e-05
2.36285e-07
4.1107e-05
2.20461e-07
4.10645e-05
2.01969e-07
4.10272e-05
1.80609e-07
4.09959e-05
1.55891e-07
4.09714e-05
1.28365e-07
4.09542e-05
9.75893e-08
4.0945e-05
6.49423e-08
4.09443e-05
2.90497e-08
4.09533e-05
-1.04621e-08
4.09716e-05
-4.99717e-08
4.10026e-05
-1.03186e-07
4.10439e-05
-1.50193e-07
4.10757e-05
-1.1044e-07
4.11106e-05
-1.13643e-07
4.11492e-05
-1.22999e-07
4.11921e-05
-1.41782e-07
4.12399e-05
-1.58504e-07
4.12929e-05
-1.80595e-07
4.1352e-05
-2.05634e-07
4.14177e-05
-2.3224e-07
4.14897e-05
-2.58171e-07
4.15682e-05
-2.82486e-07
4.16526e-05
-3.08136e-07
4.17439e-05
-3.33185e-07
4.18413e-05
-3.62941e-07
4.19464e-05
-3.92116e-07
4.20587e-05
-4.26755e-07
4.21803e-05
-4.61495e-07
4.2312e-05
-5.02692e-07
4.24566e-05
-5.49683e-07
4.26163e-05
-6.10328e-07
4.27961e-05
-6.88869e-07
4.30012e-05
-8.0606e-07
4.32456e-05
-9.74383e-07
4.35363e-05
-1.32685e-06
4.38914e-05
-1.82004e-06
-3.35316e-06
4.43265e-05
7.90886e-05
0.00010468
6.985e-05
3.96218e-05
6.51142e-05
1.72187e-05
6.2472e-05
9.50362e-06
6.08029e-05
6.11967e-06
5.96571e-05
4.28122e-06
5.88224e-05
3.16177e-06
5.81839e-05
2.44707e-06
5.76721e-05
1.97885e-06
5.72477e-05
1.65413e-06
5.68886e-05
1.4087e-06
5.65828e-05
1.20606e-06
5.63225e-05
1.03027e-06
5.61011e-05
8.80557e-07
5.59111e-05
7.58364e-07
5.57458e-05
6.63862e-07
5.55991e-05
5.93474e-07
5.54664e-05
5.41247e-07
5.53445e-05
5.01705e-07
5.52311e-05
4.70794e-07
5.51247e-05
4.46247e-07
5.50238e-05
4.27072e-07
5.49272e-05
4.12777e-07
5.48336e-05
4.02919e-07
5.47424e-05
3.96731e-07
5.46527e-05
3.93251e-07
5.45641e-05
3.91588e-07
5.44762e-05
3.91094e-07
5.4389e-05
3.91342e-07
5.43021e-05
3.92006e-07
5.42157e-05
3.92873e-07
5.41295e-05
3.93764e-07
5.40437e-05
3.9458e-07
5.39582e-05
3.95182e-07
5.38729e-05
3.95519e-07
5.3788e-05
3.95551e-07
5.37033e-05
3.95272e-07
5.36191e-05
3.94658e-07
5.35352e-05
3.93698e-07
5.34518e-05
3.92345e-07
5.3369e-05
3.90463e-07
5.3287e-05
3.87823e-07
5.3206e-05
3.84129e-07
5.31262e-05
3.79115e-07
5.3048e-05
3.72559e-07
5.29718e-05
3.64355e-07
5.2898e-05
3.54429e-07
5.28268e-05
3.42773e-07
5.27587e-05
3.29292e-07
5.26941e-05
3.13827e-07
5.26337e-05
2.96005e-07
5.2578e-05
2.75394e-07
5.25278e-05
2.51318e-07
5.24843e-05
2.23512e-07
5.24482e-05
1.9132e-07
5.24206e-05
1.55477e-07
5.24019e-05
1.15313e-07
5.23934e-05
7.2716e-08
5.23953e-05
2.55581e-08
5.24093e-05
-2.60892e-08
5.2435e-05
-7.80717e-08
5.24762e-05
-1.46489e-07
5.25293e-05
-2.06441e-07
5.25704e-05
-1.54406e-07
5.26161e-05
-1.63502e-07
5.2667e-05
-1.77116e-07
5.27235e-05
-2.01762e-07
5.27863e-05
-2.23754e-07
5.28557e-05
-2.5206e-07
5.29325e-05
-2.83822e-07
5.30173e-05
-3.17636e-07
5.31096e-05
-3.50837e-07
5.321e-05
-3.82105e-07
5.33175e-05
-4.15147e-07
5.34336e-05
-4.47328e-07
5.35568e-05
-4.85372e-07
5.36894e-05
-5.2263e-07
5.38305e-05
-5.66605e-07
5.39829e-05
-6.10772e-07
5.41475e-05
-6.62791e-07
5.43275e-05
-7.22066e-07
5.45255e-05
-7.97996e-07
5.47472e-05
-8.95964e-07
5.4998e-05
-1.03979e-06
5.52931e-05
-1.24609e-06
5.56337e-05
-1.65028e-06
5.60397e-05
-2.21323e-06
-3.76668e-06
5.64628e-05
0.000100744
0.000118101
8.97569e-05
5.06088e-05
8.3547e-05
2.34291e-05
7.99752e-05
1.30763e-05
7.77132e-05
8.38211e-06
7.61666e-05
5.82867e-06
7.50451e-05
4.28307e-06
7.4191e-05
3.30146e-06
7.3509e-05
2.66045e-06
7.29458e-05
2.21754e-06
7.24704e-05
1.8843e-06
7.20665e-05
1.61068e-06
7.1723e-05
1.37439e-06
7.14308e-05
1.1735e-06
7.11802e-05
1.00937e-06
7.09624e-05
8.81967e-07
7.07694e-05
7.86504e-07
7.05953e-05
7.1523e-07
7.04359e-05
6.60937e-07
7.02881e-05
6.183e-07
7.015e-05
5.84274e-07
7.00194e-05
5.57498e-07
6.9895e-05
5.37264e-07
6.97751e-05
5.22925e-07
6.96586e-05
5.13454e-07
6.95446e-05
5.07568e-07
6.94325e-05
5.04106e-07
6.93218e-05
5.02201e-07
6.92124e-05
5.01291e-07
6.91039e-05
5.00942e-07
6.89965e-05
5.00882e-07
6.88899e-05
5.00887e-07
6.8784e-05
5.00842e-07
6.8679e-05
5.00587e-07
6.85746e-05
5.0007e-07
6.84709e-05
4.99247e-07
6.8368e-05
4.98114e-07
6.82657e-05
4.96638e-07
6.81641e-05
4.948e-07
6.80634e-05
4.92528e-07
6.79636e-05
4.89638e-07
6.78649e-05
4.85836e-07
6.77676e-05
4.80738e-07
6.7672e-05
4.74003e-07
6.75785e-05
4.6534e-07
6.74875e-05
4.54609e-07
6.73994e-05
4.41704e-07
6.73148e-05
4.26606e-07
6.7234e-05
4.09181e-07
6.71576e-05
3.89219e-07
6.70863e-05
3.66237e-07
6.70209e-05
3.39683e-07
6.69624e-05
3.08693e-07
6.69121e-05
2.72926e-07
6.68709e-05
2.31505e-07
6.68403e-05
1.85418e-07
6.68207e-05
1.33653e-07
6.68135e-05
7.87797e-08
6.68192e-05
1.75716e-08
6.684e-05
-4.90317e-08
6.6875e-05
-1.16533e-07
6.69288e-05
-2.03271e-07
6.69965e-05
-2.78515e-07
6.70486e-05
-2.10551e-07
6.71071e-05
-2.27677e-07
6.71727e-05
-2.47136e-07
6.72455e-05
-2.79241e-07
6.73265e-05
-3.07944e-07
6.74154e-05
-3.43827e-07
6.75135e-05
-3.83641e-07
6.76211e-05
-4.26031e-07
6.77378e-05
-4.67938e-07
6.78643e-05
-5.0755e-07
6.79994e-05
-5.4946e-07
6.81448e-05
-5.90224e-07
6.82987e-05
-6.38093e-07
6.84638e-05
-6.85027e-07
6.8639e-05
-7.39955e-07
6.88277e-05
-7.95348e-07
6.9031e-05
-8.60062e-07
6.92525e-05
-9.33853e-07
6.94953e-05
-1.02759e-06
6.97657e-05
-1.1481e-06
7.0069e-05
-1.32182e-06
7.04206e-05
-1.57003e-06
7.08147e-05
-2.02401e-06
7.12684e-05
-2.653e-06
-4.1604e-06
7.16718e-05
0.000127672
0.00013109
0.000115012
6.32673e-05
0.000107022
3.14197e-05
0.000102226
1.78737e-05
9.91599e-05
1.14492e-05
9.70652e-05
7.92476e-06
9.5551e-05
5.79702e-06
9.44021e-05
4.45066e-06
9.34885e-05
3.5735e-06
9.2737e-05
2.96935e-06
9.21047e-05
2.51693e-06
9.15686e-05
2.14781e-06
9.11131e-05
1.83081e-06
9.07258e-05
1.56196e-06
9.03936e-05
1.34214e-06
9.01052e-05
1.17086e-06
8.985e-05
1.0417e-06
8.96205e-05
9.44621e-07
8.9411e-05
8.7018e-07
8.92175e-05
8.11426e-07
8.90373e-05
7.64288e-07
8.88677e-05
7.26898e-07
8.87068e-05
6.98242e-07
8.85524e-05
6.77389e-07
8.84033e-05
6.62969e-07
8.8258e-05