/*--------------------------------*- C++ -*----------------------------------*\
| =========                 |                                                 |
| \\      /  F ield         | OpenFOAM: The Open Source CFD Toolbox           |
|  \\    /   O peration     | Version:  5.x                                   |
|   \\  /    A nd           | Web:      www.OpenFOAM.org                      |
|    \\/     M anipulation  |                                                 |
\*---------------------------------------------------------------------------*/
FoamFile
{
    version     2.0;
    format      ascii;
    class       volVectorField;
    location    "200";
    object      U;
}
// * * * * * * * * * * * * * * * * * * * * * * * * * * * * * * * * * * * * * //

dimensions      [0 1 -1 0 0 0 0];

internalField   nonuniform List<vector> 
20540
(
(44.1659 -9.35283e-07 0)
(44.2289 0.00467475 0)
(44.1658 -2.93289e-06 0)
(44.2286 0.0134791 0)
(44.1657 -5.15583e-06 0)
(44.2283 0.0220815 0)
(44.1656 -7.64221e-06 0)
(44.228 0.031152 0)
(44.1654 -1.03207e-05 0)
(44.2276 0.0407809 0)
(44.1653 -1.30425e-05 0)
(44.2272 0.0509416 0)
(44.1652 -1.55519e-05 0)
(44.2269 0.0615493 0)
(44.1651 -1.74386e-05 0)
(44.2266 0.0724701 0)
(44.1651 -1.80859e-05 0)
(44.2264 0.0835029 0)
(44.1651 -1.66217e-05 0)
(44.2263 0.0943678 0)
(44.1652 -1.18799e-05 0)
(44.2263 0.104708 0)
(44.1654 -2.37078e-06 0)
(44.2265 0.114104 0)
(44.1657 1.37395e-05 0)
(44.2269 0.122108 0)
(44.1662 3.86397e-05 0)
(44.2274 0.128302 0)
(44.1667 7.48755e-05 0)
(44.228 0.132404 0)
(44.1675 0.000125314 0)
(44.2289 0.134414 0)
(44.1684 0.000193037 0)
(44.2299 0.134599 0)
(44.1694 0.00028112 0)
(44.2311 0.133423 0)
(44.1707 0.000392329 0)
(44.2326 0.13136 0)
(44.1722 0.000528755 0)
(44.2345 0.128646 0)
(44.174 0.000691346 0)
(44.2366 0.12531 0)
(44.1762 0.000879212 0)
(44.2392 0.12128 0)
(44.1786 0.00108862 0)
(44.2422 0.116438 0)
(44.1814 0.0013116 0)
(44.2456 0.110635 0)
(44.1847 0.00153418 0)
(44.2495 0.103694 0)
(44.1883 0.00173418 0)
(44.2539 0.0954066 0)
(44.1922 0.00187887 0)
(44.2588 0.0855275 0)
(44.1964 0.00192357 0)
(44.2639 0.0737695 0)
(44.2006 0.00181206 0)
(44.2691 0.0597924 0)
(44.2046 0.00148078 0)
(44.2739 0.0431747 0)
(44.2074 0.000959038 0)
(44.2773 0.025585 0)
(44.2087 0.000339766 0)
(44.2789 0.00850521 0)
(44.2087 -0.000312971 0)
(44.2789 -0.00856214 0)
(44.2073 -0.000930922 0)
(44.2773 -0.025641 0)
(44.2046 -0.00144544 0)
(44.2739 -0.0429617 0)
(44.2008 -0.00177247 0)
(44.2692 -0.0591318 0)
(44.1967 -0.00189198 0)
(44.2642 -0.0728185 0)
(44.1926 -0.00186118 0)
(44.2592 -0.084404 0)
(44.1887 -0.001732 0)
(44.2545 -0.0942021 0)
(44.1852 -0.00154622 0)
(44.2501 -0.102477 0)
(44.182 -0.00133491 0)
(44.2462 -0.109453 0)
(44.1791 -0.00111969 0)
(44.2428 -0.115324 0)
(44.1767 -0.000914659 0)
(44.2398 -0.120256 0)
(44.1745 -0.000728221 0)
(44.2372 -0.12439 0)
(44.1727 -0.000564711 0)
(44.235 -0.127842 0)
(44.1711 -0.000425639 0)
(44.2331 -0.130694 0)
(44.1698 -0.000310638 0)
(44.2315 -0.132963 0)
(44.1687 -0.000218129 0)
(44.2302 -0.134525 0)
(44.1677 -0.000145793 0)
(44.2291 -0.135029 0)
(44.1669 -9.08968e-05 0)
(44.2283 -0.134007 0)
(44.1663 -5.05841e-05 0)
(44.2275 -0.131114 0)
(44.1658 -2.2107e-05 0)
(44.227 -0.126212 0)
(44.1654 -2.97172e-06 0)
(44.2266 -0.119432 0)
(44.1652 9.00067e-06 0)
(44.2263 -0.1111 0)
(44.165 1.5661e-05 0)
(44.2261 -0.101615 0)
(44.1649 1.85398e-05 0)
(44.2261 -0.0913809 0)
(44.1649 1.88639e-05 0)
(44.2263 -0.0807631 0)
(44.165 1.75795e-05 0)
(44.2265 -0.0700662 0)
(44.165 1.53834e-05 0)
(44.2268 -0.0595251 0)
(44.1652 1.27629e-05 0)
(44.2272 -0.0493065 0)
(44.1653 1.00409e-05 0)
(44.2275 -0.0395203 0)
(44.1654 7.41644e-06 0)
(44.2279 -0.0302356 0)
(44.1655 5.00107e-06 0)
(44.2283 -0.0214674 0)
(44.1656 2.84421e-06 0)
(44.2286 -0.0131096 0)
(44.1657 9.10563e-07 0)
(44.2289 -0.00454663 0)
(7.05495 0.00661258 0)
(5.82284 0.000183417 0)
(5.46085 7.28773e-05 0)
(5.23775 4.99316e-05 0)
(5.08042 3.64519e-05 0)
(4.96404 2.79809e-05 0)
(4.87512 2.29626e-05 0)
(4.80522 2.00336e-05 0)
(4.74827 1.80596e-05 0)
(4.70034 1.62468e-05 0)
(4.65903 1.41863e-05 0)
(4.62291 1.19689e-05 0)
(4.59121 9.76761e-06 0)
(4.5633 7.84541e-06 0)
(4.53848 6.29929e-06 0)
(4.51608 5.11953e-06 0)
(4.49541 4.21811e-06 0)
(4.47598 3.50045e-06 0)
(4.45744 2.89512e-06 0)
(4.43956 2.38658e-06 0)
(4.4222 1.96384e-06 0)
(4.40526 1.63835e-06 0)
(4.38863 1.38864e-06 0)
(4.37223 1.20141e-06 0)
(4.35595 1.04284e-06 0)
(4.33971 8.94814e-07 0)
(4.32348 7.31218e-07 0)
(4.30723 5.39809e-07 0)
(4.29093 3.10115e-07 0)
(4.27456 4.61174e-08 0)
(4.25814 -2.4077e-07 0)
(4.24164 -5.27771e-07 0)
(4.22509 -7.85975e-07 0)
(4.20848 -9.85517e-07 0)
(4.19183 -1.10176e-06 0)
(4.17516 -1.11966e-06 0)
(4.15849 -1.03248e-06 0)
(4.14184 -8.44601e-07 0)
(4.12522 -5.73565e-07 0)
(4.10867 -2.44966e-07 0)
(4.09219 1.11927e-07 0)
(4.07583 4.75185e-07 0)
(4.05961 8.31024e-07 0)
(4.04357 1.18299e-06 0)
(4.02777 1.53956e-06 0)
(4.01225 1.91894e-06 0)
(3.99706 2.33659e-06 0)
(3.98225 2.78128e-06 0)
(3.96788 3.25921e-06 0)
(3.95399 3.68393e-06 0)
(3.94064 3.97255e-06 0)
(3.92789 4.02467e-06 0)
(3.91581 3.74309e-06 0)
(3.90451 3.15025e-06 0)
(3.89405 2.32589e-06 0)
(3.88455 1.49123e-06 0)
(3.87607 8.45314e-07 0)
(3.86866 7.69093e-07 0)
(3.86238 8.31466e-07 0)
(3.85724 8.60938e-07 0)
(3.85349 -6.36277e-08 0)
(3.85073 -4.36091e-07 0)
(3.85069 3.14889e-07 0)
(3.84894 9.17246e-06 0)
(3.84558 1.57238e-05 0)
(3.84208 1.07111e-05 0)
(3.83977 2.5577e-06 0)
(3.83793 -2.64791e-06 0)
(3.83687 -5.22969e-06 0)
(3.83678 -3.20175e-06 0)
(3.83772 -3.03415e-07 0)
(3.83951 2.77988e-06 0)
(3.84209 2.57018e-06 0)
(3.84539 -2.16863e-06 0)
(3.84949 -1.20455e-05 0)
(3.85445 -2.87531e-05 0)
(3.86036 -4.82205e-05 0)
(3.8673 -7.22225e-05 0)
(3.87537 -9.61268e-05 0)
(3.88471 -0.000123688 0)
(3.8956 -0.000156226 0)
(3.90848 -0.000203014 0)
(3.92401 -0.000270265 0)
(3.94324 -0.000386334 0)
(3.96919 -0.00056967 0)
(4.00099 -0.00105374 0)
(4.08721 -0.00313069 0)
(4.2834 -0.0227294 0)
(14.1929 0.0148627 0)
(11.7269 0.000889698 0)
(11.0416 0.000322581 0)
(10.65 0.0002113 0)
(10.3812 0.000154342 0)
(10.1849 0.000118405 0)
(10.036 9.50966e-05 0)
(9.91941 7.99445e-05 0)
(9.82454 6.97355e-05 0)
(9.7447 6.18945e-05 0)
(9.67602 5.48289e-05 0)
(9.61623 4.80576e-05 0)
(9.56417 4.15962e-05 0)
(9.51878 3.59529e-05 0)
(9.47888 3.14107e-05 0)
(9.44327 2.80491e-05 0)
(9.41073 2.56935e-05 0)
(9.38041 2.40545e-05 0)
(9.35167 2.28981e-05 0)
(9.32413 2.20871e-05 0)
(9.29753 2.15667e-05 0)
(9.27165 2.13333e-05 0)
(9.24634 2.13811e-05 0)
(9.22139 2.16927e-05 0)
(9.19663 2.22149e-05 0)
(9.17194 2.28862e-05 0)
(9.14721 2.36449e-05 0)
(9.12241 2.4454e-05 0)
(9.09749 2.52882e-05 0)
(9.07243 2.61433e-05 0)
(9.04722 2.70252e-05 0)
(9.02186 2.79571e-05 0)
(8.99634 2.89695e-05 0)
(8.97068 3.00956e-05 0)
(8.94492 3.13659e-05 0)
(8.91906 3.27984e-05 0)
(8.89314 3.43998e-05 0)
(8.86719 3.61627e-05 0)
(8.84124 3.80629e-05 0)
(8.81532 4.0058e-05 0)
(8.78948 4.20895e-05 0)
(8.76374 4.40963e-05 0)
(8.73818 4.60129e-05 0)
(8.71286 4.78258e-05 0)
(8.68786 4.94965e-05 0)
(8.66328 5.1034e-05 0)
(8.63921 5.24476e-05 0)
(8.61572 5.37289e-05 0)
(8.59291 5.48032e-05 0)
(8.57087 5.55753e-05 0)
(8.54969 5.58196e-05 0)
(8.5295 5.53041e-05 0)
(8.51043 5.37504e-05 0)
(8.49268 5.10522e-05 0)
(8.47641 4.72595e-05 0)
(8.46182 4.27107e-05 0)
(8.44903 3.75943e-05 0)
(8.43816 3.27397e-05 0)
(8.42933 2.72601e-05 0)
(8.42254 2.07291e-05 0)
(8.4183 1.20872e-05 0)
(8.4158 7.00649e-07 0)
(8.41842 -3.6668e-06 0)
(8.41915 2.10069e-05 0)
(8.41682 3.96532e-05 0)
(8.41387 2.8173e-05 0)
(8.41296 7.36796e-06 0)
(8.41297 -9.93813e-06 0)
(8.41444 -2.91016e-05 0)
(8.4177 -4.3088e-05 0)
(8.42291 -5.57557e-05 0)
(8.4298 -6.6407e-05 0)
(8.43826 -8.14779e-05 0)
(8.44815 -0.000105303 0)
(8.45962 -0.000139239 0)
(8.47276 -0.000190027 0)
(8.48776 -0.000248814 0)
(8.50481 -0.000322927 0)
(8.52409 -0.000400878 0)
(8.54599 -0.000493923 0)
(8.57104 -0.000604515 0)
(8.60015 -0.000757124 0)
(8.63466 -0.000969626 0)
(8.67658 -0.00132062 0)
(8.73163 -0.00184686 0)
(8.79942 -0.00342389 0)
(8.95764 -0.00915384 0)
(9.18872 -0.0613553 0)
(18.3855 0.0233633 0)
(15.133 0.00207495 0)
(14.2253 0.000745002 0)
(13.73 0.000474762 0)
(13.3972 0.000344659 0)
(13.157 0.000264023 0)
(12.9762 0.000211416 0)
(12.8353 0.00017682 0)
(12.721 0.000153597 0)
(12.625 0.000136273 0)
(12.5427 0.000121377 0)
(12.4712 0.000107468 0)
(12.4093 9.43179e-05 0)
(12.3558 8.27856e-05 0)
(12.3091 7.34764e-05 0)
(12.2678 6.65957e-05 0)
(12.2305 6.18522e-05 0)
(12.1959 5.86432e-05 0)
(12.1633 5.64853e-05 0)
(12.1322 5.50512e-05 0)
(12.1024 5.42079e-05 0)
(12.0735 5.39413e-05 0)
(12.0452 5.42588e-05 0)
(12.0175 5.5155e-05 0)
(11.9899 5.65332e-05 0)
(11.9625 5.82787e-05 0)
(11.935 6.02648e-05 0)
(11.9073 6.24272e-05 0)
(11.8795 6.47133e-05 0)
(11.8516 6.71113e-05 0)
(11.8234 6.96172e-05 0)
(11.795 7.22581e-05 0)
(11.7664 7.50684e-05 0)
(11.7376 7.80866e-05 0)
(11.7087 8.13517e-05 0)
(11.6797 8.48846e-05 0)
(11.6506 8.86899e-05 0)
(11.6214 9.275e-05 0)
(11.5922 9.70267e-05 0)
(11.563 0.000101447 0)
(11.5339 0.000105908 0)
(11.5048 0.000110279 0)
(11.476 0.000114428 0)
(11.4474 0.00011828 0)
(11.4191 0.000121751 0)
(11.3914 0.000124819 0)
(11.3642 0.000127477 0)
(11.3376 0.000129716 0)
(11.3119 0.000131355 0)
(11.287 0.000132247 0)
(11.2631 0.00013197 0)
(11.2404 0.000130064 0)
(11.2191 0.000125923 0)
(11.1993 0.000119305 0)
(11.1813 0.000110019 0)
(11.1653 9.88082e-05 0)
(11.1516 8.58377e-05 0)
(11.1402 7.24576e-05 0)
(11.1313 5.72374e-05 0)
(11.125 3.92411e-05 0)
(11.1219 1.78481e-05 0)
(11.1209 -1.37881e-05 0)
(11.1264 -3.06727e-05 0)
(11.1304 1.11818e-05 0)
(11.1308 4.53927e-05 0)
(11.1301 2.55996e-05 0)
(11.1318 -1.79751e-05 0)
(11.1345 -5.62872e-05 0)
(11.139 -0.000103187 0)
(11.1457 -0.000143925 0)
(11.1548 -0.000185108 0)
(11.1661 -0.000220545 0)
(11.1794 -0.000264147 0)
(11.1945 -0.000320221 0)
(11.2116 -0.00039742 0)
(11.2309 -0.000502737 0)
(11.2524 -0.000629552 0)
(11.2766 -0.00078435 0)
(11.3035 -0.000956255 0)
(11.3336 -0.00115918 0)
(11.3675 -0.00140227 0)
(11.4063 -0.00172643 0)
(11.4516 -0.00216992 0)
(11.5057 -0.0028762 0)
(11.5753 -0.00391897 0)
(11.6606 -0.00694891 0)
(11.8426 -0.015587 0)
(12.0399 -0.0686825 0)
(21.6975 0.0339527 0)
(17.7923 0.00392486 0)
(16.6696 0.00139799 0)
(16.0778 0.000869702 0)
(15.6879 0.000626477 0)
(15.4095 0.000478368 0)
(15.2015 0.000381526 0)
(15.0403 0.000317396 0)
(14.91 0.000274436 0)
(14.8008 0.000243131 0)
(14.7072 0.000217257 0)
(14.6264 0.000193728 0)
(14.5566 0.000171712 0)
(14.4966 0.000152378 0)
(14.4446 0.000136719 0)
(14.399 0.000125165 0)
(14.3579 0.000117301 0)
(14.3202 0.000112131 0)
(14.2848 0.000108822 0)
(14.2513 0.000106763 0)
(14.2192 0.000105698 0)
(14.1882 0.000105576 0)
(14.158 0.000106442 0)
(14.1284 0.000108312 0)
(14.099 0.000111061 0)
(14.0697 0.000114498 0)
(14.0404 0.000118423 0)
(14.011 0.000122731 0)
(13.9813 0.000127342 0)
(13.9514 0.000132227 0)
(13.9213 0.000137363 0)
(13.891 0.000142765 0)
(13.8604 0.000148454 0)
(13.8296 0.000154453 0)
(13.7987 0.000160795 0)
(13.7676 0.000167491 0)
(13.7364 0.000174537 0)
(13.7051 0.000181898 0)
(13.6738 0.000189525 0)
(13.6424 0.000197316 0)
(13.6112 0.000205118 0)
(13.58 0.000212718 0)
(13.549 0.000219906 0)
(13.5182 0.000226456 0)
(13.4879 0.00023225 0)
(13.458 0.000237186 0)
(13.4288 0.000241202 0)
(13.4003 0.00024423 0)
(13.3727 0.000246101 0)
(13.346 0.000246463 0)
(13.3205 0.000244729 0)
(13.2962 0.000240144 0)
(13.2735 0.000231668 0)
(13.2525 0.000218968 0)
(13.2336 0.000201258 0)
(13.2169 0.000179709 0)
(13.2029 0.000154193 0)
(13.1915 0.000126759 0)
(13.1831 9.53483e-05 0)
(13.1777 5.83073e-05 0)
(13.1759 1.69628e-05 0)
(13.1767 -4.75344e-05 0)
(13.1849 -9.09524e-05 0)
(13.1919 -3.54429e-05 0)
(13.1954 1.74027e-05 0)
(13.1975 -1.30606e-05 0)
(13.2019 -8.65429e-05 0)
(13.2077 -0.000153162 0)
(13.2153 -0.000240552 0)
(13.2254 -0.000325333 0)
(13.2383 -0.000414845 0)
(13.2538 -0.000494998 0)
(13.2716 -0.000586195 0)
(13.2916 -0.000692843 0)
(13.3139 -0.000831803 0)
(13.3386 -0.00101197 0)
(13.3661 -0.00122969 0)
(13.3964 -0.00149277 0)
(13.43 -0.00179092 0)
(13.4672 -0.0021435 0)
(13.5088 -0.00256559 0)
(13.5557 -0.00311724 0)
(13.6099 -0.00385939 0)
(13.6738 -0.00501265 0)
(13.7544 -0.00669117 0)
(13.8525 -0.0114397 0)
(14.0451 -0.0224523 0)
(14.2092 -0.0751725 0)
(24.5643 0.045784 0)
(20.1117 0.00658796 0)
(18.771 0.00235348 0)
(18.0823 0.00143164 0)
(17.6367 0.00102089 0)
(17.3219 0.000775176 0)
(17.0884 0.000615106 0)
(16.9082 0.000509078 0)
(16.7632 0.000438282 0)
(16.6419 0.000387373 0)
(16.5384 0.000346168 0)
(16.449 0.000309214 0)
(16.3722 0.000274801 0)
(16.3064 0.000244516 0)
(16.2496 0.000219894 0)
(16.2001 0.000201698 0)
(16.1558 0.000189359 0)
(16.1152 0.000181351 0)
(16.0775 0.000176348 0)
(16.0418 0.00017334 0)
(16.0078 0.000171888 0)
(15.9751 0.000171893 0)
(15.9433 0.000173437 0)
(15.9122 0.000176564 0)
(15.8814 0.000181107 0)
(15.8507 0.000186777 0)
(15.8199 0.000193275 0)
(15.789 0.000200437 0)
(15.758 0.000208149 0)
(15.7266 0.000216355 0)
(15.6951 0.000225009 0)
(15.6633 0.000234108 0)
(15.6312 0.000243662 0)
(15.5989 0.000253667 0)
(15.5664 0.000264148 0)
(15.5338 0.00027511 0)
(15.501 0.000286537 0)
(15.4681 0.000298371 0)
(15.4352 0.000310544 0)
(15.4024 0.000322917 0)
(15.3695 0.000335272 0)
(15.3367 0.000347284 0)
(15.3042 0.00035863 0)
(15.2719 0.000368886 0)
(15.24 0.000377861 0)
(15.2086 0.000385353 0)
(15.178 0.00039121 0)
(15.1481 0.000395278 0)
(15.1191 0.000397404 0)
(15.0912 0.000396969 0)
(15.0645 0.000393132 0)
(15.0393 0.000384733 0)
(15.0156 0.000370241 0)
(14.994 0.000348966 0)
(14.9745 0.00031965 0)
(14.9576 0.00028346 0)
(14.9436 0.000239955 0)
(14.9326 0.000192367 0)
(14.9248 0.000137791 0)
(14.9204 7.32893e-05 0)
(14.9202 3.62832e-06 0)
(14.9228 -0.000106956 0)
(14.9335 -0.000192199 0)
(14.9433 -0.000130717 0)
(14.9499 -6.07679e-05 0)
(14.955 -0.00010446 0)
(14.9625 -0.000217566 0)
(14.9713 -0.000324105 0)
(14.9821 -0.000469545 0)
(14.9957 -0.000618826 0)
(15.0123 -0.00077918 0)
(15.0317 -0.000925962 0)
(15.0538 -0.00108726 0)
(15.0784 -0.00126736 0)
(15.1055 -0.00149381 0)
(15.1353 -0.0017785 0)
(15.1681 -0.00212205 0)
(15.2042 -0.00253531 0)
(15.2437 -0.00300774 0)
(15.2873 -0.00356727 0)
(15.3355 -0.00423663 0)
(15.3895 -0.00510031 0)
(15.4512 -0.0062467 0)
(15.5232 -0.00799109 0)
(15.6125 -0.0105012 0)
(15.7202 -0.0173387 0)
(15.9164 -0.0304633 0)
(16.0575 -0.0844397 0)
(27.1587 0.0587745 0)
(22.2543 0.0102428 0)
(20.6878 0.00370769 0)
(19.8972 0.00221066 0)
(19.3941 0.00155912 0)
(19.0425 0.00117602 0)
(18.7834 0.000928038 0)
(18.5846 0.000764183 0)
(18.4251 0.000655171 0)
(18.2922 0.000577473 0)
(18.1789 0.000515364 0)
(18.0814 0.000460106 0)
(17.9977 0.000408753 0)
(17.9263 0.000363456 0)
(17.8649 0.000326476 0)
(17.8115 0.00029905 0)
(17.7641 0.000280421 0)
(17.7208 0.000268371 0)
(17.6807 0.000260896 0)
(17.643 0.000256447 0)
(17.6072 0.000254332 0)
(17.5728 0.000254372 0)
(17.5395 0.000256689 0)
(17.5069 0.000261349 0)
(17.4747 0.000268132 0)
(17.4427 0.000276614 0)
(17.4107 0.000286367 0)
(17.3786 0.000297144 0)
(17.3462 0.000308785 0)
(17.3137 0.000321199 0)
(17.2808 0.000334316 0)
(17.2478 0.000348109 0)
(17.2145 0.000362574 0)
(17.1809 0.000377682 0)
(17.1472 0.000393451 0)
(17.1133 0.000409884 0)
(17.0793 0.000426956 0)
(17.0452 0.00044458 0)
(17.0111 0.000462662 0)
(16.977 0.000481017 0)
(16.9429 0.000499336 0)
(16.909 0.00051716 0)
(16.8752 0.000533928 0)
(16.8418 0.000549145 0)
(16.8087 0.000562329 0)
(16.7762 0.000573201 0)
(16.7445 0.000581501 0)
(16.7136 0.000587041 0)
(16.6837 0.000589363 0)
(16.6549 0.000587825 0)
(16.6274 0.000581109 0)
(16.6015 0.000567644 0)
(16.5773 0.000545208 0)
(16.5552 0.000512286 0)
(16.5355 0.000467253 0)
(16.5186 0.000411167 0)
(16.5048 0.000343255 0)
(16.4944 0.000267926 0)
(16.4874 0.000181211 0)
(16.4842 7.90889e-05 0)
(16.4855 -2.95523e-05 0)
(16.4901 -0.000201766 0)
(16.5032 -0.000345613 0)
(16.5154 -0.000291384 0)
(16.5251 -0.000212243 0)
(16.5333 -0.000272947 0)
(16.5438 -0.000435377 0)
(16.5558 -0.000596273 0)
(16.5699 -0.000821885 0)
(16.5869 -0.00106141 0)
(16.607 -0.00132099 0)
(16.6303 -0.0015616 0)
(16.6564 -0.00182058 0)
(16.6853 -0.00210245 0)
(16.7169 -0.0024473 0)
(16.7514 -0.00287208 0)
(16.7892 -0.00338266 0)
(16.8304 -0.00399551 0)
(16.8754 -0.00469955 0)
(16.9246 -0.00553399 0)
(16.9787 -0.00653015 0)
(17.039 -0.00780205 0)
(17.1072 -0.0094724 0)
(17.186 -0.0119667 0)
(17.2822 -0.0155258 0)
(17.3972 -0.0247311 0)
(17.5931 -0.0399027 0)
(17.7188 -0.0981459 0)
(29.5632 0.0730455 0)
(24.304 0.015122 0)
(22.5026 0.00559688 0)
(21.6017 0.00328057 0)
(21.0372 0.00228784 0)
(20.6466 0.00171371 0)
(20.361 0.00134495 0)
(20.1429 0.0011022 0)
(19.9685 0.000941263 0)
(19.8237 0.000827324 0)
(19.7005 0.000737044 0)
(19.5947 0.000657168 0)
(19.5041 0.000583036 0)
(19.4268 0.000517496 0)
(19.3607 0.000463764 0)
(19.3034 0.000423727 0)
(19.2526 0.000396402 0)
(19.2065 0.00037868 0)
(19.164 0.000367659 0)
(19.1241 0.000361072 0)
(19.0863 0.000357876 0)
(19.0502 0.000357775 0)
(19.0153 0.000360919 0)
(18.9812 0.000367385 0)
(18.9477 0.000376878 0)
(18.9143 0.000388795 0)
(18.881 0.000402534 0)
(18.8477 0.000417731 0)
(18.8141 0.000434167 0)
(18.7804 0.000451707 0)
(18.7464 0.000470253 0)
(18.7122 0.000489754 0)
(18.6778 0.000510198 0)
(18.6432 0.000531527 0)
(18.6084 0.000553766 0)
(18.5735 0.00057692 0)
(18.5385 0.000600971 0)
(18.5034 0.000625802 0)
(18.4683 0.000651283 0)
(18.4332 0.000677168 0)
(18.3982 0.000703022 0)
(18.3633 0.000728216 0)
(18.3286 0.000751868 0)
(18.2942 0.000773387 0)
(18.2603 0.000791935 0)
(18.2271 0.000807066 0)
(18.1945 0.000818419 0)
(18.1629 0.000825658 0)
(18.1323 0.000828136 0)
(18.1029 0.00082495 0)
(18.0749 0.00081432 0)
(18.0486 0.00079412 0)
(18.0241 0.000760932 0)
(18.0019 0.000712718 0)
(17.9822 0.000646485 0)
(17.9655 0.000563841 0)
(17.9522 0.000463073 0)
(17.9423 0.00035016 0)
(17.9364 0.00021981 0)
(17.9344 6.68136e-05 0)
(17.9373 -9.48109e-05 0)
(17.9437 -0.000347426 0)
(17.9591 -0.000569242 0)
(17.9735 -0.000540376 0)
(17.9859 -0.000466904 0)
(17.9972 -0.000552336 0)
(18.0108 -0.000775204 0)
(18.0259 -0.00100717 0)
(18.0433 -0.00134077 0)
(18.0636 -0.00170306 0)
(18.0872 -0.00209767 0)
(18.1141 -0.00246656 0)
(18.144 -0.0028581 0)
(18.1769 -0.00327674 0)
(18.2127 -0.00377804 0)
(18.2516 -0.00438591 0)
(18.2939 -0.00511292 0)
(18.3398 -0.00598365 0)
(18.3896 -0.00698723 0)
(18.4438 -0.00817725 0)
(18.5032 -0.00959418 0)
(18.5688 -0.0113853 0)
(18.6426 -0.0137184 0)
(18.727 -0.01714 0)
(18.8286 -0.02199 0)
(18.9488 -0.0337454 0)
(19.1423 -0.0510637 0)
(19.2571 -0.116158 0)
(31.8185 0.0886759 0)
(26.3105 0.021502 0)
(24.266 0.00820358 0)
(23.2441 0.00474333 0)
(22.6121 0.00327135 0)
(22.1793 0.00243307 0)
(21.8649 0.00189928 0)
(21.6261 0.00154944 0)
(21.4359 0.00131824 0)
(21.2784 0.00115547 0)
(21.1448 0.00102745 0)
(21.0302 0.000914766 0)
(20.9323 0.000810352 0)
(20.8489 0.000717861 0)
(20.7777 0.000641726 0)
(20.7161 0.000584691 0)
(20.6617 0.000545513 0)
(20.6125 0.000519962 0)
(20.5672 0.000503963 0)
(20.5249 0.000494307 0)
(20.485 0.000489473 0)
(20.447 0.000488989 0)
(20.4103 0.00049301 0)
(20.3747 0.000501601 0)
(20.3396 0.000514358 0)
(20.3049 0.000530435 0)
(20.2702 0.000549 0)
(20.2356 0.000569522 0)
(20.2008 0.000591706 0)
(20.1659 0.000615356 0)
(20.1308 0.000640347 0)
(20.0956 0.000666603 0)
(20.0601 0.000694118 0)
(20.0246 0.000722811 0)
(19.9888 0.000752729 0)
(19.953 0.000783892 0)
(19.9172 0.000816314 0)
(19.8813 0.00084986 0)
(19.8454 0.000884356 0)
(19.8095 0.000919473 0)
(19.7738 0.000954612 0)
(19.7382 0.000988882 0)
(19.7028 0.00102121 0)
(19.6678 0.00105041 0)
(19.6333 0.00107559 0)
(19.5995 0.00109596 0)
(19.5664 0.00111096 0)
(19.5343 0.00112003 0)
(19.5033 0.00112246 0)
(19.4736 0.00111684 0)
(19.4453 0.00110092 0)
(19.4188 0.00107149 0)
(19.3943 0.00102407 0)
(19.3721 0.000955817 0)
(19.3526 0.000861873 0)
(19.3363 0.000744226 0)
(19.3235 0.000599599 0)
(19.3145 0.00043636 0)
(19.3095 0.000247443 0)
(19.3088 2.61569e-05 0)
(19.3134 -0.000206793 0)
(19.3217 -0.000562954 0)
(19.3393 -0.000884801 0)
(19.3554 -0.000903874 0)
(19.3703 -0.000859904 0)
(19.3844 -0.000983156 0)
(19.4009 -0.00128044 0)
(19.4191 -0.00160103 0)
(19.4396 -0.00207541 0)
(19.4631 -0.00260198 0)
(19.4901 -0.00317737 0)
(19.5203 -0.0037191 0)
(19.5537 -0.00428733 0)
(19.5902 -0.00488627 0)
(19.6298 -0.00559071 0)
(19.6727 -0.00643347 0)
(19.719 -0.00743532 0)
(19.7691 -0.00863294 0)
(19.8231 -0.010015 0)
(19.8817 -0.0116543 0)
(19.9455 -0.0136019 0)
(20.0157 -0.0160425 0)
(20.094 -0.0191984 0)
(20.183 -0.0237445 0)
(20.2886 -0.0301547 0)
(20.4121 -0.0446133 0)
(20.6016 -0.0644372 0)
(20.7075 -0.137965 0)
(33.9411 0.105639 0)
(28.3041 0.0296897 0)
(26.0133 0.0117663 0)
(24.8579 0.00673811 0)
(24.1505 0.00459751 0)
(23.6705 0.00339485 0)
(23.3243 0.00263601 0)
(23.0626 0.00214106 0)
(22.8551 0.00181489 0)
(22.6838 0.00158639 0)
(22.5389 0.0014079 0)
(22.4148 0.00125169 0)
(22.3089 0.0011073 0)
(22.2188 0.000979212 0)
(22.142 0.000873368 0)
(22.0756 0.000793618 0)
(22.0171 0.000738412 0)
(21.9645 0.000702141 0)
(21.9162 0.00067922 0)
(21.8712 0.00066523 0)
(21.8288 0.000657995 0)
(21.7886 0.000656796 0)
(21.75 0.000661747 0)
(21.7125 0.000672857 0)
(21.6758 0.000689558 0)
(21.6395 0.000710677 0)
(21.6034 0.000735072 0)
(21.5674 0.000761979 0)
(21.5314 0.00079099 0)
(21.4953 0.000821827 0)
(21.4591 0.000854339 0)
(21.4228 0.000888425 0)
(21.3864 0.000924107 0)
(21.3499 0.000961297 0)
(21.3134 0.00100009 0)
(21.2768 0.00104053 0)
(21.2402 0.00108272 0)
(21.2037 0.00112652 0)
(21.1672 0.00117172 0)
(21.1308 0.00121788 0)
(21.0945 0.00126421 0)
(21.0584 0.00130946 0)
(21.0226 0.00135226 0)
(20.9872 0.00139084 0)
(20.9523 0.001424 0)
(20.9182 0.00145068 0)
(20.8848 0.00146989 0)
(20.8525 0.00148103 0)
(20.8213 0.00148282 0)
(20.7915 0.00147371 0)
(20.7632 0.00145041 0)
(20.7367 0.00140879 0)
(20.7123 0.00134299 0)
(20.6904 0.00124856 0)
(20.6714 0.00111893 0)
(20.6556 0.000955646 0)
(20.6435 0.000753831 0)
(20.6353 0.000524243 0)
(20.6315 0.000257446 0)
(20.6321 -5.43225e-05 0)
(20.6382 -0.000382325 0)
(20.6484 -0.000870829 0)
(20.6679 -0.0013176 0)
(20.6855 -0.0014117 0)
(20.7026 -0.00143107 0)
(20.7192 -0.00161389 0)
(20.7384 -0.00200314 0)
(20.7594 -0.00242951 0)
(20.7828 -0.00308011 0)
(20.8093 -0.00382131 0)
(20.8392 -0.00463655 0)
(20.8725 -0.00540902 0)
(20.9092 -0.00621062 0)
(20.9489 -0.0070449 0)
(20.9919 -0.00800909 0)
(21.0381 -0.00914879 0)
(21.088 -0.0104938 0)
(21.1416 -0.0120985 0)
(21.1992 -0.0139505 0)
(21.2615 -0.0161466 0)
(21.3289 -0.0187499 0)
(21.4028 -0.0219898 0)
(21.4846 -0.0261474 0)
(21.5769 -0.0320321 0)
(21.6852 -0.0402946 0)
(21.8104 -0.0576179 0)
(21.9943 -0.0805659 0)
(22.0915 -0.162402 0)
(35.9317 0.12379 0)
(30.3026 0.0400022 0)
(27.7707 0.0165907 0)
(26.4685 0.00945423 0)
(25.676 0.00638708 0)
(25.1427 0.00468229 0)
(24.7605 0.00361643 0)
(24.473 0.00292481 0)
(24.2461 0.00247022 0)
(24.0594 0.00215313 0)
(23.9018 0.00190707 0)
(23.7672 0.00169312 0)
(23.6525 0.00149607 0)
(23.5549 0.00132115 0)
(23.4717 0.00117607 0)
(23.4 0.00106607 0)
(23.337 0.000989233 0)
(23.2803 0.000938281 0)
(23.2286 0.000905715 0)
(23.1805 0.000885582 0)
(23.1354 0.000874831 0)
(23.0927 0.000872399 0)
(23.0519 0.000878289 0)
(23.0124 0.000892388 0)
(22.9738 0.000913861 0)
(22.9358 0.0009411 0)
(22.8981 0.000972543 0)
(22.8606 0.00100709 0)
(22.8232 0.00104417 0)
(22.7859 0.00108338 0)
(22.7485 0.00112455 0)
(22.7112 0.00116753 0)
(22.6739 0.00121242 0)
(22.6366 0.00125915 0)
(22.5994 0.00130788 0)
(22.5622 0.00135875 0)
(22.525 0.00141195 0)
(22.488 0.00146743 0)
(22.451 0.00152496 0)
(22.4143 0.00158398 0)
(22.3777 0.00164344 0)
(22.3413 0.00170174 0)
(22.3053 0.00175674 0)
(22.2697 0.00180656 0)
(22.2347 0.0018491 0)
(22.2005 0.00188309 0)
(22.1671 0.00190708 0)
(22.1348 0.00192021 0)
(22.1037 0.00192071 0)
(22.074 0.00190644 0)
(22.046 0.0018732 0)
(22.0197 0.00181595 0)
(21.9957 0.00172645 0)
(21.9742 0.00159875 0)
(21.9557 0.00142353 0)
(21.9406 0.00120207 0)
(21.9293 0.000926699 0)
(21.9222 0.000611273 0)
(21.9194 0.000242388 0)
(21.9214 -0.000187837 0)
(21.9291 -0.000641457 0)
(21.941 -0.00129727 0)
(21.9623 -0.0018975 0)
(21.9811 -0.00209841 0)
(21.9999 -0.00222535 0)
(22.0187 -0.00250151 0)
(22.0401 -0.00300738 0)
(22.0636 -0.00355474 0)
(22.0896 -0.00441638 0)
(22.1188 -0.00542932 0)
(22.1514 -0.00655743 0)
(22.1874 -0.0076359 0)
(22.2267 -0.00874427 0)
(22.2693 -0.00988413 0)
(22.3151 -0.0111772 0)
(22.3642 -0.0126882 0)
(22.4169 -0.0144564 0)
(22.4734 -0.0165602 0)
(22.534 -0.0189872 0)
(22.5991 -0.0218622 0)
(22.6694 -0.0252631 0)
(22.7459 -0.0294687 0)
(22.8303 -0.0348254 0)
(22.9249 -0.0422814 0)
(23.0345 -0.0527034 0)
(23.1598 -0.0730459 0)
(23.3364 -0.0998227 0)
(23.4242 -0.188017 0)
(37.7789 0.142847 0)
(32.3129 0.0527293 0)
(29.5583 0.0230566 0)
(28.0971 0.0131471 0)
(27.2083 0.00880647 0)
(26.6139 0.0064103 0)
(26.1905 0.004925 0)
(25.8736 0.00396636 0)
(25.6244 0.00333778 0)
(25.4202 0.00290096 0)
(25.2484 0.00256412 0)
(25.1019 0.00227336 0)
(24.9771 0.00200684 0)
(24.8711 0.00177031 0)
(24.7808 0.00157346 0)
(24.703 0.00142318 0)
(24.6347 0.00131712 0)
(24.5735 0.00124597 0)
(24.5177 0.00119986 0)
(24.4661 0.00117091 0)
(24.4179 0.00115492 0)
(24.3724 0.00115038 0)
(24.329 0.00115707 0)
(24.2872 0.00117466 0)
(24.2466 0.00120188 0)
(24.2066 0.00123654 0)
(24.1672 0.0012765 0)
(24.1282 0.00132019 0)
(24.0893 0.00136678 0)
(24.0507 0.00141567 0)
(24.0122 0.00146664 0)
(23.9739 0.00151954 0)
(23.9357 0.00157452 0)
(23.8977 0.00163158 0)
(23.8598 0.00169103 0)
(23.8221 0.00175315 0)
(23.7845 0.00181829 0)
(23.7471 0.00188653 0)
(23.71 0.00195772 0)
(23.673 0.00203117 0)
(23.6363 0.00210555 0)
(23.5999 0.00217876 0)
(23.5639 0.00224795 0)
(23.5284 0.00231058 0)
(23.4935 0.00236394 0)
(23.4594 0.00240601 0)
(23.4263 0.00243517 0)
(23.3943 0.00244983 0)
(23.3635 0.00244798 0)
(23.3342 0.00242652 0)
(23.3065 0.00238038 0)
(23.2808 0.00230273 0)
(23.2573 0.00218334 0)
(23.2365 0.00201404 0)
(23.2187 0.00178198 0)
(23.2044 0.00148785 0)
(23.1941 0.00111972 0)
(23.1879 0.000695092 0)
(23.1864 0.000194123 0)
(23.1898 -0.000388883 0)
(23.1988 -0.00100703 0)
(23.2125 -0.0018737 0)
(23.2353 -0.00266033 0)
(23.2551 -0.00300489 0)
(23.2753 -0.00329394 0)
(23.2958 -0.00371253 0)
(23.3191 -0.0043727 0)
(23.3447 -0.00505564 0)
(23.3729 -0.0061564 0)
(23.4042 -0.00749993 0)
(23.439 -0.0090255 0)
(23.4773 -0.0105048 0)
(23.5189 -0.0120146 0)
(23.5637 -0.0135511 0)
(23.6118 -0.0152598 0)
(23.6632 -0.0172318 0)
(23.7182 -0.0195175 0)
(23.7769 -0.0222255 0)
(23.8396 -0.0253468 0)
(23.9068 -0.0290373 0)
(23.979 -0.0333945 0)
(24.0574 -0.0387498 0)
(24.1434 -0.0455202 0)
(24.239 -0.0547955 0)
(24.3487 -0.0676902 0)
(24.4726 -0.0911882 0)
(24.6403 -0.122334 0)
(24.7174 -0.213838 0)
(39.4609 0.16236 0)
(34.3302 0.0680662 0)
(31.391 0.0316159 0)
(29.7621 0.0181561 0)
(28.7649 0.0120843 0)
(28.1003 0.00873795 0)
(27.6292 0.00667863 0)
(27.2781 0.00535652 0)
(27.0032 0.00449155 0)
(26.7789 0.00389234 0)
(26.5907 0.00343291 0)
(26.4306 0.00303939 0)
(26.2945 0.00268086 0)
(26.1788 0.00236305 0)
(26.0803 0.00209777 0)
(25.9955 0.0018938 0)
(25.9212 0.00174813 0)
(25.8548 0.00164908 0)
(25.7944 0.00158377 0)
(25.7388 0.001542 0)
(25.687 0.00151805 0)
(25.6383 0.00150986 0)
(25.592 0.00151683 0)
(25.5476 0.0015383 0)
(25.5046 0.00157233 0)
(25.4626 0.00161591 0)
(25.4212 0.00166611 0)
(25.3805 0.00172073 0)
(25.3401 0.00177849 0)
(25.3002 0.00183851 0)
(25.2605 0.00190047 0)
(25.2212 0.00196416 0)
(25.1822 0.00202986 0)
(25.1434 0.00209767 0)
(25.105 0.00216809 0)
(25.0669 0.00224172 0)
(25.029 0.00231909 0)
(24.9915 0.00240055 0)
(24.9542 0.00248612 0)
(24.9173 0.0025751 0)
(24.8807 0.00266574 0)
(24.8445 0.00275536 0)
(24.8087 0.00284043 0)
(24.7735 0.00291726 0)
(24.739 0.00298253 0)
(24.7054 0.00303345 0)
(24.6727 0.00306765 0)
(24.6412 0.00308316 0)
(24.611 0.00307723 0)
(24.5824 0.003046 0)
(24.5554 0.00298298 0)
(24.5304 0.00287951 0)
(24.5076 0.00272289 0)
(24.4876 0.00250236 0)
(24.4707 0.00220073 0)
(24.4574 0.00181738 0)
(24.4481 0.00133453 0)
(24.4431 0.00077322 0)
(24.4427 0.000104325 0)
(24.4474 -0.000673252 0)
(24.4579 -0.00150431 0)
(24.473 -0.00263662 0)
(24.4973 -0.00365017 0)
(24.5179 -0.00418023 0)
(24.5391 -0.00469377 0)
(24.561 -0.00532269 0)
(24.5858 -0.00619484 0)
(24.613 -0.00703432 0)
(24.6428 -0.00839036 0)
(24.6759 -0.0101154 0)
(24.7124 -0.0121274 0)
(24.7524 -0.0141212 0)
(24.7958 -0.0161511 0)
(24.8423 -0.0182024 0)
(24.8921 -0.0204375 0)
(24.9452 -0.0229812 0)
(25.0017 -0.0258972 0)
(25.0619 -0.0293301 0)
(25.126 -0.0332804 0)
(25.1945 -0.0379371 0)
(25.2679 -0.0434253 0)
(25.3472 -0.0501323 0)
(25.4338 -0.0585484 0)
(25.5295 -0.0699005 0)
(25.638 -0.0855688 0)
(25.759 -0.112324 0)
(25.9161 -0.148051 0)
(25.9821 -0.239632 0)
(40.948 0.181682 0)
(36.3359 0.0860121 0)
(33.2771 0.0427639 0)
(31.4795 0.0249214 0)
(30.3623 0.0165322 0)
(29.6173 0.0118853 0)
(29.0907 0.00903925 0)
(28.6996 0.007221 0)
(28.3947 0.00603395 0)
(28.1469 0.00521371 0)
(27.9397 0.00458794 0)
(27.764 0.00405603 0)
(27.6147 0.00357478 0)
(27.488 0.00314916 0)
(27.38 0.00279306 0)
(27.2872 0.00251727 0)
(27.2059 0.00231781 0)
(27.1334 0.00218006 0)
(27.0678 0.00208735 0)
(27.0075 0.00202668 0)
(26.9516 0.00199042 0)
(26.8992 0.00197581 0)
(26.8496 0.00198172 0)
(26.8023 0.00200702 0)
(26.7567 0.00204877 0)
(26.7123 0.00210284 0)
(26.6689 0.00216521 0)
(26.6263 0.00223278 0)
(26.5843 0.00230363 0)
(26.5429 0.00237641 0)
(26.5021 0.00245059 0)
(26.4617 0.00252587 0)
(26.4219 0.00260261 0)
(26.3826 0.00268105 0)
(26.3437 0.00276208 0)
(26.3053 0.00284662 0)
(26.2673 0.00293567 0)
(26.2297 0.00302987 0)
(26.1926 0.00312959 0)
(26.1559 0.00323431 0)
(26.1196 0.00334179 0)
(26.0838 0.00344879 0)
(26.0485 0.00355064 0)
(26.0138 0.0036427 0)
(25.9799 0.00372036 0)
(25.947 0.00378038 0)
(25.915 0.00381905 0)
(25.8843 0.00383413 0)
(25.855 0.00382165 0)
(25.8271 0.00377707 0)
(25.8011 0.00369195 0)
(25.777 0.00355626 0)
(25.7552 0.00335359 0)
(25.7362 0.00307071 0)
(25.7204 0.00268467 0)
(25.7082 0.00219351 0)