/*--------------------------------*- C++ -*----------------------------------*\
  =========                 |
  \\      /  F ield         | OpenFOAM: The Open Source CFD Toolbox
   \\    /   O peration     | Website:  https://openfoam.org
    \\  /    A nd           | Version:  8
     \\/     M anipulation  |
\*---------------------------------------------------------------------------*/
FoamFile
{
    version     2.0;
    format      ascii;
    class       volScalarField;
    location    "225";
    object      epsilon;
}
// * * * * * * * * * * * * * * * * * * * * * * * * * * * * * * * * * * * * * //

dimensions      [0 2 -3 0 0 0 0];

internalField   nonuniform List<scalar> 
12225
(
285.514
270.7
257.918
243.807
232.466
223.08
216.817
212.696
212.741
213.954
217.243
220.886
228.102
232.792
241.282
246.6
255.024
262.912
52.4941
91.8799
106.972
114.747
124.843
136.78
152.691
169.898
191.109
210.924
235.226
255.469
281.051
299.31
324.741
339.268
364.539
373.461
20.3233
34.8563
44.6751
50.469
55.3965
59.6064
64.6648
69.641
76.3178
83.1809
91.436
99.3142
108.171
116.931
125.537
135.273
142.56
153.717
15.3483
19.6975
24.1127
27.5685
30.4975
32.8692
35.1555
37.2928
39.5027
41.9168
44.3368
47.2002
49.6814
53.0365
55.4117
59.232
61.4283
65.6366
14.6508
15.8626
17.3671
19.0736
20.6384
22.0257
23.2461
24.4308
25.444
26.5943
27.5233
28.7574
29.6318
30.9845
31.8126
33.2635
34.0763
35.6432
14.7068
14.8769
15.2015
15.8666
16.5668
17.2867
17.9236
18.5841
19.1191
19.7338
20.1932
20.7987
21.2082
21.8221
22.1978
22.8246
23.1785
23.857
14.7421
14.6201
14.6248
14.737
14.9297
15.219
15.4913
15.8088
16.0709
16.3825
16.6181
16.9201
17.1308
17.4268
17.6157
17.9118
18.0811
18.4056
14.7626
14.5866
14.4638
14.3812
14.3669
14.39
14.4381
14.5337
14.6185
14.7366
14.8308
14.9564
15.0477
15.1761
15.2609
15.3916
15.4697
15.6193
14.7667
14.5908
14.4346
14.2963
14.1849
14.1044
14.0398
14.0066
13.9814
13.9785
13.9809
13.9916
14.004
14.0295
14.0471
14.0793
14.1031
14.1455
14.7663
14.5939
14.432
14.282
14.143
14.0219
13.9115
13.8193
13.737
13.6698
13.6102
13.5633
13.5181
13.4871
13.4516
13.4341
13.4022
13.4008
14.7658
14.5945
14.4321
14.2803
14.1362
14.0032
13.8782
13.7644
13.6582
13.5629
13.4735
13.3952
13.3198
13.2561
13.1915
13.1408
13.0838
13.0451
14.7657
14.5943
14.4321
14.2798
14.1353
13.9999
13.8715
13.7518
13.6385
13.5337
13.4341
13.343
13.2557
13.1771
13.1003
13.0328
12.9647
12.9074
14.7657
14.5941
14.432
14.2794
14.1349
13.9989
13.8699
13.7485
13.6332
13.5249
13.422
13.3257
13.2338
13.1483
13.0663
12.9906
12.9172
12.8502
14.7657
14.5939
14.4318
14.279
14.1346
13.9983
13.8691
13.7472
13.6315
13.5223
13.4184
13.3203
13.227
13.1389
13.055
12.9759
12.9002
12.8291
14.7657
14.5938
14.4317
14.2787
14.1342
13.9977
13.8686
13.7464
13.6307
13.5211
13.4171
13.3185
13.2248
13.136
13.0516
12.9714
12.8951
12.8227
14.7657
14.5937
14.4316
14.2785
14.1339
13.9973
13.8681
13.7458
13.63
13.5202
13.4161
13.3174
13.2236
13.1346
13.05
12.9696
12.8931
12.8204
14.7657
14.5937
14.4315
14.2783
14.1337
13.997
13.8677
13.7453
13.6294
13.5195
13.4154
13.3165
13.2227
13.1336
13.0489
12.9684
12.8918
12.819
14.7657
14.5937
14.4314
14.2782
14.1335
13.9968
13.8674
13.745
13.629
13.5191
13.4148
13.3159
13.222
13.1329
13.0481
12.9675
12.8909
12.818
14.7657
14.5937
14.4314
14.2782
14.1335
13.9967
13.8673
13.7448
13.6288
13.5189
13.4146
13.3156
13.2217
13.1325
13.0477
12.9671
12.8904
12.8174
14.7657
14.5937
14.4314
14.2782
14.1336
13.9968
13.8674
13.745
13.629
13.519
13.4148
13.3159
13.2219
13.1327
13.0479
12.9673
12.8907
12.8177
14.7657
14.5937
14.4315
14.2784
14.1337
13.997
13.8677
13.7453
13.6294
13.5196
13.4154
13.3166
13.2229
13.1338
13.0493
12.9689
12.8926
12.82
14.7657
14.5937
14.4316
14.2785
14.1341
13.9974
13.8685
13.7464
13.6312
13.522
13.419
13.3214
13.2293
13.1418
13.0595
12.981
12.9073
12.8368
14.7658
14.5937
14.4318
14.2788
14.1353
14.0002
13.8742
13.756
13.6463
13.5435
13.4485
13.3591
13.277
13.1992
13.1282
13.0601
12.9988
12.9386
14.7655
14.5928
14.4328
14.2844
14.1515
14.0321
13.929
13.8375
13.7593
13.6894
13.6306
13.5769
13.5328
13.4905
13.4574
13.423
13.3988
13.3693
14.7592
14.5932
14.4603
14.3602
14.3029
14.2766
14.2805
14.2921
14.321
14.3531
14.3959
14.4345
14.4824
14.5217
14.572
14.6089
14.6616
14.6939
14.7213
14.6911
14.754
14.9176
15.1828
15.4611
15.7476
16.012
16.2723
16.5038
16.7361
16.9386
17.1507
17.3309
17.531
17.6937
17.8889
18.036
14.7477
15.5124
16.5473
17.6841
18.7044
19.5675
20.3372
20.9968
21.6195
22.1661
22.719
23.2109
23.74
24.2044
24.7328
25.1828
25.7252
26.1662
15.9871
20.992
25.0238
27.7604
29.7847
31.3585
32.7771
34.058
35.3595
36.6165
37.9756
39.2974
40.7619
42.1461
43.7183
45.1743
46.8844
48.3592
29.9032
47.2182
54.8696
58.6735
61.6141
64.4321
67.5809
70.9779
74.7392
78.7152
82.9864
87.3458
91.9068
96.452
101.103
105.624
110.178
114.579
165.798
160.075
154.899
149.564
144.479
139.677
135.614
132.109
129.27
126.974
125.32
124.044
123.34
122.825
122.842
122.96
123.284
123.828
0.296644
0.341342
0.619216
0.877914
1.15178
1.45358
1.79019
2.16349
2.56981
3.00078
3.44746
3.90037
4.35168
4.79311
5.21733
5.61545
5.97874
6.2965
6.5587
6.75484
6.87828
6.92049
6.883
6.75452
6.64122
6.57783
6.96037
7.2359
7.56129
7.88527
8.20917
8.52302
8.80464
9.0077
9.20612
9.2598
8.93368
40.8904
42.0024
41.9333
46.6618
49.2861
52.9518
56.5227
60.3385
64.3118
68.4533
72.7722
77.263
81.9346
86.7869
91.8252
97.052
102.471
108.086
113.899
119.914
126.133
132.559
139.194
146.038
153.095
160.364
167.846
175.541
183.448
191.566
199.894
208.429
217.169
226.109
235.247
244.577
254.094
263.791
273.664
283.702
293.901
304.249
314.74
325.361
336.105
346.956
357.909
368.943
380.052
391.215
402.423
413.654
424.893
436.116
447.301
458.422
469.452
480.364
491.141
501.787
512.359
522.822
533.124
543.281
553.269
563.078
572.689
582.086
591.257
600.183
608.855
617.254
625.371
633.187
640.696
647.876
654.722
661.216
667.35
673.108
678.484
683.464
688.042
692.203
695.937
699.227
702.07
704.449
706.358
707.765
708.544
709.493
709.367
708.8
707.635
706.071
704.065
701.497
698.428
694.847
690.759
686.166
681.058
675.427
669.282
662.63
655.484
647.857
639.766
631.225
622.256
612.881
603.126
593.017
582.586
571.863
560.887
549.694
538.336
526.891
515.554
505.753
499.236
493.191
487.07
480.832
474.495
468.086
461.633
455.161
448.696
442.261
435.877
429.561
423.327
417.187
411.09
405.031
398.983
392.816
385.989
378.453
352.184
1.39285
0.840665
0.845366
0.958167
1.13156
1.35207
1.61615
1.91941
2.25561
2.61736
2.9973
3.38883
3.78625
4.1846
4.57928
4.96582
5.33963
5.6961
6.0305
6.33821
6.61712
6.9058
7.21404
7.57295
8.02695
8.58056
9.21414
9.87646
10.6414
11.5447
12.4127
13.3095
13.8934
15.442
17.1489
19.1647
21.9357
25.3471
26.3421
27.8033
29.6344
31.2735
33.0666
34.8944
36.7959
38.761
40.793
42.894
45.0648
47.3074
49.6227
52.0122
54.4768
57.0178
59.636
62.3321
65.1068
67.9608
70.8942
73.9076
77.0008
80.174
83.4268
86.759
90.1699
93.659
97.225
100.867
104.584
108.374
112.236
116.167
120.166
124.23
128.356
132.542
136.785
141.081
145.427
149.82
154.255
158.728
163.235
167.771
172.33
176.908
181.498
186.095
190.691
195.28
199.853
204.403
208.922
213.405
217.849
222.262
226.661
231.094
235.524
239.891
244.201
248.445
252.618
256.715
260.728
264.653
268.484
272.214
275.84
279.355
282.755
286.034
289.186
292.207
295.093
297.837
300.437
302.886
305.182
307.32
309.294
311.1
312.733
314.188
315.462
316.551
317.451
318.162
318.742
319.034
319.132
319.01
318.712
318.231
317.527
316.613
315.486
314.146
312.591
310.82
308.829
306.622
304.199
301.566
298.724
295.68
292.438
289.005
285.39
281.6
277.646
273.539
269.289
264.912
260.421
255.833
251.176
246.521
242.136
238.359
234.743
231.131
227.494
223.836
220.166
216.497
212.839
209.204
205.602
202.043
198.536
195.088
191.709
188.391
185.133
181.949
178.848
175.851
173.215
169.385
2.85657
1.45072
1.29528
1.34084
1.47036
1.65895
1.89672
2.177
2.4931
2.83803
3.20519
3.58899
3.98515
4.39063
4.8034
5.2223
5.647
6.07835
6.51884
6.97428
7.45454
7.95256
8.48421
9.06096
9.69033
10.3642
11.0747
11.8175
12.6156
13.41
14.2855
15.2324
16.2728
17.4752
18.8132
20.2571
21.7747
23.2217
24.4599
25.7991
27.2094
28.6432
30.1357
31.6789
33.2765
34.928
36.6343
38.3963
40.2147
42.0902
44.0237
46.0159
48.0673
50.1786
52.3502
54.5828
56.8765
59.2318
61.6489
64.1279
66.6689
69.2717
71.9363
74.6622
77.4491
80.2965
83.2036
86.1697
89.1936
92.2745
95.4109
98.6015
101.845
105.139
108.481
111.871
115.305
118.781
122.296
125.847
129.432
133.048
136.69
140.354
144.039
147.738
151.448
155.165
158.884
162.602
166.312
170.012
173.698
177.368
181.023
184.665
188.297
191.92
195.513
199.062
202.563
206.012
209.403
212.731
215.991
219.179
222.29
225.32
228.264
231.117
233.877
236.537
239.094
241.544
243.884
246.109
248.215
250.2
252.059
253.789
255.387
256.847
258.167
259.343
260.373
261.254
261.984
262.562
262.991
263.225
263.293
263.197
262.947
262.537
261.953
261.197
260.27
259.169
257.895
256.447
254.824
253.028
251.06
248.924
246.621
244.157
241.535
238.76
235.84
232.78
229.588
226.274
222.846
219.313
215.689
211.985
208.223
204.447
200.763
197.28
193.884
190.504
187.124
183.743
180.368
177.008
173.672
170.368
167.105
163.891
160.733
157.638
154.614
151.663
148.795
146.025
143.377
140.92
138.818
136.639
4.43499
2.11254
1.7906
1.77714
1.88006
2.05259
2.27806
2.5478
2.85518
3.19413
3.55915
3.94569
4.3504
4.77131
5.20765
5.65975
6.12874
6.61648
7.12538
7.65825
8.21749
8.80368
9.41927
10.0654
10.7393
11.437
12.1559
12.8953
13.6567
14.4771
15.3567
16.2993
17.3202
18.4112
19.5512
20.7657
22.0148
23.2658
24.5183
25.8164
27.1632
28.5503
29.9846
31.4675
33.0004
34.584
36.2193
37.9071
39.6481
41.4433
43.2933
45.1989
47.1607
49.1793
51.2551
53.3889
55.581
57.8319
60.1419
62.5113
64.9403
67.4291
69.9775
72.5856
75.2532
77.9798
80.765
83.6083
86.5089
89.4659
92.4783
95.5448
98.6642
101.835
105.055
108.323
111.636
114.992
118.389
121.825
125.295
128.797
132.329
135.886
139.464
143.061
146.672
150.293
153.92
157.55
161.179
164.803
168.419
172.024
175.617
179.197
182.76
186.298
189.802
193.262
196.675
200.034
203.336
206.574
209.743
212.839
215.858
218.794
221.643
224.401
227.063
229.626
232.084
234.435
236.674
238.797
240.802
242.685
244.441
246.069
247.563
248.922
250.141
251.219
252.151
252.937
253.574
254.061
254.383
254.523
254.519
254.354
254.03
253.545
252.894
252.077
251.094
249.944
248.627
247.144
245.495
243.682
241.707
239.572
237.281
234.837
232.246
229.512
226.641
223.64
220.516
217.278
213.934
210.494
206.969
203.373
199.725
196.057
192.424
188.874
185.374
181.892
178.419
174.956
171.51
168.088
164.699
161.35
158.049
154.805
151.623
148.512
145.479
142.528
139.671
136.929
134.329
131.943
129.869
127.921
5.97471
2.77426
2.28497
2.21534
2.29064
2.44762
2.66231
2.92338
3.22364
3.55738
3.91975
4.30679
4.71559
5.14437
5.59245
6.06012
6.54837
7.05867
7.59262
8.15175
8.73703
9.34886
9.98737
10.6528
11.3434
12.0576
12.7953
13.5595
14.3553
15.1921
16.0737
17.0046
17.9884
19.024
20.1083
21.24
22.4155
23.6304
24.8823
26.1787
27.5191
28.9059
30.3401
31.823
33.356
34.9401
36.5763
38.2656
40.0091
41.8077
43.6624
45.5744
47.5446
49.5733
51.6613
53.8094
56.0183
58.2887
60.6212
63.0164
65.4747
67.9965
70.5821
73.2316
75.9451
78.7225
81.5637
84.4683
87.4357
90.4652
93.5561
96.7072
99.9174
103.185
106.509
109.887
113.316
116.796
120.323
123.894
127.506
131.157
134.843
138.56
142.305
146.073
149.861
153.664
157.479
161.3
165.124
168.947
172.763
176.57
180.363
184.136
187.883
191.598
195.273
198.902
202.479
205.999
209.454
212.841
216.152
219.384
222.53
225.586
228.547
231.407
234.162
236.809
239.341
241.756
244.048
246.215
248.253
250.158
251.926
253.555
255.041
256.38
257.57
258.608
259.492
260.219
260.788
261.196
261.418
261.476
261.373
261.102
260.663
260.054
259.274
258.323
257.2
255.906
254.441
252.807
251.005
249.038
246.907
244.615
242.167
239.567
236.819
233.929
230.903
227.748
224.472
221.084
217.592
214.007
210.34
206.607
202.823
199.013
195.213
191.448
187.712
183.994
180.29
176.605
172.944
169.316
165.728
162.189
158.707
155.289
151.942
148.675
145.496
142.411
139.436
136.591
133.904
131.44
129.261
127.217
7.42015
3.40706
2.75605
2.63154
2.67885
2.8197
3.023
3.27464
3.56647
3.89276
4.249
4.63154
5.03762
5.46544
5.91406
6.38338
6.87391
7.3866
7.92259
8.48302
9.06884
9.68077
10.3193
10.9847
11.6772
12.3975
13.1469
13.9275
14.7426
15.596
16.4907
17.4296
18.4143
19.4453
20.5229
21.6473
22.8176
24.0328
25.293
26.5997
27.9539
29.3568
30.8095
32.3133
33.8695
35.4794
37.1442
38.8652
40.6436
42.4806
44.3773
46.3348
48.3542
50.4369
52.5842
54.7971
57.0769
59.4244
61.8406
64.3265
66.8828
69.5103
72.2096
74.9811
77.8253
80.7422
83.732
86.7944
89.9293
93.136
96.4137
99.7617
103.179
106.663
110.213
113.827
117.503
121.238
125.029
128.874
132.769
136.71
140.694
144.717
148.775
152.862
156.975
161.108
165.257
169.416
173.581
177.746
181.906
186.054
190.185
194.291
198.368
202.406
206.399
210.34
214.222
218.038
221.783
225.45
229.031
232.522
235.916
239.208
242.391
245.46
248.41
251.237
253.935
256.499
258.926
261.211
263.351
265.342
267.179
268.861
270.383
271.742
272.936
273.962
274.817
275.501
276.012
276.335
276.468
276.43
276.213
275.815
275.235
274.472
273.526
272.398
271.088
269.598
267.928
266.081
264.059
261.864
259.5
256.97
254.278
251.43
248.43
245.284
242
238.584
235.046
231.393
227.638
223.79
219.862
215.867
211.822
207.748
203.668
199.602
195.554
191.524
187.512
183.524
179.568
175.651
171.783
167.972
164.226
160.552
156.96
153.457
150.051
146.754
143.578
140.546
137.686
135.053
132.68
130.403
8.73152
3.99075
3.18754
3.00951
3.0286
3.15235
3.34304
3.58375
3.86526
4.18159
4.52832
4.90206
5.3002
5.72093
6.16319
6.62661
7.1114
7.61823
8.14804
8.70198
9.28118
9.88681
10.52
11.1817
11.8731
12.5956
13.3507
14.1401
14.966
15.8306
16.7359
17.684
18.6761
19.7134
20.7969
21.9273
23.1051
24.3308
25.605
26.9289
28.3035
29.7303
31.2104
32.7453
34.3365
35.9855
37.6939
39.4631
41.2948
43.1905
45.1517
47.1801
49.2771
51.4444
53.6837
55.9964
58.384
60.8481
63.3899
66.0108
68.7119
71.4944
74.3592
77.3071
80.3389
83.4549
86.6555
89.9408
93.3106
96.7646
100.302
103.922
107.624
111.405
115.265
119.2
123.209
127.289
131.437
135.649
139.921
144.25
148.631
153.06
157.531
162.039
166.579
171.146
175.732
180.333
184.941
189.55
194.153
198.744
203.314
207.856
212.362
216.823
221.232
225.582
229.863
234.07
238.193
242.226
246.162
249.992
253.711
257.312
260.788
264.133
267.341
270.406
273.324
276.089
278.696
281.141
283.42
285.53
287.465
289.223
290.802
292.196
293.405
294.425
295.256
295.895
296.339
296.569
296.608
296.452
296.099
295.549
294.799
293.851
292.706
291.364
289.828
288.099
286.179
284.071
281.778
279.303
276.65
273.824
270.829
267.671
264.355
260.889
257.279
253.534
249.664
245.678
241.587
237.403
233.138
228.807
224.425
220.009
215.581
211.157
206.744
202.348
197.975
193.631
189.325
185.066
180.862
176.724
172.659
168.676
164.783
160.989
157.303
153.738
150.307
147.032
143.94
141.076
138.454
135.884
9.88048
4.5105
3.56813
3.33787
3.32942
3.43488
3.61157
3.83981
4.10923
4.41349
4.7482
5.11015
5.49692
5.90683
6.33883
6.79251
7.26796
7.76574
8.28671
8.83202
9.40295
10.0009
10.6274
11.2838
11.9717
12.6926
13.448
14.2398
15.0694
15.9387
16.8494
17.803
18.801
19.8448
20.9356
22.0747
23.2631
24.5021
25.7928
27.1365
28.5347
29.9892
31.5014
33.0733
34.7064
36.4029
38.1644
39.9929
41.8904
43.859
45.9005
48.017
50.2107
52.4835
54.8375
57.2748
59.7972
62.4068
65.1054
67.8947
70.7764
73.752
76.8229
79.9903
83.2551
86.6181
90.08
93.6411
97.3013
101.06
104.918
108.873
112.924
117.069
121.307
125.635
130.051
134.551
139.131
143.789
148.518
153.316
158.176
163.092
168.06
173.073
178.125
183.208
188.315
193.44
198.574
203.709
208.837
213.95
219.039
224.094
229.106
234.067
238.966
243.796
248.547
253.21
257.777
262.239
266.587
270.814
274.911
278.871
282.686
286.349
289.854
293.194
296.364
299.358
302.17
304.797
307.233
309.474
311.518
313.359
314.996
316.426
317.645
318.652
319.446
320.026
320.38
320.509
320.426
320.127
319.61
318.876
317.924
316.757
315.375
313.782
311.979
309.97
307.757
305.344
302.735
299.934
296.946
293.776
290.43
286.913
283.233
279.396
275.411
271.288
267.036
262.665
258.187
253.615
248.961
244.241
239.468
234.661
229.836
225.01
220.193
215.394
210.62
205.881
201.186
196.545
191.967
187.461
183.038
178.704
174.471
170.346
166.341
162.467
158.74
155.179
151.81
148.67
145.755
142.859
10.8504
4.95692
3.89078
3.60953
3.57506
3.66166
3.82324
4.03773
4.29369
4.58438
4.9054
5.25367
5.62699
6.02383
6.44328
6.885
7.34912
7.83615
8.34681
8.88216
9.4436
10.0327
10.6511
11.3003
11.9821
12.698
13.4498
14.239
15.0674
15.9365
16.8481
17.8038
18.8051
19.8538
20.9513
22.0993
23.2993
24.5529
25.8617
27.2271
28.6512
30.1364
31.6847
33.2984
34.9796
36.7307
38.554
40.4518
42.4267
44.4811
46.6175
48.8385
51.1468
53.5449
56.0354
58.621
61.3041
64.0871
66.9725
69.9626
73.0594
76.2649
79.581
83.0092
86.5509
90.2071
93.9787
97.8662
101.87
105.989
110.224
114.572
119.034
123.607
128.288
133.075
137.965
142.954
148.037
153.211
158.47
163.808
169.219
174.697
180.235
185.826
191.46
197.132
202.831
208.55
214.279
220.008
225.727
231.428
237.098
242.729
248.308
253.826
259.272
264.636
269.907
275.075
280.131
285.064
289.864
294.523
299.032
303.38
307.561
311.567
315.389
319.021
322.457
325.689
328.714
331.525
334.119
336.49
338.635
340.551
342.234
343.683
344.895
345.868
346.602
347.095
347.333
347.334
347.094
346.615
345.898
344.942
343.749
342.321
340.662
338.775
336.663
334.331
331.782
329.021
326.053
322.883
319.516
315.96
312.219
308.303
304.216
299.969
295.57
291.028
286.354
281.559
276.656
271.657
266.575
261.427
256.226
250.99
245.734
240.475
235.225
229.994
224.792
219.63
214.518
209.466
204.484
199.582
194.77
190.058
185.454
180.969
176.613
172.4
168.343
164.463
160.782
157.331
154.092
150.848
11.6332
5.32488
4.15226
3.82407
3.76432
3.83181
3.97753
4.17737
4.41894
4.69513
5.00148
5.33502
5.69375
6.0763
6.48155
6.90962
7.36095
7.8364
8.3374
8.86387
9.417
9.99823
10.6091
11.2513
11.9265
12.6364
13.3827
14.1672
14.9917
15.8578
16.7676
17.7227
18.725
19.7765
20.8789
22.0344
23.2449
24.5124
25.8391
27.2273
28.6812
30.2013
31.791
33.453
35.1902
37.0053
38.9011
40.8807
42.9469
45.1028
47.3517
49.6967
52.1409
54.6877
57.3402
60.1016
62.9751
65.9637
69.0703
72.2978
75.6487
79.1256
82.7306
86.4658
90.3326
94.3326
98.4666
102.735
107.139
111.677
116.349
121.154
126.09
131.154
136.345
141.658
147.09
152.636
158.291
164.05
169.907
175.854
181.885
187.991
194.165
200.398
206.681
213.003
219.355
225.727
232.108
238.486
244.85
251.188
257.489
263.74
269.93
276.046
282.076
288.009
293.832
299.534
305.104
310.531
315.803
320.911
325.843
330.591
335.145
339.496
343.635
347.557
351.252
354.715
357.94
360.921
363.654
366.135
368.359
370.323
372.025
373.463
374.634
375.539
376.176
376.54
376.632
376.458
376.018
375.315
374.351
373.127
371.647
369.913
367.929
365.702
363.235
360.534
357.604
354.451
351.081
347.499
343.714
339.732
335.559
331.205
326.678
321.985
317.137
312.144
307.017
301.768
296.409
290.954
285.417
279.813
274.157
268.466
262.756
257.042
251.338
245.657
240.008
234.404
228.856
223.373
217.969
212.651
207.431
202.318
197.323
192.455
187.727
183.15
178.74
174.515
170.495
166.705
163.118
159.513
12.2291
5.61349
4.35323
3.98332
3.89952
3.94812
4.07764
4.26234
4.48903
4.75029
5.04153
5.35976
5.70362
6.07265
6.46596
6.88281
7.32321
7.78753
8.27615
8.78995
9.33069
9.9
10.4995
11.1309
11.796
12.4966
13.2346
14.0119
14.8305
15.6924
16.5998
17.5548
18.5595
19.6164
20.7278
21.896
23.1236
24.4133
25.7675
27.1885
28.6781
30.2405
31.8801
33.6012
35.407
37.3006
39.2854
41.365
43.5431
45.8232
48.2093
50.7052
53.3148
56.042
58.8908
61.8649
64.9681
68.204
71.5763
75.0881
78.7427
82.5428
86.4911
90.5898
94.8407
99.2453
103.805
108.519
113.389
118.414
123.592
128.923
134.403
140.031
145.802
151.712
157.757
163.931
170.227
176.64
183.162
189.784
196.498
203.296
210.166
217.099
224.084
231.109
238.163
245.234
252.31
259.377
266.422
273.432
280.393
287.292
294.115
300.849
307.479
313.993
320.378
326.619
332.706
338.625
344.365
349.913
355.258
360.391
365.3
369.976
374.41
378.594
382.521
386.183
389.575
392.69
395.525
398.075
400.336
402.305
403.98
405.359
406.442
407.227
407.715
407.904
407.795
407.391
406.696
405.715
404.45
402.904
401.082
398.989
396.63
394.012
391.14
388.023
384.666
381.076
377.261
373.228
368.985
364.539
359.901
355.077
350.077
344.91
339.586
334.116
328.512
322.785
316.949
311.018
305.006
298.929
292.801
286.64
280.461
274.28
268.111
261.968
255.863
249.807
243.812
237.89
232.051
226.307
220.667
215.142
209.743
204.479
199.363
194.407
189.627
185.038
180.658
176.509
172.557
168.584
12.6483
5.82624
4.49727
4.09154
3.98545
4.01587
4.12934
4.2989
4.51051
4.75715
5.03513
5.34095
5.67227
6.02745
6.40519
6.80629
7.23122
7.68056
8.15517
8.6565
9.18571
9.7442
10.3336
10.9556
11.6122
12.3052
13.0369
13.8094
14.625
15.4859
16.3947
17.354
18.3664
19.4346
20.5614
21.7498
23.0029
24.3244
25.7166
27.1817
28.7216
30.3427
32.0507
33.8499
35.7455
37.7419
39.8426
42.0518
44.3738
46.8131
49.3743
52.062
54.8808
57.8354
60.9302
64.1699
67.5588
71.1011
74.8007
78.6616
82.6871
86.8803
91.244
95.7806
100.492
105.379
110.443
115.684
121.101
126.694
132.461
138.399
144.506
150.777
157.207
163.792
170.526
177.401
184.41
191.545
198.797
206.156
213.612
221.153
228.77
236.449
244.178
251.943
259.732
267.531
275.325
283.099
290.839
298.531
306.157
313.705
321.157
328.5
335.718
342.797
349.722
356.479
363.054
369.434
375.606
381.556
387.273
392.746
397.963
402.915
407.593
411.986
416.088
419.892
423.392
426.581
429.456
432.011
434.245
436.154
437.736
438.992
439.919
440.519
440.792
440.74
440.363
439.66
438.645
437.321
435.692
433.763
431.539
429.027
426.236
423.173
419.846
416.262
412.431
408.361
404.059
399.535
394.798
389.857
384.721
379.399
373.901
368.236
362.415
356.45
350.352
344.133
337.807
331.389
324.892
318.333
311.726
305.089
298.437
291.787
285.152
278.546
271.984
265.475
259.034
252.671
246.397
240.224
234.162
228.221
222.413
216.747
211.237
205.894
200.733
195.769
191.017
186.497
182.171
177.826
12.9069
5.97065
4.59016
4.1546
4.02842
4.04184
4.13996
4.29589
4.49533
4.72956
4.99303
5.28276
5.59768
5.93703
6.30082
6.68881
7.10129
7.53889
8.00252
8.4934
9.01289
9.56256
10.1441
10.7596
11.4109
12.1005
12.8306
13.6039
14.423
15.2905
16.2093
17.1827
18.214
19.3067
20.4634
21.6876
22.9824
24.3501
25.7939
27.3206
28.9366
30.6471
32.457
34.3717
36.3966
38.5375
40.7992
43.1865
45.7048
48.3594
51.1559
54.0995
57.1955
60.4494
63.8662
67.451
71.2086
75.1437
79.2605
83.563
88.0546
92.7385
97.6171
102.693
107.966
113.439
119.11
124.981
131.048
137.31
143.764
150.407
157.233
164.238
171.416
178.759
186.26
193.911
201.701
209.621
217.66
225.808
234.05
242.376
250.771
259.222
267.715
276.233
284.763
293.289
301.795
310.264
318.681
327.029
335.29
343.45
351.491
359.397
367.152
374.74
382.145
389.353
396.349
403.119
409.648
415.924
421.934
427.666
433.108
438.251
443.084
447.599
451.789
455.645
459.163
462.336
465.16
467.632
469.749
471.509
472.911
473.956
474.642
474.972
474.947
474.574
473.837
472.762
471.351
469.611
467.547
465.164
462.472
459.48
456.197
452.632
448.795
444.696
440.345
435.751
430.925
425.875
420.612
415.146
409.487
403.645
397.63
391.452
385.121
378.65
372.05
365.334
358.515
351.609
344.628
337.589
330.508
323.4
316.282
309.169
302.077
295.019
288.008
281.058
274.179
267.384
260.684
254.09
247.612
241.261
235.048
228.984
223.08
217.35
211.806
206.463
201.335
196.438
191.734
187.02
12.9995
6.04627
4.63557
4.17808
4.03536
4.03557
4.12147
4.26411
4.44828
4.66706
4.91614
5.19299
5.49582
5.82375
6.17649
6.55413
6.95709
7.38613
7.84231
8.32695
8.84162
9.38806
9.96823
10.5843
11.2387
11.9342
12.6736
13.4606
14.2975
15.1875
16.1341
17.1407
18.2106
19.3439
20.5475
21.827
23.1875
24.6351
26.175
27.8129
29.5551
31.4075
33.3764
35.4681
37.6897
40.0466
42.5452
45.1919
47.9931
50.9554
54.085
57.3878
60.8697
64.5363
68.3932
72.4457
76.6986
81.1563
85.8231
90.7025
95.7974
101.11
106.642
112.395
118.369
124.563
130.976
137.605
144.449
151.502
158.76
166.218
173.869
181.706
189.721
197.904
206.246
214.736
223.363
232.116
240.98
249.944
258.992
268.11
277.284
286.497
295.734
304.978
314.212
323.42
332.585
341.689
350.714
359.643
368.458
377.142
385.677
394.047
402.235
410.224
417.998
425.542
432.84
439.878
446.642
453.118
459.293
465.156
470.695
475.9
480.761
485.27
489.419
493.202
496.613
499.646
502.299
504.567
506.45
507.946
509.054
509.778
510.117
510.072
509.656
508.843
507.665
506.127
504.235
501.995
499.416
496.507
493.277
489.738
485.901
481.778
477.379
472.718
467.803
462.648
457.262
451.657
445.843
439.832
433.633
427.258
420.716
414.018
407.175
400.199
393.1
385.893
378.59
371.206
363.754
356.251
348.711
341.15
333.584
326.03
318.501
311.011
303.574
296.201
288.906
281.699
274.591
267.594
260.717
253.971
247.367
240.916
234.629
228.519
222.599
216.882
211.38
206.109
201.03
195.956
12.9769
6.06009
4.63981
4.17115
4.01682
4.00422
4.07564
4.20471
4.37744
4.58573
4.82502
5.09272
5.38731
5.7081
6.05486
6.42782
6.82759
7.25514
7.71181
8.1993
8.71993
9.27552
9.86815
10.5005
11.1753
11.8957
12.6643
13.4831
14.3558
15.288
16.2844
17.35
18.4899
19.7103
21.0161
22.4132
23.908
25.5076
27.219
29.049
31.0048
33.0937
35.3231
37.7005
40.2338
42.9298
45.7964
48.8413
52.0725
55.4979
59.1239
62.9563
67.0007
71.2626
75.7469
80.4582
85.4005
90.5773
95.9914
101.645
107.539
113.674
120.05
126.666
133.519
140.608
147.927
155.472
163.238
171.218
179.405
187.791
196.367
205.123
214.048
223.131
232.361
241.724
251.207
260.796
270.476
280.233
290.051
299.914
309.805
319.707
329.604
339.479
349.312
359.087
368.787
378.391
387.884
397.246
406.46
415.508
424.373
433.037
441.483
449.696
457.658
465.356
472.772
479.894
486.708
493.199
499.356
505.167
510.621
515.708
520.42
524.747
528.685
532.226
535.365
538.098
540.422
542.335
543.836
544.925
545.6
545.873
545.739
545.202
544.248
542.904
541.177
539.076
536.607
533.78
530.603
527.09
523.251
519.101
514.651
509.915
504.907
499.64
494.127
488.38
482.41
476.23
469.85
463.283
456.54
449.63
442.564
435.354
428.01
420.542
412.963
405.285
397.521
389.684
381.789
373.849
365.881
357.899
349.919
341.956
334.024
326.137
318.307
310.547
302.867
295.28
287.795
280.423
273.175
266.06
259.089
252.272
245.622
239.15
232.868
226.789
220.924
215.289
209.844
204.426
12.8903
6.04428
4.62113
4.14073
3.97307
3.95002
4.01265
4.13398
4.29984
4.5025
4.73758
5.00269
5.29673
5.61965
5.97111
6.35145
6.76165
7.20306
7.67725
8.18588
8.73024
9.31206
9.93577
10.6053
11.3245
12.0979
12.9299
13.8264
14.7922
15.8326
16.9539
18.1626
19.4659
20.8714
22.3863
24.0185
25.7761
27.6681
29.7029
31.8894
34.2363
36.7523
39.446
42.3254
45.3974
48.671
52.1556
55.8606
59.7956
63.9723
68.3938
73.0632
77.9837
83.1586
88.5904
94.2811
100.232
106.443
112.914
119.644
126.63
133.869
141.357
149.09
157.06
165.263
173.69
182.333
191.183
200.23
209.465
218.876
228.451
238.179
248.046
258.038
268.143
278.345
288.63
298.983
309.388
319.828
330.288
340.751
351.201
361.619
371.989
382.294
392.516
402.637
412.639
422.506
432.219
441.761
451.115
460.264
469.19
477.878
486.31
494.472
502.349
509.925
517.187
524.121
530.714
536.953
542.828
548.326
553.44
558.158
562.474
566.38
569.871
572.942
575.587
577.805
579.591
580.949
581.871
582.371
582.425
582.097
581.307
580.1
578.484
576.468
574.06
571.272
568.11
564.587
560.714
556.505
551.974
547.135
542.004
536.595
530.925
525.008
518.858
512.488
505.91
499.137
492.18
485.051
477.762
470.323
462.743
455.034
447.206
439.27
431.236
423.116
414.921
406.666
398.363
390.026
381.669
373.307
364.954
356.624
348.332
340.089
331.909
323.801
315.778
307.849
300.025
292.315
284.728
277.276
269.967
262.812
255.823
249.011
242.387
235.965
229.751
223.767
217.97
212.227
12.7101
5.99781
4.57703
4.09139
3.92028
3.89525
3.95734
4.08033
4.25045
4.45984
4.70442
4.98197
5.29122
5.631
6.00167
6.40534
6.844
7.31994
7.8359
8.39516
9.00194
9.66037
10.3748
11.1506
11.9936
12.9101
13.9074
14.9932
16.1753
17.4619
18.8619
20.3847
22.0402
23.8388
25.7909
27.9073
30.1987
32.6761
35.3502
38.2314
41.3297
44.6546
48.2151
52.0196
56.0755
60.3901
64.9713
69.8266
74.9627
80.387
86.0992
92.0961
98.3751
104.934
111.768
118.875
126.248
133.884
141.774
149.912
158.29
166.9
175.732
184.778
194.026
203.466
213.087
222.878
232.826
242.921
253.149
263.497
273.953
284.503
295.134
305.831
316.581
327.369
338.181
349.002
359.818
370.612
381.369
392.075
402.713
413.268
423.723
434.063
444.272
454.334
464.232
473.952
483.475
492.788
501.874
510.718
519.305
527.619
535.645
543.371
550.781
557.863
564.605
570.995
577.019
582.668
587.931
592.799
597.263
601.315
604.947
608.155
610.936
613.282
615.192
616.666
617.69
618.289
618.431
618.17
617.451
616.294
614.714
612.716
610.309
607.504
604.31
600.738
596.799
592.506
587.873
582.914
577.646
572.085
566.247
560.148
553.807
547.239
540.46
533.482
526.317
518.979
511.479
503.829
496.039
488.119
480.079
471.929
463.679
455.338
446.916
438.424
429.871
421.271
412.635
403.976
395.306
386.639
377.989
369.368
360.79
352.266
343.807
335.423
327.124
318.92
310.819
302.831
294.965
287.229
279.634
272.189
264.906
257.795
250.868
244.136
237.608
231.303
225.181
219.145
12.5023
5.91612
4.51809
4.04358
3.88171
3.86779
3.94317
4.08108
4.2662
4.49366
4.76062
5.06593
5.40972
5.79351
6.21888
6.68847
7.20581
7.77518
8.40159
9.09088
9.84981
10.6858
11.6068
12.6215
13.7396
14.9715
16.3287
17.8236
19.4687
21.2773
23.2629
25.4389
27.8194
30.4184
33.2496
36.3259
39.6595
43.2619
47.144
51.3152
55.7826
60.5521
65.6288
71.0174
76.7192
82.7341
89.0634
95.7092
102.671
109.94
117.499
125.337
133.443
141.804
150.409
159.245
168.301
177.564
187.022
196.661
206.47
216.437
226.548
236.792
247.156
257.629
268.199
278.854
289.582
300.372
311.213
322.092
332.999
343.921
354.847
365.765
376.664
387.531
398.355
409.123
419.823
430.443
440.969
451.39
461.692
471.861
481.885
491.75
501.443
510.951
520.259
529.354
538.221
546.848
555.222
563.327
571.152
578.683
585.907
592.812
599.386
605.618
611.496
617.011
622.151
626.907
631.27
635.232
638.786
641.923
644.637
646.927
648.792
650.219
651.211
651.779