/*--------------------------------*- C++ -*----------------------------------*\
  =========                 |
  \\      /  F ield         | OpenFOAM: The Open Source CFD Toolbox
   \\    /   O peration     | Website:  https://openfoam.org
    \\  /    A nd           | Version:  8
     \\/     M anipulation  |
\*---------------------------------------------------------------------------*/
FoamFile
{
    version     2.0;
    format      ascii;
    class       volScalarField;
    location    "225";
    object      k;
}
// * * * * * * * * * * * * * * * * * * * * * * * * * * * * * * * * * * * * * //

dimensions      [0 2 -2 0 0 0 0];

internalField   nonuniform List<scalar> 
12225
(
0.362827
0.343994
0.327748
0.309816
0.295404
0.283477
0.275519
0.270281
0.27034
0.271879
0.27606
0.280698
0.289858
0.295726
0.306793
0.312752
0.325282
0.327506
0.440271
0.468738
0.461615
0.448372
0.450345
0.458317
0.474556
0.49852
0.524413
0.552095
0.58077
0.606139
0.633869
0.653856
0.679813
0.693043
0.718343
0.724538
0.390407
0.41786
0.420244
0.41683
0.411634
0.407803
0.408018
0.410037
0.414563
0.421387
0.430734
0.439706
0.451189
0.461152
0.472853
0.483557
0.493578
0.505959
0.377043
0.387169
0.391466
0.391343
0.39026
0.387883
0.385661
0.384079
0.382883
0.382897
0.383357
0.384381
0.386278
0.388464
0.390913
0.394249
0.396556
0.400991
0.374434
0.376094
0.378427
0.378666
0.378275
0.377201
0.375488
0.373737
0.37201
0.370455
0.369256
0.368109
0.367381
0.366805
0.366443
0.366338
0.366358
0.366709
0.373779
0.372704
0.372659
0.372365
0.371772
0.370818
0.369554
0.368082
0.366571
0.364976
0.363528
0.362063
0.360755
0.359529
0.358397
0.357427
0.356441
0.355785
0.373775
0.37174
0.370388
0.369284
0.368235
0.367114
0.365915
0.364587
0.363238
0.361808
0.360422
0.359024
0.357678
0.356383
0.355121
0.353967
0.352794
0.351804
0.373818
0.371559
0.369635
0.367976
0.366501
0.365108
0.363775
0.362429
0.361107
0.359766
0.358451
0.357144
0.355863
0.354623
0.353401
0.35225
0.351099
0.350053
0.373832
0.371553
0.369449
0.367525
0.365777
0.364153
0.362645
0.361199
0.359817
0.358473
0.35717
0.355903
0.354667
0.353475
0.352308
0.351196
0.350097
0.349073
0.373831
0.37156
0.369418
0.367405
0.365529
0.363772
0.362133
0.360585
0.359122
0.357728
0.356395
0.355118
0.353888
0.35271
0.35157
0.350482
0.34942
0.348421
0.373829
0.37156
0.369413
0.367378
0.365458
0.363645
0.361937
0.360324
0.358799
0.357353
0.355979
0.354672
0.353424
0.352235
0.351094
0.350009
0.348959
0.347969
0.373828
0.371558
0.369409
0.36737
0.365439
0.363609
0.361875
0.360234
0.358677
0.357201
0.3558
0.354468
0.3532
0.351995
0.350842
0.349747
0.348695
0.347701
0.373827
0.371556
0.369405
0.367365
0.36543
0.363593
0.361851
0.360197
0.358626
0.357134
0.355715
0.354368
0.353084
0.351864
0.3507
0.349594
0.348535
0.347532
0.373826
0.371555
0.369401
0.367359
0.365422
0.363583
0.361837
0.360178
0.3586
0.357101
0.355674
0.354317
0.353024
0.351794
0.350622
0.349506
0.34844
0.347427
0.373826
0.371553
0.369398
0.367355
0.365416
0.363575
0.361826
0.360164
0.358584
0.357081
0.355651
0.354289
0.352993
0.351758
0.35058
0.349458
0.348388
0.347368
0.373826
0.371552
0.369396
0.367351
0.36541
0.363567
0.361817
0.360153
0.358572
0.357067
0.355634
0.354271
0.352971
0.351734
0.350554
0.349429
0.348356
0.347333
0.373825
0.371551
0.369394
0.367348
0.365406
0.363562
0.36181
0.360145
0.358562
0.357055
0.355621
0.354256
0.352955
0.351716
0.350534
0.349408
0.348333
0.347308
0.373825
0.371551
0.369393
0.367346
0.365403
0.363558
0.361805
0.360139
0.358555
0.357047
0.355612
0.354245
0.352943
0.351703
0.35052
0.349392
0.348316
0.34729
0.373825
0.37155
0.369393
0.367346
0.365402
0.363557
0.361804
0.360137
0.358552
0.357043
0.355608
0.35424
0.352938
0.351697
0.350513
0.349384
0.348308
0.34728
0.373825
0.371551
0.369393
0.367347
0.365404
0.363559
0.361806
0.36014
0.358555
0.357047
0.355611
0.354244
0.352942
0.3517
0.350517
0.349388
0.348312
0.347285
0.373825
0.371551
0.369395
0.367349
0.365407
0.363563
0.361811
0.360146
0.358562
0.357055
0.355621
0.354255
0.352955
0.351715
0.350534
0.349407
0.348333
0.347307
0.373826
0.371552
0.369397
0.367352
0.365412
0.363571
0.361822
0.360161
0.358583
0.357083
0.355656
0.354298
0.353006
0.351775
0.350602
0.349483
0.348417
0.347398
0.373826
0.371554
0.369399
0.367359
0.365429
0.363602
0.361875
0.36024
0.358691
0.35722
0.355823
0.354493
0.353227
0.352018
0.350866
0.349763
0.348711
0.3477
0.373828
0.371551
0.369412
0.367417
0.365556
0.363819
0.362189
0.360651
0.359189
0.357793
0.356456
0.355171
0.353936
0.352745
0.3516
0.350495
0.349436
0.34841
0.373823
0.371554
0.369604
0.367893
0.366339
0.364892
0.363495
0.362122
0.360761
0.359413
0.358081
0.35677
0.355488
0.354238
0.353029
0.351855
0.350734
0.349645
0.373781
0.37199
0.371113
0.370265
0.36936
0.368311
0.367048
0.36563
0.364121
0.362575
0.36103
0.359522
0.358073
0.356682
0.355381
0.354141
0.353009
0.351924
0.374297
0.375564
0.377778
0.377858
0.377291
0.375886
0.373835
0.371641
0.369505
0.367482
0.365664
0.364084
0.36271
0.361535
0.36061
0.359818
0.359289
0.358801
0.378732
0.394394
0.398293
0.396565
0.392558
0.387608
0.383641
0.380455
0.378266
0.376851
0.376497
0.37675
0.377399
0.378697
0.380442
0.382422
0.384827
0.387137
0.408344
0.427539
0.422424
0.411051
0.402227
0.397924
0.398557
0.401117
0.405986
0.413039
0.420996
0.429829
0.438836
0.448192
0.457307
0.466554
0.475322
0.484182
0.366033
0.353412
0.341988
0.33021
0.318982
0.308382
0.299409
0.291674
0.285403
0.280333
0.276682
0.273867
0.27231
0.271184
0.271176
0.271521
0.272155
0.273386
0.00101635
0.00533614
0.0097058
0.0137509
0.0180082
0.022705
0.0279455
0.0337602
0.0400757
0.0467504
0.0536165
0.0605105
0.0672797
0.073788
0.0799097
0.0855371
0.090582
0.0949969
0.0987857
0.102036
0.104553
0.106522
0.109454
0.112598
0.11654
0.120238
0.127275
0.132662
0.137908
0.142736
0.14691
0.150107
0.15196
0.152042
0.150466
0.14783
0.142138
0.136669
0.142482
0.148756
0.160146
0.165666
0.174037
0.181577
0.189673
0.197816
0.206164
0.214669
0.223337
0.232167
0.241158
0.250312
0.259625
0.269099
0.278733
0.288527
0.298478
0.308586
0.318848
0.329263
0.339827
0.350538
0.361391
0.372383
0.383508
0.394763
0.40614
0.417635
0.429239
0.440948
0.452752
0.464645
0.476616
0.48866
0.500765
0.512923
0.525121
0.537354
0.549606
0.561871
0.574133
0.586385
0.598611
0.610804
0.622945
0.635028
0.647031
0.658948
0.670758
0.682448
0.693998
0.705387
0.716592
0.72759
0.738361
0.748891
0.75919
0.76932
0.779249
0.788932
0.798389
0.807601
0.816564
0.825264
0.833691
0.841838
0.849693
0.857251
0.864499
0.871435
0.878046
0.884329
0.890271
0.895871
0.901116
0.906006
0.910528
0.914682
0.918459
0.921858
0.924869
0.927487
0.929698
0.931503
0.932887
0.933845
0.934341
0.93423
0.934168
0.933735
0.932475
0.930763
0.928646
0.92618
0.923222
0.919844
0.916015
0.911746
0.907035
0.90188
0.896272
0.890207
0.883689
0.876724
0.869319
0.861481
0.853219
0.844545
0.835472
0.826015
0.816192
0.806023
0.795528
0.784737
0.773677
0.762386
0.75092
0.739406
0.728691
0.721292
0.714779
0.708201
0.701481
0.694631
0.687674
0.680635
0.673539
0.66641
0.65927
0.65214
0.645038
0.637977
0.630971
0.623957
0.616942
0.609893
0.602679
0.594738
0.586066
0.557557
0.00479089
0.0174031
0.0256719
0.0319758
0.0376688
0.0433761
0.0494105
0.0558798
0.0627592
0.069949
0.0773185
0.0847329
0.0920649
0.0991993
0.106032
0.112475
0.118459
0.12395
0.12896
0.133562
0.137895
0.142237
0.147023
0.152574
0.159155
0.166538
0.174006
0.181336
0.188735
0.196147
0.203493
0.210609
0.217473
0.223872
0.230831
0.240216
0.252824
0.263548
0.275517
0.289405
0.302151
0.314357
0.327412
0.34075
0.354452
0.368465
0.3828
0.39745
0.412414
0.427692
0.443285
0.459193
0.47542
0.491965
0.508831
0.526018
0.543527
0.561359
0.579513
0.597987
0.616781
0.635892
0.655316
0.67505
0.695089
0.715428
0.736059
0.756977
0.778171
0.799634
0.821355
0.843324
0.865528
0.887954
0.91059
0.933421
0.95643
0.979602
1.00292
1.02637
1.04992
1.07357
1.09729
1.12106
1.14486
1.16867
1.19246
1.21622
1.23991
1.26351
1.287
1.31033
1.33348
1.35641
1.37908
1.40143
1.4234
1.44492
1.46605
1.48688
1.50737
1.52753
1.54731
1.56672
1.58572
1.60429
1.62243
1.6401
1.6573
1.674
1.69019
1.70585
1.72097
1.73553
1.74952
1.76292
1.77571
1.78788
1.79942
1.81032
1.82055
1.83011
1.83897
1.84711
1.85453
1.86121
1.86714
1.87231
1.87678
1.88048
1.8833
1.88506
1.88596
1.8862
1.88553
1.88402
1.88162
1.87832
1.87411
1.86898
1.86292
1.85592
1.84798
1.8391
1.82928
1.81853
1.80685
1.79426
1.78078
1.76644
1.75124
1.73524
1.71846
1.70094
1.68274
1.6639
1.64449
1.62463
1.60456
1.58465
1.56453
1.54409
1.52339
1.50249
1.48146
1.46037
1.43928
1.41824
1.39731
1.37653
1.35596
1.33562
1.31557
1.29571
1.2761
1.25679
1.23763
1.21861
1.19954
1.15724
0.00985097
0.0290442
0.0398176
0.0478986
0.0550906
0.0620679
0.0691569
0.0765024
0.0841334
0.0920064
0.10004
0.108142
0.116218
0.124186
0.131974
0.139526
0.146809
0.153825
0.160624
0.167316
0.174087
0.181192
0.188887
0.197345
0.206593
0.216424
0.22661
0.236962
0.247543
0.25839
0.269463
0.280771
0.292388
0.304486
0.317671
0.331766
0.346702
0.361877
0.377585
0.393689
0.410007
0.426555
0.443522
0.460889
0.478651
0.4968
0.515335
0.534257
0.553563
0.573256
0.593336
0.613803
0.63466
0.655906
0.677544
0.699572
0.721991
0.7448
0.767998
0.791582
0.81555
0.839898
0.864621
0.889714
0.915171
0.940983
0.967143
0.993642
1.02047
1.04761
1.07505
1.10279
1.1308
1.15907
1.18758
1.21632
1.24526
1.27439
1.30369
1.33312
1.36268
1.39233
1.42205
1.45182
1.48161
1.5114
1.54114
1.57083
1.60041
1.62988
1.65919
1.68831
1.71721
1.74586
1.77422
1.80226
1.82996
1.8573
1.88427
1.91085
1.93701
1.96272
1.98796
2.01271
2.03692
2.06059
2.08368
2.10616
2.12803
2.14926
2.16982
2.18969
2.20885
2.22729
2.24498
2.26191
2.27805
2.2934
2.30792
2.32161
2.33444
2.34639
2.35745
2.36759
2.37681
2.38507
2.39238
2.39871
2.40408
2.4084
2.41166
2.41363
2.41449
2.41445
2.41329
2.41102
2.40762
2.40307
2.39737
2.39051
2.38246
2.37324
2.36282
2.35122
2.33844
2.32448
2.30937
2.29311
2.27574
2.25727
2.23774
2.2172
2.19568
2.17325
2.14995
2.12586
2.10105
2.07565
2.04989
2.02393
1.99765
1.97101
1.94407
1.91691
1.8896
1.86223
1.83487
1.8076
1.78049
1.7536
1.72698
1.70071
1.67483
1.64935
1.62433
1.59982
1.57581
1.55242
1.52915
1.49187
0.0153153
0.0397617
0.05286
0.0624657
0.0708208
0.0787389
0.0866073
0.0946165
0.102841
0.111282
0.119898
0.12863
0.137414
0.146192
0.154915
0.163555
0.172103
0.18058
0.189044
0.1976
0.20639
0.215582
0.225329
0.23573
0.246798
0.258439
0.270543
0.283043
0.295946
0.309259
0.322996
0.337185
0.351879
0.367179
0.383198
0.399881
0.417186
0.434988
0.453241
0.471895
0.490929
0.510329
0.530138
0.550371
0.571034
0.592128
0.613656
0.635621
0.658023
0.680866
0.704152
0.727881
0.752058
0.776682
0.801755
0.827279
0.853252
0.879675
0.906546
0.933864
0.961625
0.989826
1.01846
1.04753
1.07701
1.10692
1.13722
1.16792
1.19901
1.23047
1.26228
1.29443
1.32691
1.35969
1.39276
1.4261
1.45968
1.49348
1.52748
1.56165
1.59596
1.6304
1.66492
1.6995
1.7341
1.7687
1.80327
1.83777
1.87216
1.90641
1.9405
1.97437
2.00801
2.04137
2.07443
2.10714
2.13948
2.17142
2.20293
2.23397
2.26451
2.29451
2.32395
2.35278
2.38099
2.40853
2.43537
2.4615
2.48687
2.51147
2.53527
2.55825
2.58037
2.60163
2.62198
2.64143
2.65993
2.67748
2.69404
2.70962
2.72417
2.73768
2.75014
2.76151
2.77178
2.78095
2.78898
2.79586
2.80159
2.8061
2.80935
2.81114
2.81175
2.81117
2.80932
2.80617
2.80172
2.79594
2.78883
2.78038
2.77057
2.75941
2.74689
2.73301
2.71779
2.70122
2.68332
2.66412
2.64365
2.62193
2.599
2.57491
2.54972
2.52347
2.49625
2.46812
2.4392
2.40961
2.37952
2.34906
2.3182
2.28696
2.2554
2.22359
2.19164
2.15963
2.12764
2.09577
2.06409
2.03269
2.00162
1.97098
1.94082
1.91121
1.88223
1.85397
1.82652
1.80006
1.77394
1.73923
0.0206453
0.0496214
0.0648411
0.075855
0.0852639
0.0940046
0.102532
0.111086
0.119784
0.128673
0.13775
0.146989
0.156354
0.165808
0.175326
0.184894
0.194515
0.204215
0.214048
0.224091
0.234445
0.245221
0.256516
0.268399
0.280893
0.293978
0.307612
0.321764
0.336428
0.351603
0.367296
0.383519
0.4003
0.417673
0.435661
0.454254
0.473427
0.493134
0.513332
0.533991
0.555098
0.576649
0.598655
0.621127
0.644071
0.667493
0.691398
0.71579
0.740674
0.766052
0.79193
0.818309
0.845194
0.872586
0.900489
0.928904
0.957831
0.987272
1.01723
1.04769
1.07867
1.11015
1.14213
1.17461
1.20758
1.24103
1.27495
1.30933
1.34416
1.37943
1.41511
1.4512
1.48767
1.5245
1.56168
1.59917
1.63696
1.67502
1.71331
1.75182
1.7905
1.82934
1.86828
1.90731
1.94639
1.98547
2.02452
2.06351
2.10239
2.14113
2.17968
2.21801
2.25608
2.29385
2.33128
2.36832
2.40494
2.4411
2.47676
2.51187
2.5464
2.58031
2.61355
2.6461
2.67791
2.70894
2.73916
2.76854
2.79705
2.82465
2.85132
2.87702
2.90174
2.92544
2.9481
2.9697
2.99021
3.00961
3.02789
3.04501
3.06096
3.07572
3.08926
3.10157
3.11262
3.12241
3.13092
3.13812
3.144
3.14852
3.1516
3.15308
3.15329
3.15212
3.14951
3.14545
3.13994
3.13296
3.1245
3.11455
3.10311
3.09018
3.07574
3.05981
3.04239
3.0235
3.00315
2.98137
2.95818
2.93362
2.90773
2.88057
2.85219
2.82266
2.79206
2.76049
2.72803
2.69483
2.66102
2.62673
2.59197
2.5568
2.52128
2.4855
2.44957
2.41357
2.37762
2.34179
2.30618
2.27089
2.23599
2.20158
2.16774
2.13457
2.10217
2.07069
2.04027
2.01113
1.98258
1.9484
0.0256473
0.0584752
0.0755931
0.0878965
0.0982746
0.107767
0.116888
0.12592
0.135019
0.14427
0.153707
0.163334
0.173143
0.183119
0.193254
0.203544
0.214001
0.224652
0.235539
0.24672
0.258267
0.270256
0.282754
0.295816
0.309469
0.323719
0.338557
0.353974
0.369963
0.386523
0.403653
0.42136
0.439654
0.458541
0.478026
0.498103
0.518757
0.539966
0.561708
0.583968
0.606737
0.630013
0.6538
0.678104
0.702931
0.728287
0.75418
0.780615
0.807598
0.835135
0.863231
0.891892
0.921121
0.950923
0.981302
1.01226
1.0438
1.07593
1.10864
1.14193
1.17581
1.21027
1.24531
1.28092
1.3171
1.35383
1.39111
1.42893
1.46727
1.50612
1.54546
1.58528
1.62555
1.66625
1.70735
1.74884
1.79068
1.83284
1.87529
1.918
1.96094
2.00406
2.04733
2.0907
2.13415
2.17763
2.22108
2.26448
2.30777
2.35092
2.39386
2.43657
2.47899
2.52108
2.56278
2.60405
2.64484
2.6851
2.72478
2.76384
2.80224
2.83992
2.87684
2.91295
2.94822
2.9826
3.01605
3.04854
3.08002
3.11046
3.13984
3.16811
3.19524
3.22122
3.24601
3.26958
3.29192
3.31299
3.33279
3.35128
3.36844
3.38426
3.39871
3.41178
3.42345
3.4337
3.44253
3.4499
3.45579
3.4602
3.46298
3.46412
3.46382
3.46197
3.45855
3.45356
3.44698
3.4388
3.42902
3.41763
3.40463
3.39001
3.37377
3.35593
3.33649
3.31545
3.29285
3.26871
3.24304
3.21591
3.18734
3.15741
3.12617
3.09369
3.06007
3.02539
2.98976
2.95331
2.91616
2.87843
2.84018
2.80147
2.76239
2.72303
2.6835
2.6439
2.60433
2.56491
2.52572
2.48688
2.44847
2.41061
2.37339
2.33694
2.30139
2.26692
2.23373
2.20201
2.1711
2.13611
0.0301835
0.0662298
0.0849972
0.0984442
0.109693
0.119867
0.129527
0.138987
0.148436
0.157988
0.167708
0.177629
0.187767
0.198128
0.208718
0.219544
0.230624
0.241983
0.253657
0.26569
0.278136
0.291046
0.304472
0.318455
0.333024
0.348194
0.363973
0.380359
0.397353
0.414952
0.433156
0.451966
0.471383
0.491407
0.512038
0.533272
0.555102
0.577518
0.600509
0.62407
0.648197
0.672888
0.698147
0.723978
0.75039
0.777388
0.804982
0.833177
0.861983
0.891407
0.921456
0.952136
0.983456
1.01542
1.04803
1.0813
1.11523
1.14983
1.18509
1.22101
1.2576
1.29486
1.33278
1.37136
1.41059
1.45046
1.49097
1.53209
1.57383
1.61616
1.65906
1.70252
1.7465
1.791
1.83597
1.8814
1.92724
1.97347
2.02004
2.06693
2.11409
2.16148
2.20906
2.25678
2.3046
2.35246
2.40032
2.44813
2.49583
2.54338
2.59072
2.6378
2.68456
2.73094
2.7769
2.82237
2.8673
2.91163
2.95531
2.99828
3.04049
3.0819
3.12244
3.16207
3.20074
3.2384
3.275
3.31051
3.34488
3.37807
3.41005
3.44078
3.47023
3.49837
3.52516
3.55059
3.57462
3.59724
3.61842
3.63814
3.65638
3.67312
3.68834
3.70203
3.71417
3.72475
3.73376
3.74117
3.74697
3.75115
3.75355
3.75427
3.75335
3.75076
3.74649
3.74052
3.73285
3.72347
3.71239
3.69958
3.68507
3.66883
3.65089
3.63124
3.60989
3.58686
3.56216
3.53583
3.50789
3.47839
3.44738
3.41492
3.38107
3.34591
3.30953
3.27202
3.23349
3.19407
3.15388
3.11301
3.07157
3.02963
2.98728
2.94462
2.90177
2.85884
2.81593
2.77316
2.73063
2.68847
2.64677
2.60565
2.56524
2.52568
2.48712
2.44978
2.41385
2.37954
2.34621
2.31002
0.0341565
0.0728304
0.0929856
0.107409
0.119414
0.130187
0.140325
0.150165
0.15992
0.169727
0.179676
0.189822
0.200202
0.21084
0.221755
0.232965
0.244492
0.256362
0.268607
0.281261
0.294365
0.307958
0.322079
0.33676
0.352028
0.3679
0.384388
0.401499
0.419234
0.437596
0.456586
0.476204
0.49645
0.517325
0.538828
0.560959
0.583715
0.607094
0.631093
0.65571
0.680948
0.706806
0.733291
0.760409
0.788168
0.816576
0.845642
0.875377
0.905791
0.936892
0.968691
1.0012
1.03442
1.06836
1.10304
1.13845
1.17461
1.21152
1.24919
1.28761
1.32679
1.36673
1.40743
1.44887
1.49107
1.534
1.57766
1.62203
1.66711
1.71287
1.75929
1.80635
1.85403
1.9023
1.95113
2.00048
2.05033
2.10062
2.15133
2.20241
2.2538
2.30548
2.35738
2.40946
2.46167
2.51393
2.56622
2.61845
2.67058
2.72254
2.77428
2.82573
2.87683
2.92751
2.97772
3.02738
3.07643
3.12481
3.17245
3.2193
3.2653
3.31039
3.35451
3.3976
3.4396
3.48048
3.52017
3.55862
3.5958
3.63165
3.66615
3.69924
3.73089
3.76108
3.78976
3.81692
3.84253
3.86655
3.88898
3.9098
3.92897
3.94649
3.96234
3.97651
3.98899
3.99976
4.00882
4.01614
4.02173
4.02556
4.02749
4.02767
4.02606
4.02266
4.01746
4.01047
4.00168
3.99109
3.9787
3.9645
3.94851
3.93072
3.91113
3.88977
3.86662
3.84172
3.81508
3.78673
3.7567
3.72504
3.69179
3.65702
3.6208
3.5832
3.54431
3.50423
3.46306
3.42093
3.37794
3.33422
3.28986
3.24495
3.1996
3.1539
3.10798
3.06195
3.01592
2.97002
2.92436
2.87907
2.83425
2.79004
2.74658
2.70403
2.66255
2.62238
2.58373
2.54678
2.51092
2.47302
0.0375091
0.078268
0.0995477
0.114771
0.127402
0.138682
0.149229
0.159398
0.169416
0.179439
0.189572
0.199891
0.210447
0.22128
0.23242
0.243894
0.255729
0.26795
0.280587
0.293671
0.307233
0.321304
0.335915
0.351092
0.366858
0.383231
0.400224
0.417847
0.436106
0.455007
0.474552
0.494745
0.515589
0.537086
0.55924
0.582051
0.605524
0.629659
0.654461
0.679932
0.706076
0.7329
0.76041
0.788617
0.81753
0.847159
0.877517
0.908616
0.940467
0.973083
1.00648
1.04066
1.07564
1.11143
1.14804
1.18548
1.22377
1.26289
1.30287
1.3437
1.3854
1.42795
1.47136
1.51562
1.56073
1.60668
1.65346
1.70106
1.74946
1.79863
1.84857
1.89924
1.95061
2.00266
2.05535
2.10864
2.16249
2.21687
2.27172
2.32699
2.38265
2.43862
2.49486
2.55131
2.6079
2.66458
2.72128
2.77794
2.83448
2.89085
2.94697
3.00277
3.05817
3.11312
3.16753
3.22133
3.27446
3.32683
3.37838
3.42905
3.47876
3.52746
3.57506
3.62153
3.66678
3.71077
3.75344
3.79473
3.8346
3.87299
3.90987
3.94519
3.97892
4.01101
4.04144
4.07018
4.09721
4.12249
4.14602
4.16776
4.18771
4.20586
4.22218
4.23667
4.24932
4.26013
4.26908
4.27618
4.28141
4.28475
4.28613
4.28564
4.28323
4.27893
4.27273
4.26466
4.2547
4.24287
4.22917
4.21359
4.19615
4.17686
4.1557
4.13271
4.10789
4.08125
4.05282
4.02262
3.99068
3.95706
3.92179
3.88494
3.84658
3.80678
3.76563
3.72323
3.67969
3.63511
3.58961
3.5433
3.4963
3.4487
3.4006
3.35212
3.30338
3.25449
3.20558
3.15676
3.10817
3.05993
3.01217
2.96503
2.91865
2.87322
2.82891
2.78596
2.74458
2.70494
2.66645
2.62645
0.0402148
0.0825678
0.104718
0.120567
0.133693
0.145381
0.156261
0.1667
0.176936
0.187135
0.197413
0.20786
0.21854
0.229503
0.240788
0.252429
0.264456
0.276897
0.289781
0.303135
0.316987
0.331362
0.346285
0.361779
0.377865
0.394559
0.411877
0.429831
0.448429
0.467681
0.487594
0.508175
0.529429
0.551363
0.573984
0.597297
0.62131
0.64603
0.671463
0.697618
0.724504
0.752129
0.780506
0.809645
0.83956
0.870265
0.901775
0.934103
0.967266
1.00128
1.03615
1.07191
1.10855
1.1461
1.18457
1.22397
1.26431
1.3056
1.34784
1.39104
1.43522
1.48035
1.52646
1.57352
1.62154
1.67051
1.72041
1.77124
1.82296
1.87556
1.92902
1.98331
2.03839
2.09423
2.15079
2.20803
2.2659
2.32436
2.38336
2.44283
2.50273
2.56298
2.62354
2.68433
2.74528
2.80634
2.86741
2.92844
2.98934
3.05004
3.11046
3.17052
3.23015
3.28927
3.34778
3.40562
3.4627
3.51894
3.57428
3.62862
3.68191
3.73407
3.78502
3.8347
3.88304
3.92998
3.97546
4.01941
4.0618
4.10255
4.14163
4.179
4.21461
4.24842
4.28041
4.31054
4.33879
4.36514
4.38956
4.41204
4.43257
4.45114
4.46774
4.48236
4.495
4.50567
4.51435
4.52105
4.52577
4.52848
4.52918
4.52787
4.52454
4.51922
4.51195
4.50272
4.49155
4.47845
4.46342
4.44647
4.42762
4.40686
4.38422
4.3597
4.33332
4.30508
4.27502
4.24315
4.20951
4.17413
4.13707
4.09838
4.05814
4.0164
3.97327
3.92882
3.88317
3.83643
3.78871
3.74012
3.69077
3.64076
3.59021
3.53923
3.48793
3.43645
3.3849
3.33341
3.28212
3.23114
3.18062
3.13072
3.08157
3.03338
2.98633
2.94065
2.89656
2.85421
2.81304
2.77073
0.0422741
0.0857864
0.108574
0.124883
0.138379
0.150373
0.161506
0.172152
0.182554
0.192884
0.203268
0.213801
0.224556
0.235592
0.246955
0.258684
0.270813
0.28337
0.296384
0.30988
0.323883
0.338414
0.353499
0.369156
0.385407
0.402268
0.419756
0.437885
0.456668
0.476117
0.496243
0.517057
0.538569
0.56079
0.583731
0.607401
0.631814
0.656979
0.682911
0.709622
0.737124
0.76543
0.794556
0.824516
0.855329
0.887012
0.919582
0.953058
0.987458
1.0228
1.0591
1.09637
1.13464
1.17392
1.21422
1.25556
1.29794
1.34138
1.3859
1.43148
1.47814
1.52589
1.57471
1.6246
1.67556
1.72758
1.78064
1.83472
1.8898
1.94586
2.00287
2.06079
2.11959
2.17924
2.23967
2.30086
2.36274
2.42527
2.48837
2.552
2.61609
2.68057
2.74537
2.81042
2.87564
2.94096
3.00629
3.07156
3.13668
3.20156
3.26613
3.33029
3.39396
3.45704
3.51947
3.58113
3.64196
3.70186
3.76075
3.81855
3.87517
3.93055
3.9846
4.03725
4.08843
4.13806
4.1861
4.23246
4.2771
4.31996
4.36099
4.40014
4.43737
4.47265
4.50593
4.5372
4.56643
4.59358
4.61866
4.64164
4.66251
4.68127
4.69791
4.71244
4.72485
4.73516
4.74337
4.74949
4.75352
4.75545
4.75528
4.75302
4.74861
4.74218
4.73372
4.72327
4.71083
4.69642
4.68006
4.66175
4.64152
4.61938
4.59533
4.56939
4.54157
4.5119
4.48038
4.44703
4.4119
4.375
4.3364
4.29614
4.25428
4.21089
4.16606
4.11988
4.07244
4.02386
3.97423
3.92368
3.8723
3.82022
3.76753
3.71436
3.66082
3.60704
3.55314
3.49925
3.4455
3.39203
3.33898
3.28651
3.23477
3.18397
3.13429
3.08598
3.03922
2.99419
2.95032
2.90561
0.0437222
0.0880225
0.111227
0.127845
0.141589
0.153791
0.165096
0.175881
0.186393
0.196806
0.207251
0.217828
0.228618
0.239681
0.251068
0.26282
0.274973
0.287557
0.300601
0.314129
0.328165
0.342731
0.357849
0.373541
0.389827
0.406725
0.424255
0.442434
0.461278
0.480803
0.501025
0.521958
0.543617
0.566018
0.589175
0.613104
0.637819
0.66334
0.689684
0.716869
0.744912
0.773831
0.803644
0.834373
0.866039
0.898663
0.932267
0.966873
1.0025
1.03917
1.07691
1.11573
1.15565
1.19669
1.23886
1.28219
1.32668
1.37234
1.41919
1.46723
1.51646
1.56689
1.6185
1.6713
1.72528
1.78041
1.83669
1.89408
1.95258
2.01213
2.07272
2.13431
2.19684
2.26028
2.32457
2.38967
2.4555
2.52203
2.58916
2.65685
2.72501
2.79358
2.86247
2.93161
3.0009
3.07028
3.13965
3.20892
3.278
3.3468
3.41523
3.4832
3.5506
3.61736
3.68336
3.74853
3.81276
3.87597
3.93806
3.99895
4.05856
4.11679
4.17358
4.22883
4.28248
4.33445
4.38467
4.43308
4.47962
4.52423
4.56685
4.60744
4.64595
4.68236
4.71661
4.74869
4.77857
4.80623
4.83165
4.85482
4.87575
4.89441
4.91083
4.925
4.93693
4.94665
4.95416
4.95948
4.96261
4.96357
4.96239
4.95897
4.95336
4.94569
4.93596
4.9242
4.91044
4.8947
4.877
4.85737
4.83581
4.81235
4.78699
4.75976
4.73067
4.69973
4.66694
4.63235
4.59595
4.5578
4.51793
4.47638
4.43321
4.3885
4.34231
4.29473
4.24585
4.19577
4.1446
4.09245
4.03942
3.98563
3.93117
3.87616
3.82073
3.76498
3.70906
3.65307
3.59717
3.54149
3.48617
3.43137
3.37726
3.32403
3.2719
3.22107
3.17174
3.12408
3.07757
3.03047
0.0446144
0.0893766
0.112806
0.129595
0.143477
0.155793
0.16719
0.178046
0.18861
0.199058
0.209522
0.220103
0.230881
0.24192
0.253274
0.264986
0.277095
0.289632
0.302627
0.316107
0.330086
0.344589
0.359642
0.375268
0.39149
0.40833
0.42581
0.44395
0.462771
0.482294
0.502538
0.523525
0.545273
0.567802
0.591132
0.615279
0.64026
0.666105
0.692838
0.720481
0.749058
0.778591
0.809108
0.840632
0.87319
0.906808
0.94151
0.977321
1.01426
1.05236
1.09164
1.13212
1.17382
1.21675
1.26094
1.30641
1.35315
1.40119
1.45053
1.50118
1.55313
1.60638
1.66093
1.71677
1.77388
1.83224
1.89184
1.95263
2.0146
2.07769
2.14189
2.20713
2.27337
2.34056
2.40864
2.47755
2.54722
2.61759
2.68859
2.76013
2.83214
2.90454
2.97724
3.05017
3.12322
3.19631
3.26934
3.34223
3.41487
3.48717
3.55903
3.63035
3.70103
3.77097
3.84007
3.90825
3.97538
4.0414
4.10619
4.16966
4.23174
4.29232
4.35133
4.40868
4.4643
4.5181
4.57002
4.61999
4.66795
4.71383
4.75758
4.79916
4.83852
4.87562
4.91043
4.94291
4.97305
5.00083
5.02623
5.04925
5.06988
5.08813
5.104
5.11752
5.12869
5.13754
5.1441
5.14838
5.15042
5.15022
5.14782
5.14304
5.13612
5.12709
5.116
5.10288
5.08776
5.07068
5.05166
5.03074
5.00792
4.98324
4.9567
4.92833
4.89814
4.86613
4.83231
4.79671
4.75934
4.72022
4.67938
4.63688
4.59275
4.54706
4.49988
4.45129
4.40136
4.35019
4.29789
4.24455
4.19028
4.13518
4.07936
4.02292
3.96598
3.90867
3.85109
3.79338
3.73567
3.6781
3.62081
3.56397
3.50776
3.45234
3.39795
3.34478
3.29303
3.24286
3.19381
3.14439
0.044933
0.0898732
0.113415
0.130272
0.144201
0.156549
0.167966
0.178832
0.189391
0.19982
0.210249
0.220781
0.231497
0.242463
0.253733
0.265352
0.277358
0.289788
0.302673
0.316047
0.329919
0.344315
0.35926
0.374781
0.390902
0.407648
0.425045
0.443117
0.461891
0.481391
0.501643
0.522672
0.544503
0.567162
0.590673
0.615062
0.64035
0.666579
0.693768
0.721952
0.75116
0.781424
0.812773
0.84524
0.878855
0.913648
0.949645
0.986873
1.02536
1.06512
1.1062
1.14859
1.19233
1.23744
1.28392
1.33179
1.38107
1.43175
1.48385
1.53735
1.59227
1.64858
1.70628
1.76534
1.82575
1.88748
1.9505
2.01477
2.08026
2.14691
2.21469
2.28353
2.35339
2.4242
2.4959
2.56841
2.64167
2.7156
2.79013
2.86517
2.94064
3.01645
3.09251
3.16873
3.24502
3.32128
3.39742
3.47333
3.54892
3.62409
3.69873
3.77274
3.84603
3.91848
3.99
4.06048
4.12983
4.19795
4.26474
4.3301
4.39395
4.4562
4.51675
4.57553
4.63246
4.68745
4.74043
4.79133
4.8401
4.88666
4.93098
4.97298
5.01264
5.04992
5.08477
5.11717
5.14711
5.17456
5.19951
5.22196
5.24191
5.25936
5.27434
5.28687
5.29696
5.30466
5.31
5.31301
5.31372
5.31221
5.30831
5.30209
5.29372
5.28324
5.27072
5.25619
5.23969
5.22128
5.20099
5.17884
5.15487
5.1291
5.10155
5.07223
5.04115
5.00831
4.97373
4.93741
4.89937
4.85962
4.81818
4.7751
4.7304
4.68415
4.6364
4.58722
4.53668
4.48488
4.4319
4.37783
4.32278
4.26685
4.21012
4.15271
4.09472
4.03627
3.97747
3.91845
3.85933
3.80025
3.74136
3.68282
3.6248
3.56749
3.51109
3.45581
3.40184
3.34935
3.29791
3.24632
0.0448533
0.0897618
0.113265
0.130097
0.143997
0.156313
0.16769
0.178508
0.189013
0.19938
0.209742
0.220198
0.23083
0.241704
0.252872
0.264381
0.276268
0.28857
0.301315
0.314529
0.328235
0.342462
0.357244
0.372611
0.388595
0.405226
0.422535
0.440554
0.459313
0.478844
0.499182
0.520355
0.542394
0.565333
0.589205
0.61405
0.639868
0.666678
0.694545
0.723514
0.753622
0.784907
0.817404
0.85115
0.886184
0.922539
0.960237
0.999305
1.03977
1.08166
1.12498
1.16976
1.21602
1.26375
1.31299
1.36372
1.41596
1.46971
1.52496
1.58169
1.6399
1.69957
1.76067
1.82318
1.88706
1.95229
2.01881
2.08658
2.15555
2.22567
2.29689
2.36914
2.44236
2.51648
2.59143
2.66714
2.74352
2.82051
2.89801
2.97594
3.05422
3.13275
3.21144
3.29021
3.36895
3.44757
3.52596
3.60404
3.6817
3.75884
3.83535
3.91114
3.9861
4.06013
4.13313
4.205
4.27563
4.34493
4.4128
4.47914
4.54387
4.6069
4.66814
4.7275
4.7849
4.84026
4.89351
4.94458
4.99341
5.03994
5.08411
5.12587
5.16519
5.20201
5.23632
5.26808
5.29727
5.32387
5.34789
5.36931
5.38815
5.40441
5.41812
5.42931
5.43801
5.44426
5.44811
5.4496
5.44883
5.44574
5.44017
5.4324
5.42249
5.41051
5.39651
5.38056
5.36272
5.34303
5.32155
5.2983
5.27333
5.24665
5.21828
5.18825
5.15655
5.12319
5.08816
5.05148
5.01313
4.97314
4.93152
4.88828
4.84346
4.79711
4.74926
4.69998
4.64934
4.5974
4.54426
4.49
4.43469
4.37844
4.32133
4.26346
4.20492
4.14584
4.0863
4.02644
3.96636
3.90621
3.84614
3.78628
3.72683
3.66796
3.60987
3.55276
3.49682
3.44224
3.38862
3.33508
0.0445554
0.0893226
0.112625
0.129319
0.143091
0.155276
0.166524
0.177209
0.18758
0.197811
0.208032
0.218342
0.228821
0.239534
0.250535
0.26187
0.273579
0.285699
0.298265
0.311311
0.324872
0.338984
0.353678
0.368989
0.384955
0.40161
0.418993
0.437141
0.456095
0.4759
0.49661
0.518242
0.54083
0.564414
0.589024
0.61467
0.641394
0.669274
0.698383
0.72876
0.760443
0.79347
0.827875
0.863693
0.900947
0.939664
0.979875
1.02161
1.0649
1.10976
1.1562
1.20422
1.25382
1.305
1.35776
1.4121
1.46801
1.52546
1.58445
1.64494
1.7069
1.77031
1.83513
1.90131
1.96881
2.03759
2.10758
2.17875
2.25102
2.32434
2.39864
2.47386
2.54992
2.62676
2.70431
2.78248
2.86119
2.94037
3.01994
3.09981
3.17989
3.26009
3.34033
3.42052
3.50056
3.58035
3.65981
3.73884
3.81734
3.8952
3.97235
4.04866
4.12405
4.19842
4.27166
4.34368
4.41438
4.48366
4.55143
4.6176
4.68207
4.74476
4.80559
4.86446
4.92129
4.97602
5.02855
5.07884
5.12682
5.17243
5.21561
5.25631
5.2945
5.33013
5.36318
5.39362
5.42143
5.44658
5.46908
5.48894
5.50617
5.52077
5.53277
5.54222
5.54916
5.55362
5.55569
5.55544
5.55298
5.54795
5.54066
5.5312
5.51966
5.5061
5.49061
5.47326
5.45411
5.43323
5.41067
5.38647
5.36068
5.33331
5.30439
5.27393
5.24192
5.20837
5.17327
5.13661
5.09838
5.05859
5.01723
4.97432
4.92987
4.88392
4.8365
4.78765
4.73744
4.68592
4.63317
4.57926
4.52426
4.46824
4.4113
4.35352
4.29498
4.23579
4.17603
4.11582
4.05528
3.99452
3.93369
3.87294
3.81244
3.75238
3.69293
3.63431
3.57668
3.52026
3.4647
3.40944
0.0439306
0.0883163
0.111303
0.127758
0.141312
0.153294
0.164349
0.174851
0.185047
0.195112
0.205173
0.21533
0.225664
0.23624
0.247113
0.258331
0.269939
0.28198
0.294495
0.307525
0.321112
0.335298
0.350126
0.365643
0.381905
0.39895
0.416818
0.435555
0.455209
0.475814
0.497378
0.519964
0.543649
0.568498
0.594569
0.621938
0.650644
0.68074
0.712276
0.745299
0.779843
0.815942
0.853624
0.892913
0.933823
0.976367
1.02056
1.06641
1.11392
1.16306
1.21382
1.26621
1.3202
1.37578
1.43291
1.49159
1.55176
1.6134
1.67647
1.74093
1.80673
1.87382
1.94215
2.01168
2.08235
2.15409
2.22686
2.3006
2.37524
2.45072
2.52697
2.60394
2.68155
2.75974
2.83843
2.91756
2.99704
3.07682
3.1568
3.23692
3.31709
3.39724
3.47728
3.55714
3.63671
3.71593