/*--------------------------------*- C++ -*----------------------------------*\
  =========                 |
  \\      /  F ield         | OpenFOAM: The Open Source CFD Toolbox
   \\    /   O peration     | Website:  https://openfoam.org
    \\  /    A nd           | Version:  8
     \\/     M anipulation  |
\*---------------------------------------------------------------------------*/
FoamFile
{
    version     2.0;
    format      ascii;
    class       volScalarField;
    location    "225";
    object      nut;
}
// * * * * * * * * * * * * * * * * * * * * * * * * * * * * * * * * * * * * * //

dimensions      [0 2 -1 0 0 0 0];

internalField   nonuniform List<scalar> 
12225
(
4.14967e-05
3.93419e-05
3.74836e-05
3.54327e-05
3.37844e-05
3.24203e-05
3.15103e-05
3.09112e-05
3.0918e-05
3.10937e-05
3.15721e-05
3.21035e-05
3.31501e-05
3.38106e-05
3.51081e-05
3.56983e-05
3.73407e-05
3.67172e-05
0.000332332
0.00021522
0.00017928
0.000157681
0.000146207
0.000138214
0.000132741
0.00013165
0.000129511
0.00013006
0.000129052
0.000129434
0.000128664
0.000128554
0.000128081
0.000127415
0.000127398
0.000126509
0.000674966
0.00045084
0.000355778
0.000309839
0.000275284
0.000251103
0.000231704
0.000217282
0.000202674
0.000192124
0.000182618
0.000175209
0.000169375
0.000163682
0.000160296
0.000155571
0.0001538
0.000149882
0.000833614
0.000684909
0.000571985
0.000499971
0.000449455
0.000411961
0.000380768
0.000356008
0.000334001
0.000314788
0.000298321
0.000281723
0.000270302
0.000256076
0.000248199
0.000236172
0.000230401
0.000220478
0.000861254
0.000802527
0.000742127
0.000676583
0.000623995
0.000581379
0.000545863
0.000514561
0.000489515
0.000464435
0.000445858
0.000424078
0.000409937
0.000390812
0.00037989
0.000363109
0.000354489
0.000339553
0.000854979
0.000840347
0.000822204
0.000786496
0.00075086
0.000715902
0.000685759
0.000656133
0.000632547
0.00060752
0.000588997
0.000567251
0.000552285
0.000533105
0.000520787
0.00050375
0.000493323
0.000477533
0.000852907
0.000850686
0.000844239
0.000832828
0.00081741
0.000797001
0.000777886
0.000756738
0.0007389
0.000719148
0.000703534
0.000685624
0.000672125
0.000655929
0.000644312
0.000629548
0.000619527
0.000605193
0.000851922
0.000851814
0.000850172
0.000847396
0.000841453
0.000833728
0.000824896
0.000813416
0.000802808
0.000790471
0.000779716
0.000767542
0.000757427
0.000745788
0.000736544
0.000725541
0.000717166
0.000706068
0.000851751
0.000851542
0.000851034
0.000850339
0.00084888
0.000846168
0.000843034
0.000838305
0.000833402
0.000827361
0.000821217
0.000814774
0.000808411
0.000801529
0.000795244
0.000788424
0.00078218
0.000775277
0.000851769
0.00085139
0.000851046
0.000850633
0.000850248
0.000849368
0.000848405
0.000846781
0.000844956
0.00084253
0.000839924
0.0008368
0.000833795
0.000830154
0.000826972
0.00082293
0.000819904
0.000815306
0.000851787
0.000851359
0.000851012
0.000850613
0.000850329
0.000849905
0.000849525
0.000848929
0.000848303
0.000847393
0.000846466
0.000845177
0.00084399
0.000842352
0.000840997
0.000839033
0.000837641
0.000835364
0.000851789
0.000851359
0.000850995
0.000850605
0.000850292
0.000849938
0.000849646
0.00084928
0.000848955
0.000848504
0.000848098
0.000847508
0.000846998
0.000846244
0.000845642
0.000844721
0.000844058
0.000842977
0.000851786
0.000851363
0.000850985
0.000850604
0.000850269
0.000849926
0.00084963
0.000849313
0.000849042
0.000848728
0.000848462
0.000848126
0.000847843
0.000847466
0.000847156
0.000846726
0.000846387
0.000845902
0.000851783
0.000851364
0.000850978
0.000850602
0.000850256
0.000849916
0.000849607
0.0008493
0.000849022
0.00084874
0.000848488
0.000848224
0.000847988
0.000847735
0.000847508
0.000847258
0.000847033
0.000846783
0.000851781
0.000851364
0.000850973
0.000850598
0.000850246
0.000849908
0.000849591
0.000849286
0.000849
0.000848723
0.000848463
0.000848211
0.000847975
0.000847744
0.000847527
0.000847316
0.000847114
0.000846919
0.00085178
0.000851363
0.000850969
0.000850594
0.000850239
0.000849901
0.00084958
0.000849275
0.000848984
0.000848707
0.000848443
0.000848191
0.000847951
0.000847721
0.000847502
0.000847292
0.000847092
0.000846901
0.000851779
0.000851362
0.000850967
0.000850591
0.000850234
0.000849895
0.000849572
0.000849265
0.000848973
0.000848694
0.000848428
0.000848175
0.000847932
0.000847701
0.00084748
0.000847269
0.000847067
0.000846874
0.000851779
0.000851362
0.000850965
0.000850588
0.000850231
0.00084989
0.000849567
0.000849259
0.000848965
0.000848685
0.000848418
0.000848163
0.000847919
0.000847687
0.000847464
0.000847252
0.000847048
0.000846853
0.000851779
0.000851362
0.000850965
0.000850588
0.00085023
0.000849889
0.000849565
0.000849256
0.000848962
0.000848681
0.000848413
0.000848158
0.000847913
0.00084768
0.000847456
0.000847243
0.000847038
0.000846843
0.000851779
0.000851362
0.000850966
0.000850589
0.000850231
0.000849891
0.000849567
0.000849259
0.000848965
0.000848685
0.000848417
0.000848161
0.000847917
0.000847683
0.000847459
0.000847245
0.00084704
0.000846844
0.000851779
0.000851363
0.000850967
0.000850592
0.000850235
0.000849897
0.000849573
0.000849267
0.000848972
0.000848693
0.000848424
0.000848168
0.000847919
0.000847683
0.00084745
0.000847231
0.000847012
0.000846805
0.000851778
0.000851366
0.000850968
0.000850599
0.00085024
0.000849907
0.00084958
0.000849274
0.000848964
0.000848671
0.000848364
0.000848071
0.000847756
0.000847455
0.000847122
0.000846811
0.000846456
0.000846135
0.000851777
0.000851374
0.000850971
0.000850615
0.000850241
0.000849889
0.000849478
0.000849054
0.000848529
0.000847978
0.0008473
0.000846604
0.000845766
0.000844938
0.000843954
0.000843028
0.000841917
0.000840938
0.000851802
0.00085141
0.00085097
0.000850549
0.000849861
0.000848967
0.000847607
0.000845979
0.000843903
0.000841635
0.000838954
0.000836213
0.000833115
0.000830112
0.000826761
0.000823678
0.000820182
0.000817176
0.000852138
0.000851403
0.000850234
0.000848252
0.000844472
0.000839355
0.000832711
0.000825762
0.000817913
0.00081
0.000801614
0.000793625
0.000785329
0.000777704
0.000769741
0.000762697
0.00075512
0.000748791
0.000854142
0.000847718
0.000840125
0.000827122
0.000808707
0.000789646
0.000769971
0.000751416
0.000733302
0.000716893
0.000700931
0.000686778
0.000672827
0.000660667
0.000648374
0.000637937
0.000626949
0.000618016
0.00085497
0.000818336
0.00077623
0.000726635
0.000684938
0.000649857
0.000618459
0.00059202
0.000568379
0.000548309
0.000529685
0.00051399
0.000498746
0.000486013
0.000473198
0.000462704
0.000451618
0.000442801
0.000807487
0.000666879
0.000570551
0.000509854
0.000465648
0.000431193
0.000404132
0.000382499
0.000364192
0.000349065
0.000335938
0.000325075
0.000314477
0.000306245
0.00029796
0.000291365
0.000284279
0.000278929
0.000501854
0.000348404
0.00029269
0.000259174
0.000236322
0.000221177
0.000211543
0.000204015
0.00019848
0.000195059
0.000192217
0.000190367
0.000188581
0.000187439
0.000186164
0.000185473
0.000184554
0.000184142
7.27285e-05
7.02231e-05
6.79539e-05
6.56136e-05
6.33827e-05
6.12765e-05
5.94929e-05
5.79572e-05
5.67102e-05
5.57029e-05
5.49774e-05
5.44183e-05
5.41084e-05
5.3887e-05
5.38764e-05
5.39617e-05
5.40713e-05
5.43218e-05
3.13393e-07
7.5077e-06
1.36919e-05
1.93843e-05
2.53403e-05
3.19188e-05
3.92614e-05
4.74131e-05
5.62476e-05
6.55511e-05
7.50482e-05
8.44885e-05
9.36167e-05
0.000102234
0.000110152
0.000117264
0.000123514
0.000128992
0.00013391
0.000138717
0.000143033
0.000147566
0.000156649
0.000168932
0.000184054
0.000197807
0.000209457
0.000218897
0.000226375
0.000232536
0.000236617
0.00023793
0.000236041
0.000230969
0.000221332
0.000212406
0.000203531
4.11112e-05
4.34999e-05
4.74931e-05
4.94668e-05
5.01168e-05
5.14805e-05
5.24977e-05
5.3661e-05
5.47617e-05
5.58825e-05
5.69923e-05
5.81019e-05
5.92077e-05
6.03106e-05
6.14105e-05
6.25073e-05
6.36013e-05
6.46922e-05
6.578e-05
6.68647e-05
6.79462e-05
6.90242e-05
7.00986e-05
7.11692e-05
7.22357e-05
7.32977e-05
7.43551e-05
7.54074e-05
7.64543e-05
7.74952e-05
7.85299e-05
7.95577e-05
8.05785e-05
8.15914e-05
8.25962e-05
8.35922e-05
8.4579e-05
8.55559e-05
8.65225e-05
8.74781e-05
8.84224e-05
8.93545e-05
9.02742e-05
9.11806e-05
9.20734e-05
9.29518e-05
9.38155e-05
9.46636e-05
9.54959e-05
9.63113e-05
9.71096e-05
9.78898e-05
9.86514e-05
9.93932e-05
0.000100114
0.000100814
0.00010149
0.000102143
0.000102772
0.000103377
0.000103964
0.00010453
0.000105074
0.000105596
0.000106096
0.000106575
0.000107031
0.000107465
0.000107876
0.000108264
0.000108629
0.00010897
0.000109289
0.000109583
0.000109855
0.000110102
0.000110326
0.000110525
0.000110701
0.000110852
0.000110979
0.000111083
0.000111162
0.000111217
0.000111247
0.000111252
0.000111232
0.000111186
0.000111114
0.000111011
0.000110862
0.000110699
0.000110616
0.000110406
0.000110182
0.000109925
0.000109653
0.000109353
0.000109031
0.000108682
0.000108309
0.00010791
0.000107487
0.000107039
0.000106565
0.000106065
0.000105537
0.000104984
0.000104403
0.000103796
0.000103162
0.000102501
0.000101815
0.000101102
0.000100364
9.96005e-05
9.88133e-05
9.80033e-05
9.71714e-05
9.63183e-05
9.5441e-05
9.4491e-05
9.37906e-05
9.32331e-05
9.26753e-05
9.21047e-05
9.15208e-05
9.09247e-05
9.0318e-05
8.97021e-05
8.90784e-05
8.84485e-05
8.78134e-05
8.71744e-05
8.6532e-05
8.58875e-05
8.52345e-05
8.45753e-05
8.39066e-05
8.32196e-05
8.24745e-05
8.16817e-05
7.94423e-05
1.4831e-06
3.24244e-05
7.01639e-05
9.60384e-05
0.000112857
0.000125241
0.000135957
0.000146415
0.000157157
0.000168245
0.000179506
0.000190676
0.000201475
0.000211644
0.000220963
0.000229277
0.000236519
0.00024275
0.000248198
0.000253304
0.000258625
0.000263667
0.000269671
0.000276654
0.000284008
0.000290906
0.000295743
0.000299645
0.000301267
0.000299934
0.000300242
0.000299939
0.000306368
0.000292104
0.000279638
0.000270985
0.000262256
0.000246623
0.000259352
0.000271119
0.000277264
0.000284389
0.000291771
0.000299472
0.000307296
0.000315239
0.000323297
0.000331445
0.000339681
0.000347997
0.000356392
0.000364862
0.000373409
0.000382032
0.000390734
0.000399514
0.000408375
0.000417317
0.000426341
0.000435449
0.000444641
0.000453916
0.000463274
0.000472715
0.000482238
0.000491841
0.000501522
0.000511279
0.000521108
0.000531006
0.00054097
0.000550996
0.000561079
0.000571214
0.000581397
0.000591621
0.000601882
0.000612172
0.000622487
0.000632818
0.000643161
0.000653509
0.000663856
0.000674195
0.000684522
0.00069483
0.000705114
0.000715369
0.000725591
0.000735773
0.00074591
0.000755994
0.000766009
0.000775932
0.000785717
0.000795284
0.000804493
0.000813097
0.000821308
0.000829428
0.000837408
0.000845258
0.000852972
0.000860545
0.000867974
0.000875253
0.000882379
0.000889349
0.00089616
0.000902808
0.000909291
0.000915606
0.000921751
0.000927722
0.000933517
0.000939134
0.000944569
0.00094982
0.000954885
0.000959761
0.000964447
0.000968938
0.000973233
0.000977325
0.000981212
0.000984893
0.000988367
0.000991625
0.000994556
0.000997574
0.00100025
0.00100251
0.0010044
0.00100618
0.0010077
0.00100898
0.00101001
0.00101076
0.00101125
0.00101145
0.00101138
0.00101102
0.00101037
0.00100942
0.00100817
0.00100661
0.00100474
0.00100256
0.00100006
0.000997253
0.000994132
0.000990701
0.000986963
0.000982923
0.000978589
0.00097396
0.000969012
0.000963601
0.000956965
0.000948148
0.000938463
0.000928394
0.000918112
0.000907689
0.000897167
0.00088658
0.000875952
0.000865308
0.000854669
0.000844054
0.000833481
0.000822964
0.000812506
0.00080204
0.000791634
0.000781294
0.000770792
0.000760021
0.000747626
0.000711563
3.05742e-06
5.23333e-05
0.000110162
0.000153997
0.000185769
0.000208998
0.00022694
0.000241955
0.000255528
0.000268449
0.000281022
0.000293263
0.000305033
0.000316128
0.00032634
0.000335498
0.000343502
0.000350358
0.000356198
0.00036126
0.000365894
0.000371547
0.000378475
0.000386832
0.0003964
0.000406741
0.000417321
0.000427636
0.000437157
0.000448089
0.00045745
0.000465779
0.000472823
0.00047748
0.000482766
0.000489022
0.000496823
0.00050754
0.000524587
0.000540686
0.000556039
0.000571703
0.00058748
0.000603483
0.000619643
0.000635962
0.00065243
0.000669041
0.000685793
0.000702682
0.000719708
0.000736873
0.000754179
0.000771628
0.000789221
0.00080696
0.000824847
0.000842883
0.000861068
0.000879403
0.000897886
0.000916516
0.000935291
0.000954208
0.000973263
0.000992453
0.00101177
0.00103121
0.00105077
0.00107043
0.0010902
0.00111006
0.00113
0.00115001
0.00117008
0.00119021
0.00121037
0.00123056
0.00125077
0.00127098
0.00129118
0.00131135
0.00133149
0.00135159
0.00137162
0.00139158
0.00141145
0.00143121
0.00145086
0.00147038
0.00148974
0.00150893
0.00152791
0.00154663
0.00156504
0.00158305
0.0016006
0.00161766
0.00163438
0.00165085
0.00166703
0.00168294
0.00169854
0.00171385
0.00172884
0.00174351
0.00175785
0.00177185
0.00178551
0.00179881
0.00181176
0.00182435
0.00183657
0.00184842
0.00185988
0.00187097
0.00188166
0.00189197
0.00190187
0.00191138
0.00192048
0.00192916
0.00193743
0.00194528
0.00195269
0.00195967
0.0019662
0.00197227
0.00197787
0.00198324
0.00198808
0.00199206
0.00199538
0.00199842
0.00200096
0.00200298
0.00200444
0.00200536
0.00200572
0.00200551
0.00200472
0.00200335
0.00200137
0.00199877
0.00199556
0.00199172
0.00198724
0.00198213
0.00197638
0.00196999
0.00196297
0.00195532
0.00194706
0.00193819
0.00192873
0.00191869
0.00190803
0.00189658
0.00188374
0.00186874
0.00185242
0.00183534
0.00181777
0.00179984
0.00178165
0.00176326
0.00174472
0.00172608
0.00170739
0.00168868
0.00166999
0.00165136
0.0016328
0.00161432
0.00159589
0.00157746
0.00155873
0.00153917
0.00151598
0.00146599
4.7599e-06
6.73544e-05
0.000140442
0.000197607
0.0002401
0.000271844
0.000296338
0.000316236
0.00033338
0.000348929
0.000363514
0.000377405
0.00039064
0.000403134
0.000414753
0.000425377
0.000434958
0.000443561
0.0004514
0.000458867
0.000466532
0.00047512
0.000485132
0.00049687
0.000510444
0.000525591
0.000541912
0.000559135
0.000577192
0.000594575
0.000611419
0.000627782
0.000643393
0.000659046
0.000675952
0.000693038
0.00071152
0.000731945
0.000754066
0.000776316
0.000798546
0.000820981
0.000843573
0.000866347
0.000889298
0.000912428
0.000935735
0.00095922
0.000982884
0.00100673
0.00103075
0.00105496
0.00107936
0.00110394
0.00112873
0.00115371
0.00117888
0.00120426
0.00122983
0.0012556
0.00128156
0.00130771
0.00133405
0.00136057
0.00138727
0.00141413
0.00144115
0.00146833
0.00149564
0.00152308
0.00155065
0.00157831
0.00160607
0.0016339
0.0016618
0.00168975
0.00171772
0.00174571
0.0017737
0.00180167
0.0018296
0.00185747
0.00188527
0.00191298
0.00194057
0.00196803
0.00199534
0.00202248
0.00204942
0.00207614
0.00210261
0.00212881
0.00215469
0.00218021
0.00220532
0.00222997
0.00225413
0.00227783
0.00230114
0.00232407
0.00234661
0.00236874
0.00239046
0.00241175
0.00243259
0.00245297
0.00247289
0.00249233
0.00251128
0.00252973
0.00254768
0.00256512
0.00258204
0.00259843
0.00261428
0.0026296
0.00264437
0.00265859
0.00267225
0.00268536
0.00269789
0.00270985
0.00272123
0.00273202
0.00274221
0.00275179
0.00276076
0.00276908
0.00277691
0.00278433
0.00279084
0.00279621
0.00280098
0.00280519
0.00280871
0.0028115
0.00281356
0.00281486
0.00281539
0.00281514
0.0028141
0.00281224
0.00280955
0.00280602
0.00280163
0.00279637
0.00279023
0.00278321
0.00277531
0.00276652
0.00275686
0.00274632
0.00273493
0.0027227
0.00270964
0.00269577
0.00268105
0.00266535
0.00264827
0.0026294
0.00260914
0.00258789
0.00256594
0.00254345
0.00252052
0.00249726
0.00247372
0.00244998
0.0024261
0.00240214
0.00237816
0.0023542
0.0023303
0.00230654
0.00228287
0.0022592
0.00223522
0.0022102
0.00218079
0.0021282
6.42049e-06
7.98791e-05
0.000165601
0.00023376
0.000285639
0.000324935
0.00035539
0.000379903
0.000400586
0.000418878
0.000435681
0.000451502
0.000466576
0.000480977
0.000494692
0.000507699
0.000520013
0.000531737
0.00054309
0.000554421
0.000566188
0.000578894
0.000592952
0.000608608
0.000626008
0.000645075
0.000665578
0.000687187
0.000709599
0.000732371
0.00075537
0.000778485
0.000801719
0.000825301
0.000849504
0.000874351
0.000899915
0.000926193
0.00095312
0.000980307
0.00100774
0.00103533
0.00106311
0.00109109
0.00111927
0.00114766
0.00117625
0.00120505
0.00123407
0.00126329
0.00129273
0.00132238
0.00135224
0.00138233
0.00141265
0.0014432
0.00147398
0.00150498
0.00153622
0.00156768
0.00159935
0.00163124
0.00166334
0.00169564
0.00172812
0.00176079
0.00179363
0.00182663
0.00185977
0.00189304
0.00192643
0.00195992
0.00199349
0.00202713
0.00206082
0.00209454
0.00212827
0.00216198
0.00219567
0.00222931
0.00226287
0.00229634
0.0023297
0.00236291
0.00239597
0.00242883
0.00246149
0.00249391
0.00252608
0.00255795
0.00258951
0.00262072
0.00265155
0.00268198
0.00271196
0.00274149
0.00277055
0.00279914
0.00282727
0.00285494
0.00288214
0.00290885
0.00293506
0.00296074
0.00298588
0.00301048
0.00303451
0.00305796
0.00308083
0.0031031
0.00312476
0.00314581
0.00316623
0.00318602
0.00320517
0.00322368
0.00324154
0.00325874
0.00327528
0.00329115
0.00330635
0.00332086
0.00333469
0.00334782
0.00336025
0.00337197
0.00338297
0.00339325
0.00340308
0.00341212
0.00342014
0.0034269
0.00343314
0.00343861
0.00344325
0.00344705
0.00344997
0.00345202
0.00345316
0.00345338
0.00345267
0.00345099
0.00344833
0.00344467
0.00344
0.00343429
0.00342753
0.00341972
0.00341084
0.00340091
0.00338991
0.00337787
0.00336478
0.00335068
0.00333557
0.00331947
0.00330236
0.00328415
0.00326462
0.00324356
0.00322115
0.00319766
0.0031733
0.00314824
0.00312259
0.00309646
0.00306994
0.0030431
0.00301602
0.00298878
0.00296144
0.00293407
0.00290674
0.00287951
0.00285235
0.00282522
0.00279786
0.00276947
0.00273677
0.00268569
7.97833e-06
9.03245e-05
0.000186603
0.000264227
0.000324471
0.000370692
0.000406769
0.00043578
0.000460041
0.000481213
0.000500427
0.000518407
0.000535582
0.000552187
0.000568344
0.000584128
0.000599614
0.000614921
0.000630232
0.000645806
0.000661957
0.000679019
0.000697285
0.000716961
0.000738139
0.000760755
0.000784664
0.000809675
0.000835574
0.000862145
0.000889242
0.000916776
0.000944733
0.000973162
0.00100209
0.00103152
0.00106145
0.00109187
0.0011227
0.00115384
0.00118523
0.00121684
0.00124867
0.00128072
0.00131298
0.00134546
0.00137817
0.00141109
0.00144425
0.00147763
0.00151125
0.00154511
0.00157922
0.00161356
0.00164814
0.00168294
0.00171799
0.00175325
0.00178875
0.00182446
0.00186039
0.00189653
0.00193288
0.00196941
0.00200612
0.00204301
0.00208006
0.00211725
0.00215458
0.00219202
0.00222957
0.0022672
0.0023049
0.00234265
0.00238043
0.00241822
0.002456
0.00249375
0.00253145
0.00256907
0.0026066
0.002644
0.00268127
0.00271837
0.00275527
0.00279196
0.00282841
0.00286459
0.00290047
0.00293603
0.00297124
0.00300608
0.00304051
0.00307451
0.00310806
0.00314114
0.00317373
0.00320583
0.00323742
0.0032685
0.00329905
0.00332906
0.00335849
0.00338735
0.00341561
0.00344325
0.00347027
0.00349664
0.00352236
0.00354742
0.0035718
0.0035955
0.0036185
0.0036408
0.0036624
0.00368328
0.00370344
0.00372287
0.00374158
0.00375955
0.00377678
0.00379327
0.003809
0.00382398
0.00383819
0.00385163
0.00386428
0.00387632
0.00388771
0.00389816
0.00390749
0.00391571
0.00392327
0.00392998
0.00393579
0.00394069
0.00394465
0.00394766
0.0039497
0.00395074
0.00395076
0.00394973
0.00394764
0.00394445
0.00394014
0.0039347
0.00392811
0.00392035
0.00391141
0.00390129
0.00388999
0.00387751
0.00386386
0.00384907
0.00383314
0.00381608
0.0037979
0.00377853
0.00375788
0.00373584
0.00371249
0.00368801
0.00366255
0.00363625
0.00360924
0.00358162
0.00355349
0.00352492
0.00349601
0.00346684
0.0034375
0.00340807
0.00337863
0.00334925
0.00331997
0.00329078
0.00326147
0.0032313
0.00319738
0.0031492
9.39056e-06
9.89225e-05
0.000203984
0.000289819
0.00035757
0.000410213
0.00045167
0.000485121
0.000513026
0.000537214
0.000558999
0.000579286
0.000598674
0.000617546
0.000636143
0.000654627
0.000673124
0.000691763
0.000710692
0.00073009
0.000750157
0.000771098
0.000793092
0.000816266
0.000840676
0.000866297
0.000893052
0.000920825
0.000949486
0.000978905
0.00100897
0.00103962
0.00107079
0.00110246
0.00113461
0.00116723
0.00120027
0.00123372
0.00126753
0.00130164
0.00133603
0.00137066
0.00140552
0.0014406
0.00147591
0.00151144
0.00154719
0.00158316
0.00161937
0.00165579
0.00169245
0.00172935
0.00176647
0.00180383
0.00184141
0.00187922
0.00191726
0.00195551
0.00199399
0.00203267
0.00207156
0.00211065
0.00214993
0.00218939
0.00222903
0.00226883
0.00230877
0.00234886
0.00238906
0.00242937
0.00246977
0.00251025
0.00255079
0.00259136
0.00263196
0.00267255
0.00271313
0.00275366
0.00279414
0.00283452
0.0028748
0.00291495
0.00295494
0.00299475
0.00303436
0.00307374
0.00311286
0.0031517
0.00319023
0.00322843
0.00326626
0.00330371
0.00334074
0.00337733
0.00341347
0.00344912
0.00348428
0.00351892
0.00355304
0.0035866
0.00361961
0.00365203
0.00368385
0.00371504
0.0037456
0.00377551
0.00380474
0.00383329
0.00386115
0.00388829
0.00391471
0.0039404
0.00396536
0.00398956
0.00401301
0.0040357
0.00405763
0.00407878
0.00409916
0.00411877
0.0041376
0.00415564
0.0041729
0.00418936
0.00420502
0.00421988
0.00423396
0.00424749
0.00426011
0.00427186
0.00428242
0.00429205
0.00430085
0.00430878
0.00431578
0.00432185
0.00432696
0.00433109
0.00433422
0.00433633
0.00433737
0.00433734
0.0043362
0.00433392
0.00433047
0.00432584
0.00431999
0.00431291
0.00430458
0.004295
0.00428415
0.00427205
0.00425869
0.00424408
0.00422825
0.00421119
0.00419292
0.00417341
0.00415261
0.00413047
0.00410706
0.00408246
0.0040568
0.0040302
0.00400277
0.00397461
0.00394582
0.00391648
0.00388669
0.00385655
0.00382615
0.00379559
0.00376496
0.00373436
0.00370388
0.00367353
0.00364319
0.00361222
0.00357824
0.00353431
1.0627e-05
0.000105838
0.000218088
0.00031107
0.000385461
0.000444088
0.000490699
0.00052853
0.000560129
0.000587442
0.000611918
0.000634604
0.000656237
0.000677322
0.0006982
0.000719109
0.00074022
0.000761673
0.000783598
0.000806123
0.000829373
0.000853464
0.000878498
0.000904542
0.000931626
0.000959739
0.000988835
0.00101884
0.00104969
0.00108128
0.00111353
0.0011464
0.00117981
0.00121373
0.00124812
0.00128295
0.00131818
0.00135379
0.00138973
0.00142598
0.0014625
0.00149927
0.00153626
0.00157348
0.0016109
0.00164854
0.00168639
0.00172445
0.00176272
0.00180121
0.00183991
0.00187882
0.00191795
0.00195729
0.00199685
0.00203662
0.00207659
0.00211677
0.00215716
0.00219774
0.00223851
0.00227947
0.00232061
0.00236192
0.0024034
0.00244502
0.00248679
0.00252869
0.0025707
0.00261282
0.00265502
0.0026973
0.00273964
0.00278202
0.00282442
0.00286682
0.00290921
0.00295156
0.00299386
0.00303607
0.00307819
0.00312018
0.00316202
0.00320368
0.00324515
0.0032864
0.0033274
0.00336812
0.00340854
0.00344863
0.00348837
0.00352772
0.00356667
0.00360519
0.00364325
0.00368083
0.00371791
0.00375447
0.00379049
0.00382595
0.00386083
0.00389511
0.00392876
0.00396176
0.00399411
0.00402577
0.00405674
0.00408699
0.00411652
0.0041453
0.00417334
0.0042006
0.0042271
0.00425282
0.00427775
0.00430188
0.00432522
0.00434776
0.0043695
0.00439044
0.00441057
0.00442989
0.00444841
0.00446612
0.00448301
0.00449909
0.0045145
0.00452918
0.00454297
0.00455588
0.00456763
0.00457856
0.00458859
0.00459772
0.00460594
0.00461323
0.00461957
0.00462494
0.00462931
0.00463266
0.00463496
0.00463618
0.00463628
0.00463525
0.00463303
0.00462961
0.00462495
0.00461904
0.00461184
0.00460335
0.00459354
0.00458243
0.00457
0.00455626
0.00454123
0.0045249
0.00450728
0.00448838
0.00446816
0.00444662
0.00442379
0.00439974
0.00437455
0.00434832
0.00432115
0.00429314
0.00426438
0.00423496
0.00420499
0.00417456
0.00414377
0.00411274
0.00408158
0.0040504
0.00401933
0.00398843
0.00395765
0.00392647
0.003893
0.00385292
1.167e-05
0.000111224
0.000229228
0.00032844
0.00040861
0.000472724
0.000524224
0.000566329
0.00060162
0.000632115
0.000659354
0.000684488
0.000708358
0.000731568
0.000754542
0.000777575
0.000800876
0.000824606
0.0008489
0.000873867
0.00089958
0.000926098
0.000953472
0.000981735
0.0010109
0.00104095
0.00107185
0.00110356
0.00113603
0.00116919
0.00120298
0.00123735
0.00127225
0.00130764
0.00134347
0.00137971
0.00141632
0.00145329
0.00149057
0.00152817
0.00156604
0.00160413
0.00164244
0.00168094
0.00171963
0.0017585
0.00179756
0.00183681
0.00187625
0.00191587
0.00195569
0.0019957
0.0020359
0.00207629
0.00211687
0.00215765
0.00219862
0.00223978
0.00228112
0.00232265
0.00236437
0.00240626
0.00244833
0.00249056
0.00253296
0.0025755
0.0026182
0.00266103
0.00270398
0.00274705
0.00279023
0.00283349
0.00287682
0.00292021
0.00296365
0.00300712
0.00305059
0.00309405
0.00313747
0.00318085
0.00322415
0.00326735
0.00331043
0.00335337
0.00339614
0.0034387
0.00348105
0.00352315
0.00356496
0.00360648
0.00364766
0.00368848
0.00372892
0.00376894
0.00380851
0.00384763
0.00388625
0.00392435
0.00396192
0.00399891
0.00403533
0.00407112
0.00410629
0.0041408
0.00417463
0.00420776
0.00424018
0.00427186
0.00430279
0.00433296
0.00436235
0.00439096
0.00441877
0.00444577
0.00447195
0.00449732
0.00452187
0.00454559
0.00456849
0.00459057
0.00461183
0.00463226
0.00465188
0.00467068
0.00468867
0.00470587
0.00472243
0.00473813
0.00475301
0.004767
0.00477998
0.00479212
0.00480335
0.00481369
0.00482314
0.0048317
0.00483933
0.00484603
0.00485176
0.00485651
0.00486024
0.00486292
0.00486451
0.00486498
0.00486429
0.00486241
0.0048593
0.00485493
0.00484928
0.00484231
0.00483402
0.00482439
0.00481341
0.00480107
0.00478739
0.00477236
0.00475599
0.00473828
0.00471923
0.00469883
0.00467711
0.00465411
0.00462991
0.00460458
0.0045782
0.00455087
0.00452267
0.0044937
0.00446406
0.00443385
0.00440318
0.00437217
0.00434095
0.00430966
0.00427843
0.00424739
0.00421653
0.00418547
0.00415271
0.00411567
1.25117e-05
0.000115227
0.000237685
0.000342114
0.000427341
0.000496427
0.000552498
0.000598703
0.000637614
0.000671278
0.000701289
0.000728868
0.000754928
0.000780151
0.000805069
0.00082998
0.000855098
0.000880569
0.000906467
0.000933024
0.000960312
0.00098838
0.00101726
0.00104695
0.00107746
0.00110878
0.00114087
0.00117369
0.0012072
0.00124136
0.00127611
0.00131141
0.00134721
0.00138347
0.00142015
0.00145721
0.00149462
0.00153236
0.0015704
0.00160869
0.00164713
0.00168578
0.00172461
0.00176358
0.0018027
0.00184197
0.00188138
0.00192094
0.00196066
0.00200054
0.00204059
0.0020808
0.00212118
0.00216173
0.00220245
0.00224336
0.00228444
0.00232571
0.00236716
0.00240879
0.00245061
0.00249262
0.0025348
0.00257717
0.00261971
0.00266243
0.00270532
0.00274837
0.00279157
0.00283492
0.00287841
0.00292203
0.00296576
0.00300959
0.0030535
0.00309749
0.00314154
0.00318561
0.00322971
0.0032738
0.00331786
0.00336188
0.00340582
0.00344966
0.00349337
0.00353694
0.00358032
0.0036235
0.00366643
0.0037091
0.00375148
0.00379352
0.00383521
0.00387651
0.00391739
0.00395783
0.00399779
0.00403725
0.00407617
0.00411454
0.00415231
0.00418948
0.004226
0.00426186
0.00429704
0.0043315
0.00436523
0.00439822
0.00443043
0.00446186
0.0044925
0.00452232
0.00455133
0.0045795
0.00460683
0.00463333
0.00465898
0.00468379
0.00470775
0.00473087
0.00475315
0.00477461
0.00479524
0.00481505
0.00483405
0.00485232
0.00486984
0.00488658
0.00490251
0.00491758
0.00493176
0.00494508
0.00495748
0.00496902
0.00497973
0.00498959
0.00499858
0.00500669
0.00501389
0.00502016
0.00502546
0.00502977
0.00503304
0.00503524
0.00503633
0.00503626
0.00503499
0.00503249
0.00502872
0.00502365
0.00501725
0.0050095
0.00500039
0.0049899
0.00497803
0.00496477
0.00495013
0.0049341
0.00491668
0.00489789
0.00487772
0.00485622
0.00483344
0.00480944
0.00478429
0.00475807
0.00473086
0.00470277
0.00467387
0.00464429
0.00461413
0.00458353
0.00455262
0.00452155
0.0044905
0.00445959
0.00442889
0.00439812
0.0043661
0.00433145
1.31522e-05
0.00011799
0.000243716
0.000352374
0.000441946
0.000515459
0.000575723
0.000625778
0.000668152
0.000704883
0.000737598
0.00076757
0.000795689
0.000822595
0.000848879
0.000875019
0.000901322
0.000928009
0.000955268
0.000983206
0.00101182
0.00104113
0.00107115
0.00110187
0.0011333
0.00116541
0.00119819
0.00123159
0.00126557
0.00130011
0.00133514
0.00137064
0.00140656
0.00144286
0.0014795
0.00151646
0.00155369
0.00159118
0.00162892
0.00166691
0.00170519
0.00174367
0.00178226
0.0018209
0.0018596
0.00189839
0.00193728
0.00197628
0.0020154
0.00205465
0.00209404
0.00213358
0.00217327
0.00221312
0.00225315
0.00229335
0.00233374
0.00237432
0.0024151
0.00245608
0.00249727
0.00253868
0.00258031
0.00262215
0.00266422
0.00270651
0.00274901
0.00279174
0.00283468
0.00287782
0.00292116
0.0029647
0.00300842
0.0030523
0.00309634
0.00314053
0.00318483
0.00322924
0.00327374
0.0033183
0.0033629
0.00340752
0.00345213
0.0034967
0.0035412
0.00358562
0.0036299
0.00367403
0.00371798
0.0037617
0.00380517
0.00384835
0.00389121
0.00393372
0.00397584
0.00401754
0.00405878
0.00409953
0.00413976
0.00417944
0.00421854
0.00425703
0.00429488
0.00433206
0.00436854
0.0044043
0.00443932
0.00447358
0.00450705
0.00453971
0.00457156
0.00460258
0.00463275
0.00466207
0.00469052
0.00471811
0.00474484
0.00477069
0.00479568
0.00481981
0.00484309
0.00486552
0.00488712
0.00490791
0.0049279
0.00494714
0.00496563
0.00498339
0.00500038
0.00501654
0.00503188
0.00504637
0.00505991
0.00507268
0.00508467
0.00509587
0.00510627
0.00511586
0.00512461
0.0051325
0.00513951
0.00514559
0.00515071
0.00515483
0.0051579
0.00515987
0.00516069
0.00516033
0.00515874
0.00515587
0.0051517
0.00514618
0.0051393
0.00513103
0.00512136
0.00511028
0.00509777
0.00508383
0.00506847
0.00505167
0.00503346
0.00501384
0.00499286
0.00497058
0.00494703
0.0049223
0.00489647
0.00486961
0.00484183
0.00481322
0.00478392
0.00475404
0.00472374
0.00469318
0.00466254
0.00463199
0.00460161
0.00457123
0.00453992
0.00450714
1.36023e-05
0.000119686
0.000247581
0.000359518
0.000452712
0.00053006
0.000594066
0.000647627
0.000693229
0.000732777
0.000767757
0.000799563
0.000829287
0.000857779
0.000885713
0.000913374
0.000941045
0.000968943
0.000997219
0.00102593
0.00105515
0.00108493
0.0011153
0.00114626
0.0011778
0.00120992
0.00124257
0.00127575
0.0013094
0.00134351
0.00137802
0.00141291
0.00144812
0.00148364
0.00151942
0.00155545
0.00159168
0.00162807
0.00166468
0.00170156
0.00173878
0.00177615
0.00181356
0.001851
0.00188841
0.00192581
0.00196325
0.00200077
0.00203838
0.00207611
0.00211397
0.00215198
0.00219014
0.00222848
0.00226702
0.00230575
0.00234472
0.00238391
0.00242336
0.00246306