/*--------------------------------*- C++ -*----------------------------------*\
  =========                 |
  \\      /  F ield         | OpenFOAM: The Open Source CFD Toolbox
   \\    /   O peration     | Website:  https://openfoam.org
    \\  /    A nd           | Version:  8
     \\/     M anipulation  |
\*---------------------------------------------------------------------------*/
FoamFile
{
    version     2.0;
    format      ascii;
    class       volScalarField;
    location    "225";
    object      p;
}
// * * * * * * * * * * * * * * * * * * * * * * * * * * * * * * * * * * * * * //

dimensions      [0 2 -2 0 0 0 0];

internalField   nonuniform List<scalar> 
12225
(
-1.40455
-3.59251
-4.69255
-5.01325
-5.1946
-5.36374
-5.49543
-5.59078
-5.66767
-5.73541
-5.79586
-5.85132
-5.90189
-5.94931
-5.99399
-6.03166
-6.0787
-6.05336
-4.56692
-5.33573
-5.49625
-5.40407
-5.39162
-5.45959
-5.53729
-5.60323
-5.66312
-5.7209
-5.77597
-5.82745
-5.87609
-5.92216
-5.96668
-6.00634
-6.05197
-6.08414
-4.96755
-4.95335
-5.08079
-5.15922
-5.2542
-5.37448
-5.48186
-5.5669
-5.63898
-5.70467
-5.76522
-5.82069
-5.87257
-5.9212
-5.96813
-6.01126
-6.06008
-6.10282
-4.84617
-4.78952
-5.03119
-5.18957
-5.29138
-5.39768
-5.49552
-5.57575
-5.64474
-5.70815
-5.76713
-5.82168
-5.87296
-5.92137
-5.9683
-6.01302
-6.06129
-6.10892
-4.83624
-4.8606
-5.08869
-5.23029
-5.31397
-5.40611
-5.49746
-5.57535
-5.64313
-5.70565
-5.76415
-5.81861
-5.87
-5.91881
-5.96628
-6.01244
-6.0607
-6.1105
-4.89434
-4.94312
-5.1174
-5.24133
-5.32289
-5.41079
-5.49895
-5.57562
-5.6428
-5.70477
-5.76289
-5.81725
-5.86865
-5.91769
-5.96542
-6.01225
-6.06027
-6.10992
-4.95465
-4.99877
-5.13394
-5.25028
-5.33407
-5.41827
-5.50229
-5.57706
-5.64333
-5.70458
-5.76214
-5.81623
-5.86749
-5.91657
-5.96432
-6.01129
-6.05878
-6.10723
-5.00812
-5.04569
-5.15564
-5.26394
-5.34697
-5.42662
-5.50612
-5.57872
-5.64392
-5.70433
-5.76125
-5.81497
-5.86601
-5.91497
-5.96256
-6.0093
-6.05598
-6.10283
-5.05777
-5.09087
-5.18179
-5.27975
-5.35984
-5.43526
-5.51048
-5.5807
-5.64463
-5.70408
-5.76024
-5.81346
-5.86413
-5.91279
-5.96
-6.0062
-6.05185
-6.09696
-5.10475
-5.13399
-5.2095
-5.29671
-5.37293
-5.4445
-5.51566
-5.58322
-5.64562
-5.70395
-5.7592
-5.81174
-5.86188
-5.91004
-5.95666
-6.00207
-6.04654
-6.08991
-5.149
-5.17448
-5.23767
-5.31483
-5.38652
-5.45435
-5.5216
-5.58633
-5.64697
-5.704
-5.7582
-5.80989
-5.85932
-5.90679
-5.95264
-5.99708
-6.04026
-6.08196
-5.18695
-5.20929
-5.26347
-5.33229
-5.3994
-5.46378
-5.52762
-5.58968
-5.64853
-5.70424
-5.75734
-5.80811
-5.85674
-5.90343
-5.94843
-5.99187
-6.03384
-6.07408
-5.22199
-5.2417
-5.28851
-5.34988
-5.41235
-5.47333
-5.53393
-5.59335
-5.65031
-5.70461
-5.75653
-5.80629
-5.85401
-5.89983
-5.9439
-5.98628
-6.02705
-6.06594
-5.25869
-5.27587
-5.31587
-5.36986
-5.42716
-5.48429
-5.54139
-5.59785
-5.65259
-5.70517
-5.75565
-5.80414
-5.85071
-5.89542
-5.93833
-5.97949
-6.01891
-6.05637
-5.29579
-5.31056
-5.34454
-5.3916
-5.44345
-5.4964
-5.54981
-5.60308
-5.65528
-5.70583
-5.75459
-5.80156
-5.84673
-5.89009
-5.93164
-5.9714
-6.00936
-6.04535
-5.33132
-5.34394
-5.37285
-5.41378
-5.46031
-5.50897
-5.55866
-5.60865
-5.65811
-5.70638
-5.75319
-5.7984
-5.84194
-5.88374
-5.92378
-5.96202
-5.99845
-6.03297
-5.36238
-5.37325
-5.39819
-5.4341
-5.47594
-5.52061
-5.56679
-5.61366
-5.66038
-5.70631
-5.75104
-5.79436
-5.83614
-5.87628
-5.9147
-5.95138
-5.98629
-6.01938
-5.38461
-5.39425
-5.41649
-5.44893
-5.48733
-5.52892
-5.5723
-5.61658
-5.66095
-5.70475
-5.74755
-5.78907
-5.82914
-5.86765
-5.90451
-5.93969
-5.97317
-6.00493
-5.39111
-5.40026
-5.42146
-5.45258
-5.48963
-5.52985
-5.57183
-5.61469
-5.65766
-5.70009
-5.74151
-5.78167
-5.82039
-5.85757
-5.89314
-5.92707
-5.95937
-5.99005
-5.37476
-5.38453
-5.40711
-5.44016
-5.47912
-5.52075
-5.56364
-5.60708
-5.65035
-5.69282
-5.73405
-5.77385
-5.81209
-5.8487
-5.88364
-5.91691
-5.94853
-5.97855
-5.34777
-5.35856
-5.38381
-5.42079
-5.46352
-5.50798
-5.55299
-5.59814
-5.64268
-5.68593
-5.7276
-5.76759
-5.80585
-5.84235
-5.87709
-5.91009
-5.94141
-5.97112
-5.31245
-5.32426
-5.3536
-5.39715
-5.44538
-5.4933
-5.54104
-5.58869
-5.63515
-5.67964
-5.72207
-5.76253
-5.80104
-5.83761
-5.8723
-5.90518
-5.93633
-5.96585
-5.27184
-5.28372
-5.31816
-5.37139
-5.42689
-5.47879
-5.52961
-5.57997
-5.6284
-5.67419
-5.71752
-5.75861
-5.79751
-5.83427
-5.86902
-5.90188
-5.93296
-5.96239
-5.2281
-5.23906
-5.28081
-5.34519
-5.40732
-5.46394
-5.51949
-5.57327
-5.62345
-5.67019
-5.71422
-5.75581
-5.79498
-5.83185
-5.8666
-5.89942
-5.93042
-5.95974
-5.18118
-5.18662
-5.24925
-5.32742
-5.38932
-5.44751
-5.50859
-5.56687
-5.61931
-5.66728
-5.71221
-5.75438
-5.79384
-5.83079
-5.86552
-5.89826
-5.92918
-5.95847
-5.1379
-5.10145
-5.21095
-5.32189
-5.3841
-5.43933
-5.50147
-5.56113
-5.61428
-5.66292
-5.70855
-5.75127
-5.79105
-5.8282
-5.86304
-5.89584
-5.92679
-5.95608
-5.15199
-4.99299
-5.1219
-5.27595
-5.36602
-5.43733
-5.5062
-5.56704
-5.61976
-5.66796
-5.71316
-5.75534
-5.79455
-5.83113
-5.86543
-5.89773
-5.92827
-5.95728
-5.2747
-5.0947
-5.10889
-5.18101
-5.26934
-5.36851
-5.45914
-5.53285
-5.59447
-5.64953
-5.69977
-5.74546
-5.78719
-5.8256
-5.86121
-5.89447
-5.92584
-5.95593
-4.98201
-5.57358
-5.66242
-5.53815
-5.48377
-5.51088
-5.5578
-5.60097
-5.64245
-5.68455
-5.72597
-5.76522
-5.8021
-5.83675
-5.86924
-5.89971
-5.92839
-5.95706
-1.99376
-3.75652
-4.7612
-5.06031
-5.20945
-5.35302
-5.46698
-5.54787
-5.61203
-5.66881
-5.71999
-5.76595
-5.80755
-5.8457
-5.88092
-5.91299
-5.94177
-5.96551
-6.8453
-6.84537
-6.84583
-6.84677
-6.84805
-6.84963
-6.85151
-6.85372
-6.85628
-6.85923
-6.86261
-6.86647
-6.87086
-6.87582
-6.88138
-6.88758
-6.89443
-6.90192
-6.91004
-6.91874
-6.92802
-6.93781
-6.94794
-6.95813
-6.96829
-6.97935
-6.99287
-7.00875
-7.02585
-7.04402
-7.06357
-7.084
-7.10542
-7.13049
-7.15925
-7.1878
-7.21272
-7.23458
-7.25595
-7.2776
-7.3012
-7.32688
-7.3535
-7.38084
-7.40874
-7.43706
-7.46566
-7.49445
-7.52333
-7.55221
-7.58099
-7.60959
-7.63793
-7.6659
-7.69342
-7.72039
-7.74669
-7.77223
-7.79688
-7.82054
-7.84307
-7.86435
-7.88422
-7.90257
-7.91922
-7.93404
-7.94686
-7.95752
-7.96583
-7.97165
-7.97478
-7.97505
-7.97226
-7.96624
-7.95679
-7.94374
-7.92688
-7.90603
-7.88099
-7.85158
-7.81761
-7.77889
-7.73523
-7.68648
-7.63243
-7.57295
-7.50788
-7.43707
-7.36034
-7.27749
-7.18837
-7.09284
-6.99085
-6.88244
-6.76767
-6.64651
-6.51876
-6.38397
-6.24188
-6.0926
-5.93622
-5.77276
-5.60223
-5.42462
-5.23992
-5.04813
-4.84929
-4.64343
-4.43058
-4.21084
-3.98426
-3.75094
-3.51098
-3.2645
-3.01163
-2.75251
-2.48731
-2.2162
-1.93938
-1.65709
-1.36954
-1.07699
-0.77967
-0.477853
-0.17182
0.138119
0.45164
0.768396
1.08801
1.4101
1.73421
2.05995
2.38689
2.71458
3.04257
3.37039
3.69756
4.02357
4.34795
4.67021
4.98988
5.30647
5.61948
5.92842
6.2328
6.53215
6.82603
7.11398
7.39562
7.67054
7.93843
8.19895
8.45184
8.69687
8.93385
9.16263
9.38309
9.59522
9.79921
9.99503
10.1825
10.3614
10.532
10.6944
10.8488
10.9952
11.134
11.2653
11.3894
11.5065
11.6167
11.7205
11.8181
11.9099
11.9966
12.0788
12.1585
12.238
12.3309
12.4345
-6.84351
-6.84396
-6.84465
-6.84544
-6.84615
-6.84686
-6.84778
-6.84906
-6.85077
-6.85295
-6.85562
-6.8588
-6.86251
-6.86676
-6.87156
-6.87694
-6.88288
-6.88939
-6.89645
-6.90403
-6.9121
-6.9206
-6.92957
-6.93922
-6.95025
-6.96348
-6.97803
-6.99281
-7.00827
-7.02505
-7.04262
-7.06053
-7.07989
-7.09874
-7.11563
-7.13312
-7.15516
-7.18297
-7.2136
-7.24519
-7.27519
-7.30346
-7.33141
-7.35941
-7.38759
-7.41596
-7.4445
-7.47314
-7.50183
-7.5305
-7.55906
-7.58745
-7.61558
-7.64337
-7.67071
-7.69753
-7.72371
-7.74916
-7.77375
-7.79737
-7.8199
-7.84121
-7.86116
-7.87962
-7.89643
-7.91144
-7.9245
-7.93543
-7.94408
-7.95026
-7.95381
-7.95454
-7.95226
-7.9468
-7.93796
-7.92556
-7.9094
-7.8893
-7.86506
-7.83651
-7.80344
-7.76567
-7.72302
-7.67532
-7.62239
-7.56406
-7.50019
-7.43064
-7.35523
-7.27383
-7.18629
-7.09247
-6.99223
-6.88547
-6.77206
-6.65187
-6.52475
-6.39074
-6.24993
-6.10222
-5.94754
-5.78582
-5.61707
-5.44125
-5.25837
-5.06842
-4.87143
-4.66743
-4.45647
-4.2386
-4.01391
-3.78249
-3.54442
-3.29983
-3.04884
-2.7916
-2.52826
-2.25899
-1.98399
-1.70349
-1.4177
-1.12687
-0.831231
-0.531049
-0.226608
0.0817888
0.393825
0.709161
1.02744
1.34826
1.6712
1.99585
2.32178
2.64858
2.97578
3.30292
3.62952
3.95509
4.27914
4.60121
4.92083
5.23749
5.55073
5.86003
6.16492
6.46492
6.75958
7.04846
7.33116
7.60727
7.87647
8.13841
8.39284
8.6395
8.87819
9.10882
9.33127
9.54525
9.75049
9.94717
10.1355
10.3154
10.4871
10.6506
10.8061
10.9537
11.0937
11.2262
11.3514
11.4697
11.5812
11.6861
11.785
11.8781
11.9661
12.0499
12.1316
12.2128
12.3072
12.4037
-6.83838
-6.83972
-6.84161
-6.84308
-6.84396
-6.84457
-6.84526
-6.84622
-6.84758
-6.8494
-6.85171
-6.85454
-6.8579
-6.8618
-6.86626
-6.87128
-6.87687
-6.88303
-6.88977
-6.89712
-6.90509
-6.91375
-6.92319
-6.93364
-6.94542
-6.95878
-6.97337
-6.98867
-7.00465
-7.02154
-7.03937
-7.05818
-7.0781
-7.09833
-7.11811
-7.13793
-7.15891
-7.18184
-7.20661
-7.23285
-7.25982
-7.28696
-7.31429
-7.34183
-7.36956
-7.39745
-7.42548
-7.45361
-7.48176
-7.5099
-7.53794
-7.56583
-7.59347
-7.62079
-7.6477
-7.67411
-7.69993
-7.72503
-7.74933
-7.77269
-7.79501
-7.81615
-7.83597
-7.85434
-7.87112
-7.88614
-7.89926
-7.91032
-7.91914
-7.92555
-7.92938
-7.93045
-7.92858
-7.92358
-7.91526
-7.90345
-7.88794
-7.86856
-7.8451
-7.81738
-7.78522
-7.74844
-7.70683
-7.66024
-7.60849
-7.5514
-7.48882
-7.42058
-7.34654
-7.26656
-7.18052
-7.08831
-6.98981
-6.88488
-6.77337
-6.65511
-6.52995
-6.39791
-6.25905
-6.11333
-5.96069
-5.80108
-5.63447
-5.46084
-5.28017
-5.09246
-4.89775
-4.69605
-4.48741
-4.2719
-4.04958
-3.82053
-3.58486
-3.34266
-3.09408
-2.83924
-2.57829
-2.31141
-2.0388
-1.76065
-1.47719
-1.18866
-0.895282
-0.597325
-0.295071
0.0111815
0.321123
0.634427
0.950743
1.26967
1.5908
1.91373
2.23805
2.56332
2.8891
3.21493
3.54034
3.86485
4.18797
4.50925
4.82821
5.14437
5.45725
5.76635
6.07119
6.37131
6.66625
6.95557
7.23886
7.51573
7.78582
8.04881
8.3044
8.55234
8.79241
9.02439
9.24821
9.46377
9.67103
9.87004
10.0608
10.2432
10.4173
10.5833
10.7412
10.8912
11.0334
11.1682
11.2956
11.416
11.5295
11.6365
11.7373
11.8324
11.9224
12.0083
12.0924
12.175
12.2701
12.3528
-6.83049
-6.83286
-6.83647
-6.83927
-6.841
-6.84219
-6.84321
-6.84432
-6.84568
-6.84741
-6.84957
-6.8522
-6.85535
-6.85902
-6.86322
-6.86798
-6.87331
-6.87921
-6.8857
-6.89283
-6.90063
-6.9092
-6.91864
-6.92911
-6.9408
-6.95378
-6.96792
-6.98296
-6.99878
-7.01536
-7.03278
-7.05116
-7.0706
-7.09096
-7.11199
-7.13362
-7.1559
-7.17892
-7.20273
-7.22741
-7.25288
-7.27892
-7.30539
-7.33222
-7.35934
-7.38668
-7.41419
-7.44183
-7.46951
-7.4972
-7.52482
-7.5523
-7.57957
-7.60654
-7.63314
-7.65926
-7.68482
-7.70972
-7.73383
-7.75705
-7.77926
-7.80033
-7.82012
-7.83851
-7.85533
-7.87045
-7.88371
-7.89494
-7.90398
-7.91066
-7.9148
-7.91622
-7.91475
-7.9102
-7.90237
-7.8911
-7.87618
-7.85742
-7.83464
-7.80765
-7.77626
-7.74028
-7.69955
-7.65387
-7.60307
-7.54699
-7.48546
-7.41831
-7.34538
-7.26654
-7.18166
-7.09063
-6.99332
-6.88962
-6.7794
-6.6625
-6.53883
-6.40835
-6.27105
-6.12691
-5.97588
-5.81791
-5.65296
-5.48102
-5.30206
-5.1161
-4.92315
-4.72323
-4.5164
-4.30271
-4.08222
-3.85502
-3.6212
-3.38087
-3.13414
-2.88115
-2.62206
-2.35703
-2.08625
-1.80992
-1.52826
-1.2415
-0.94986
-0.653612
-0.353037
-0.0484308
0.259902
0.571645
0.886445
1.20391
1.52363
1.84523
2.16829
2.49238
2.81705
3.14186
3.46632
3.78998
4.11236
4.433
4.75143
5.06716
5.37972
5.68862
5.99338
6.29354
6.58864
6.87825
7.16196
7.43936
7.71008
7.97382
8.23028
8.47921
8.72039
8.95362
9.17879
9.39585
9.60479
9.80561
9.99823
10.1826
10.3586
10.5265
10.6863
10.8382
10.9823
11.1189
11.2481
11.3701
11.4853
11.5939
11.6963
11.793
11.8846
11.9718
12.057
12.1392
12.2313
12.2989
-6.82186
-6.82528
-6.83079
-6.83515
-6.83799
-6.84
-6.84166
-6.84323
-6.84491
-6.84684
-6.84913
-6.85185
-6.85503
-6.85872
-6.86294
-6.86771
-6.87305
-6.87897
-6.88552
-6.89273
-6.90065
-6.90936
-6.91896
-6.92956
-6.94127
-6.95415
-6.96816
-6.98318
-6.9991
-7.01585
-7.03341
-7.0518
-7.07103
-7.09111
-7.112
-7.13367
-7.1561
-7.17924
-7.20302
-7.2274
-7.25236
-7.27782
-7.30372
-7.32999
-7.35659
-7.38344
-7.4105
-7.4377
-7.46499
-7.4923
-7.51957
-7.54673
-7.5737
-7.60041
-7.62676
-7.65268
-7.67805
-7.70279
-7.72678
-7.74991
-7.77205
-7.79309
-7.81289
-7.83131
-7.8482
-7.86342
-7.8768
-7.88819
-7.89742
-7.90432
-7.90872
-7.91043
-7.90928
-7.90508
-7.89764
-7.88677
-7.87229
-7.85401
-7.83174
-7.80528
-7.77446
-7.73909
-7.69898
-7.65396
-7.60386
-7.54849
-7.48771
-7.42135
-7.34924
-7.27125
-7.18725
-7.09709
-7.00068
-6.89789
-6.7886
-6.67271
-6.55011
-6.42076
-6.28461
-6.14163
-5.99176
-5.83498
-5.67123
-5.5005
-5.32278
-5.13808
-4.94639
-4.74777
-4.54224
-4.32986
-4.11069
-3.88482
-3.65233
-3.41333
-3.16793
-2.91628
-2.6585
-2.39478
-2.1253
-1.85026
-1.56987
-1.28434
-0.993903
-0.698834
-0.399407
-0.0959166
0.211338
0.522041
0.83583
1.15233
1.47114
1.79189
2.11416
2.43753
2.76153
3.08573
3.40966
3.73286
4.05487
4.37521
4.69342
5.00902
5.32153
5.63046
5.93534
6.23571
6.53111
6.82109
7.10525
7.3832
7.65459
7.91908
8.17637
8.4262
8.66836
8.90264
9.12891
9.34708
9.55715
9.75908
9.95283
10.1383
10.3156
10.4847
10.6457
10.7988
10.9442
11.0819
11.2123
11.3354
11.4517
11.5614
11.6648
11.7623
11.8547
11.9425
12.0275
12.1079
12.1959
12.2498
-6.81421
-6.81863
-6.82582
-6.83163
-6.8356
-6.83854
-6.84096
-6.84314
-6.84532
-6.84766
-6.85028
-6.85328
-6.85673
-6.86065
-6.8651
-6.87009
-6.87567
-6.88185
-6.88867
-6.89619
-6.90444
-6.91349
-6.92342
-6.93431
-6.94623
-6.9592
-6.97322
-6.98825
-7.00422
-7.02108
-7.03878
-7.05729
-7.07658
-7.09663
-7.1174
-7.13889
-7.16108
-7.18394
-7.20742
-7.23147
-7.25605
-7.28109
-7.30657
-7.33242
-7.3586
-7.38507
-7.41175
-7.43861
-7.46558
-7.4926
-7.5196
-7.54651
-7.57326
-7.59978
-7.62597
-7.65174
-7.67701
-7.70166
-7.72559
-7.74869
-7.77084
-7.7919
-7.81174
-7.83023
-7.84722
-7.86256
-7.87608
-7.88764
-7.89706
-7.90417
-7.9088
-7.91077
-7.90988
-7.90597
-7.89884
-7.88831
-7.87418
-7.85627
-7.83438
-7.80833
-7.77793
-7.74299
-7.70334
-7.6588
-7.60919
-7.55434
-7.49409
-7.42828
-7.35674
-7.27935
-7.19597
-7.10646
-7.0107
-6.90858
-6.79999
-6.68482
-6.56299
-6.43445
-6.29912
-6.15697
-6.00796
-5.85203
-5.68916
-5.51932
-5.34251
-5.15872
-4.96798
-4.7703
-4.56574
-4.35434
-4.13616
-3.91128
-3.67979
-3.44179
-3.19739
-2.94673
-2.68995
-2.42721
-2.15871
-1.88463
-1.60517
-1.32055
-1.03101
-0.736802
-0.438212
-0.135526
0.17096
0.480921
0.793998
1.10982
1.42801
1.74819
2.06995
2.39285
2.71644
3.04028
3.36392
3.68689
4.00873
4.32898
4.64718
4.96282
5.27544
5.58456
5.88969
6.19037
6.48615
6.77661
7.06132
7.33989
7.61195
7.87717
8.13524
8.38589
8.62889
8.86405
9.09121
9.31026
9.52116
9.7239
9.91844
10.1047
10.2828
10.4528
10.6147
10.7686
10.9148
11.0533
11.1845
11.3084
11.4254
11.5358
11.6398
11.7378
11.8305
11.9182
12.0024
12.0804
12.1645
12.2064
-6.80877
-6.81404
-6.82252
-6.82953
-6.83452
-6.83835
-6.84153
-6.84439
-6.84714
-6.84998
-6.85305
-6.85646
-6.86028
-6.86457
-6.86937
-6.87473
-6.88068
-6.88724
-6.89447
-6.90239
-6.91106
-6.92052
-6.93084
-6.94206
-6.95422
-6.96736
-6.98146
-6.99652
-7.01248
-7.02932
-7.047
-7.06549
-7.08474
-7.10473
-7.12542
-7.14678
-7.16879
-7.19142
-7.21464
-7.2384
-7.26268
-7.28742
-7.31258
-7.33813
-7.36401
-7.39018
-7.4166
-7.44321
-7.46995
-7.49676
-7.52358
-7.55034
-7.57696
-7.60337
-7.62948
-7.65519
-7.68043
-7.70507
-7.72902
-7.75215
-7.77435
-7.79548
-7.81542
-7.83402
-7.85114
-7.86662
-7.88031
-7.89204
-7.90164
-7.90895
-7.91379
-7.91597
-7.91532
-7.91165
-7.90476
-7.89449
-7.88062
-7.86298
-7.84137
-7.8156
-7.7855
-7.75086
-7.71152
-7.6673
-7.61802
-7.5635
-7.5036
-7.43815
-7.36699
-7.28998
-7.207
-7.11792
-7.02259
-6.92093
-6.8128
-6.69814
-6.57684
-6.44884
-6.31408
-6.17251
-6.02409
-5.86876
-5.70651
-5.53731
-5.36115
-5.17803
-4.98797
-4.791
-4.58715
-4.37647
-4.15904
-3.9349
-3.70417
-3.46693
-3.22329
-2.97338
-2.71736
-2.45538
-2.18763
-1.91428
-1.63553
-1.35161
-1.06274
-0.769187
-0.471228
-0.169144
0.13677
0.446176
0.758725
1.07405
1.3918
1.71158
2.03299
2.35557
2.6789
3.00252
3.32599
3.64885
3.97065
4.29092
4.60918
4.92495
5.23775
5.54711
5.85256
6.15363
6.44986
6.74083
7.02609
7.30527
7.57797
7.84387
8.10264
8.35402
8.59776
8.83367
9.06158
9.28137
9.49297
9.69638
9.89157
10.0785
10.2573
10.4279
10.5904
10.745
10.8918
11.0309
11.1626
11.2871
11.4046
11.5154
11.6197
11.718
11.8106
11.8977
11.9808
12.0561
12.1367
12.1681
-6.80626
-6.81213
-6.82148
-6.82938
-6.83519
-6.83978
-6.84367
-6.84716
-6.85048
-6.85384
-6.85739
-6.86125
-6.86549
-6.8702
-6.87541
-6.88118
-6.88754
-6.89453
-6.90218
-6.91052
-6.91961
-6.92948
-6.94016
-6.95169
-6.96411
-6.97742
-6.99163
-7.00672
-7.02268
-7.03948
-7.05709
-7.07549
-7.09464
-7.11451
-7.13507
-7.15629
-7.17814
-7.20059
-7.22362
-7.24718
-7.27124
-7.29577
-7.32072
-7.34606
-7.37175
-7.39774
-7.424
-7.45045
-7.47707
-7.50377
-7.5305
-7.5572
-7.58378
-7.61016
-7.63627
-7.66201
-7.68729
-7.71199
-7.73601
-7.75924
-7.78154
-7.8028
-7.82286
-7.84161
-7.85887
-7.87451
-7.88837
-7.90027
-7.91005
-7.91754
-7.92255
-7.92492
-7.92445
-7.92096
-7.91426
-7.90416
-7.89047
-7.87301
-7.85157
-7.82598
-7.79605
-7.7616
-7.72243
-7.67838
-7.62928
-7.57495
-7.51524
-7.44997
-7.37901
-7.30222
-7.21947
-7.13061
-7.03554
-6.93413
-6.82629
-6.71193
-6.59095
-6.46329
-6.32889
-6.1877
-6.03966
-5.88474
-5.7229
-5.55413
-5.37842
-5.19578
-5.00621
-4.80974
-4.60641
-4.39628
-4.17938
-3.95581
-3.72564
-3.48897
-3.24591
-2.99659
-2.74115
-2.47975
-2.21256
-1.93976
-1.66156
-1.37816
-1.0898
-0.796742
-0.499255
-0.197616
0.107869
0.416866
0.729027
1.044
1.36144
1.68096
2.00212
2.3245
2.64765
2.97115
3.29454
3.61737
3.93918
4.25952
4.5779
4.89386
5.2069
5.51655
5.82235
6.12382
6.42051
6.71197
6.99778
7.27752
7.55082
7.81733
8.07674
8.32875
8.57313
8.80968
9.03822
9.25863
9.47084
9.67482
9.87056
10.058
10.2373
10.4084
10.5714
10.7265
10.8738
11.0134
11.1455
11.2703
11.3881
11.4991
11.6036
11.7018
11.7941
11.8805
11.9621
12.0348
12.1121
12.1343
-6.80692
-6.81312
-6.82293
-6.83138
-6.83779
-6.84298
-6.84744
-6.85148
-6.85531
-6.85916
-6.86316
-6.86744
-6.87209
-6.87719
-6.88279
-6.88894
-6.89568
-6.90305
-6.91108
-6.9198
-6.92925
-6.93945
-6.95044
-6.96224
-6.97487
-6.98833
-7.00264
-7.01778
-7.03374
-7.05051
-7.06806
-7.08637
-7.10541
-7.12517
-7.1456
-7.16669
-7.1884
-7.21072
-7.2336
-7.25702
-7.28095
-7.30535
-7.33018
-7.35541
-7.381
-7.40691
-7.43309
-7.4595
-7.48608
-7.51276
-7.5395
-7.56622
-7.59283
-7.61928
-7.64546
-7.67129
-7.69667
-7.72149
-7.74564
-7.769
-7.79145
-7.81285
-7.83308
-7.85198
-7.86941
-7.88521
-7.89922
-7.91128
-7.92121
-7.92884
-7.934
-7.9365
-7.93615
-7.93278
-7.92619
-7.91619
-7.90259
-7.88521
-7.86385
-7.83833
-7.80846
-7.77405
-7.73494
-7.69094
-7.64188
-7.58759
-7.52792
-7.4627
-7.3918
-7.31506
-7.23237
-7.1436
-7.04861
-6.94731
-6.83959
-6.72536
-6.60454
-6.47706
-6.34285
-6.20187
-6.05406
-5.89938
-5.7378
-5.56932
-5.39391
-5.21159
-5.02235
-4.82625
-4.6233
-4.41356
-4.19708
-3.97393
-3.74419
-3.50796
-3.26534
-3.01647
-2.76148
-2.50053
-2.23378
-1.96141
-1.68361
-1.40062
-1.11265
-0.819963
-0.522826
-0.22152
0.0836452
0.392342
0.704226
1.01896
1.33619
1.65553
1.97653
2.29878
2.62183
2.94525
3.26863
3.59149
3.91339
4.23385
4.55241
4.86858
5.18189
5.49187
5.79803
6.09991
6.39705
6.68898
6.9753
7.25557
7.52941
7.79647
8.05643
8.309
8.55393
8.79102
9.02008
9.241
9.4537
9.65814
9.85431
10.0422
10.2219
10.3933
10.5567
10.7121
10.8597
10.9996
11.132
11.2571
11.3751
11.4862
11.5906
11.6885
11.7803
11.8658
11.9458
12.0158
12.0903
12.1045
-6.81065
-6.81695
-6.82683
-6.83551
-6.84227
-6.84786
-6.85275
-6.85721
-6.86146
-6.86569
-6.87007
-6.87471
-6.8797
-6.88513
-6.89105
-6.89751
-6.90457
-6.91224
-6.92057
-6.92958
-6.9393
-6.94976
-6.96097
-6.97297
-6.98574
-6.99932
-7.0137
-7.02887
-7.04484
-7.06158
-7.07908
-7.09732
-7.11628
-7.13595
-7.15629
-7.17728
-7.1989
-7.22113
-7.24394
-7.26729
-7.29116
-7.31551
-7.3403
-7.36551
-7.39109
-7.417
-7.4432
-7.46964
-7.49626
-7.52302
-7.54984
-7.57665
-7.60338
-7.62994
-7.65626
-7.68223
-7.70776
-7.73274
-7.75705
-7.78057
-7.80319
-7.82476
-7.84514
-7.8642
-7.88177
-7.89771
-7.91186
-7.92403
-7.93407
-7.9418
-7.94704
-7.9496
-7.94931
-7.94598
-7.93941
-7.92942
-7.91581
-7.89841
-7.87702
-7.85145
-7.82152
-7.78705
-7.74786
-7.70377
-7.65463
-7.60025
-7.54049
-7.47519
-7.4042
-7.32739
-7.24463
-7.1558
-7.06077
-6.95944
-6.85171
-6.73748
-6.61669
-6.48926
-6.35512
-6.21422
-6.06652
-5.91197
-5.75054
-5.58222
-5.40701
-5.2249
-5.03592
-4.84007
-4.63741
-4.42797
-4.2118
-3.98898
-3.75959
-3.52371
-3.28145
-3.03294
-2.77832
-2.51773
-2.25133
-1.9793
-1.70183
-1.41915
-1.13149
-0.839101
-0.542239
-0.241196
0.0637215
0.372188
0.683868
0.998417
1.31549
1.63469
1.95559
2.27774
2.60075
2.92417
3.24757
3.5705
3.89252
4.21314
4.53189
4.84831
5.16191
5.47221
5.77874
6.08102
6.37859
6.67099
6.95777
7.23853
7.51287
7.78042
8.04086
8.29391
8.5393
8.77683
9.00632
9.22765
9.44073
9.64553
9.84202
10.0302
10.2102
10.3819
10.5455
10.7012
10.849
10.9891
11.1216
11.2468
11.3648
11.4758
11.5801
11.6777
11.7688
11.8532
11.9315
11.999
12.0708
12.0783
-6.81713
-6.8233
-6.83293
-6.84155
-6.84843
-6.85422
-6.85937
-6.8641
-6.86863
-6.87315
-6.87779
-6.88269
-6.88794
-6.89361
-6.89976
-6.90644
-6.9137
-6.92158
-6.9301
-6.9393
-6.94919
-6.9598
-6.97115
-6.98326
-6.99613
-7.00977
-7.02419
-7.03938
-7.05534
-7.07206
-7.08953
-7.10773
-7.12664
-7.14626
-7.16655
-7.1875
-7.20909
-7.2313
-7.25409
-7.27744
-7.30132
-7.32569
-7.35052
-7.37578
-7.40142
-7.42741
-7.45371
-7.48026
-7.507
-7.53389
-7.56085
-7.58781
-7.6147
-7.64143
-7.66792
-7.69407
-7.71977
-7.74492
-7.7694
-7.79309
-7.81586
-7.83757
-7.85809
-7.87727
-7.89496
-7.91099
-7.9252
-7.93744
-7.94752
-7.95527
-7.9605
-7.96305
-7.96271
-7.95932
-7.95267
-7.94258
-7.92886
-7.91132
-7.88977
-7.86404
-7.83393
-7.79928
-7.75989
-7.7156
-7.66625
-7.61166
-7.55169
-7.48618
-7.41499
-7.33799
-7.25505
-7.16605
-7.07087
-6.96941
-6.86156
-6.74725
-6.62638
-6.4989
-6.36474
-6.22384
-6.07616
-5.92165
-5.7603
-5.59207
-5.41699
-5.23503
-5.04623
-4.85058
-4.64815
-4.43895
-4.22305
-4.00051
-3.7714
-3.53582
-3.29388
-3.04569
-2.79139
-2.53111
-2.26502
-1.99328
-1.71611
-1.43371
-1.14632
-0.854193
-0.557587
-0.256788
0.0479053
0.356172
0.667679
0.982076
1.29903
1.61812
1.93891
2.26101
2.58399
2.90742
3.23088
3.55392
3.87606
4.19685
4.51582
4.83248
5.14637
5.45699
5.76388
6.06655
6.36452
6.65734
6.94456
7.22576
7.50053
7.76852
8.02937
8.28281
8.52858
8.76646
8.99628
9.21791
9.43128
9.63633
9.83305
10.0215
10.2016
10.3735
10.5373
10.693
10.8409
10.9811
11.1137
11.2389
11.3568
11.4677
11.5716
11.6687
11.759
11.8422
11.9189
11.984
12.0532
12.055
-6.82589
-6.83176
-6.84088
-6.84918
-6.85595
-6.86176
-6.86698
-6.87183
-6.87651
-6.88117
-6.88597
-6.891
-6.89638
-6.90217
-6.90843
-6.91522
-6.92258
-6.93055
-6.93915
-6.94843
-6.95839
-6.96907
-6.98048
-6.99263
-7.00554
-7.01921
-7.03364
-7.04884
-7.0648
-7.08151
-7.09897
-7.11716
-7.13606
-7.15568
-7.17598
-7.19694
-7.21855
-7.24079
-7.26361
-7.28701
-7.31095
-7.33541
-7.36034
-7.38571
-7.41149
-7.43762
-7.46407
-7.49078
-7.51769
-7.54475
-7.57188
-7.59902
-7.62609
-7.653
-7.67967
-7.70598
-7.73185
-7.75715
-7.78177
-7.80558
-7.82846
-7.85027
-7.87086
-7.89009
-7.90781
-7.92385
-7.93805
-7.95025
-7.96026
-7.96792
-7.97305
-7.97546
-7.97497
-7.97139
-7.96454
-7.95423
-7.94027
-7.92248
-7.90066
-7.87464
-7.84424
-7.80928
-7.76958
-7.72497
-7.6753
-7.62039
-7.56011
-7.49429
-7.42281
-7.34553
-7.26232
-7.17307
-7.07765
-6.97598
-6.86794
-6.75346
-6.63246
-6.50487
-6.37062
-6.22967
-6.08195
-5.92745
-5.76613
-5.59797
-5.42298
-5.24115
-5.05249
-4.85703
-4.65479
-4.44582
-4.23017
-4.00789
-3.77907
-3.54379
-3.30216
-3.05429
-2.80031
-2.54035
-2.27457
-2.00314
-1.72627
-1.44416
-1.15705
-0.865198
-0.568855
-0.2683
0.0361724
0.344241
0.655572
0.969827
1.28665
1.60563
1.92632
2.24836
2.57132
2.89477
3.21829
3.54141
3.86368
4.18463
4.5038
4.8207
5.13485
5.44578
5.75299
6.05601
6.35436
6.64756
6.93517
7.21675
7.4919
7.76024
8.02143
8.27519
8.52124
8.75939
8.98945
9.2113
9.42485
9.63006
9.82692
10.0154
10.1957
10.3676
10.5315
10.6873
10.8352
10.9754
11.1079
11.233
11.3508
11.4614
11.5649
11.6614
11.7509
11.8329
11.9079
11.9707
12.0375
12.0345
-6.83639
-6.84184
-6.85025
-6.85803
-6.86451
-6.87015
-6.87527
-6.88007
-6.88472
-6.88938
-6.89417
-6.89921
-6.90459
-6.91037
-6.91662
-6.9234
-6.93075
-6.93871
-6.9473
-6.95657
-6.96654
-6.97721
-6.98862
-7.00077
-7.01367
-7.02734
-7.04177
-7.05696
-7.07292
-7.08963
-7.1071
-7.1253
-7.14423
-7.16387
-7.18421
-7.20521
-7.22687
-7.24917
-7.27207
-7.29556
-7.31961
-7.34419
-7.36927
-7.39481
-7.42076
-7.44707
-7.47369
-7.50058
-7.52766
-7.55489
-7.58219
-7.6095
-7.63672
-7.66378
-7.69057
-7.71701
-7.74297
-7.76835
-7.79303
-7.81689
-7.83978
-7.86158
-7.88213
-7.9013
-7.91892
-7.93485
-7.94891
-7.96093
-7.97075
-7.97819
-7.98307
-7.98522
-7.98443
-7.98054
-7.97336
-7.9627
-7.94838
-7.9302
-7.90799
-7.88157
-7.85076
-7.81538
-7.77527
-7.73025
-7.68016
-7.62486
-7.56417
-7.49798
-7.42613
-7.34849
-7.26496
-7.1754
-7.07971
-6.97777
-6.86951
-6.75483
-6.63366
-6.50594
-6.37158
-6.23056
-6.08281
-5.92831
-5.76702
-5.59894
-5.42405
-5.24237
-5.05388
-4.85862
-4.65661
-4.4479
-4.23253
-4.01056
-3.78205
-3.54712
-3.30584
-3.05833
-2.8047
-2.5451
-2.27966
-2.00858
-1.73204
-1.45027
-1.16348
-0.87193
-0.575874
-0.27558
0.0286507
0.336496
0.647625
0.961721
1.27839
1.59721
1.91778
2.23974
2.56266
2.88612
3.20967
3.53285
3.85522
4.17631
4.49564
4.81274
5.12713
5.43831
5.74582
6.04914
6.3478
6.64133
6.92925
7.21114
7.48659
7.7552
8.01665
8.27063
8.51689
8.7552
8.9854
9.20737
9.42102
9.6263
9.8232
10.0117
10.192
10.3639
10.5278
10.6835
10.8314
10.9715
11.1039
11.2288
11.3464
11.4567
11.5597
11.6555
11.7441
11.8248
11.8981
11.9588
12.0234
12.0164
-6.84812
-6.85306
-6.86063
-6.86775
-6.87377
-6.87906
-6.8839
-6.88847
-6.89292
-6.89741
-6.90204
-6.90692
-6.91216
-6.91781
-6.92394
-6.9306
-6.93784
-6.9457
-6.95422
-6.9634
-6.9733
-6.98391
-6.99526
-7.00737
-7.02023
-7.03387
-7.04828
-7.06347
-7.07942
-7.09613
-7.1136
-7.13182
-7.15077
-7.17045
-7.19082
-7.21189
-7.23362
-7.256
-7.27901
-7.30263
-7.32683
-7.35157
-7.3768
-7.4025
-7.4286
-7.45507
-7.48184
-7.50885
-7.53606
-7.5634
-7.5908
-7.61819
-7.64548
-7.67258
-7.6994
-7.72583
-7.75177
-7.7771
-7.8017
-7.82544
-7.84819
-7.86982
-7.89018
-7.90912
-7.92649
-7.94214
-7.95589
-7.96758
-7.97705
-7.98411
-7.98859
-7.99032
-7.9891
-7.98476
-7.97712
-7.96598
-7.95118
-7.93251
-7.90981
-7.8829
-7.85159
-7.81572
-7.77512
-7.72962
-7.67907
-7.6233
-7.56218
-7.49557
-7.42332
-7.34533
-7.26145
-7.17157
-7.07559
-6.9734
-6.86491
-6.75005
-6.62873
-6.50088
-6.36646
-6.22539
-6.07764
-5.92318
-5.76198
-5.59402
-5.41929
-5.23779
-5.04954
-4.85454
-4.65284
-4.44445
-4.22943
-4.00783
-3.77972
-3.5452
-3.30434
-3.05725
-2.80405
-2.54487
-2.27985
-2.00918
-1.73305
-1.45167
-1.16527
-0.874082
-0.578358
-0.278375
0.0255586
0.333126
0.644013
0.95789
1.27434
1.59294
1.91335
2.23519
2.55804
2.88144
3.20497
3.52818
3.8506
4.17177
4.49121
4.80846
5.12302
5.43441
5.74213
6.04569
6.3446
6.63837
6.92653
7.20865
7.4843
7.75311
8.01471
8.26882
8.51518
8.75356
8.98381
9.2058
9.41945
9.62471
9.82157
10.0101
10.1902
10.3621
10.5258
10.6815
10.8292
10.9692
11.1015
11.2262
11.3434
11.4533
11.5558
11.6509
11.7385
11.818
11.8897
11.9483
12.0107
12.0006
-6.86065
-6.86503
-6.8717
-6.87803
-6.88343
-6.8882
-6.89257
-6.89672
-6.90078
-6.9049
-6.9092
-6.91378
-6.91874
-6.92413
-6.93002
-6.93647
-6.94351
-6.9512
-6.95955
-6.9686
-6.97837
-6.98887
-7.00013
-7.01215
-7.02494
-7.03851
-7.05286
-7.068
-7.08392
-7.10061
-7.11807
-7.13629
-7.15526
-7.17496
-7.19538
-7.21651
-7.23832
-7.2608
-7.28392
-7.30764
-7.33194
-7.35677
-7.38209
-7.40786
-7.43402
-7.46053
-7.48732
-7.51434
-7.54153
-7.56883
-7.59618
-7.62348
-7.65067
-7.67764
-7.7043
-7.73054
-7.75626
-7.78133
-7.80565
-7.82908
-7.8515
-7.87276
-7.89273
-7.91126
-7.92819
-7.94338
-7.95666
-7.96786
-7.97681
-7.98335
-7.9873
-7.98848
-7.98671
-7.98181
-7.97361
-7.9619
-7.94653
-7.9273
-7.90404
-7.87657
-7.84471
-7.80831
-7.76719
-7.72118
-7.67014
-7.61391
-7.55236
-7.48533
-7.41271
-7.33436
-7.25016
-7.16
-7.06376
-6.96136
-6.8527
-6.7377
-6.61629
-6.4884
-6.35397
-6.21294
-6.06528
-5.91094
-5.74991
-5.58216
-5.40769
-5.22648
-5.03856
-4.84393
-4.64262
-4.43466
-4.22009
-3.99897
-3.77136
-3.53735
-3.29701
-3.05045
-2.79777
-2.5391
-2.27459
-2.00443
-1.72881
-1.44792
-1.162
-0.871245
-0.575938
-0.276361
0.0271868
0.334401
0.644973
0.958532
1.27466
1.59297
1.91316
2.23481
2.55749
2.88078
3.20422
3.52736
3.84976
4.17093
4.49041
4.80772
5.12238
5.43388
5.74174
6.04544
6.3445
6.63842
6.92672
7.20896
7.48472
7.7536
8.01526
8.26938
8.51573
8.75408
8.98428
9.20619
9.41975
9.6249
9.82164
10.01
10.19
10.3617
10.5253
10.6808
10.8284
10.9682
11.1002
11.2247
11.3416
11.451
11.553
11.6474
11.734
11.8123
11.8824
11.9392
11.9993
11.9869
-6.87412
-6.87795
-6.88372
-6.88918
-6.8938
-6.89782
-6.90148
-6.90496
-6.90839
-6.91193
-6.91569
-6.91978
-6.92428
-6.92926
-6.93478
-6.9409
-6.94764
-6.95505
-6.96315
-6.97197
-6.98153
-6.99184
-7.00292
-7.01478
-7.02743
-7.04086
-7.05509
-7.07011
-7.08592
-7.10252
-7.1199
-7.13805
-7.15697
-7.17664
-7.19704
-7.21815
-7.23995
-7.2624
-7.28548
-7.30915
-7.33337
-7.35811
-7.38332
-7.40896
-7.43496
-7.46129
-7.48789
-7.51469
-7.54163
-7.56867
-7.59573
-7.62272
-7.64956
-7.67615
-7.7024
-7.7282
-7.75345
-7.77803
-7.80183
-7.82472
-7.84657
-7.86725
-7.88662
-7.90454
-7.92086
-7.93541
-7.94805
-7.95861
-7.96692
-7.97281
-7.97611
-7.97664
-7.97423
-7.9687
-7.95986
-7.94754
-7.93156
-7.91174
-7.8879
-7.85986
-7.82746
-7.79053
-7.74891
-7.70243
-7.65095
-7.59432
-7.53239
-7.46502
-7.39208
-7.31345
-7.22901
-7.13864
-7.04224
-6.93972
-6.83099
-6.71597
-6.59458
-6.46676
-6.33244
-6.19157
-6.04412
-5.89004
-5.72931
-5.56191
-5.38783
-5.20706
-5.0196
-4.82548
-4.62471
-4.41732
-4.20335
-3.98284
-3.75588
-3.52251
-3.28283
-3.03693
-2.78491
-2.5269
-2.26305
-1.99354
-1.71856
-1.43829
-1.15295
-0.862772
-0.568028
-0.268993
0.0340446
0.340794
0.650915
0.964004
1.27968
1.5976
1.91744
2.23878
2.56119
2.88423
3.20746