/*--------------------------------*- C++ -*----------------------------------*\
  =========                 |
  \\      /  F ield         | OpenFOAM: The Open Source CFD Toolbox
   \\    /   O peration     | Website:  https://openfoam.org
    \\  /    A nd           | Version:  8
     \\/     M anipulation  |
\*---------------------------------------------------------------------------*/
FoamFile
{
    version     2.0;
    format      ascii;
    class       surfaceScalarField;
    location    "225";
    object      phi;
}
// * * * * * * * * * * * * * * * * * * * * * * * * * * * * * * * * * * * * * //

dimensions      [0 3 -1 0 0 0 0];

internalField   nonuniform List<scalar> 
24170
(
3.12889e-06
5.9517e-08
3.04664e-06
8.22506e-08
2.97354e-06
7.3094e-08
2.9049e-06
6.86412e-08
2.84057e-06
6.43255e-08
2.78325e-06
5.73198e-08
2.73393e-06
4.93187e-08
2.69199e-06
4.1945e-08
2.65632e-06
3.56648e-08
2.62589e-06
3.04338e-08
2.5997e-06
2.61821e-08
2.57693e-06
2.27672e-08
2.55692e-06
2.00159e-08
2.53908e-06
1.78399e-08
2.52303e-06
1.60434e-08
2.50785e-06
1.51833e-08
2.4939e-06
1.39468e-08
1.89243e-08
2.47498e-06
3.45314e-06
2.36262e-08
3.45702e-06
7.83716e-08
3.45055e-06
7.9564e-08
3.43909e-06
8.00958e-08
3.42431e-06
7.91034e-08
3.40706e-06
7.45687e-08
3.38785e-06
6.85343e-08
3.36732e-06
6.24672e-08
3.34618e-06
5.68068e-08
3.325e-06
5.16099e-08
3.30428e-06
4.69062e-08
3.28428e-06
4.27644e-08
3.2652e-06
3.9091e-08
3.24709e-06
3.5951e-08
3.23004e-06
3.30944e-08
3.21396e-06
3.12642e-08
3.1992e-06
2.87042e-08
3.04537e-08
3.18767e-06
3.66826e-06
1.78816e-08
3.67919e-06
6.74453e-08
3.68542e-06
7.333e-08
3.68946e-06
7.6053e-08
3.69106e-06
7.75039e-08
3.6901e-06
7.55317e-08
3.68696e-06
7.16676e-08
3.68213e-06
6.73039e-08
3.67598e-06
6.29529e-08
3.66885e-06
5.8742e-08
3.66101e-06
5.47452e-08
3.65271e-06
5.10621e-08
3.64414e-06
4.76625e-08
3.63545e-06
4.46334e-08
3.62672e-06
4.18239e-08
3.6183e-06
3.96843e-08
3.60969e-06
3.7319e-08
3.67507e-08
3.60339e-06
3.92587e-06
1.73964e-08
3.93592e-06
5.73978e-08
3.94257e-06
6.66793e-08
3.94811e-06
7.05095e-08
3.95253e-06
7.30873e-08
3.95548e-06
7.25806e-08
3.95715e-06
6.99946e-08
3.95779e-06
6.66661e-08
3.95758e-06
6.31612e-08
3.95667e-06
5.9649e-08
3.9552e-06
5.62167e-08
3.95329e-06
5.29756e-08
3.95102e-06
4.99265e-08
3.94851e-06
4.71443e-08
3.94578e-06
4.45494e-08
3.9431e-06
4.23703e-08
3.9402e-06
4.02137e-08
3.86655e-08
3.93829e-06
4.20819e-06
1.63295e-08
4.21599e-06
4.96052e-08
4.22169e-06
6.09788e-08
4.22679e-06
6.54043e-08
4.23154e-06
6.8337e-08
4.23551e-06
6.86066e-08
4.23868e-06
6.68234e-08
4.24116e-06
6.41854e-08
4.24306e-06
6.12651e-08
4.24446e-06
5.82492e-08
4.24544e-06
5.52334e-08
4.24609e-06
5.23264e-08
4.24646e-06
4.95537e-08
4.24663e-06
4.69727e-08
4.24664e-06
4.45476e-08
4.24662e-06
4.23815e-08
4.24654e-06
4.02921e-08
3.83783e-08
4.24683e-06
4.51069e-06
1.47281e-08
4.51688e-06
4.34081e-08
4.52214e-06
5.57274e-08
4.52695e-06
6.0587e-08
4.53167e-06
6.36224e-08
4.53592e-06
6.43554e-08
4.53959e-06
6.31466e-08
4.54276e-06
6.10205e-08
4.54548e-06
5.85381e-08
4.54783e-06
5.58981e-08
4.54986e-06
5.32065e-08
4.55162e-06
5.05641e-08
4.55316e-06
4.80137e-08
4.55454e-06
4.55972e-08
4.55578e-06
4.33028e-08
4.557e-06
4.11669e-08
4.55819e-06
3.90952e-08
3.70445e-08
4.55953e-06
4.83431e-06
1.31406e-08
4.83963e-06
3.80854e-08
4.84476e-06
5.06004e-08
4.84946e-06
5.58824e-08
4.85409e-06
5.89874e-08
4.85841e-06
6.00354e-08
4.86229e-06
5.92712e-08
4.86576e-06
5.75517e-08
4.86888e-06
5.54185e-08
4.87169e-06
5.30816e-08
4.87424e-06
5.06549e-08
4.87657e-06
4.82328e-08
4.87872e-06
4.58674e-08
4.88073e-06
4.35911e-08
4.88262e-06
4.14035e-08
4.88448e-06
3.93092e-08
4.88632e-06
3.72525e-08
3.51665e-08
4.8882e-06
5.18103e-06
1.16902e-08
5.18575e-06
3.33622e-08
5.19076e-06
4.55958e-08
5.19541e-06
5.12291e-08
5.2e-06
5.43996e-08
5.20436e-06
5.56737e-08
5.20836e-06
5.52722e-08
5.21201e-06
5.38976e-08
5.21537e-06
5.20617e-08
5.21846e-06
4.99851e-08
5.22133e-06
4.77869e-08
5.22401e-06
4.55574e-08
5.22652e-06
4.33528e-08
5.22891e-06
4.12018e-08
5.2312e-06
3.91088e-08
5.23344e-06
3.70673e-08
5.23566e-06
3.50403e-08
3.29748e-08
5.23785e-06
5.55268e-06
1.03441e-08
5.55689e-06
2.91573e-08
5.5617e-06
4.07864e-08
5.56631e-06
4.66183e-08
5.57087e-06
4.98332e-08
5.57528e-06
5.12664e-08
5.57939e-06
5.11647e-08
5.58319e-06
5.00942e-08
5.58673e-06
4.85237e-08
5.59003e-06
4.66814e-08
5.59313e-06
4.46897e-08
5.59605e-06
4.26367e-08
5.59882e-06
4.05796e-08
5.60147e-06
3.85471e-08
5.60404e-06
3.65463e-08
5.60653e-06
3.45702e-08
5.60898e-06
3.25936e-08
3.05856e-08
5.61137e-06
5.95103e-06
9.08569e-09
5.95478e-06
2.54069e-08
5.95936e-06
3.62113e-08
5.96392e-06
4.20608e-08
5.96846e-06
4.52843e-08
5.97291e-06
4.68199e-08
5.97711e-06
4.69593e-08
5.98105e-06
4.61559e-08
5.98475e-06
4.48264e-08
5.98823e-06
4.32e-08
5.99152e-06
4.14013e-08
5.99464e-06
3.95158e-08
5.99762e-06
3.76008e-08
6.00048e-06
3.56864e-08
6.00324e-06
3.37829e-08
6.00592e-06
3.18869e-08
6.00853e-06
2.99829e-08
2.80598e-08
6.01106e-06
6.37798e-06
7.91672e-09
6.38134e-06
2.20436e-08
6.38567e-06
3.18813e-08
6.39016e-06
3.75734e-08
6.39468e-06
4.07586e-08
6.39916e-06
4.23463e-08
6.40345e-06
4.26682e-08
6.40751e-06
4.20936e-08
6.41135e-06
4.0982e-08
6.415e-06
3.9556e-08
6.41846e-06
3.79402e-08
6.42176e-06
3.62174e-08
6.42491e-06
3.44441e-08
6.42795e-06
3.2652e-08
6.43087e-06
3.08552e-08
6.4337e-06
2.90554e-08
6.43644e-06
2.72454e-08
2.54291e-08
6.43907e-06
5.74176e-06
6.99144e-09
5.74434e-06
1.94611e-08
5.74781e-06
2.84109e-08
5.75154e-06
3.38443e-08
5.75534e-06
3.6955e-08
5.75914e-06
3.85531e-08
5.76282e-06
3.89849e-08
5.76634e-06
3.85715e-08
5.76969e-06
3.76262e-08
5.77289e-06
3.63585e-08
5.77594e-06
3.48905e-08
5.77885e-06
3.33031e-08
5.78165e-06
3.16512e-08
5.78433e-06
2.9968e-08
5.78692e-06
2.82702e-08
5.78941e-06
2.65645e-08
5.7918e-06
2.4849e-08
2.3138e-08
5.79409e-06
6.99914e-06
6.00852e-09
7.00187e-06
1.67286e-08
7.00563e-06
2.46456e-08
7.0098e-06
2.96761e-08
7.01412e-06
3.26336e-08
7.01848e-06
3.41979e-08
7.02275e-06
3.47103e-08
7.02688e-06
3.44458e-08
7.03083e-06
3.36683e-08
7.03462e-06
3.25681e-08
7.03825e-06
3.12625e-08
7.04173e-06
2.98282e-08
7.04506e-06
2.83183e-08
7.04826e-06
2.6767e-08
7.05134e-06
2.51938e-08
7.05429e-06
2.36097e-08
7.05712e-06
2.2018e-08
2.04406e-08
7.05982e-06
8.53188e-06
4.97572e-09
8.53473e-06
1.38733e-08
8.53877e-06
2.06131e-08
8.54337e-06
2.50762e-08
8.54822e-06
2.77762e-08
8.55318e-06
2.92432e-08
8.5581e-06
2.97902e-08
8.56289e-06
2.96485e-08
8.56753e-06
2.90315e-08
8.57199e-06
2.81036e-08
8.57628e-06
2.69728e-08
8.5804e-06
2.57104e-08
8.58435e-06
2.43663e-08
8.58814e-06
2.29744e-08
8.59178e-06
2.15563e-08
8.59526e-06
2.01268e-08
8.59859e-06
1.86932e-08
1.72814e-08
8.60175e-06
1.04003e-05
3.90227e-09
1.04033e-05
1.09144e-08
1.04075e-05
1.63354e-08
1.04125e-05
2.00533e-08
1.0418e-05
2.23666e-08
1.04235e-05
2.36525e-08
1.04292e-05
2.41715e-08
1.04347e-05
2.41112e-08
1.04401e-05
2.3636e-08
1.04453e-05
2.28788e-08
1.04504e-05
2.19328e-08
1.04552e-05
2.08613e-08
1.04599e-05
1.9709e-08
1.04643e-05
1.85079e-08
1.04686e-05
1.72803e-08
1.04727e-05
1.60427e-08
1.04766e-05
1.48045e-08
1.35933e-08
1.04803e-05
1.26779e-05
2.79304e-09
1.2681e-05
7.84653e-09
1.26855e-05
1.18109e-08
1.26909e-05
1.4602e-08
1.26969e-05
1.63777e-08
1.27032e-05
1.73774e-08
1.27096e-05
1.77908e-08
1.27159e-05
1.77574e-08
1.27222e-05
1.73945e-08
1.27283e-05
1.67997e-08
1.27341e-05
1.60457e-08
1.27398e-05
1.51838e-08
1.27453e-05
1.42511e-08
1.27505e-05
1.32751e-08
1.27555e-05
1.22763e-08
1.27603e-05
1.12706e-08
1.27648e-05
1.02677e-08
9.29371e-09
1.27691e-05
1.54543e-05
1.6373e-09
1.54576e-05
4.62364e-09
1.54624e-05
6.98231e-09
1.54683e-05
8.66278e-09
1.5475e-05
9.73649e-09
1.5482e-05
1.03286e-08
1.54893e-05
1.05486e-08
1.54965e-05
1.04803e-08
1.55037e-05
1.01943e-08
1.55108e-05
9.75017e-09
1.55176e-05
9.19464e-09
1.55243e-05
8.56226e-09
1.55306e-05
7.87902e-09
1.55367e-05
7.16496e-09
1.55426e-05
6.43571e-09
1.55481e-05
5.7041e-09
1.55534e-05
4.97794e-09
4.27969e-09
1.55584e-05
1.88389e-05
3.94989e-10
1.88424e-05
1.12143e-09
1.88477e-05
1.6761e-09
1.88543e-05
2.04504e-09
1.88618e-05
2.24554e-09
1.88698e-05
2.30537e-09
1.88781e-05
2.2464e-09
1.88865e-05
2.08836e-09
1.88949e-05
1.85137e-09
1.8903e-05
1.55378e-09
1.8911e-05
1.21089e-09
1.89188e-05
8.35423e-10
1.89262e-05
4.38262e-10
1.89333e-05
2.87491e-11
1.89402e-05
-3.85144e-10
1.89467e-05
-7.96159e-10
1.89528e-05
-1.20018e-09
-1.58017e-09
1.89587e-05
2.29648e-05
-1.03504e-09
2.29688e-05
-2.94914e-09
2.2975e-05
-4.52715e-09
2.29828e-05
-5.7274e-09
2.29916e-05
-6.57286e-09
2.30011e-05
-7.14983e-09
2.30109e-05
-7.54567e-09
2.30208e-05
-7.81504e-09
2.30306e-05
-7.99465e-09
2.30403e-05
-8.11571e-09
2.30497e-05
-8.202e-09
2.30588e-05
-8.26793e-09
2.30676e-05
-8.32149e-09
2.3076e-05
-8.36689e-09
2.3084e-05
-8.40626e-09
2.30916e-05
-8.43961e-09
2.30989e-05
-8.46775e-09
-8.48023e-09
2.31058e-05
1.68118e-05
-2.15763e-09
1.6815e-05
-6.11897e-09
1.68198e-05
-9.35618e-09
1.68258e-05
-1.1724e-08
1.68325e-05
-1.32839e-08
1.68396e-05
-1.42637e-08
1.68469e-05
-1.48511e-08
1.68543e-05
-1.51497e-08
1.68615e-05
-1.52387e-08
1.68686e-05
-1.51901e-08
1.68755e-05
-1.50566e-08
1.68821e-05
-1.48711e-08
1.68884e-05
-1.46544e-08
1.68944e-05
-1.44202e-08
1.69002e-05
-1.41774e-08
1.69057e-05
-1.39304e-08
1.69109e-05
-1.36827e-08
-1.34279e-08
1.69159e-05
1.46356e-05
-3.2357e-09
1.46387e-05
-9.20469e-09
1.46434e-05
-1.407e-08
1.46492e-05
-1.74672e-08
1.46555e-05
-1.95703e-08
1.4662e-05
-2.08289e-08
1.46687e-05
-2.15135e-08
1.46753e-05
-2.176e-08
1.46818e-05
-2.16995e-08
1.4688e-05
-2.14486e-08
1.46941e-05
-2.10828e-08
1.46998e-05
-2.06468e-08
1.47053e-05
-2.01708e-08
1.47106e-05
-1.96759e-08
1.47156e-05
-1.91755e-08
1.47203e-05
-1.8677e-08
1.47248e-05
-1.81854e-08
-1.76967e-08
1.47291e-05
1.27411e-05
-4.24508e-09
1.27443e-05
-1.23308e-08
1.27491e-05
-1.89004e-08
1.27547e-05
-2.31133e-08
1.27607e-05
-2.55507e-08
1.27669e-05
-2.69871e-08
1.2773e-05
-2.76853e-08
1.27791e-05
-2.77949e-08
1.27849e-05
-2.7523e-08
1.27905e-05
-2.70349e-08
1.27958e-05
-2.64201e-08
1.28009e-05
-2.57303e-08
1.28057e-05
-2.50024e-08
1.28103e-05
-2.42621e-08
1.28147e-05
-2.35249e-08
1.28188e-05
-2.2799e-08
1.28227e-05
-2.20893e-08
-2.13932e-08
1.28264e-05
1.10918e-05
-5.08721e-09
1.1095e-05
-1.55516e-08
1.11001e-05
-2.40271e-08
1.11057e-05
-2.87384e-08
1.11115e-05
-3.12859e-08
1.11173e-05
-3.28e-08
1.1123e-05
-3.34124e-08
1.11285e-05
-3.33052e-08
1.11338e-05
-3.27808e-08
1.11388e-05
-3.20366e-08
1.11435e-05
-3.11641e-08
1.1148e-05
-3.02202e-08
1.11523e-05
-2.9248e-08
1.11563e-05
-2.82759e-08
1.11601e-05
-2.73193e-08
1.11637e-05
-2.63863e-08
1.1167e-05
-2.54807e-08
-2.46007e-08
1.11703e-05
9.65581e-06
-5.68685e-09
9.65924e-06
-1.898e-08
9.66459e-06
-2.9374e-08
9.67008e-06
-3.42359e-08
9.67564e-06
-3.6843e-08
9.6812e-06
-3.83575e-08
9.68653e-06
-3.8743e-08
9.69155e-06
-3.83306e-08
9.69629e-06
-3.7523e-08
9.70077e-06
-3.65141e-08
9.70499e-06
-3.5383e-08
9.70896e-06
-3.41891e-08
9.71269e-06
-3.29801e-08
9.7162e-06
-3.17853e-08
9.7195e-06
-3.06198e-08
9.7226e-06
-2.94907e-08
9.72552e-06
-2.84004e-08
-2.73449e-08
9.72826e-06
8.4053e-06
-5.63339e-09
8.40964e-06
-2.33174e-08
8.41487e-06
-3.46115e-08
8.4199e-06
-3.92629e-08
8.42526e-06
-4.22068e-08
8.43067e-06
-4.37629e-08
8.43575e-06
-4.38256e-08
8.44045e-06
-4.30337e-08
8.44482e-06
-4.1889e-08
8.44887e-06
-4.05678e-08
8.45263e-06
-3.91399e-08
8.4561e-06
-3.76675e-08
8.45932e-06
-3.62003e-08
8.4623e-06
-3.4766e-08
8.46506e-06
-3.33796e-08
8.46762e-06
-3.20474e-08
8.46999e-06
-3.07715e-08
-2.95482e-08
8.47219e-06
7.3145e-06
-2.85051e-09
7.32119e-06
-3.00071e-08
7.32674e-06
-4.01651e-08
7.33169e-06
-4.42105e-08
7.33709e-06
-4.7602e-08
7.3424e-06
-4.90812e-08
7.34728e-06
-4.87005e-08
7.35169e-06
-4.74436e-08
7.35566e-06
-4.58641e-08
7.35921e-06
-4.41203e-08
7.36237e-06
-4.22932e-08
7.36515e-06
-4.04554e-08
7.36761e-06
-3.86594e-08
7.36978e-06
-3.69295e-08
7.37168e-06
-3.52805e-08
7.37334e-06
-3.37158e-08
7.37481e-06
-3.22354e-08
-3.08299e-08
7.37609e-06
6.36243e-06
4.7818e-09
6.3719e-06
-3.94704e-08
6.37932e-06
-4.75901e-08
6.38596e-06
-5.08469e-08
6.39224e-06
-5.38822e-08
6.39755e-06
-5.43923e-08
6.40184e-06
-5.29926e-08
6.40532e-06
-5.09217e-08
6.40811e-06
-4.86618e-08
6.41029e-06
-4.63024e-08
6.41192e-06
-4.39229e-08
6.41307e-06
-4.15999e-08
6.41379e-06
-3.93837e-08
6.41416e-06
-3.72931e-08
6.41421e-06
-3.53406e-08
6.41402e-06
-3.35241e-08
6.41363e-06
-3.18439e-08
-3.02789e-08
6.41308e-06
5.54129e-06
8.95282e-09
5.55032e-06
-4.85003e-08
5.55834e-06
-5.56034e-08
5.56604e-06
-5.85529e-08
5.5725e-06
-6.03423e-08
5.57682e-06
-5.87165e-08
5.57906e-06
-5.52323e-08
5.57962e-06
-5.14794e-08
5.57886e-06
-4.79067e-08
5.57708e-06
-4.4515e-08
5.57448e-06
-4.13273e-08
5.57126e-06
-3.83843e-08
5.56757e-06
-3.5694e-08
5.56353e-06
-3.32503e-08
5.55924e-06
-3.10451e-08
5.55478e-06
-2.90672e-08
5.55025e-06
-2.73171e-08
-2.57412e-08
5.54571e-06
4.86019e-06
-2.36304e-08
4.86538e-06
-5.36919e-08
4.86523e-06
-5.54547e-08
4.86217e-06
-5.54899e-08
4.85699e-06
-5.51698e-08
4.84949e-06
-5.12134e-08
4.8398e-06
-4.55387e-08
4.8284e-06
-4.00853e-08
4.81582e-06
-3.5328e-08
4.80254e-06
-3.1235e-08
4.78894e-06
-2.77273e-08
4.7753e-06
-2.47449e-08
4.76181e-06
-2.22077e-08
4.74861e-06
-2.00502e-08
4.73578e-06
-1.82165e-08
4.7234e-06
-1.6683e-08
4.71157e-06
-1.54861e-08
-1.51368e-08
4.70096e-06
4.17905e-06
4.12535e-06
4.0699e-06
4.01441e-06
3.95924e-06
3.90803e-06
3.86249e-06
3.8224e-06
3.78707e-06
3.75584e-06
3.72811e-06
3.70337e-06
3.68116e-06
3.66111e-06
3.64289e-06
3.62621e-06
3.61072e-06
3.59559e-06
1.34782e-08
-1.35035e-08
2.70625e-08
-1.3621e-08
3.52126e-08
-8.18182e-09
3.6928e-08
-1.74469e-09
3.27212e-08
4.18031e-09
2.37397e-08
8.9534e-09
1.12284e-08
1.24882e-08
-3.78782e-09
1.49886e-08
-2.05762e-08
1.67693e-08
-3.86857e-08
1.80844e-08
-5.78029e-08
1.91026e-08
-7.77767e-08
1.99509e-08
-9.84942e-08
2.07067e-08
-1.19929e-07
2.14135e-08
-1.42034e-07
2.20976e-08
-1.64825e-07
2.27724e-08
-1.88275e-07
2.34461e-08
-2.12414e-07
2.41199e-08
-2.3721e-07
2.47947e-08
-2.62695e-07
2.54691e-08
-2.88849e-07
2.6155e-08
-3.1573e-07
2.68689e-08
-3.43405e-07
2.76788e-08
-3.72041e-07
2.86302e-08
-4.00508e-07
2.84732e-08
-4.27224e-07
2.67185e-08
-4.54232e-07
2.70168e-08
-4.8381e-07
2.95883e-08
-5.15326e-07
3.15252e-08
-5.48318e-07
3.30044e-08
-5.82558e-07
3.42459e-08
-6.18234e-07
3.56852e-08
-6.55733e-07
3.74995e-08
-6.95757e-07
4.00273e-08
-7.39674e-07
4.39101e-08
-7.9094e-07
5.12626e-08
-8.36534e-07
4.5581e-08
-8.73711e-07
3.71673e-08
-9.17101e-07
4.33754e-08
-9.58324e-07
4.12118e-08
-9.98263e-07
3.99261e-08
-1.04072e-06
4.24451e-08
-1.08355e-06
4.28237e-08
-1.12659e-06
4.30241e-08
-1.16973e-06
4.3131e-08
-1.21291e-06
4.31706e-08
-1.25606e-06
4.31367e-08
-1.29912e-06
4.30491e-08
-1.34205e-06
4.29202e-08
-1.38482e-06
4.2761e-08
-1.42741e-06
4.25778e-08
-1.4698e-06
4.23752e-08
-1.51197e-06
4.21551e-08
-1.5539e-06
4.19188e-08
-1.59558e-06
4.16658e-08
-1.63699e-06
4.13956e-08
-1.67811e-06
4.11068e-08
-1.71893e-06
4.07979e-08
-1.75941e-06
4.04671e-08
-1.79954e-06
4.01126e-08
-1.83929e-06
3.97324e-08
-1.87863e-06
3.93248e-08
-1.91753e-06
3.88879e-08
-1.95597e-06
3.842e-08
-1.9939e-06
3.79194e-08
-2.03131e-06
3.73846e-08
-2.06813e-06
3.68144e-08
-2.10436e-06
3.62076e-08
-2.13993e-06
3.55632e-08
-2.17483e-06
3.48803e-08
-2.209e-06
3.41583e-08
-2.24241e-06
3.33964e-08
-2.27502e-06
3.25944e-08
-2.30679e-06
3.17519e-08
-2.33767e-06
3.08688e-08
-2.36763e-06
2.9945e-08
-2.39663e-06
2.89809e-08
-2.42463e-06
2.79768e-08
-2.45157e-06
2.69335e-08
-2.47745e-06
2.58507e-08
-2.50219e-06
2.47298e-08
-2.52578e-06
2.35711e-08
-2.54818e-06
2.23759e-08
-2.56934e-06
2.11436e-08
-2.58923e-06
1.98754e-08
-2.60782e-06
1.85698e-08
-2.62506e-06
1.72272e-08
-2.64092e-06
1.58453e-08
-2.65534e-06
1.44241e-08
-2.6683e-06
1.2962e-08
-2.67975e-06
1.14538e-08
-2.68965e-06
9.89418e-09
-2.69793e-06
8.27392e-09
-2.70451e-06
6.58067e-09
-2.70932e-06
4.79728e-09
-2.71224e-06
2.91463e-09
-2.71322e-06
9.67329e-10
-2.71233e-06
-9.05589e-10
-2.70975e-06
-2.59507e-09
-2.70559e-06
-4.17135e-09
-2.69989e-06
-5.72683e-09
-2.69264e-06
-7.28347e-09
-2.68383e-06
-8.84929e-09
-2.67346e-06
-1.04271e-08
-2.6615e-06
-1.20136e-08
-2.64794e-06
-1.36104e-08
-2.63279e-06
-1.52125e-08
-2.61602e-06
-1.68231e-08
-2.59763e-06
-1.8437e-08
-2.57762e-06
-2.00584e-08
-2.55598e-06
-2.16816e-08
-2.5327e-06
-2.33113e-08
-2.50779e-06
-2.49408e-08
-2.48124e-06
-2.65748e-08
-2.45304e-06
-2.82061e-08
-2.42322e-06
-2.98393e-08
-2.39175e-06
-3.14667e-08
-2.35865e-06
-3.30924e-08
-2.32393e-06
-3.47095e-08
-2.2876e-06
-3.63225e-08
-2.24966e-06
-3.79268e-08
-2.21015e-06
-3.95251e-08
-2.16905e-06
-4.1109e-08
-2.12637e-06
-4.26803e-08
-2.08214e-06
-4.42279e-08
-2.03636e-06
-4.57568e-08
-1.98905e-06
-4.72602e-08
-1.94025e-06
-4.87448e-08
-1.88998e-06
-5.0197e-08
-1.83826e-06
-5.16301e-08
-1.78512e-06
-5.30294e-08
-1.73062e-06
-5.43811e-08
-1.6748e-06
-5.5692e-08
-1.6177e-06
-5.69652e-08
-1.55936e-06
-5.81957e-08
-1.49984e-06
-5.93801e-08
-1.43919e-06
-6.05181e-08
-1.37747e-06
-6.16059e-08
-1.31474e-06
-6.26451e-08
-1.25106e-06
-6.36265e-08
-1.18649e-06
-6.45461e-08
-1.12109e-06
-6.53943e-08
-1.05494e-06
-6.6168e-08
-9.88114e-07
-6.68625e-08
-9.20687e-07
-6.74777e-08
-8.52749e-07
-6.8008e-08
-7.84379e-07
-6.84528e-08
-7.15673e-07
-6.88058e-08
-6.46718e-07
-6.90671e-08
-5.77615e-07
-6.92309e-08
-5.0846e-07
-6.92974e-08
-4.39353e-07
-6.92629e-08
-3.70395e-07
-6.91267e-08
-3.01688e-07
-6.88895e-08
-2.33334e-07
-6.85467e-08
-1.65415e-07
-6.81208e-08
-9.7956e-08
-6.76674e-08
-3.10145e-08
-6.71544e-08
3.54962e-08
-6.67219e-08
1.01494e-07
-6.62014e-08
1.66609e-07
-6.53107e-08
2.30649e-07
-6.42277e-08
2.93538e-07
-6.30694e-08
3.55229e-07
-6.18645e-08
4.15689e-07
-6.06259e-08
4.7489e-07
-5.93603e-08
5.3281e-07
-5.80728e-08
5.89428e-07
-5.67667e-08
6.44728e-07
-5.54418e-08
6.98684e-07
-5.40951e-08
7.51265e-07
-5.27149e-08
8.02415e-07
-5.12807e-08
8.52038e-07
-4.97496e-08
8.99957e-07
-4.80446e-08
9.45847e-07
-4.60091e-08
9.89051e-07
-4.33205e-08
1.02811e-06
-3.91638e-08
1.05953e-06
-3.1521e-08
1.07272e-06
-1.32915e-08
3.50542e-08
1.03757e-06
8.3833e-09
-2.1909e-08
9.50077e-09
-1.47649e-08
5.79934e-09
-4.4984e-09
-1.10745e-09
5.14676e-09
-1.06698e-08
1.37294e-08
-2.27797e-08
2.10497e-08
-3.73475e-08
2.70445e-08
-5.41832e-08
3.18111e-08
-7.29845e-08
3.55601e-08
-9.34529e-08
3.85397e-08
-1.15338e-07
4.09784e-08
-1.38461e-07
4.30614e-08
-1.62687e-07
4.49249e-08
-1.8795e-07
4.66648e-08
-2.14206e-07
4.83473e-08
-2.41463e-07
5.00185e-08
-2.69732e-07
5.17106e-08
-2.99067e-07
5.34452e-08
-3.2951e-07
5.52353e-08
-3.61137e-07
5.70865e-08
-3.93987e-07
5.90041e-08
-4.28104e-07
6.09799e-08
-4.63381e-07
6.29558e-08
-4.99576e-07
6.48231e-08
-5.37384e-07
6.62843e-08
-5.78091e-07
6.74277e-08
-6.20183e-07
6.91144e-08
-6.61972e-07
7.13838e-08
-7.04058e-07
7.36175e-08
-7.46749e-07
7.57034e-08
-7.90206e-07
7.77066e-08
-8.34237e-07
7.97224e-08
-8.78504e-07
8.17663e-08
-9.22598e-07
8.41215e-08
-9.65287e-07
8.65956e-08
-1.00236e-06
8.83302e-08
-1.04386e-06
8.70759e-08
-1.0915e-06
8.48014e-08
-1.13311e-06
8.49718e-08
-1.17607e-06
8.41678e-08
-1.21961e-06
8.34568e-08
-1.26078e-06
8.3607e-08
-1.30145e-06
8.3487e-08
-1.34165e-06
8.32253e-08
-1.38143e-06
8.28967e-08
-1.42079e-06
8.25285e-08
-1.45978e-06
8.21233e-08
-1.49842e-06
8.1685e-08
-1.53673e-06
8.12167e-08
-1.5747e-06
8.07217e-08
-1.61233e-06
8.02016e-08
-1.64962e-06
7.96571e-08
-1.68656e-06
7.90875e-08
-1.72314e-06
7.84914e-08
-1.75935e-06
7.78662e-08
-1.79517e-06
7.72092e-08
-1.83059e-06
7.65171e-08
-1.86559e-06
7.57866e-08
-1.90015e-06
7.50142e-08
-1.93424e-06
7.41963e-08
-1.96785e-06
7.33296e-08
-2.00095e-06
7.24109e-08
-2.03351e-06
7.1437e-08
-2.0655e-06
7.0405e-08
-2.09691e-06
6.93123e-08
-2.12769e-06
6.81565e-08
-2.15782e-06
6.69354e-08
-2.18727e-06
6.56473e-08
-2.21601e-06
6.42905e-08
-2.244e-06
6.28639e-08
-2.27122e-06
6.13663e-08
-2.29763e-06
5.9797e-08
-2.3232e-06
5.81554e-08
-2.34789e-06
5.64411e-08
-2.37169e-06
5.46542e-08
-2.39455e-06
5.27949e-08
-2.41644e-06
5.08637e-08
-2.43734e-06
4.88612e-08
-2.45721e-06
4.67884e-08
-2.47601e-06
4.46459e-08
-2.49373e-06
4.24351e-08
-2.51033e-06
4.01569e-08
-2.52578e-06
3.78126e-08
-2.54005e-06
3.54027e-08
-2.55311e-06
3.29284e-08
-2.56495e-06
3.03901e-08
-2.57552e-06
2.77891e-08
-2.5848e-06
2.5126e-08
-2.59278e-06
2.24026e-08
-2.59944e-06
1.96177e-08
-2.60475e-06
1.67698e-08
-2.60872e-06
1.38569e-08
-2.61133e-06
1.08791e-08
-2.61259e-06
7.84149e-09
-2.61256e-06
4.75818e-09
-2.61131e-06
1.6602e-09
-2.60894e-06
-1.41057e-09
-2.60542e-06
-4.44138e-09
-2.60056e-06
-7.46506e-09
-2.59424e-06
-1.05059e-08
-2.58641e-06
-1.35684e-08
-2.57707e-06
-1.66538e-08
-2.56618e-06
-1.97643e-08
-2.55375e-06
-2.28982e-08
-2.53975e-06
-2.60534e-08
-2.52417e-06
-2.9227e-08
-2.507e-06
-3.24165e-08
-2.48824e-06
-3.56201e-08
-2.46788e-06
-3.8836e-08
-2.4459e-06
-4.20634e-08
-2.42231e-06
-4.52999e-08
-2.3971e-06
-4.85448e-08
-2.37026e-06
-5.17951e-08
-2.3418e-06
-5.50497e-08
-2.31171e-06
-5.83048e-08
-2.28e-06
-6.15588e-08
-2.24666e-06
-6.48073e-08
-2.2117e-06
-6.80476e-08
-2.17512e-06
-7.12762e-08
-2.13695e-06
-7.44925e-08
-2.09718e-06
-7.76932e-08
-2.05583e-06
-8.08763e-08
-2.01292e-06
-8.40337e-08
-1.96844e-06
-8.71606e-08
-1.92242e-06
-9.0248e-08
-1.87487e-06
-9.32947e-08
-1.82581e-06
-9.62951e-08
-1.77527e-06
-9.92505e-08
-1.72327e-06
-1.02153e-07
-1.66984e-06
-1.05004e-07
-1.61502e-06
-1.07785e-07
-1.55886e-06
-1.1048e-07
-1.50138e-06
-1.13091e-07
-1.44265e-06
-1.15623e-07
-1.3827e-06
-1.18066e-07
-1.32159e-06
-1.20415e-07
-1.25937e-06
-1.22663e-07
-1.19611e-06
-1.2481e-07
-1.13186e-06
-1.26847e-07
-1.0667e-06
-1.28767e-07
-1.00067e-06
-1.30557e-07
-9.33863e-07
-1.32207e-07
-8.66337e-07
-1.33703e-07
-7.98179e-07
-1.35042e-07
-7.2947e-07
-1.36214e-07
-6.60301e-07
-1.37216e-07
-5.9076e-07
-1.38036e-07
-5.20947e-07
-1.38673e-07
-4.50958e-07
-1.39114e-07
-3.80895e-07
-1.39361e-07
-3.10859e-07
-1.39403e-07
-2.40957e-07
-1.39246e-07
-1.7129e-07
-1.38876e-07
-1.01956e-07
-1.38314e-07
-3.30133e-08
-1.37581e-07
3.54792e-08
-1.3671e-07
1.03394e-07
-1.35676e-07
1.706e-07
-1.34457e-07
2.36846e-07
-1.33061e-07
3.01955e-07
-1.31406e-07
3.65994e-07
-1.2944e-07
4.28958e-07
-1.27282e-07
4.90802e-07
-1.25001e-07
5.51486e-07
-1.22635e-07
6.10978e-07
-1.20202e-07
6.69255e-07
-1.1772e-07
7.26298e-07
-1.15195e-07
7.82089e-07
-1.12637e-07
8.36616e-07
-1.10045e-07
8.89859e-07
-1.07413e-07
9.41789e-07
-1.04719e-07
9.92359e-07
-1.01923e-07
1.04148e-06
-9.89417e-08
1.08899e-06
-9.56275e-08
1.1346e-06
-9.16841e-08
1.17775e-06
-8.65389e-08
1.21737e-06
-7.88419e-08
1.25165e-06
-6.58633e-08
1.2783e-06
-3.99963e-08
1.74046e-08
1.2959e-06
-2.11377e-09
-1.98119e-08
-1.03435e-08
-6.55258e-09
-2.10476e-08
6.19463e-09
-3.32886e-08
1.73787e-08
-4.68362e-08
2.72692e-08
-6.17409e-08
3.59461e-08
-7.81345e-08
4.3431e-08
-9.61149e-08
4.97831e-08
-1.15691e-07
5.51291e-08
-1.36804e-07
5.96441e-08
-1.5935e-07
6.3518e-08
-1.83225e-07
6.6928e-08
-2.08331e-07
7.00247e-08
-2.34602e-07
7.2928e-08
-2.6199e-07
7.57301e-08
-2.90481e-07
7.85022e-08
-3.20073e-07
8.12984e-08
-3.50793e-07
8.41585e-08
-3.82668e-07
8.71077e-08
-4.15741e-07
9.01538e-08
-4.50018e-07
9.32795e-08
-4.85476e-07
9.64339e-08
-5.22042e-07
9.9522e-08
-5.59638e-07
1.02417e-07
-5.98355e-07
1.05003e-07
-6.38203e-07
1.07276e-07
-6.78563e-07
1.09477e-07
-7.18805e-07
1.11629e-07
-7.58854e-07
1.13669e-07
-7.9874e-07
1.15593e-07
-8.38433e-07
1.17402e-07
-8.77797e-07
1.19088e-07
-9.16671e-07
1.2064e-07
-9.54576e-07
1.22026e-07
-9.91129e-07
1.23145e-07
-1.02636e-06
1.2356e-07
-1.06237e-06
1.23083e-07
-1.0998e-06
1.22226e-07
-1.13649e-06
1.2165e-07
-1.17322e-06
1.20895e-07
-1.20996e-06
1.20195e-07
-1.24605e-06
1.1969e-07
-1.2817e-06
1.19129e-07
-1.317e-06
1.18525e-07
-1.352e-06
1.17894e-07
-1.38672e-06
1.17243e-07
-1.42118e-06
1.16573e-07
-1.45538e-06
1.15883e-07
-1.48934e-06
1.1517e-07
-1.52305e-06
1.14432e-07
-1.55652e-06
1.13666e-07
-1.58974e-06
1.1287e-07
-1.6227e-06
1.1204e-07
-1.65538e-06
1.11171e-07
-1.68778e-06
1.1026e-07
-1.71988e-06
1.09301e-07
-1.75166e-06
1.0829e-07
-1.7831e-06
1.07221e-07
-1.81418e-06
1.06089e-07
-1.84488e-06
1.0489e-07
-1.87518e-06
1.03618e-07
-1.90505e-06
1.0227e-07
-1.93446e-06
1.0084e-07
-1.96338e-06
9.93258e-08
-1.9918e-06
9.77227e-08
-2.01968e-06
9.60277e-08
-2.04699e-06
9.42378e-08
-2.0737e-06
9.23506e-08
-2.09978e-06
9.03638e-08
-2.1252e-06
8.82758e-08
-2.14993e-06
8.60851e-08
-2.17393e-06
8.37907e-08
-2.19717e-06
8.13916e-08
-2.21962e-06
7.88878e-08
-2.24125e-06
7.62789e-08
-2.26203e-06
7.35654e-08
-2.28192e-06
7.07479e-08
-2.3009e-06
6.78275e-08
-2.31892e-06
6.48052e-08
-2.33596e-06
6.16824e-08
-2.352e-06
5.84607e-08
-2.36699e-06
5.51418e-08
-2.38091e-06
5.17275e-08
-2.39374e-06
4.82194e-08
-2.40544e-06
4.46197e-08
-2.41599e-06
4.09303e-08
-2.42536e-06
3.71538e-08
-2.43353e-06
3.3293e-08
-2.44048e-06
2.93507e-08
-2.44619e-06
2.53299e-08
-2.45065e-06
2.12319e-08
-2.45386e-06
1.70596e-08
-2.4558e-06
1.28191e-08
-2.45649e-06
8.51983e-09
-2.45591e-06
4.17875e-09
-2.45407e-06
-1.83675e-10
-2.45094e-06
-4.55239e-09
-2.44645e-06
-8.93787e-09
-2.44056e-06
-1.33637e-08
-2.43324e-06
-1.78399e-08
-2.42446e-06
-2.23626e-08
-2.41421e-06
-2.69287e-08
-2.40246e-06
-3.15358e-08
-2.3892e-06
-3.61794e-08
-2.37443e-06
-4.08566e-08
-2.35812e-06
-4.55621e-08
-2.34028e-06
-5.02938e-08
-2.32087e-06
-5.50475e-08
-2.29991e-06
-5.98223e-08
-2.27738e-06
-6.4614e-08
-2.25328e-06
-6.94221e-08
-2.22759e-06
-7.42421e-08
-2.20033e-06
-7.90727e-08
-2.17148e-06
-8.39088e-08
-2.14105e-06
-8.87484e-08
-2.10902e-06
-9.35855e-08
-2.07541e-06
-9.84167e-08
-2.04022e-06
-1.03236e-07
-2.00345e-06
-1.08039e-07
-1.96512e-06
-1.12824e-07
-1.92523e-06
-1.17585e-07
-1.8838e-06
-1.22317e-07
-1.84083e-06
-1.27011e-07
-1.79634e-06
-1.31657e-07
-1.75033e-06
-1.36249e-07
-1.70284e-06
-1.40778e-07
-1.65388e-06
-1.45241e-07
-1.60348e-06
-1.49633e-07
-1.55165e-06
-1.53948e-07
-1.49844e-06
-1.58178e-07
-1.44388e-06
-1.62306e-07
-1.388e-06
-1.66309e-07
-1.33086e-06
-1.70187e-07
-1.27249e-06
-1.73939e-07
-1.21295e-06
-1.77554e-07
-1.15229e-06
-1.81024e-07
-1.09056e-06
-1.8434e-07
-1.02784e-06
-1.87496e-07
-9.64175e-07
-1.90483e-07
-8.99639e-07
-1.93287e-07
-8.34295e-07
-1.95893e-07
-7.68214e-07
-1.98284e-07
-7.01471e-07
-2.00446e-07
-6.34149e-07
-2.02367e-07
-5.66335e-07
-2.04037e-07
-4.98116e-07
-2.05444e-07
-4.29589e-07
-2.06578e-07
-3.60848e-07
-2.07429e-07
-2.91995e-07
-2.07987e-07
-2.23128e-07
-2.08247e-07
-1.54355e-07
-2.08201e-07
-8.57717e-08
-2.07852e-07
-1.74653e-08
-2.0721e-07
5.04732e-08
-2.0628e-07
1.17922e-07
-2.05059e-07
1.84753e-07
-2.03569e-07
2.50853e-07
-2.01807e-07
3.16136e-07
-1.99769e-07
3.80487e-07
-1.97443e-07
4.43832e-07
-1.94779e-07
5.06152e-07
-1.9179e-07
5.67409e-07
-1.88568e-07
6.27557e-07
-1.85177e-07
6.86557e-07
-1.81663e-07
7.44379e-07
-1.78053e-07
8.01003e-07
-1.7437e-07
8.56413e-07
-1.70632e-07
9.10599e-07
-1.66849e-07
9.63549e-07
-1.63022e-07
1.01525e-06
-1.59143e-07
1.06569e-06
-1.55181e-07
1.11481e-06
-1.51075e-07
1.16255e-06
-1.46711e-07
1.20878e-06
-1.41878e-07
1.25324e-06
-1.36178e-07
1.29554e-06
-1.28862e-07
1.33503e-06
-1.18363e-07
1.37087e-06
-1.0173e-07
1.40322e-06
-7.23672e-08
-1.58198e-08
1.43642e-06
-1.05579e-08
-9.26756e-09
-2.48247e-08
7.70138e-09
-4.01844e-08
2.15463e-08
-5.61749e-08
3.33625e-08
-7.2773e-08
4.38617e-08
-9.00996e-08
5.32666e-08
-1.08325e-07
6.16513e-08
-1.27615e-07
6.90662e-08
-1.48081e-07
7.55904e-08
-1.69783e-07
8.13392e-08
-1.92721e-07
8.64508e-08
-2.16868e-07
9.10684e-08
-2.42174e-07
9.53262e-08
-2.68594e-07
9.93407e-08
-2.96076e-07
1.03209e-07
-3.24587e-07
1.07007e-07
-3.54085e-07
1.10793e-07
-3.84539e-07
1.14608e-07
-4.15902e-07
1.18469e-07
-4.48124e-07
1.22371e-07
-4.81125e-07
1.26279e-07
-5.14818e-07
1.30123e-07
-5.49099e-07
1.33802e-07
-5.83884e-07
1.37201e-07
-6.19107e-07
1.40227e-07
-6.54692e-07
1.42862e-07
-6.90402e-07
1.45188e-07
-7.26035e-07
1.47263e-07
-7.61474e-07
1.4911e-07
-7.96624e-07
1.50745e-07
-8.31398e-07
1.52176e-07
-8.65705e-07
1.53396e-07
-8.99461e-07
1.54395e-07
-9.32586e-07
1.5515e-07
-9.6505e-07
1.55607e-07
-9.97138e-07
1.55646e-07
-1.02933e-06
1.55274e-07
-1.06176e-06
1.54654e-07
-1.09407e-06
1.53957e-07
-1.12635e-06
1.53164e-07
-1.15852e-06
1.52364e-07
-1.19044e-06
1.5161e-07
-1.22217e-06
1.50849e-07
-1.25372e-06
1.5007e-07
-1.2851e-06
1.49274e-07
-1.31632e-06
1.4846e-07
-1.34738e-06
1.47629e-07
-1.37828e-06
1.46777e-07
-1.40901e-06
1.459e-07
-1.43957e-06
1.44993e-07
-1.46996e-06
1.44052e-07
-1.50017e-06
1.43071e-07
-1.53018e-06
1.42045e-07
-1.55998e-06
1.40966e-07
-1.58955e-06
1.39829e-07
-1.61888e-06
1.38627e-07
-1.64795e-06
1.37354e-07
-1.67674e-06
1.36003e-07
-1.70522e-06
1.34567e-07
-1.73338e-06
1.33041e-07
-1.76119e-06
1.31419e-07
-1.78862e-06
1.29694e-07
-1.81564e-06
1.27862e-07
-1.84224e-06
1.25918e-07
-1.86838e-06
1.23856e-07
-1.89403e-06
1.21674e-07
-1.91917e-06
1.19367e-07
-1.94376e-06
1.16931e-07
-1.96776e-06
1.14366e-07
-1.99116e-06
1.11667e-07
-2.01391e-06
1.08834e-07
-2.03599e-06
1.05865e-07
-2.05737e-06
1.02759e-07
-2.078e-06
9.95165e-08
-2.09786e-06
9.61362e-08
-2.11692e-06
9.26191e-08
-2.13515e-06
8.89662e-08
-2.1525e-06
8.51786e-08
-2.16896e-06
8.12578e-08
-2.18449e-06
7.72057e-08
-2.19906e-06
7.30247e-08
-2.21264e-06
6.87169e-08
-2.22521e-06
6.4285e-08
-2.23672e-06
5.97319e-08
-2.24717e-06
5.50606e-08
-2.25652e-06
5.02745e-08
-2.26475e-06
4.53773e-08
-2.27183e-06
4.03732e-08
-2.27775e-06
3.52669e-08
-2.28249e-06
3.00622e-08
-2.28602e-06
2.47642e-08
-2.28834e-06
1.93779e-08
-2.28944e-06
1.39109e-08
-2.28929e-06
8.37278e-09
-2.2879e-06
2.77602e-09
-2.28522e-06
-2.86834e-09
-2.28122e-06
-8.55623e-09
-2.27587e-06
-1.42964e-08
-2.26914e-06
-2.01008e-08
-2.26102e-06
-2.59735e-08
-2.25149e-06
-3.19109e-08
-2.24053e-06
-3.79082e-08
-2.22813e-06
-4.39609e-08
-2.21427e-06
-5.00632e-08
-2.19894e-06
-5.62107e-08
-2.18213e-06
-6.23973e-08
-2.16382e-06
-6.862e-08
-2.14402e-06
-7.48736e-08
-2.1227e-06
-8.11562e-08
-2.09987e-06
-8.7463e-08
-2.07552e-06
-9.37923e-08
-2.04963e-06
-1.00139e-07
-2.02222e-06
-1.065e-07
-1.99326e-06
-1.12869e-07
-1.96277e-06
-1.19245e-07
-1.93074e-06
-1.25618e-07
-1.89718e-06
-1.31984e-07
-1.86207e-06