/*--------------------------------*- C++ -*----------------------------------*\
  =========                 |
  \\      /  F ield         | OpenFOAM: The Open Source CFD Toolbox
   \\    /   O peration     | Website:  https://openfoam.org
    \\  /    A nd           | Version:  8
     \\/     M anipulation  |
\*---------------------------------------------------------------------------*/
FoamFile
{
    version     2.0;
    format      ascii;
    class       volVectorField;
    location    "225";
    object      U;
}
// * * * * * * * * * * * * * * * * * * * * * * * * * * * * * * * * * * * * * //

dimensions      [0 1 -1 0 0 0 0];

internalField   nonuniform List<vector> 
12225
(
(9.85699 -0.886636 0)
(9.66629 -0.740717 0)
(9.45578 -0.42942 0)
(9.22452 -0.222145 0)
(9.0065 -0.106397 0)
(8.81438 -0.0458136 0)
(8.64749 -0.0151253 0)
(8.50531 0.000492449 0)
(8.38364 0.00842422 0)
(8.28088 0.0123088 0)
(8.19247 0.0140152 0)
(8.1163 0.0150127 0)
(8.04954 0.0154113 0)
(7.99054 0.0155874 0)
(7.93725 0.0156514 0)
(7.89091 0.0155135 0)
(7.83688 0.0177132 0)
(7.82761 0.0113134 0)
(10.0545 0.227708 0)
(10.1213 0.326966 0)
(10.1196 0.261653 0)
(10.0856 0.186594 0)
(10.0434 0.1347 0)
(9.99673 0.101137 0)
(9.94401 0.0793015 0)
(9.88527 0.0645776 0)
(9.82391 0.0542683 0)
(9.76139 0.04668 0)
(9.69993 0.0409139 0)
(9.64012 0.0363649 0)
(9.58283 0.0327025 0)
(9.52844 0.0298471 0)
(9.47663 0.027359 0)
(9.42905 0.0264865 0)
(9.38141 0.0233923 0)
(9.34706 0.0326124 0)
(10.0035 0.0581556 0)
(10.0305 0.0559514 0)
(10.056 0.0337773 0)
(10.0703 0.0328909 0)
(10.077 0.0406407 0)
(10.0778 0.04654 0)
(10.0726 0.0493555 0)
(10.0614 0.0503018 0)
(10.0462 0.050201 0)
(10.0277 0.0494892 0)
(10.0072 0.0484481 0)
(9.98502 0.0472872 0)
(9.9619 0.0461095 0)
(9.93826 0.0450513 0)
(9.91436 0.0440086 0)
(9.89097 0.043598 0)
(9.86766 0.0427632 0)
(9.84597 0.0449543 0)
(9.99772 0.0109496 0)
(10.0111 0.0266216 0)
(10.035 0.0371254 0)
(10.0525 0.0480707 0)
(10.0644 0.0554422 0)
(10.0734 0.0581772 0)
(10.0795 0.0583492 0)
(10.0824 0.0576095 0)
(10.0828 0.0565631 0)
(10.0813 0.0553706 0)
(10.0782 0.0541029 0)
(10.0738 0.0528798 0)
(10.0684 0.0516994 0)
(10.0623 0.0506656 0)
(10.0556 0.0496879 0)
(10.0487 0.049154 0)
(10.0416 0.0484504 0)
(10.0347 0.048803 0)
(9.99935 0.00710124 0)
(10.009 0.0316975 0)
(10.0275 0.0439118 0)
(10.0418 0.0499148 0)
(10.0528 0.0536065 0)
(10.0629 0.0552325 0)
(10.0716 0.0555141 0)
(10.0784 0.0552263 0)
(10.0835 0.0546855 0)
(10.0873 0.0539854 0)
(10.0901 0.0531814 0)
(10.092 0.0523702 0)
(10.0932 0.0515698 0)
(10.0938 0.050856 0)
(10.094 0.0501899 0)
(10.0939 0.049762 0)
(10.0938 0.0492859 0)
(10.0938 0.0491095 0)
(10.0003 0.00915055 0)
(10.0083 0.0312142 0)
(10.0227 0.0409497 0)
(10.035 0.0453935 0)
(10.045 0.0490376 0)
(10.0548 0.0513723 0)
(10.0638 0.0523539 0)
(10.0714 0.0525882 0)
(10.0779 0.0524562 0)
(10.0835 0.0520963 0)
(10.0883 0.0515853 0)
(10.0925 0.0510125 0)
(10.0961 0.0504152 0)
(10.0993 0.0498482 0)
(10.1022 0.0493017 0)
(10.1049 0.0488551 0)
(10.1076 0.0483723 0)
(10.1103 0.0478648 0)
(10.0004 0.00892519 0)
(10.0071 0.0271151 0)
(10.0191 0.0364214 0)
(10.0302 0.0413958 0)
(10.0396 0.0454163 0)
(10.0487 0.0480802 0)
(10.0573 0.0493486 0)
(10.0649 0.0498182 0)
(10.0717 0.049892 0)
(10.0778 0.0497164 0)
(10.0834 0.0493702 0)
(10.0884 0.0489317 0)
(10.093 0.0484458 0)
(10.0973 0.0479511 0)
(10.1013 0.0474483 0)
(10.1052 0.0469608 0)
(10.109 0.0464099 0)
(10.1128 0.0457149 0)
(10.0004 0.0079025 0)
(10.006 0.0233922 0)
(10.0161 0.0327433 0)
(10.0263 0.0381078 0)
(10.0351 0.0420994 0)
(10.0436 0.0447806 0)
(10.0517 0.0461899 0)
(10.0592 0.0468222 0)
(10.0659 0.0470432 0)
(10.0721 0.0469982 0)
(10.0779 0.0467667 0)
(10.0832 0.0464195 0)
(10.0882 0.0460031 0)
(10.0929 0.0455467 0)
(10.0974 0.0450532 0)
(10.1018 0.0445201 0)
(10.1061 0.0438926 0)
(10.1104 0.0430866 0)
(10.0004 0.006953 0)
(10.005 0.0204298 0)
(10.0137 0.0294593 0)
(10.0229 0.0348665 0)
(10.0312 0.0387148 0)
(10.0391 0.0413743 0)
(10.0468 0.0429039 0)
(10.054 0.0436753 0)
(10.0606 0.0440125 0)
(10.0668 0.0440659 0)
(10.0725 0.0439172 0)
(10.0779 0.0436324 0)
(10.0831 0.0432572 0)
(10.0879 0.0428157 0)
(10.0926 0.042311 0)
(10.0972 0.0417316 0)
(10.1016 0.0410355 0)
(10.106 0.0401618 0)
(10.0004 0.00612603 0)
(10.0043 0.0178598 0)
(10.0116 0.0262792 0)
(10.0199 0.0315852 0)
(10.0276 0.035308 0)
(10.0351 0.0379318 0)
(10.0424 0.0395407 0)
(10.0493 0.0404146 0)
(10.0557 0.0408379 0)
(10.0617 0.0409638 0)
(10.0674 0.0408748 0)
(10.0728 0.0406328 0)
(10.0779 0.0402808 0)
(10.0828 0.0398412 0)
(10.0875 0.0393172 0)
(10.0921 0.038697 0)
(10.0965 0.0379491 0)
(10.1009 0.0370388 0)
(10.0003 0.00536822 0)
(10.0037 0.0155492 0)
(10.0099 0.0232395 0)
(10.0173 0.0283479 0)
(10.0245 0.031929 0)
(10.0315 0.0344761 0)
(10.0384 0.0361098 0)
(10.045 0.0370473 0)
(10.0512 0.0375305 0)
(10.057 0.0377081 0)
(10.0626 0.0376617 0)
(10.0679 0.0374487 0)
(10.073 0.0371099 0)
(10.0778 0.0366666 0)
(10.0825 0.0361238 0)
(10.087 0.0354732 0)
(10.0913 0.034693 0)
(10.0956 0.0337697 0)
(10.0003 0.00470412 0)
(10.0032 0.0136086 0)
(10.0086 0.0205919 0)
(10.0152 0.0254349 0)
(10.0219 0.0288499 0)
(10.0285 0.0312912 0)
(10.0351 0.0329055 0)
(10.0414 0.0338689 0)
(10.0474 0.0343852 0)
(10.0531 0.034593 0)
(10.0585 0.0345721 0)
(10.0637 0.0343763 0)
(10.0687 0.0340438 0)
(10.0734 0.0335962 0)
(10.078 0.0330403 0)
(10.0824 0.0323726 0)
(10.0867 0.0315791 0)
(10.0908 0.0306624 0)
(10.0003 0.00408981 0)
(10.0028 0.0118397 0)
(10.0075 0.0180919 0)
(10.0134 0.0225932 0)
(10.0197 0.0258077 0)
(10.0259 0.0281177 0)
(10.0321 0.0296799 0)
(10.0381 0.030642 0)
(10.0439 0.0311727 0)
(10.0494 0.0313973 0)
(10.0547 0.0313919 0)
(10.0598 0.0312072 0)
(10.0646 0.0308791 0)
(10.0693 0.0304291 0)
(10.0738 0.0298664 0)
(10.0781 0.0291923 0)
(10.0822 0.0283991 0)
(10.0862 0.0275017 0)
(10.0002 0.00345517 0)
(10.0024 0.0100016 0)
(10.0064 0.0154106 0)
(10.0117 0.019445 0)
(10.0174 0.0223753 0)
(10.0232 0.0244941 0)
(10.029 0.0259533 0)
(10.0347 0.0268763 0)
(10.0403 0.0273965 0)
(10.0456 0.027621 0)
(10.0507 0.0276201 0)
(10.0557 0.0274405 0)
(10.0604 0.027115 0)
(10.0649 0.0266652 0)
(10.0693 0.0261026 0)
(10.0735 0.0254331 0)
(10.0775 0.0246549 0)
(10.0813 0.0237914 0)
(10.0002 0.00279614 0)
(10.002 0.00809253 0)
(10.0055 0.012558 0)
(10.0101 0.0159957 0)
(10.0153 0.0185395 0)
(10.0206 0.0203916 0)
(10.026 0.0216837 0)
(10.0314 0.0225158 0)
(10.0367 0.0229886 0)
(10.0418 0.0231882 0)
(10.0468 0.0231753 0)
(10.0515 0.0229914 0)
(10.0561 0.0226661 0)
(10.0605 0.02222 0)
(10.0647 0.0216665 0)
(10.0687 0.021015 0)
(10.0725 0.0202686 0)
(10.0762 0.0194552 0)
(10.0002 0.00211201 0)
(10.0017 0.0061143 0)
(10.0047 0.00954274 0)
(10.0087 0.01225 0)
(10.0134 0.014288 0)
(10.0183 0.0157807 0)
(10.0233 0.0168266 0)
(10.0283 0.0175017 0)
(10.0333 0.0178773 0)
(10.0382 0.018017 0)
(10.0429 0.0179688 0)
(10.0475 0.0177673 0)
(10.0519 0.0174375 0)
(10.0561 0.0169982 0)
(10.0601 0.016463 0)
(10.064 0.0158433 0)
(10.0677 0.0151448 0)
(10.0712 0.0143968 0)
(10.0002 0.0013998 0)
(10.0015 0.00405283 0)
(10.0041 0.00634837 0)
(10.0076 0.00819094 0)
(10.0118 0.00959244 0)
(10.0163 0.0106172 0)
(10.0209 0.0113257 0)
(10.0256 0.0117667 0)
(10.0303 0.0119852 0)
(10.035 0.0120218 0)
(10.0395 0.0119095 0)
(10.0438 0.0116732 0)
(10.048 0.0113319 0)
(10.0521 0.0109006 0)
(10.056 0.0103915 0)
(10.0597 0.00981509 0)
(10.0632 0.00917782 0)
(10.0665 0.00850701 0)
(10.0001 0.000643066 0)
(10.0013 0.00185621 0)
(10.0036 0.00290268 0)
(10.0069 0.00373828 0)
(10.0107 0.00436199 0)
(10.0148 0.00479621 0)
(10.0192 0.00506379 0)
(10.0237 0.00518455 0)
(10.0281 0.00517778 0)
(10.0325 0.00506165 0)
(10.0368 0.00485164 0)
(10.041 0.00456029 0)
(10.045 0.00419807 0)
(10.0489 0.00377405 0)
(10.0526 0.00329628 0)
(10.0562 0.00277264 0)
(10.0595 0.00220772 0)
(10.0627 0.00162466 0)
(10.0001 -0.000201304 0)
(10.0012 -0.000597513 0)
(10.0034 -0.000967625 0)
(10.0066 -0.00130045 0)
(10.0102 -0.00159672 0)
(10.0143 -0.00187048 0)
(10.0185 -0.00213954 0)
(10.0228 -0.00241608 0)
(10.0271 -0.00270742 0)
(10.0314 -0.00301919 0)
(10.0355 -0.00335568 0)
(10.0396 -0.00371927 0)
(10.0435 -0.00411053 0)
(10.0472 -0.00452876 0)
(10.0508 -0.00497232 0)
(10.0542 -0.00543839 0)
(10.0575 -0.00592584 0)
(10.0605 -0.00641814 0)
(10.0001 -0.00100912 0)
(10.0013 -0.00295197 0)
(10.0037 -0.0046879 0)
(10.007 -0.00613453 0)
(10.0108 -0.00728985 0)
(10.015 -0.00821366 0)
(10.0193 -0.00896738 0)
(10.0237 -0.00959297 0)
(10.028 -0.0101247 0)
(10.0323 -0.0105941 0)
(10.0365 -0.0110259 0)
(10.0405 -0.0114367 0)
(10.0443 -0.0118374 0)
(10.048 -0.0122355 0)
(10.0515 -0.0126358 0)
(10.0549 -0.0130405 0)
(10.0581 -0.0134519 0)
(10.0611 -0.0138594 0)
(10.0002 -0.00170573 0)
(10.0015 -0.00500816 0)
(10.0041 -0.00793925 0)
(10.0078 -0.0102939 0)
(10.012 -0.0120945 0)
(10.0164 -0.0134912 0)
(10.021 -0.01459 0)
(10.0255 -0.015448 0)
(10.03 -0.016122 0)
(10.0344 -0.0166705 0)
(10.0386 -0.0171379 0)
(10.0426 -0.0175527 0)
(10.0465 -0.0179341 0)
(10.0502 -0.0182955 0)
(10.0537 -0.0186464 0)
(10.057 -0.0189921 0)
(10.0602 -0.0193367 0)
(10.0631 -0.0196736 0)
(10.0002 -0.00236716 0)
(10.0016 -0.00703979 0)
(10.0047 -0.0111884 0)
(10.009 -0.0143616 0)
(10.0137 -0.016661 0)
(10.0185 -0.0183975 0)
(10.0234 -0.019731 0)
(10.0282 -0.0207324 0)
(10.0329 -0.0214831 0)
(10.0373 -0.0220642 0)
(10.0416 -0.0225321 0)
(10.0457 -0.0229234 0)
(10.0496 -0.0232644 0)
(10.0533 -0.0235746 0)
(10.0568 -0.0238669 0)
(10.0601 -0.0241492 0)
(10.0633 -0.0244267 0)
(10.0663 -0.0246953 0)
(10.0002 -0.00298578 0)
(10.0018 -0.00909756 0)
(10.0054 -0.014461 0)
(10.0105 -0.0183539 0)
(10.0159 -0.0211006 0)
(10.0211 -0.0231252 0)
(10.0263 -0.024583 0)
(10.0314 -0.0255992 0)
(10.0363 -0.026328 0)
(10.0409 -0.0268792 0)
(10.0453 -0.0273093 0)
(10.0495 -0.0276538 0)
(10.0534 -0.0279419 0)
(10.0571 -0.0281961 0)
(10.0606 -0.0284304 0)
(10.064 -0.0286532 0)
(10.0671 -0.02887 0)
(10.0701 -0.0290786 0)
(10.0001 -0.00352956 0)
(10.0018 -0.0115545 0)
(10.0062 -0.0178992 0)
(10.0123 -0.0219994 0)
(10.0183 -0.0250677 0)
(10.024 -0.0274788 0)
(10.0296 -0.0291186 0)
(10.035 -0.0301305 0)
(10.0401 -0.0307846 0)
(10.0449 -0.0312458 0)
(10.0494 -0.0315816 0)
(10.0536 -0.0318325 0)
(10.0576 -0.0320323 0)
(10.0614 -0.0322048 0)
(10.0649 -0.0323636 0)
(10.0682 -0.0325159 0)
(10.0713 -0.0326652 0)
(10.0742 -0.0328083 0)
(9.99991 -0.00337347 0)
(10.0016 -0.0149866 0)
(10.0073 -0.0227418 0)
(10.0142 -0.0262519 0)
(10.0206 -0.0288381 0)
(10.0268 -0.0312042 0)
(10.0331 -0.0329267 0)
(10.039 -0.0340162 0)
(10.0444 -0.0347174 0)
(10.0494 -0.0351826 0)
(10.054 -0.035482 0)
(10.0583 -0.0356698 0)
(10.0623 -0.0357922 0)
(10.066 -0.0358798 0)
(10.0694 -0.0359509 0)
(10.0726 -0.0360153 0)
(10.0755 -0.0360778 0)
(10.0782 -0.0361371 0)
(9.99859 -0.000380832 0)
(9.99903 -0.0157974 0)
(10.0076 -0.0274389 0)
(10.0166 -0.0324961 0)
(10.0238 -0.0348727 0)
(10.0306 -0.0362296 0)
(10.0376 -0.0369828 0)
(10.0441 -0.0374515 0)
(10.0499 -0.0378018 0)
(10.055 -0.0380503 0)
(10.0595 -0.0381966 0)
(10.0636 -0.0382656 0)
(10.0672 -0.0382873 0)
(10.0703 -0.0382831 0)
(10.0731 -0.0382678 0)
(10.0755 -0.0382502 0)
(10.0777 -0.0382341 0)
(10.0795 -0.0382173 0)
(9.99487 0.00140633 0)
(9.99287 -0.00812348 0)
(10.006 -0.0203321 0)
(10.0202 -0.0322653 0)
(10.0307 -0.0404728 0)
(10.0392 -0.0441479 0)
(10.0467 -0.0450627 0)
(10.0529 -0.0449208 0)
(10.0578 -0.044456 0)
(10.0616 -0.0438614 0)
(10.0646 -0.0432181 0)
(10.0668 -0.0425825 0)
(10.0682 -0.0419888 0)
(10.0691 -0.0414456 0)
(10.0694 -0.0409615 0)
(10.0692 -0.0405345 0)
(10.0688 -0.0401613 0)
(10.068 -0.0398155 0)
(9.9947 -0.0305769 0)
(9.99943 -0.0228499 0)
(10.0146 -0.00262001 0)
(10.0304 -0.00190141 0)
(10.0434 -0.0116541 0)
(10.0533 -0.020921 0)
(10.0594 -0.0272808 0)
(10.0619 -0.0315093 0)
(10.0615 -0.0342854 0)
(10.0591 -0.0359828 0)
(10.055 -0.0369156 0)
(10.0497 -0.0373499 0)
(10.0435 -0.0374758 0)
(10.0364 -0.037414 0)
(10.0289 -0.037253 0)
(10.021 -0.0370509 0)
(10.0128 -0.0368709 0)
(10.0046 -0.0366803 0)
(10.0274 -0.183006 0)
(10.0766 -0.288324 0)
(10.0871 -0.247821 0)
(10.0777 -0.186559 0)
(10.0663 -0.140323 0)
(10.0537 -0.108242 0)
(10.0365 -0.0858947 0)
(10.0145 -0.070436 0)
(9.98936 -0.0596645 0)
(9.96232 -0.0518878 0)
(9.93435 -0.0460649 0)
(9.90603 -0.0415667 0)
(9.87785 -0.0380101 0)
(9.85014 -0.0351335 0)
(9.82315 -0.0327702 0)
(9.79698 -0.0308463 0)
(9.77189 -0.0293274 0)
(9.74789 -0.0285112 0)
(9.93575 0.689541 0)
(9.86828 0.609595 0)
(9.76458 0.380606 0)
(9.62662 0.217411 0)
(9.48588 0.119242 0)
(9.35719 0.0631604 0)
(9.24267 0.0315484 0)
(9.14109 0.0135969 0)
(9.05142 0.00324339 0)
(8.97244 -0.00281713 0)
(8.90254 -0.00637038 0)
(8.84036 -0.00848859 0)
(8.78465 -0.00973506 0)
(8.73454 -0.0104929 0)
(8.68911 -0.0109738 0)
(8.64777 -0.0112503 0)
(8.60957 -0.0114746 0)
(8.57423 -0.0121133 0)
(0.0062044 -0.0144401 -7.84832e-19)
(0.0189854 -0.019498 5.94099e-19)
(0.0286828 -0.0143142 0)
(0.0332641 -0.00576169 0)
(0.0320641 0.00255117 0)
(0.0259479 0.00904248 -2.77999e-19)
(0.0161647 0.0134359 0)
(0.00372989 0.0161019 0)
(-0.0105374 0.017586 0)
(-0.026131 0.0184116 0)
(-0.0427516 0.0189449 1.48905e-19)
(-0.060198 0.0193889 0)
(-0.0783625 0.0198542 0)
(-0.0971908 0.0203933 0)
(-0.116655 0.0210298 0)
(-0.136746 0.0217609 9.15967e-20)
(-0.15746 0.0225626 0)
(-0.178799 0.0233758 0)
(-0.200759 0.0241055 0)
(-0.223345 0.024617 0)
(-0.24657 0.0247718 0)
(-0.270463 0.0244258 0)
(-0.295038 0.023547 0)
(-0.320189 0.0219 7.30813e-20)
(-0.345768 0.0154154 -7.12822e-20)
(-0.371492 0.00393087 6.80384e-20)
(-0.39553 0.000805171 6.48196e-20)
(-0.42016 0.00595357 0)
(-0.448255 0.00973945 0)
(-0.477695 0.013567 -5.67261e-20)
(-0.508394 0.0182099 -5.4338e-20)
(-0.539902 0.0247097 0)
(-0.572815 0.0331879 0)
(-0.608374 0.0445565 -4.83508e-20)
(-0.6466 0.0612615 0)
(-0.688114 0.0859454 0)
(-0.732485 0.0627848 6.04994e-20)
(-0.775383 0.029222 0)
(-0.807474 0.0434462 6.21373e-20)
(-0.847354 0.0320213 1.18638e-19)
(-0.886133 0.0264269 0)
(-0.921553 0.0340979 0)
(-0.961391 0.034704 0)
(-1.00094 0.0347819 0)
(-1.04066 0.0346961 0)
(-1.08048 0.0345699 9.94457e-20)
(-1.12034 0.0343733 9.67977e-20)
(-1.16019 0.0341334 9.43098e-20)
(-1.2 0.0338599 0)
(-1.23973 0.0335642 -8.97684e-20)
(-1.27936 0.0332523 0)
(-1.31888 0.0329289 8.57305e-20)
(-1.35826 0.0325959 8.38746e-20)
(-1.39749 0.032255 0)
(-1.43656 0.0319057 0)
(-1.47545 0.0315482 0)
(-1.51415 0.0311813 7.73409e-20)
(-1.55263 0.0308044 0)
(-1.59089 0.0304157 0)
(-1.62889 0.0300144 0)
(-1.66662 0.029599 0)
(-1.70405 0.0291687 0)
(-1.74115 0.0287218 0)
(-1.7779 0.0282577 0)
(-1.81427 0.0277751 0)
(-1.85023 0.0272734 -6.62231e-20)
(-1.88575 0.0267518 0)
(-1.92078 0.0262101 0)
(-1.9553 0.0256475 6.32181e-20)
(-1.98928 0.0250641 6.22679e-20)
(-2.02266 0.0244596 0)
(-2.05543 0.023834 -6.043e-20)
(-2.08754 0.0231873 5.95379e-20)
(-2.11894 0.0225198 0)
(-2.14962 0.0218316 -5.77968e-20)
(-2.17952 0.0211234 0)
(-2.2086 0.0203959 0)
(-2.23684 0.0196498 5.52639e-20)
(-2.26418 0.0188858 0)
(-2.2906 0.0181044 -5.3607e-20)
(-2.31604 0.0173067 0)
(-2.34049 0.0164934 5.19599e-20)
(-2.36389 0.015665 5.11361e-20)
(-2.38622 0.0148221 5.031e-20)
(-2.40744 0.0139656 9.89606e-20)
(-2.4275 0.0130956 -9.7291e-20)
(-2.44638 0.0122123 0)
(-2.46403 0.0113129 0)
(-2.48041 0.0103928 0)
(-2.49548 0.00944116 -9.04684e-20)
(-2.5092 0.00844344 -8.8715e-20)
(-2.52152 0.00738754 8.69373e-20)
(-2.53239 0.00626827 0)
(-2.54174 0.00509139 -8.33025e-20)
(-2.54951 0.00387563 -8.14457e-20)
(-2.55561 0.00265797 -7.9564e-20)
(-2.55992 0.00149457 0)
(-2.56235 0.000450936 0)
(-2.56311 -0.000462172 0)
(-2.56244 -0.00130918 -7.16239e-20)
(-2.5603 -0.00213991 0)
(-2.55672 -0.00296369 0)
(-2.55167 -0.0037847 6.51394e-20)
(-2.54514 -0.00460375 0)
(-2.53712 -0.00541969 0)
(-2.5276 -0.00623324 5.81477e-20)
(-2.51655 -0.00704264 0)
(-2.50397 -0.00784964 0)
(-2.48983 -0.00865251 -5.0581e-20)
(-2.47414 -0.00945359 -4.79178e-20)
(-2.45687 -0.0102508 0)
(-2.43802 -0.0110467 4.23605e-20)
(-2.41759 -0.0118387 0)
(-2.39555 -0.0126296 -3.64711e-20)
(-2.37192 -0.0134167 0)
(-2.34667 -0.0142028 -3.02167e-20)
(-2.31981 -0.0149853 -2.69408e-20)
(-2.29133 -0.015767 0)
(-2.26123 -0.0165455 0)
(-2.22952 -0.0173236 0)
(-2.1962 -0.0180994 0)
(-2.16128 -0.0188745 0)
(-2.12476 -0.0196459 0)
(-2.08663 -0.0204155 0)
(-2.04691 -0.0211797 3.61422e-21)
(-2.0056 -0.0219432 -8.08863e-21)
(-1.9627 -0.0227063 0)
(-1.91825 -0.0234732 0)
(-1.87224 -0.0242259 0)
(-1.8247 -0.0249778 0)
(-1.77567 -0.0257272 -6.6678e-20)
(-1.72516 -0.0264679 0)
(-1.67321 -0.027212 9.00614e-20)
(-1.61986 -0.0279537 -1.02553e-19)
(-1.56515 -0.0286901 0)
(-1.50911 -0.0294252 0)
(-1.45179 -0.0301579 0)
(-1.39324 -0.0308879 1.58823e-19)
(-1.33352 -0.0316156 1.74698e-19)
(-1.27267 -0.0323367 0)
(-1.21074 -0.033049 2.09014e-19)
(-1.1478 -0.0337482 2.27593e-19)
(-1.08391 -0.0344327 -2.47222e-19)
(-1.01912 -0.0351004 0)
(-0.953522 -0.03575 0)
(-0.887182 -0.0363784 -3.13315e-19)
(-0.820182 -0.0369836 0)
(-0.752605 -0.037562 0)
(-0.684538 -0.0381118 0)
(-0.616072 -0.0386296 0)
(-0.5473 -0.0391139 4.5456e-19)
(-0.478319 -0.0395618 4.88872e-19)
(-0.409228 -0.0399718 0)
(-0.340124 -0.0403455 5.65289e-19)
(-0.271116 -0.040686 0)
(-0.202284 -0.0410052 0)
(-0.133687 -0.0413032 7.04131e-19)
(-0.0655285 -0.0415103 0)
(0.00245582 -0.0411717 7.86428e-19)
(0.0703433 -0.0401035 0)
(0.137668 -0.0387734 0)
(0.204202 -0.0374304 7.34713e-19)
(0.269831 -0.0361199 0)
(0.334481 -0.0348487 7.02663e-19)
(0.398108 -0.0336172 0)
(0.460677 -0.0324235 0)
(0.52216 -0.0312655 0)
(0.582533 -0.030141 -6.52367e-19)
(0.641773 -0.0290466 0)
(0.699855 -0.0279781 6.32011e-19)
(0.756748 -0.0269282 0)
(0.812403 -0.0258864 0)
(0.866744 -0.024835 0)
(0.919616 -0.0237427 0)
(0.970811 -0.0225488 0)
(1.01965 -0.0211389 0)
(1.06578 -0.0192225 0)
(1.10384 -0.0161094 -1.15378e-18)
(1.13999 -0.00968401 0)
(1.11544 0.00748748 0)
(0.00479411 -0.0385087 1.75758e-18)
(0.0089401 -0.0322165 -8.33556e-19)
(0.00744652 -0.016082 0)
(0.00266747 -4.24771e-05 2.57783e-19)
(-0.00459736 0.0141639 0)
(-0.0142486 0.0258061 9.67646e-20)
(-0.0261767 0.0347574 -1.75839e-19)
(-0.0402255 0.0413325 -1.61483e-19)
(-0.0561651 0.0460574 0)
(-0.0737223 0.0494793 -1.38088e-19)
(-0.0926504 0.0520502 -6.42672e-20)
(-0.112762 0.0540911 0)
(-0.133921 0.0558104 0)
(-0.156044 0.0573349 0)
(-0.179085 0.0587401 0)
(-0.203034 0.060068 -4.84023e-20)
(-0.227901 0.0613417 0)
(-0.253719 0.0625718 9.03151e-20)
(-0.280538 0.0637673 0)
(-0.30842 0.0649427 0)
(-0.337412 0.0661425 -8.62017e-20)
(-0.367566 0.0674201 0)
(-0.398877 0.0688204 8.64801e-20)
(-0.431016 0.0704317 -4.3393e-20)
(-0.464492 0.0720063 4.32376e-20)
(-0.499941 0.0734662 -4.28188e-20)
(-0.537224 0.0753668 -4.24982e-20)
(-0.575436 0.0779325 0)
(-0.613365 0.0804188 0)
(-0.651777 0.0823933 3.91152e-20)
(-0.690784 0.0839269 -3.76853e-20)
(-0.730544 0.0851739 0)
(-0.770954 0.0861389 0)
(-0.810709 0.0872331 3.35178e-20)
(-0.850236 0.0876171 0)
(-0.886386 0.0878533 0)
(-0.923949 0.0882218 -3.31352e-20)
(-0.963662 0.0878865 0)
(-1.00452 0.0891724 3.11831e-20)
(-1.04381 0.0899541 -6.03081e-20)
(-1.08301 0.0898654 0)
(-1.12219 0.0899003 0)
(-1.1599 0.0897052 -1.12237e-19)
(-1.19722 0.0892035 -1.09833e-19)
(-1.23418 0.0885266 -1.07561e-19)
(-1.27081 0.0877373 5.25551e-20)
(-1.30715 0.086865 -5.18346e-20)
(-1.34321 0.0859341 -1.5229e-19)
(-1.37902 0.084961 9.95759e-20)
(-1.41457 0.0839582 4.90546e-20)
(-1.44987 0.0829328 0)
(-1.48491 0.0818898 -4.74023e-20)
(-1.5197 0.0808307 4.6331e-20)
(-1.55421 0.0797563 0)
(-1.58845 0.0786652 0)
(-1.6224 0.077556 0)
(-1.65604 0.0764262 -4.38081e-20)
(-1.68935 0.0752738 0)
(-1.72233 0.0740958 8.47913e-20)
(-1.75495 0.0728898 0)
(-1.78719 0.0716532 8.24031e-20)
(-1.81903 0.0703841 0)
(-1.85044 0.0690801 -8.01381e-20)
(-1.8814 0.0677396 0)
(-1.91189 0.0663607 7.79743e-20)
(-1.94188 0.0649424 -3.83349e-20)
(-1.97133 0.0634835 0)
(-2.00023 0.0619837 -7.48758e-20)
(-2.02853 0.0604423 -3.70551e-20)
(-2.05623 0.0588593 -3.65565e-20)
(-2.08327 0.0572348 0)
(-2.10964 0.0555692 -3.53557e-20)
(-2.1353 0.0538629 -3.50849e-20)
(-2.16022 0.0521168 0)
(-2.18437 0.0503316 3.41151e-20)
(-2.20773 0.0485087 -6.70767e-20)
(-2.23025 0.0466494 0)
(-2.25191 0.0447556 -3.26602e-20)
(-2.27268 0.0428286 0)
(-2.29253 0.0408702 9.48944e-20)
(-2.31142 0.0388823 0)
(-2.32934 0.0368665 -9.19347e-20)
(-2.34624 0.0348244 -3.01845e-20)
(-2.3621 0.0327569 2.95665e-20)
(-2.37689 0.0306653 5.81238e-20)
(-2.39058 0.0285502 -5.71014e-20)
(-2.40315 0.0264136 0)
(-2.41456 0.0242574 0)
(-2.4248 0.0220847 0)
(-2.43384 0.0198962 1.58745e-19)
(-2.44166 0.017689 5.18165e-20)
(-2.44824 0.0154568 -5.06699e-20)
(-2.45359 0.0131909 0)
(-2.45768 0.0108832 -4.83281e-20)
(-2.46055 0.00853131 4.71057e-20)
(-2.46225 0.0061518 4.58785e-20)
(-2.46285 0.00379285 0)
(-2.46248 0.00153063 0)
(-2.46096 -0.000606719 0)
(-2.45809 -0.00266981 4.06731e-20)
(-2.45382 -0.00470407 0)
(-2.44813 -0.00672035 -7.60219e-20)
(-2.44099 -0.00872408 -1.09708e-19)
(-2.43239 -0.0107157 7.03485e-20)
(-2.42231 -0.0126933 0)
(-2.41073 -0.014656 3.23782e-20)
(-2.39764 -0.0166013 0)
(-2.38302 -0.0185294 5.83535e-20)
(-2.36686 -0.0204383 -2.77922e-20)
(-2.34915 -0.0223289 -2.62056e-20)
(-2.32988 -0.024199 0)
(-2.30903 -0.0260497 -6.79312e-20)
(-2.2866 -0.0278781 4.20548e-20)
(-2.26259 -0.0296855 1.90548e-20)
(-2.23697 -0.0314683 0)
(-2.20975 -0.0332275 1.54845e-20)
(-2.18093 -0.0349594 4.1523e-20)
(-2.15049 -0.0366646 0)
(-2.11843 -0.0383401 2.03709e-20)
(-2.08477 -0.0399877 1.65098e-20)
(-2.0495 -0.0416054 1.25736e-20)
(-2.01263 -0.0431937 0)
(-1.97416 -0.0447474 0)
(-1.9341 -0.0462655 0)
(-1.89244 -0.0477418 1.58847e-21)
(-1.84921 -0.0491784 4.57049e-21)
(-1.8044 -0.0505719 0)
(-1.75804 -0.051926 1.72851e-20)
(-1.71014 -0.053236 2.19105e-20)
(-1.66072 -0.0545067 0)
(-1.60981 -0.055726 3.242e-20)
(-1.55745 -0.0568848 7.27683e-20)
(-1.50365 -0.057986 -4.24441e-20)
(-1.44846 -0.059037 -4.55073e-20)
(-1.39192 -0.0600345 0)
(-1.33407 -0.060975 0)
(-1.27495 -0.061858 0)
(-1.21462 -0.0626837 -6.94452e-20)
(-1.15314 -0.063451 7.27998e-20)
(-1.09055 -0.0641568 1.59713e-19)
(-1.02691 -0.0647959 -8.71003e-20)
(-0.962288 -0.0653642 9.06658e-20)
(-0.896737 -0.065857 9.95235e-20)
(-0.830333 -0.0662745 0)
(-0.763153 -0.0666137 0)
(-0.695277 -0.066875 -1.16393e-19)
(-0.62679 -0.0670548 0)
(-0.557782 -0.0671537 0)
(-0.488345 -0.0671682 2.77287e-19)
(-0.418575 -0.0670997 0)
(-0.348572 -0.0669451 1.51751e-19)
(-0.278437 -0.0667085 -1.62267e-19)
(-0.208273 -0.0663863 0)
(-0.138175 -0.0659801 1.74635e-19)
(-0.0682528 -0.0654961 0)
(0.00148801 -0.0649678 0)
(0.0709689 -0.0643975 -1.94838e-19)
(0.140013 -0.0637828 3.91612e-19)
(0.208432 -0.062944 -1.99713e-19)
(0.27598 -0.0617163 0)
(0.34262 -0.0602497 0)
(0.408399 -0.0587073 2.04756e-19)
(0.473285 -0.0571425 0)
(0.537228 -0.0555759 2.09539e-19)
(0.600189 -0.0540156 0)
(0.662136 -0.0524677 0)
(0.723045 -0.0509346 0)
(0.782894 -0.0494188 2.19786e-19)
(0.841666 -0.0479187 0)
(0.899341 -0.0464311 -2.22989e-19)
(0.955893 -0.0449459 0)
(1.01128 -0.043446 0)
(1.06543 -0.0418982 4.52242e-19)
(1.11822 -0.040243 -4.54656e-19)
(1.16944 -0.0383597 0)
(1.21856 -0.0360232 0)
(1.26517 -0.0326397 0)
(1.30626 -0.0271194 1.39834e-18)
(1.34474 -0.0154537 0)
(1.36168 0.010583 -9.68937e-19)
(-0.00141855 -0.042695 -9.47471e-22)
(-0.00581743 -0.022471 7.95598e-19)
(-0.0136579 -0.00044173 0)
(-0.0237072 0.0191611 -3.20059e-19)
(-0.0351969 0.0362514 0)
(-0.0478619 0.0508246 0)
(-0.0617842 0.0629056 3.49432e-23)
(-0.0770916 0.0726609 9.95698e-20)
(-0.0938399 0.0804135 9.37069e-20)
(-0.112005 0.0865703 8.87436e-20)
(-0.131509 0.0915389 0)
(-0.152259 0.0956737 0)
(-0.174162 0.0992549 -7.68209e-20)
(-0.197148 0.102492 -1.47402e-19)
(-0.221168 0.105536 1.4195e-19)
(-0.246198 0.108501 0)
(-0.272233 0.111473 1.33389e-19)
(-0.29929 0.114518 -6.51402e-20)
(-0.327398 0.11769 0)
(-0.356593 0.121022 1.26213e-19)
(-0.386912 0.124527 6.25262e-20)
(-0.418351 0.128177 -1.24178e-19)
(-0.450855 0.13185 -6.16202e-20)
(-0.4843 0.135316 0)
(-0.518739 0.138261 1.20162e-19)
(-0.554263 0.140647 1.17846e-19)
(-0.590648 0.143181 0)
(-0.627253 0.14579 1.12098e-19)
(-0.663629 0.14815 0)
(-0.699865 0.150238 1.05131e-19)
(-0.735979 0.152075 5.09505e-20)
(-0.771931 0.15371 0)
(-0.807622 0.155187 0)
(-0.842639 0.156512 0)
(-0.876748 0.157701 0)
(-0.909595 0.157751 0)
(-0.942259 0.155464 0)
(-0.975819 0.152366 8.50804e-20)
(-1.00982 0.150437 -1.2453e-19)
(-1.0436 0.147935 0)
(-1.07741 0.145696 0)
(-1.11111 0.144151 0)
(-1.14425 0.142529 1.1646e-22)
(-1.17707 0.140876 7.45193e-20)
(-1.20964 0.139204 1.46098e-19)
(-1.24199 0.137518 -1.43419e-19)
(-1.27414 0.135814 -7.03562e-20)
(-1.30611 0.134093 6.92837e-20)
(-1.3379 0.132358 -1.55691e-22)
(-1.36952 0.130608 6.68321e-20)
(-1.40096 0.128844 0)
(-1.43223 0.127066 6.47088e-20)
(-1.46331 0.125271 -1.63018e-22)
(-1.4942 0.123456 0)
(-1.52488 0.121618 0)
(-1.55535 0.119753 -6.0888e-20)
(-1.58558 0.117857 0)
(-1.61556 0.115925 0)
(-1.64527 0.113953 5.81505e-20)
(-1.67469 0.111938 1.14999e-19)
(-1.7038 0.109875 -5.68647e-20)
(-1.73258 0.107763 0)
(-1.76101 0.105597 5.53197e-20)
(-1.78905 0.103375 0)
(-1.81669 0.101096 5.35242e-20)
(-1.8439 0.0987569 5.31005e-20)
(-1.87065 0.0963574 -1.04469e-19)
(-1.89691 0.0938966 -5.13828e-20)
(-1.92266 0.0913741 0)
(-1.94786 0.0887901 1.00259e-19)
(-1.97248 0.0861448 0)
(-1.9965 0.0834391 1.46381e-19)
(-2.01989 0.0806741 9.61315e-20)
(-2.0426 0.077851 9.47631e-20)
(-2.06462 0.0749716 -9.3395e-20)
(-2.08592 0.0720377 1.38147e-19)
(-2.10645 0.0690519 0)
(-2.12619 0.0660163 0)
(-2.14511 0.0629338 -8.78858e-20)
(-2.16317 0.0598067 -1.29821e-19)
(-2.18036 0.0566381 0)
(-2.19663 0.0534306 4.19061e-20)
(-2.21196 0.0501871 0)
(-2.22632 0.0469098 -1.21234e-19)
(-2.23969 0.0436016 -1.08735e-22)
(-2.25202 0.0402644 9.4907e-23)
(-2.26331 0.0369011 7.63277e-20)
(-2.27352 0.0335142 0)
(-2.28262 0.0301073 -7.3256e-20)
(-2.29061 0.0266831 -3.84228e-23)
(-2.29745 0.0232445 0)
(-2.30315 0.0197951 0)
(-2.30769 0.016341 0)
(-2.31107 0.012892 6.51462e-20)
(-2.31329 0.00946375 0)
(-2.31434 0.00607678 0)
(-2.3142 0.00274703 0)
(-2.31284 -0.00053637 0)
(-2.31019 -0.00380037 0)
(-2.30621 -0.00705246 5.44531e-20)
(-2.30087 -0.0102877 0)
(-2.29414 -0.0135048 5.04917e-20)
(-2.286 -0.0167031 4.85247e-20)
(-2.27645 -0.0198799 -4.65287e-20)
(-2.26545 -0.0230332 0)
(-2.25299 -0.0261594 -4.24491e-20)
(-2.23907 -0.0292569 0)
(-2.22365 -0.0323233 -3.8251e-20)
(-2.20673 -0.0353578 3.6107e-20)
(-2.1883 -0.0383587 1.02339e-19)
(-2.16834 -0.0413251 0)
(-2.14685 -0.0442553 8.90829e-20)
(-2.12382 -0.047148 2.78628e-20)
(-2.09923 -0.0500012 0)
(-2.07308 -0.0528131 4.59012e-20)
(-2.04536 -0.0555812 4.12124e-20)
(-2.01606 -0.0583032 -5.43079e-20)
(-1.98519 -0.0609762 0)
(-1.95274 -0.0635986 -1.29665e-20)
(-1.91871 -0.0661694 -1.04766e-20)
(-1.88311 -0.0686869 -2.47532e-20)
(-1.84594 -0.0711486 0)
(-1.80721 -0.0735499 0)
(-1.76691 -0.0758857 0)
(-1.72506 -0.0781519 1.45849e-21)
(-1.68165 -0.0803463 0)
(-1.63672 -0.0824675 0)
(-1.59026 -0.0845152 -1.06725e-20)
(-1.5423 -0.0864864 -1.34766e-20)
(-1.49286 -0.0883798 0)
(-1.44196 -0.0901852 0)
(-1.38965 -0.0918909 -4.42272e-20)
(-1.33593 -0.0934988 0)
(-1.28086 -0.0950121 5.61219e-20)
(-1.22448 -0.0964277 6.08356e-20)
(-1.16683 -0.0977419 0)
(-1.10795 -0.0989525 0)
(-1.0479 -0.100059 -7.93785e-20)
(-0.986742 -0.101058 -1.47624e-21)
(-0.924522 -0.101946 -1.50818e-21)
(-0.8613 -0.102716 0)
(-0.797139 -0.103361 -2.11915e-19)
(-0.732104 -0.103876 0)
(-0.66627 -0.104258 0)
(-0.599714 -0.104505 0)
(-0.53252 -0.104614 1.33854e-19)
(-0.464775 -0.104583 0)
(-0.396569 -0.104409 -2.92167e-19)
(-0.327996 -0.104091 -1.54891e-19)
(-0.259155 -0.103629 0)
(-0.190146 -0.103022 -1.69189e-19)
(-0.121066 -0.102271 0)
(-0.0520184 -0.101381 0)
(0.0169333 -0.10037 -5.65052e-19)
(0.0856768 -0.099246 3.84335e-19)
(0.154074 -0.0980021 0)
(0.222009 -0.0966254 4.01023e-19)
(0.28938 -0.0951247 -2.06256e-19)
(0.356084 -0.0935033 0)
(0.422014 -0.091737 0)
(0.487126 -0.0898255 0)
(0.551399 -0.0878222 -6.62848e-19)
(0.614784 -0.0857649 0)
(0.677234 -0.0836767 -2.29344e-19)
(0.738711 -0.0815715 0)
(0.799187 -0.0794602 0)
(0.858641 -0.0773497 0)
(0.917056 -0.0752453 0)
(0.974419 -0.0731477 0)
(1.03072 -0.0710526 0)
(1.08593 -0.0689472 -4.99368e-19)
(1.14003 -0.0668058 0)
(1.19294 -0.06458 -2.55774e-19)
(1.24457 -0.062181 7.72157e-19)
(1.29474 -0.0594392 0)
(1.34305 -0.0560317 0)
(1.38921 -0.0512545 -5.27808e-19)
(1.43136 -0.0437338 -5.34935e-19)
(1.47238 -0.0301915 5.4116e-19)
(1.50211 -0.00287475 5.5726e-19)
(-0.0071195 -0.0291392 -2.6527e-18)
(-0.0170583 -0.000686981 -9.51131e-19)
(-0.0288267 0.0242969 -3.43561e-19)
(-0.042471 0.0456405 -1.23113e-19)
(-0.0570064 0.0642498 0)
(-0.0721118 0.0804637 1.7859e-19)
(-0.0879164 0.0944262 -8.16267e-20)
(-0.104606 0.10628 0)
(-0.122318 0.116242 -7.20846e-20)
(-0.141129 0.124603 0)
(-0.161065 0.131681 1.31294e-19)
(-0.182112 0.137789 0)
(-0.204235 0.1432 6.06319e-20)
(-0.227392 0.148142 1.1701e-19)
(-0.25154 0.152796 -1.13222e-19)
(-0.276645 0.157302 0)
(-0.302677 0.161767 -1.07004e-19)
(-0.329605 0.166268 0)
(-0.3574 0.170849 0)
(-0.386021 0.175511 -1.00763e-19)
(-0.415415 0.180206 0)
(-0.445501 0.184816 -6.76492e-24)
(-0.476179 0.189161 0)
(-0.507364 0.193023 0)
(-0.539007 0.196241 -1.01312e-22)
(-0.571049 0.1988 -9.06948e-20)
(-0.603383 0.200922 -8.82044e-20)
(-0.635775 0.202728 -8.59329e-20)
(-0.668048 0.204219 0)
(-0.700115 0.205401 -1.61888e-19)
(-0.731912 0.206288 0)
(-0.763369 0.206885 -7.62575e-20)
(-0.794421 0.207195 0)
(-0.824997 0.207226 0)
(-0.855041 0.206866 7.0566e-20)
(-0.884635 0.205792 0)
(-0.914117 0.203854 -6.73971e-20)
(-0.94376 0.201429 -5.19429e-23)
(-0.973513 0.199008 1.29019e-19)
(-1.00324 0.196407 -1.26203e-19)
(-1.03297 0.193843 0)
(-1.06261 0.191458 0)
(-1.09207 0.189107 -5.93815e-20)
(-1.12139 0.186769 0)
(-1.1506 0.184446 -5.72847e-20)
(-1.1797 0.182135 5.62741e-20)
(-1.20869 0.179832 5.53073e-20)
(-1.23757 0.177531 0)
(-1.26636 0.175227 -5.34904e-20)
(-1.29503 0.172916 -5.26341e-20)
(-1.3236 0.170592 1.03487e-19)
(-1.35204 0.168251 -5.10125e-20)
(-1.38035 0.165887 -5.02426e-20)
(-1.40853 0.163494 0)
(-1.43655 0.161067 0)
(-1.4644 0.158599 4.80717e-20)
(-1.49207 0.156085 0)
(-1.51953 0.15352 0)