/*--------------------------------*- C++ -*----------------------------------*\
| =========                 |                                                 |
| \\      /  F ield         | OpenFOAM: The Open Source CFD Toolbox           |
|  \\    /   O peration     | Version:  2312                                  |
|   \\  /    A nd           | Website:  www.openfoam.com                      |
|    \\/     M anipulation  |                                                 |
\*---------------------------------------------------------------------------*/
FoamFile
{
    version     2.0;
    format      ascii;
    arch        "LSB;label=64;scalar=64";
    class       volScalarField;
    location    "200";
    object      p;
}
// * * * * * * * * * * * * * * * * * * * * * * * * * * * * * * * * * * * * * //

dimensions      [0 2 -2 0 0 0 0];

internalField   nonuniform List<scalar> 
404911
(
0.0486848
0.0486817
0.0487144
0.0486909
0.0486559
0.0486684
0.0486871
0.048692
0.048691
0.0486911
0.0491925
0.0488983
0.0487742
0.04875
0.0487137
0.0487006
0.0493392
0.0491708
0.0489881
0.0489052
0.049599
0.0494494
0.0492146
0.0499885
0.0497871
0.0494397
0.0503353
0.0501842
0.0500784
0.0507894
0.0506624
0.0505078
0.0503071
0.0502438
0.0508717
0.0507839
0.0506079
0.0513954
0.0512219
0.051047
0.0508628
0.0515579
0.0514849
0.0513712
0.0512364
0.0510064
0.0516628
0.0515848
0.0514708
0.0513855
0.0519076
0.0518127
0.051656
0.051591
0.0519257
0.0519171
0.0539591
0.0484674
0.0484765
0.0484758
0.0490033
0.0487966
0.0493369
0.0491664
0.0490181
0.0496415
0.0494334
0.0492265
0.0500317
0.0497357
0.0503415
0.0500693
0.050076
0.050648
0.0504811
0.0502037
0.0501219
0.0508283
0.0507353
0.0512795
0.0510615
0.0514973
0.0513091
0.0513037
0.0516961
0.051615
0.0519705
0.0517567
0.0516271
0.0519707
0.0519836
0.0538389
0.0539362
0.053821
0.0543958
0.0541938
0.0540861
0.0546486
0.0544679
0.054252
0.0548835
0.054834
0.0546874
0.0548523
0.0199749
0.0197716
0.0195853
0.021074
0.0208814
0.0204416
0.0203856
0.0201113
0.019917
0.0197637
0.0194702
0.0217021
0.0214658
0.02094
0.0206393
0.0203851
0.0202325
0.0200148
0.0198427
0.0189421
0.0224325
0.0221972
0.0220219
0.0218114
0.0216286
0.0214857
0.0211502
0.020798
0.0205073
0.0203412
0.02016
0.0199282
0.0195268
0.0190844
0.018981
0.0189099
0.0230127
0.0227545
0.0225219
0.022286
0.0220802
0.0218901
0.02171
0.0215335
0.0213002
0.0210125
0.0207552
0.0204827
0.0203045
0.0200637
0.0189549
0.0237412
0.0234072
0.0231277
0.0228257
0.0225529
0.0223491
0.0221435
0.0219498
0.021764
0.0215918
0.02134
0.0210994
0.0208971
0.0206532
0.0205114
0.0241602
0.0239427
0.0235777
0.0232773
0.0229926
0.0226625
0.0224409
0.0222023
0.0220203
0.0218657
0.0216667
0.0214759
0.0212258
0.0210028
0.0207892
0.0206535
0.0249909
0.0246384
0.0242973
0.0240552
0.0236579
0.0234516
0.0231606
0.0227494
0.0225078
0.0222802
0.0221224
0.0219432
0.0217495
0.0215472
0.0213272
0.0211092
0.0209164
0.0260157
0.0257324
0.0254694
0.025135
0.0247916
0.0244846
0.0242257
0.0239062
0.0236225
0.0233011
0.0228648
0.022638
0.022415
0.0222431
0.0220612
0.0218406
0.0216489
0.0214451
0.0265464
0.0262819
0.0258992
0.0256126
0.0252956
0.0249597
0.0246911
0.0243648
0.0240638
0.0237427
0.0234402
0.0230562
0.0227369
0.0225458
0.0223739
0.0221526
0.0219693
0.0217584
0.0272542
0.0270097
0.0267565
0.026473
0.0261257
0.0258023
0.0254903
0.0251516
0.0248431
0.0245208
0.0242214
0.0239141
0.023606
0.0232396
0.0228973
0.0226666
0.0225024
0.0223097
0.0277095
0.0274554
0.0271851
0.026941
0.0266502
0.0263169
0.0260139
0.0256838
0.0253505
0.0250514
0.0247229
0.0244117
0.0240677
0.0237558
0.0235035
0.0231196
0.0227576
0.0283444
0.0281096
0.0278085
0.0276103
0.0273785
0.0271136
0.0268149
0.0265086
0.026203
0.0258669
0.0255465
0.0252192
0.0249
0.0245939
0.0242414
0.0239139
0.0236818
0.0289502
0.028695
0.0284466
0.0283307
0.0280856
0.0278328
0.0275575
0.0273122
0.027031
0.0267422
0.0264283
0.0260519
0.0257059
0.0253688
0.0251006
0.0247494
0.0244019
0.0241152
0.0297848
0.0295288
0.0291335
0.0288357
0.0285878
0.0284942
0.0282412
0.0279993
0.0277292
0.0274926
0.0272764
0.0269526
0.0265971
0.026231
0.0258533
0.0254869
0.0252719
0.0250296
0.0303052
0.0301449
0.0299718
0.0298143
0.0294237
0.029041
0.0287759
0.0286476
0.0284614
0.0281982
0.0278872
0.0276608
0.027508
0.0271755
0.0267484
0.0263695
0.0260419
0.0256789
0.0306349
0.0304348
0.0302593
0.0300918
0.0299257
0.0296745
0.0293036
0.0290209
0.0287808
0.0286052
0.0282991
0.0279849
0.0278006
0.0276742
0.0273588
0.0268893
0.0264936
0.0261805
0.0311908
0.0309772
0.0307003
0.03054
0.0303691
0.0301547
0.029985
0.0297617
0.0295219
0.0292425
0.0289775
0.0287866
0.0284708
0.0281312
0.0279006
0.0277778
0.0274989
0.027064
0.0315732
0.0313202
0.0311085
0.0308792
0.030655
0.0304604
0.0302559
0.0300347
0.0298201
0.0296652
0.0294881
0.0292088
0.0289494
0.0286577
0.0283128
0.0280577
0.0278941
0.0276889
0.0324366
0.0321915
0.031777
0.0314662
0.0312839
0.0310442
0.0308146
0.0305826
0.0303856
0.0301231
0.0298886
0.0297626
0.0296263
0.0294651
0.0292225
0.028913
0.0285378
0.0282215
0.0328389
0.032651
0.0324653
0.0321033
0.0317565
0.0315105
0.0312876
0.0310678
0.0307793
0.0305612
0.0302254
0.0300228
0.0298724
0.0297227
0.0295527
0.0293559
0.0290673
0.0333095
0.0331245
0.0329434
0.0327891
0.0326438
0.0323038
0.0320175
0.031723
0.0314953
0.0312041
0.0309316
0.0307256
0.0304179
0.0301775
0.0300225
0.0298479
0.0296711
0.0294626
0.0336482
0.0334455
0.0332665
0.0330707
0.0329114
0.0327456
0.0324946
0.0322302
0.0319835
0.0317626
0.0314894
0.0311703
0.0308703
0.030574
0.0303261
0.0301464
0.0299721
0.0297867
0.0339538
0.0337819
0.0336
0.033418
0.0331971
0.032986
0.0328274
0.0326103
0.0323772
0.0321826
0.0319905
0.0317364
0.0313608
0.031062
0.0307588
0.0305909
0.0303135
0.0301368
0.0344664
0.0342645
0.03409
0.0339223
0.0337538
0.0336022
0.0333498
0.0331241
0.0329073
0.0326647
0.0324441
0.0322966
0.0321243
0.0319401
0.0315989
0.0312538
0.0309596
0.0306974
0.0349367
0.0347648
0.0345933
0.0344115
0.0342451
0.0340678
0.0338899
0.0337188
0.03353
0.0332849
0.0330313
0.0327891
0.0325279
0.0323843
0.0322101
0.0320123
0.0317041
0.0314494
0.0352633
0.0350655
0.0348948
0.0347241
0.0345485
0.0343926
0.0342443
0.0340525
0.0338686
0.0336486
0.0334128
0.033167
0.0329512
0.032687
0.032503
0.0323288
0.0321414
0.0318704
0.0357417
0.035557
0.0353799
0.0352003
0.0350085
0.0348473
0.0346888
0.0345392
0.034412
0.0342668
0.034037
0.0337955
0.0335547
0.0333488
0.0331192
0.0328449
0.0325519
0.0324797
0.0360424
0.0358645
0.0356841
0.0355063
0.0353149
0.0351335
0.0349707
0.0348133
0.0346676
0.0345423
0.0344326
0.0342139
0.0339778
0.0337171
0.0334636
0.0333058
0.0330526
0.0328136
0.0363729
0.0361713
0.0359681
0.0357922
0.0356191
0.0354213
0.0352367
0.0350834
0.0349331
0.0347851
0.0346429
0.034494
0.0343109
0.0340885
0.0338484
0.0336296
0.0334238
0.0331808
0.0367639
0.036538
0.0363028
0.0360736
0.0359367
0.0357611
0.0355482
0.0353151
0.0351821
0.0350442
0.0348977
0.0347451
0.0345799
0.0343909
0.0341834
0.0339743
0.0337503
0.0335773
0.0372109
0.0370793
0.036947
0.0367453
0.0364999
0.036278
0.0361142
0.0359419
0.0357177
0.0354425
0.0352982
0.0351645
0.0350182
0.0348567
0.0346845
0.0344986
0.0343085
0.0340684
0.037577
0.037372
0.0371956
0.0370481
0.0368588
0.0366337
0.0364421
0.0362959
0.0361719
0.0359564
0.0356466
0.0354444
0.0353061
0.0351559
0.0349794
0.0348107
0.0346358
0.0344493
0.0379152
0.0377255
0.0375259
0.037342
0.0371219
0.0369059
0.0367119
0.0365549
0.0364123
0.0362858
0.0361075
0.0358671
0.035638
0.0354623
0.0352937
0.0351317
0.0349718
0.0348041
0.0382088
0.0380455
0.0378712
0.0376641
0.0375028
0.0372717
0.0370355
0.0367666
0.0366452
0.0365092
0.0363698
0.0362091
0.0360064
0.0358132
0.0356162
0.0354322
0.0352632
0.0387868
0.0385614
0.0383746
0.0381959
0.0379987
0.0378101
0.0376657
0.0374291
0.0371641
0.0368915
0.0367477
0.0366176
0.0364787
0.0363179
0.0361345
0.0359479
0.0357594
0.035565
0.0391253
0.0389304
0.038735
0.0385439
0.0383312
0.0381162
0.0379115
0.0377563
0.0375833
0.0373575
0.0371012
0.0368371
0.0367379
0.0365997
0.0364436
0.036273
0.0360886
0.0359233
0.0394164
0.0392547
0.0390809
0.0388992
0.038727
0.0385187
0.0383177
0.0380353
0.0378745
0.0377367
0.0375362
0.0372367
0.0370172
0.0368813
0.0367381
0.0365895
0.0364367
0.036265
0.0398862
0.0397033
0.039552
0.0393981
0.0392403
0.0390906
0.0389572
0.0387011
0.0384991
0.0382327
0.0379997
0.0378569
0.0377089
0.0374747
0.0372301
0.037047
0.0368876
0.0367274
0.0401604
0.0399959
0.0398516
0.0396969
0.0395469
0.0393986
0.0392611
0.0391479
0.0389445
0.0387012
0.0384183
0.038184
0.0379463
0.0378542
0.0376805
0.0374317
0.0372229
0.0370194
0.040484
0.0403018
0.0401384
0.039987
0.039831
0.0396863
0.0395428
0.0394068
0.0392898
0.0391519
0.0388432
0.0386373
0.0383252
0.038103
0.0379715
0.0378087
0.0376072
0.0374172
0.0407514
0.040621
0.0404495
0.0402853
0.0401271
0.0399698
0.0398252
0.0396817
0.0395247
0.0393752
0.0392422
0.0390713
0.0388108
0.0385225
0.0382967
0.0381192
0.0379626
0.0377665
0.041113
0.0409502
0.0407575
0.0405921
0.0404161
0.0402589
0.0401091
0.0399744
0.0398392
0.0396646
0.0394838
0.0393088
0.0391532
0.0389717
0.0387006
0.0384911
0.0382902
0.0415859
0.0414042
0.0412476
0.041068
0.0408769
0.040716
0.0405394
0.0403819
0.0402422
0.0401193
0.0400143
0.0398478
0.0396768
0.0394261
0.0392676
0.0391017
0.0388894
0.0386865
0.0418613
0.0417018
0.0415508
0.041391
0.0412194
0.0410423
0.0408511
0.0406468
0.0404802
0.0403616
0.0402541
0.0401638
0.0401036
0.0398488
0.0396169
0.0393962
0.0392361
0.0390547
0.0421779
0.0420084
0.0418471
0.0416974
0.0415272
0.0413758
0.0412291
0.0410379
0.0408488
0.0405974
0.0404695
0.040376
0.040274
0.0401677
0.0400029
0.0397761
0.0395702
0.0393906
0.0424742
0.0423083
0.0421524
0.0419844
0.0418278
0.0416619
0.0415198
0.0413964
0.0412808
0.041124
0.0408068
0.0406216
0.0405102
0.0403903
0.0402586
0.0400894
0.0399124
0.0397284
0.042821
0.042619
0.0424483
0.0422856
0.0421126
0.041944
0.0417808
0.0416386
0.0415098
0.0413932
0.0412236
0.0410111
0.0408103
0.0406623
0.0405194
0.0403658
0.0402076
0.0400272
0.0431635
0.042964
0.0427703
0.0425887
0.0424092
0.0422287
0.0420519
0.0418832
0.0417345
0.0416024
0.0414716
0.0413222
0.0411487
0.0409691
0.0408092
0.0406523
0.0404987
0.0403273
0.0435353
0.0433154
0.0430895
0.0428948
0.0427041
0.0425231
0.042342
0.0421505
0.0419708
0.041816
0.0416949
0.0415677
0.0414328
0.0412744
0.0411109
0.0409558
0.0407943
0.0406144
0.0438671
0.0436927
0.0435025
0.0432415
0.0429857
0.0428042
0.0426311
0.0424743
0.042292
0.0420542
0.0418709
0.0417823
0.0416818
0.0415573
0.041409
0.0412505
0.0410917
0.040954
0.0443587
0.0442016
0.0440339
0.0438918
0.0437338
0.0434153
0.0431504
0.0429822
0.0427434
0.0426185
0.0423963
0.0422606
0.0420282
0.0419091
0.0418133
0.0416935
0.0415466
0.0414008
0.0412381
0.0446546
0.0445213
0.044374
0.044214
0.0440724
0.0439669
0.0437522
0.0435141
0.0432027
0.0429402
0.0428072
0.0426398
0.0424616
0.0422434
0.0420904
0.0419736
0.0418381
0.0416953
0.0448082
0.0446592
0.0445132
0.0443577
0.0442276
0.0441165
0.0439807
0.043759
0.0434778
0.0432526
0.0429784
0.042803
0.0426923
0.0425021
0.0422919
0.0421316
0.0419849
0.0452708
0.0451183
0.0449708
0.0448101
0.0446534
0.0444968
0.0443578
0.0442447
0.0441332
0.0438946
0.0436929
0.0434251
0.0431911
0.0429865
0.042825
0.0426627
0.0424825
0.0423021
0.0456012
0.0454123
0.0452746
0.0451201
0.0449577
0.0447952
0.0446274
0.0444677
0.0443476
0.044257
0.0440754
0.0438551
0.043593
0.0433399
0.0431698
0.0429965
0.0428253
0.0426257
0.0458184
0.045719
0.0455744
0.0454189
0.0452672
0.0451165
0.0449634
0.0447731
0.0445688
0.0444153
0.0443561
0.0442221
0.044025
0.0437708
0.0435269
0.0433392
0.0431701
0.0430097
0.0459891
0.0458465
0.0457047
0.045558
0.045413
0.0452728
0.0451475
0.0449803
0.0447441
0.0445266
0.0444426
0.0443552
0.0441692
0.0439231
0.0437178
0.0435214
0.0433488
0.0463735
0.0461278
0.0459513
0.0458405
0.0457023
0.0455522
0.0454117
0.0453005
0.0451625
0.0449556
0.0446953
0.044546
0.0444418
0.0442744
0.0440779
0.0438892
0.0437015
0.047225
0.0469322
0.0466319
0.0463422
0.0461585
0.0460064
0.0458562
0.0456805
0.0455219
0.0454091
0.045319
0.0451129
0.0448494
0.0446915
0.0445584
0.0444038
0.0442169
0.0440316
0.0475641
0.0473764
0.0471318
0.0468382
0.0465189
0.0463386
0.0461873
0.0460384
0.0458551
0.0456941
0.0455008
0.0454336
0.0452483
0.0450184
0.0448435
0.0446814
0.0445496
0.0478419
0.0476948
0.047481
0.0472512
0.046991
0.0466878
0.0464666
0.0463438
0.0462205
0.0460033
0.0458563
0.0456726
0.0455307
0.0454089
0.0451957
0.044997
0.0448265
0.0483631
0.0481737
0.0480097
0.0478423
0.0476135
0.0474105
0.0471587
0.046856
0.0466554
0.0464945
0.0463426
0.0462321
0.0460339
0.0458391
0.0456778
0.0455297
0.0453475
0.0451627
0.0486923
0.0485003
0.0483
0.0481602
0.0480037
0.0478413
0.0476532
0.0473879
0.0471104
0.0469521
0.0466698
0.0465289
0.0463422
0.0461537
0.0460019
0.0458436
0.045689
0.0455197
0.0490545
0.0488237
0.0486845
0.0484482
0.0483531
0.0482192
0.0482058
0.0480851
0.0478189
0.0473988
0.0471458
0.0469518
0.046752
0.0465128
0.0462642
0.0461204
0.0459929
0.0458423
0.0495074
0.049283
0.0490348
0.0488335
0.0486781
0.0485468
0.0484784
0.0483122
0.0481788
0.0480841
0.0477278
0.0474485
0.0472414
0.0470098
0.0467632
0.046498
0.0463145
0.0461699
0.0500575
0.0498761
0.0496763
0.0494544
0.0492471
0.0490526
0.0489095
0.0488277
0.0488469
0.0485643
0.0483456
0.0481503
0.0479303
0.0476905
0.0474869
0.0473045
0.0470215
0.0467322
0.046523
0.0503433
0.0501905
0.0500309
0.0498591
0.0496571
0.0494447
0.0492714
0.0491295
0.0490725
0.0487933
0.0486015
0.0484187
0.0482448
0.0480731
0.0478596
0.0476433
0.0474701
0.0472222
0.0469846
0.0504662
0.0503339
0.0501587
0.0500003
0.0498157
0.0496421
0.0493795
0.0492103
0.0490683
0.0488525
0.048684
0.0485177
0.0483569
0.0481808
0.0479779
0.0477896
0.0475976
0.0474089
0.0508885
0.0506975
0.0505084
0.0503228
0.0501632
0.0500635
0.0498666
0.0495953
0.0493284
0.0491482
0.0489496
0.048788
0.0486461
0.0484807
0.0482985
0.0481126
0.0479184
0.0512776
0.051079
0.050891
0.0506901
0.0504957
0.0503192
0.050022
0.0500471
0.0497526
0.0495141
0.0492779
0.0490981
0.0489397
0.0487907
0.0486206
0.0484459
0.0482293
0.0516983
0.0514663
0.0512629
0.0510596
0.0508435
0.0505893
0.0504071
0.0501819
0.0500976
0.0499434
0.0496701
0.0494539
0.0492748
0.04911
0.0489451
0.0487734
0.0485875
0.0522336
0.0520529
0.0518703
0.0516341
0.0514257
0.0511955
0.0509371
0.0507516
0.0506198
0.0504581
0.0502806
0.0500862
0.0498292
0.049621
0.049445
0.0492748
0.0491011
0.0489499
0.0526496
0.0524485
0.0522178
0.0520249
0.0517909
0.0515504
0.0514095
0.0513569
0.0509661
0.0508025
0.0506283
0.0504634
0.050269
0.0500024
0.0497988
0.0496148
0.0494371
0.053036
0.0528354
0.0526132
0.0523891
0.0521299
0.0518683
0.0515576
0.0513983
0.0513098
0.0511569
0.0509761
0.0507952
0.0506332
0.050443
0.0502167
0.049993
0.0498021
0.0534004
0.0532135
0.0530332
0.0527958
0.0524992
0.0521518
0.0519493
0.0518367
0.0516098
0.0514874
0.0513335
0.0511557
0.0509525
0.0507745
0.0505881
0.0503832
0.0501838
0.0538384
0.0536099
0.053391
0.0531846
0.0529077
0.0525822
0.0522673
0.0521291
0.0518882
0.051779
0.0516661
0.051507
0.0513295
0.0511446
0.0509408
0.0507623
0.0505553
0.054198
0.0540359
0.0538142
0.0535832
0.0533613
0.0530954
0.0527243
0.0520886
0.0521938
0.0521372
0.0520354
0.0518631
0.0516757
0.051496
0.0513054
0.0511067
0.0509203
0.0545549
0.0543676
0.0542004
0.0540424
0.0538086
0.0536768
0.0534354
0.0530144
0.0527161
0.0525109
0.0523679
0.0522392
0.0520707
0.0518537
0.0516719
0.0514834
0.051277
0.0547117
0.0545223
0.0543542
0.0541499
0.0539807
0.0538033
0.0536733
0.0533591
0.0530062
0.0527531
0.0525712
0.0524038
0.0522209
0.0520248
0.051862
0.051651
0.0553332
0.0550058
0.0547229
0.054551
0.0543664
0.0541948
0.0540831
0.0537501
0.0534841
0.0532121
0.0529456
0.0527306
0.0525712
0.0523776
0.0521889
0.0561491
0.0559517
0.0556352
0.0552957
0.0549387
0.0547827
0.0545536
0.0542966
0.0541651
0.0538879
0.0536118
0.0533572
0.0531636
0.0529379
0.052742
0.0525583
0.0565379
0.0563565
0.0561719
0.0558785
0.0555467
0.0551385
0.0547982
0.0548617
0.0545217
0.0543352
0.0540824
0.0537889
0.0534437
0.0532901
0.0531107
0.0529204
0.0569835
0.0567825
0.056579
0.0563101
0.0560248
0.0557191
0.0553698
0.0552146
0.0549463
0.0547395
0.0545477
0.0543162
0.0539965
0.0536869
0.053464
0.0532905
0.0576285
0.0574048
0.0571854
0.056981
0.0568272
0.0565405
0.0562628
0.056021
0.0557859
0.0555464
0.0552821
0.0549692
0.0547052
0.0544986
0.0542553
0.0539736
0.057991
0.0577665
0.0575982
0.0574217
0.0572022
0.0570166
0.056723
0.0564437
0.0561992
0.0560309
0.0557833
0.0555241
0.0552166
0.0549455
0.0547523
0.0545292
0.0584525
0.0581777
0.0579279
0.0577509
0.0575909
0.0573698
0.0571845
0.0569523
0.0566529
0.0564671
0.0562994
0.0561134
0.0558588
0.0555172
0.0552147
0.0549351
0.0589702
0.0586484
0.0582967
0.0580608
0.0578959
0.0577401
0.0575441
0.0572756
0.057068
0.056847
0.0566772
0.0565376
0.0563696
0.0561577
0.0558
0.0554817
0.0595047
0.0591358
0.0588608
0.0585757
0.0582741
0.0581043
0.0579024
0.0577123
0.0574162
0.0572177
0.0570093
0.0568152
0.0567242
0.0565832
0.0563481
0.056104
0.0599808
0.0597314
0.0594331
0.059159
0.0588861
0.0586483
0.0583744
0.058133
0.0579437
0.0576224
0.0573636
0.0571948
0.0570572
0.0568666
0.0567078
0.0604498
0.0602538
0.0599852
0.0596971
0.0593816
0.0591157
0.058885
0.0586607
0.0584104
0.0581611
0.0579006
0.0575638
0.0573492
0.0572151
0.0570666
0.0568654
0.0608478
0.0606498
0.0604656
0.0602699
0.0599463
0.0596136
0.0593563
0.0590888
0.0589143
0.05866
0.0584222
0.0581888
0.057852
0.0575957
0.0574306
0.0572633
0.0612063
0.0610455
0.0608362
0.0606338
0.0604087
0.0601231
0.0598658
0.0596244
0.0593619
0.0591374
0.0589105
0.0586889
0.0584849
0.0581791
0.0578713
0.0614605
0.0612113
0.0610386
0.0608639
0.060622
0.0603267
0.0600597
0.0598471
0.0596228
0.0593968
0.0591179
0.0589186
0.058667
0.0584183
0.062244
0.0618363
0.0615246
0.0613155
0.0610668
0.0608109
0.0605301
0.0603127
0.0600666
0.0598684
0.0596372
0.0593476
0.0591271
0.0628769
0.0626926
0.0624154
0.0621431
0.0618516
0.0615639
0.061293
0.0610477
0.0607887
0.0605402
0.060277
0.0600305
0.0598209
0.0595328
0.0632562
0.0630348
0.0628618
0.0626233
0.0623847
0.0620611
0.0618228
0.061498
0.0612425
0.0609929
0.0607168
0.0604714
0.060246
0.0600245
0.0636869
0.0634621
0.0632261
0.0629732
0.062813
0.0625683
0.0623058
0.0620137
0.061746
0.0615037
0.0611772
0.0609145
0.0606886
0.0604846
0.0640481
0.0638931
0.0636723
0.0634412
0.0632235
0.0629657
0.0627847
0.0625252
0.0622296
0.0619543
0.0617245
0.0613967
0.0611509
0.0609302
0.0644168
0.0642396
0.0640809
0.0639132
0.063734
0.0635503
0.0632241
0.062978
0.0627027
0.0624025
0.0621408
0.0619279
0.0616714
0.0613928
0.0647504
0.0645489
0.064378
0.0642832
0.0641401
0.0638712
0.0636936
0.0635001
0.063251
0.0629362
0.0625605
0.0623148
0.0621217
0.0644601
0.064389
0.0641902
0.0638742
0.0637259
0.0635211
0.0631718
0.0627293
0.0624738
0.0646534
0.0645934
0.0643988
0.0641042
0.0639078
0.0637369
0.0634713
0.063082
0.065078
0.0648365
0.0647759
0.0647038
0.0644226
0.0641006
0.0639063
0.065764
0.0654789
0.0651172
0.0649595
0.0648568
0.0646276
0.0643404
0.0657807
0.0655189
0.0652602
0.0650561
0.0648587
0.066696
0.0663214
0.0658175
0.0658078
0.0655343
0.0653069
0.0687148
0.0685216
0.0674779
0.0670551
0.0659106
0.0687638
0.0684947
0.0682658
0.0680169
0.0678386
0.0663114
0.0691315
0.0681436
0.0678019
0.0676714
0.0672828
0.0693452
0.0687232
0.0681962
0.00518848
0.00497343
0.00482986
0.00685083
0.00649792
0.00617979
0.00591057
0.00559829
0.00529547
0.00501817
0.0048572
0.0036046
0.00823195
0.00793039
0.00754676
0.00726515
0.0069322
0.00659972
0.00629972
0.00599262
0.00567623
0.00537018
0.00503584
0.004801
0.00450161
0.00409714
0.00380037
0.00928398
0.00896481
0.00868049
0.00833405
0.00804107
0.00765769
0.00733854
0.00704049
0.00671483
0.00639273
0.00607547
0.00571102
0.005396
0.00508199
0.00478057
0.00451252
0.0041751
0.00380136
0.00356522
0.00308596
0.00257597
0.00226837
0.0104046
0.0101414
0.00976845
0.00943129
0.00906264
0.00875483
0.0084434
0.008096
0.00775678
0.00742398
0.00711893
0.00681569
0.0065023
0.00619154
0.00583097
0.00549959
0.00505958
0.00481266
0.0045466
0.00421796
0.00389849
0.00353716
0.00312299
0.0116656
0.0112892
0.0110031
0.0106004
0.010281
0.00985564
0.00949973
0.00916163
0.00886467
0.00854395
0.00818466
0.00782475
0.00747659
0.0071833
0.00684789
0.00662183
0.00636347
0.00607553
0.00548021
0.00510047
0.00483426
0.0045907
0.0042746
0.00397663
0.00363394
0.0124241
0.0120281
0.0118069
0.0114791
0.0111446
0.0106729
0.010382
0.0099399
0.00956212
0.00924105
0.00897535
0.00866664
0.00832709
0.00786447
0.00748854
0.00722882
0.00694995
0.00671753
0.00647874
0.00612535
0.00554481
0.00517779
0.00491853
0.00465535
0.00434496
0.0134598
0.0129863
0.0125127
0.0122528
0.0119297
0.011565
0.0112892
0.0110611
0.0106675
0.0101369
0.00966333
0.00931802
0.00909913
0.00881284
0.00860847
0.00800078
0.00750612
0.00727291
0.00701525
0.00676714
0.00650054
0.00621725
0.00568813
0.00531044
0.00501927
0.0144642
0.0140799
0.0136137
0.0130939
0.0126782
0.0124193
0.0121089
0.0117825
0.0114024
0.0112203
0.0109079
0.0104069
0.00988169
0.00945016
0.0092144
0.00900196
0.008792
0.00820814
0.00758836
0.00731777
0.0070771
0.00679178
0.00651615
0.00618024
0.00579839
0.0160662
0.0156918
0.0151104
0.0146852
0.0142019
0.0136901
0.0132427
0.0128603
0.0125727
0.0122877
0.0118946
0.0115466
0.0113552
0.0111233
0.0106952
0.0102255
0.0097178
0.00931492
0.00906402
0.00885768
0.00833849
0.00773862
0.00741045
0.0071545
0.00685501
0.0065255
0.017032
0.0167501
0.0164728
0.0161934
0.015835
0.0153339
0.0148666
0.0143347
0.0138103
0.0134782
0.0130881
0.0127327
0.0123396
0.0119459
0.0116499
0.0114302
0.0111886
0.0108695
0.0104825
0.00994281
0.009505
0.00917165
0.00876085
0.00829248
0.00794498
0.00752044
0.00725004
0.0174218
0.0171707
0.0168824
0.0166188
0.0162807
0.0159237
0.0154832
0.0150466
0.0146032
0.0141294
0.0137003
0.0132628
0.012859
0.0124378
0.0119936
0.011764
0.011532
0.0112761
0.0109863
0.0106842
0.0102942
0.00974054
0.00937407
0.00891064
0.00837015
0.0190022
0.0186584
0.0182052
0.0177483
0.0173977
0.0170052
0.0167652
0.0164675
0.015988
0.0156131
0.0152138
0.0147841
0.0143533
0.013862
0.0134467
0.0130448
0.0125512
0.0120988
0.0118723
0.0116453
0.011385
0.0111471
0.0108934
0.010556
0.0100689
0.019477
0.019119
0.01884
0.0184772
0.018037
0.0175465
0.01723
0.0169556
0.016562
0.0161887
0.0157343
0.0153963
0.0149824
0.0145532
0.014032
0.0136112
0.0131505
0.0126861
0.0122535
0.0119815
0.0117548
0.0115313
0.0112974
0.0110452
0.0204755
0.0203181
0.020036
0.0196648
0.0192664
0.0190198
0.0187397
0.0183284
0.0179372
0.017471
0.0171615
0.0167948
0.0164037
0.0160868
0.0156333
0.0151766
0.014725
0.0142513
0.0137825
0.0133075
0.0128285
0.0124123
0.0121351
0.0118839
0.0116254
0.0210962
0.0208156
0.0205889
0.0204205
0.0202329
0.0198017
0.0195281
0.0192899
0.019007
0.0186897
0.0181929
0.0177578
0.0174203
0.0170278
0.0166581
0.0162888
0.0158744
0.0154292
0.0149729
0.0145247
0.0140023
0.0133997
0.0128517
0.0125616
0.0122193
0.0216565
0.0214227
0.021197
0.0209444
0.0206914
0.0204756
0.0202812
0.0199895
0.0197618
0.0195559
0.0192997
0.0189474
0.0184565
0.0180787
0.0175939
0.017268
0.0169053
0.0165677
0.0161395
0.0157065
0.015287
0.0147998
0.0143023
0.0136849
0.0130624
0.0224367
0.0222056
0.0219989
0.0217828
0.0215646
0.0213521
0.0210559
0.0208281
0.0205213
0.0203412
0.0201182
0.0199168
0.0197221
0.0194348
0.0191574
0.0187362
0.0182849
0.0178521
0.0175534
0.0171469
0.0167916
0.0163847
0.0159457
0.0155145
0.0150736
0.014603
0.0230713
0.0228873
0.022586
0.0223425
0.0221266
0.021894
0.0216918
0.021477
0.0212305
0.0209522
0.0206764
0.0204208
0.0202278
0.02003
0.0198569
0.0195463
0.0191434
0.0189043
0.0185417
0.0181925
0.0178627
0.017407
0.0170242
0.0166015
0.0161987
0.0157672
0.0238593
0.0235214
0.023196
0.0229546
0.0227086
0.0224306
0.0221923
0.0219941
0.0218018
0.0216086
0.02131
0.0210365
0.0208626
0.0205537
0.0203473
0.0201434
0.0198987
0.0195581
0.0191474
0.0189366
0.0187325
0.0182943
0.01806
0.0177859
0.0172942
0.0168481
0.016451
0.0244413
0.024227
0.0239429
0.0236408
0.0233255
0.0230273
0.0227574
0.0225142
0.0222876
0.022086
0.021892
0.0217026
0.0215074
0.0211937
0.0209147
0.0207128
0.0204927
0.0202941
0.0200126
0.0196018
0.0191805
0.0189271
0.0186836
0.0184011
0.0181674
0.0179587
0.0176777
0.0249308
0.024622
0.0243477
0.0240685
0.0237524
0.023417
0.0231168
0.0228329
0.0225649
0.0223417
0.0221482
0.0219631
0.0217772
0.0215811
0.0213529
0.0210991
0.0208697
0.0206683
0.0204898
0.0202749
0.0197996
0.0193169
0.0189966
0.0187706
0.0185035
0.0182429
0.0257317
0.0253657
0.0250674
0.0247684
0.0244671
0.0241914
0.0238198
0.023585
0.0233111
0.0229903
0.0227183
0.0224359
0.022199
0.0220329
0.0218535
0.0216565
0.0214426
0.0212153
0.0209971
0.0208009
0.0206622
0.0203727
0.0198817
0.0194584
0.0191506
0.0188815
0.0264285
0.0261383
0.0258648
0.0255673
0.025245
0.0249386
0.0246459
0.024281
0.0239969
0.0237269
0.0233883
0.0230765
0.0227341
0.0225444
0.0222933
0.0221175
0.021941
0.0217465
0.0215355
0.0213185
0.0211117
0.0208953
0.0206494
0.0203596
0.020066
0.0196705
0.0268654
0.0266131
0.0263293
0.0260037
0.0257145
0.02532
0.0251133
0.0248074
0.0244225
0.0241432
0.0238678
0.0235186
0.0232228
0.0228802
0.0225915
0.0224146
0.0222326
0.022045
0.0218463
0.0216368
0.0214031
0.0211952
0.0209737
0.0207319
0.020478
0.0275946
0.0273441
0.0270775
0.0268194
0.0265367
0.0262039
0.0259762
0.025576
0.0252159
0.0248686
0.0246097
0.0243375
0.0240054
0.0236896
0.0233815
0.0230672
0.0227747
0.0225456
0.0223628
0.0221672
0.0219639
0.0217442
0.0215132
0.0212856
0.0210838
0.0208602
0.0282907
0.02804
0.0277874
0.0275236
0.027255
0.0269949
0.0267289
0.0263
0.0261046
0.025807
0.0254457
0.0251137
0.0247775
0.0244571
0.0241785
0.0238592
0.023505
0.0231994
0.0230118
0.0226824
0.0225106
0.022302
0.0220727
0.0218477
0.0216404
0.0214226
0.0289716
0.028695
0.0284372
0.0281958
0.0279428
0.0277069
0.0274518
0.0271924
0.0268964
0.0265324
0.0262588
0.0259992
0.0256339
0.0252962
0.0249624
0.0246335
0.0243265
0.0240863
0.0237851
0.0233461
0.023071
0.0228386
0.0226709
0.0224371
0.0222106
0.0219896
0.021767
0.0293497
0.0290882
0.0288423
0.0285712
0.028345
0.0281046
0.0278754
0.0276374
0.0273945
0.0271317
0.0268003
0.0264809
0.0262107
0.0258256
0.0254876
0.0251443
0.0247997
0.0245529
0.0242052
0.0240194
0.023629
0.0233391
0.0230538
0.0228202
0.0225874
0.0223723
0.0300028
0.0297828
0.0295454
0.0292493
0.0289682
0.0287018
0.028484
0.0283085
0.028096
0.0278415
0.0275695
0.0272907
0.0270002
0.0267399
0.0263988
0.0260375
0.0256763
0.0252888
0.0248665
0.0248796
0.0244324
0.0240872
0.0238178
0.023511
0.02319
0.0229707
0.0303557
0.0301606
0.0299649
0.029744
0.0294329
0.029246
0.0289822
0.0287064
0.0284626
0.0282429
0.0280197
0.0277421
0.0274602
0.0270996
0.0268761
0.0266022
0.0261821
0.025827
0.0256251
0.0252899
0.0249215
0.0245619
0.0242654
0.023998
0.0236929
0.0309303
0.0307242
0.0305164
0.0302872
0.03011
0.0299324
0.0296234
0.0292618
0.0291516
0.0289547
0.0286695
0.0283533
0.0281561
0.0279337
0.0276376
0.0273552
0.0270553
0.0268041
0.0264944
0.026018
0.0256767
0.0254083
0.0250857
0.0247779
0.0244313
0.0313213
0.0310818
0.0308675
0.0306456
0.030428
0.0302456
0.0300644
0.0297825
0.0294204
0.0293097
0.0291584
0.0288936
0.0285786
0.0283273
0.0280688
0.0277822
0.0275327
0.0272277
0.0269871
0.0265598
0.0261743
0.0258395
0.0255346
0.0252412
0.0249893
0.0319781
0.0317263
0.0314727
0.0312021
0.0309813
0.030756
0.0305397
0.0303407
0.0301712
0.0299425
0.0295862
0.0293485
0.0291905
0.0291227
0.0288086
0.0285046
0.028238
0.0279122
0.0277034
0.0275609
0.0270826
0.0267031
0.0263522
0.0260586
0.0257138
0.0324451
0.032188
0.0319086
0.0316231
0.0313415
0.0311248
0.0309083
0.0306887
0.0304782
0.0301505
0.0301215
0.0298269
0.02958
0.0293356
0.0290918
0.0289166
0.028694
0.0283566
0.0280688
0.0278955
0.0276124
0.0271856
0.0269035
0.0265775
0.0262447
0.0329935
0.0328216
0.0326161
0.0323856
0.032088
0.0319171
0.0317549
0.0314044
0.0311101
0.0308768
0.0306567
0.0303184
0.0301703
0.0300008
0.0297448
0.0295696
0.0293743
0.0290824
0.0288402
0.0285603
0.0282456
0.0280158
0.0277354
0.0273936
0.0270918
0.0333524
0.0331688
0.0329854
0.0327987
0.0326138
0.0322781
0.0319179
0.0318386
0.0315957
0.031348
0.0310133
0.0307402
0.0304813
0.0302575
0.0300791
0.0298773
0.0296975
0.0295483
0.0293406
0.0290656
0.0287779
0.0284681
0.0281954
0.0278368
0.0338701
0.0336668
0.0334856
0.0332937
0.0331123
0.0329475
0.0327642
0.0324916
0.0321076
0.0319935
0.0317904
0.0315329
0.0312625
0.0309573
0.0306954
0.0304544
0.0302326
0.0300403
0.0298429
0.0296653
0.0294391
0.0291989
0.028941
0.0286687
0.0284154
0.0341758
0.0339845
0.0338161
0.0336384
0.0334498
0.0332618
0.0331003
0.032901
0.0326192
0.0323814
0.0322
0.0320179
0.0317489
0.0314768
0.0311699
0.030903
0.030657
0.0303436
0.0301535
0.0299879
0.0297808
0.029555
0.0293495
0.0290971
0.0346732
0.0344846
0.0343124
0.0341154
0.0339438
0.0337819
0.0335977
0.033416
0.0332515
0.0330793
0.0328166
0.0325424
0.032356
0.0321435
0.0318178
0.0315579
0.0313205
0.0311282
0.0307958
0.0305503
0.0303468
0.0301351
0.0299091
0.0297136
0.0294929
0.0349934
0.034803
0.034629
0.0344505
0.0342594
0.034086
0.0339107
0.0337424
0.0335253
0.0332638
0.033172
0.0329699
0.0327155
0.0325422
0.0322971
0.0320905
0.0318266
0.0315024
0.0312559
0.0309797
0.0307351
0.0305085
0.0303032
0.0300805
0.0354982
0.0353122
0.0351258
0.0349213
0.0347511
0.0345917
0.0344084
0.0342454
0.0340629
0.0338887
0.0337086
0.0333808
0.0332379
0.0330377
0.0328663
0.0326574
0.0324005
0.0322106
0.0320082
0.0317345
0.0314316
0.0311695
0.0309012
0.0307069
0.0305037
0.0357973
0.0356173
0.0354384
0.0352562
0.0350629
0.0348887
0.0347131
0.0345564
0.0343885
0.0342241
0.0339937
0.033903
0.033665
0.0334074
0.0331392
0.0330057
0.0327842
0.0325309
0.0323246
0.0321291
0.0318593
0.0315686
0.0313463
0.0310986
0.0361102
0.0359411
0.0357479
0.0355524
0.0353829
0.0351926
0.0350233
0.0348426
0.034685
0.0345294
0.0343723
0.0341101
0.0339575
0.0337599
0.0335726
0.0333465
0.0330536
0.0328505
0.0326307
0.0324602
0.0322556
0.0319943
0.0317585
0.0315314
0.0365967
0.0364291
0.0362559
0.0360522
0.0358616
0.0356844
0.0354946
0.0353137
0.0351321
0.0349681