/*--------------------------------*- C++ -*----------------------------------*\
| =========                 |                                                 |
| \\      /  F ield         | OpenFOAM: The Open Source CFD Toolbox           |
|  \\    /   O peration     | Version:  2312                                  |
|   \\  /    A nd           | Website:  www.openfoam.com                      |
|    \\/     M anipulation  |                                                 |
\*---------------------------------------------------------------------------*/
FoamFile
{
    version     2.0;
    format      ascii;
    arch        "LSB;label=64;scalar=64";
    class       volScalarField;
    location    "60";
    object      omega;
}
// * * * * * * * * * * * * * * * * * * * * * * * * * * * * * * * * * * * * * //

dimensions      [0 0 -1 0 0 0 0];

internalField   nonuniform List<scalar> 
404911
(
305.736
227.008
3449.97
1538.92
236.077
260.445
203.102
615.847
353.052
290.264
267.402
349.397
232.214
293.118
479.785
1119.53
312.957
243.527
273.939
431.183
669.711
297.025
778.275
541.875
245.78
1014.95
314.865
231.83
281.983
1077.23
285.609
244.907
358.846
620.501
285.968
261.083
451.11
505.347
289.045
218.353
393.121
1082.32
275.179
200.206
224.558
440.229
398.025
214.678
237.273
997.134
432.758
321.384
294.758
1411.56
385.177
633.423
9406.57
194.811
365.318
264.864
285.031
184.64
190.088
76.5728
94.2228
263.138
90.2057
551.595
152.201
99.6562
223.801
43.3682
201.466
122.217
66.5279
613.052
2282.13
271.601
113.338
204.447
94.546
208.272
36.959
167.964
228.032
90.4251
413.855
102.643
1179.36
410.933
310.875
3005.13
132.381
269.514
216.41
144.896
194.409
262.672
109.899
269.628
716.974
224.671
160.227
576.387
1340.48
573.103
308.052
761.148
397.134
314.592
244.668
247.386
241.758
263.539
2384.84
584.79
266.866
4647.38
663.523
220.773
220.535
221.848
231.687
301.548
1422.12
381.487
257.283
240.111
218.405
584.481
539.231
589.967
229.133
211.798
223.407
220.802
275.837
279.189
211.081
324.384
1296.24
379.675
248.446
227.177
222.629
216.234
216.453
203.837
576.819
528.333
223.217
213.458
237.003
1898.28
321.162
1093.17
322.789
225.076
205.826
213.53
209.99
212.665
214.657
213.73
208.505
205.465
211.162
214.437
235.374
314.814
471.951
664.087
507.557
469.989
469.313
486.485
566.542
209.28
213.277
204.824
203.214
206.027
223.555
243.31
255.444
251.499
348.564
778.636
520.956
438.856
455.726
351.435
394.801
599.364
498.104
196.681
202.53
198.685
209.863
227.405
241.26
280.225
1272.08
1096.97
317.672
651.963
341.803
300.333
282.235
606.083
471.591
355.959
398.225
498.509
501.449
188.447
205.941
215.777
220.139
254.78
572.571
957.051
676.653
312.149
350.33
288.177
272.358
376.707
303.515
501.607
565.712
513.781
385.579
173.879
213.768
216.875
245.045
356.208
1306.8
1334.12
345.435
166.844
248.688
274.743
252.447
196.22
268.971
548.22
401.071
262.514
319.136
341.955
343.385
540.782
213.13
259.061
1198.31
546.075
213.755
145.418
302.803
276.513
272.984
239.895
285.787
297.817
308.773
274.678
315.726
318.384
410.522
500.102
598.176
487.001
538.389
257.3
208.843
523.647
314.925
274.19
311.484
297.08
260.327
304.302
233.096
218.551
436.579
397.502
458.553
530.942
1788.72
424.703
218.773
187.908
203.874
219.839
258.737
292.418
248.879
283.31
269.673
233.143
249.063
262.187
536.208
429.109
488.133
309.993
1133.95
1057.59
959.223
340.088
356.485
217.107
183.624
261.634
241.988
269.887
288.203
261.19
264.907
278.92
304.032
361.85
396.822
240.22
624.897
1201.12
301.222
181.8
179.775
232.276
286.841
278.167
176.437
264.291
252.863
293.961
233.685
202.88
229.341
311.264
343.659
669.628
326.399
540.493
205.412
159.224
187.304
208.465
308.398
268.167
279.372
189.621
223.771
192.015
191.615
211.806
148.324
203.925
335.515
230.422
1088.1
1226.57
311.884
185.216
160.234
182.477
204.158
205.806
205.621
206.437
201.069
154.147
248.63
271.171
283.776
142.49
161.21
427.017
958.905
414.439
179.497
141.676
247.626
251.512
222.142
228.043
205
132.419
145.181
144.46
170.074
217.492
271.234
285.733
174.342
336.29
797.482
1178.5
965.418
364.588
320.353
291.476
255.499
210.681
188.137
217.258
185.619
154.966
157.336
168.851
176.847
219.978
205.473
190.152
523.379
487.31
200.026
178.482
198.356
270.259
168.369
183.419
262.597
222.553
269.181
185.9
193.41
190.681
198.187
162.771
170.455
329.635
1047.42
225.219
153.895
203.528
176.381
187.168
198.71
138.902
192.633
240.265
241.721
293.336
279.395
224.359
199.688
214.37
187.478
366.932
486.718
171.862
218.887
205.819
185.277
172.808
185.292
119.613
117.475
188.819
297.933
280.128
305.003
297.688
217.147
227.376
216.708
1067.99
293.779
147.031
162.134
166.332
176.053
159.884
156.016
177.938
112.726
125.808
176.508
207.492
242.567
282.261
297.522
207.724
347.043
1284.22
518.073
208.827
162.569
167.864
163.365
152.49
178.722
149.953
129.209
118.988
103.239
143.919
169.168
175.424
249.535
148.734
234.896
1118.73
1203.46
275.131
148.375
220.252
182.22
163.009
143.889
137.007
131.161
160.021
117.516
138.187
183.769
193.664
195.152
172.994
193.997
360.037
486.419
185.976
163.748
170.477
171.765
159.761
144.219
140.435
176.745
113.716
116.967
121.582
178.641
225.137
238.798
194.217
218.159
1086.94
1203.1
271.686
149.783
161.947
170.921
170.707
161.965
149.983
141.049
134.524
147.839
137.362
151.901
181.293
205.688
205.012
228.21
326.851
954.406
183.6
158.119
162.444
164.265
166.005
161.729
156.525
154.259
143.174
127.721
130.393
149.028
177.292
190.04
191.012
240.247
383.362
301.831
142.327
181.521
170.153
157.481
149.589
153.688
154.685
154.777
147.542
138.043
138.65
153.688
171.835
199.761
198.861
201.005
575.589
277.016
162.696
194.779
167.182
153.567
138.749
147.266
134.236
144.586
147.418
145.075
149.516
159.938
184.871
173.668
157.363
292.447
1204.05
1234.09
213.685
149.27
163.972
166.99
156.983
144.146
139.562
160.521
117.564
135.313
147.447
158.212
169.495
179.692
221.486
199.354
521.757
999.46
197.308
152.788
155.837
157.407
148.909
135.589
129.556
127.115
129.104
119.484
135.419
159.46
175.825
174.018
188.362
205.099
1138.31
336.679
170.722
159.404
165.279
170.221
161.271
147.864
138.269
135.635
124.058
115.972
125.875
157.83
174.542
193.919
144.037
214.11
1176.16
321.62
153.884
149.178
163.87
165.727
174.728
164.947
127.799
132.208
132.8
130.273
135.28
160.099
177.545
176.117
158.265
314.937
1103.41
236.935
152.137
158.271
167.676
164.844
151.198
162.331
127.478
122.108
124.599
136.927
146.066
162.255
176.886
190.536
184.762
507.326
483.431
179.868
197.191
199.796
179.441
164.322
148.73
121.686
141.624
124.974
87.8392
124.776
159.284
169.439
178.151
184.775
204.877
1082.55
320.865
152.245
150.013
161.043
157.455
157.416
164.136
114.077
137.903
87.3102
134.321
96.1724
141.77
173.429
169.446
188.122
254.71
1216.34
1120.08
214.839
142.794
157.488
159.676
152.266
136.342
157.892
100.101
91.3374
82.222
85.1204
137.835
154.376
175.205
178.781
148.529
289.673
1113.2
203.92
150.857
157.389
156.473
148.497
139.413
126.925
138.702
118.758
122.358
93.3398
105.166
148.105
163.771
161.173
169.102
482.626
1095.3
202.425
153.168
156.984
161.703
153.81
143.331
132.442
123.926
120.032
92.842
74.7788
75.9093
137.078
171.916
161.095
187.127
985.307
1087.96
197.148
152.047
155.098
156.54
155.03
148.874
139.306
124.323
121.888
111.182
105.654
96.1858
119.036
181.76
184.968
257.569
1219.63
316.227
174.682
159.12
158.518
154.373
149.407
144.003
146.531
130.936
113.343
102.238
93.5774
106.725
145.043
179.161
187.813
285.936
1217.78
288.654
149.482
151.302
161.595
153.19
146.019
140.77
141.666
143.161
120.982
94.1691
67.0964
82.4694
158.345
173.072
187.083
277.23
1166.95
200.865
166.646
177.29
159.676
149.868
129.633
127.652
128.562
131.466
133.454
119.367
105.731
111.323
167.301
175.587
166.568
291.169
1043.32
197.49
148.059
146.557
146.622
134.112
123.339
118.864
142.466
107.405
125.26
129.532
129.759
134.055
154.661
178.516
149.345
302.663
1114.32
199.323
148.706
148.741
141.957
130.775
120.033
111.306
112.595
123.753
126.055
115.141
134.654
150.203
157.637
181.176
151.632
317.181
1119.41
205.972
153.41
153.01
144.832
133.64
128.403
123.758
124.943
126.263
118.309
106.737
119.477
149.001
164.939
157.141
165.369
472.663
1051.46
198.112
155.295
159.824
152.332
139.803
127.906
127.587
130.776
137.871
132.379
122.555
127.578
147.474
164.568
171.689
197.279
1056.05
332.899
192.181
157.722
167.884
159.975
136.095
115.032
107.04
117.99
119.658
122.256
129.926
138.228
151.886
164.952
171.698
200.127
1143.5
337.84
185.289
150.901
168.408
157.351
129.439
112.811
101.414
101.613
76.0018
83.5167
120.271
145.295
154.808
163.246
169.594
198.042
1109.82
1246.25
240.572
178.746
152.967
154.478
159.955
126.455
81.5638
76.2452
66.6167
59.5816
38.5457
66.3589
138.343
158.683
161.058
171.377
212.341
1097.29
1134.33
200.959
142.16
222.449
168.936
140.265
125.69
97.3174
55.3797
48.3948
43.4669
34.7031
49.2723
121.777
159.406
157.965
159.307
260.364
210.014
158.555
156.865
151.788
138.064
120.063
92.4346
70.8479
40.2732
35.4117
28.1556
73.2173
135.329
163.257
159.832
145.534
277.233
1067.09
209.495
150.986
152.552
151.212
146.182
136.883
122.778
99.641
92.9644
30.5163
25.5936
45.5852
146.389
167.695
174.245
155.732
326.131
1102.34
199.126
150.198
151.865
152.061
150.644
141.794
135.54
125.791
96.9807
81.3618
31.0033
42.2932
138.875
164.292
171.462
161.877
484.773
1193.26
192.818
154.843
158.846
156.301
152.767
144.834
125.615
118.368
94.6101
77.5825
82.0262
75.2544
149.485
170.539
155.841
170.576
914.932
177.793
184.57
178.747
163.06
153.871
148.287
133.424
103.949
63.753
61.4604
105.438
128.771
145.908
168.703
178.285
194.689
1022.08
788.925
299.168
181.2
162.138
152.443
146.852
140.605
125.827
91.3837
43.0372
69.6008
144.279
156.197
154.453
184.108
198.527
1119.49
2244.26
300.344
248.546
236.934
151.669
149.689
145.871
136.463
126.285
111.367
95.2269
58.7086
143.321
170.088
169.436
143.312
221.237
1174.23
318.815
170.679
165.032
180.444
139.543
143.552
145.037
134.085
128.575
95.8609
83.3836
105.53
147.893
168.329
176.019
153.087
300.049
304.755
163.997
167.555
149.13
126.656
124.365
137.325
136.427
115.735
104.622
43.5545
79.4325
140.372
157.326
162.796
161.058
325.787
1252.9
265.224
173.575
175.477
172.136
126.445
122.058
103.34
110.508
119.807
72.5233
59.3639
85.2543
134.303
153.577
151.986
183.592
923.633
1019.52
196.541
161.327
155.713
149.333
94.081
135.328
118.434
72.2598
67.6511
82.3146
65.3422
85.2915
114.775
168.816
158.254
191.13
1050.38
888.261
158.604
308.201
217.727
107.168
71.8259
74.4612
71.1386
141.29
50.1863
53.5781
70.2802
103.965
152.644
214.912
198.422
191.205
1056.39
486.85
148.791
183.956
178.324
76.261
49.1263
44.1343
30.3234
60.3497
109.584
64.098
101.046
142.547
174.066
213.411
258.021
202.969
1097.64
1081.08
264.762
147.056
179.75
183.175
73.8581
31.5336
13.7719
14.6349
35.4961
71.2764
105.439
153.831
169.052
169.233
181.331
198.829
344.092
1118.39
976.508
170.262
203.584
179.217
174.078
71.993
22.8437
7.57024
10.7872
32.3851
60.2784
127.555
138.195
148.453
167.798
169.217
161.612
220.535
1147.21
250.09
173.11
168.087
131.825
56.6896
16.2693
8.05907
9.59314
28.2051
54.7417
112.902
141.601
153.438
166.32
181.413
146.192
277.637
1274.72
284.907
169.384
180.063
127.309
45.8133
12.7741
12.332
23.3944
23.1375
46.2582
74.3699
144.614
160.271
167.278
176.375
158.366
324.89
291.31
182.763
196.318
167.65
45.7486
9.82579
8.61395
15.185
35.7796
35.6711
87.8202
149.68
167.384
167.101
172.075
164.668
487.166
262.525
288.815
238.43
194.784
63.4768
8.61142
6.61465
11.3391
25.4973
40.6271
57.6351
149.052
174.735
174.276
157.155
172.69
940.65
1036.1
194.052
212.481
238.911
181.434
72.9007
19.8915
8.59084
16.2977
30.7742
78.1635
80.0095
136.273
181.825
174.918
177.598
208.842
1051.23
978.293
197.855
209.622
221.616
154.197
69.8238
18.3407
8.77608
19.8045
42.1591
64.9913
110.595
180.149
186.817
179.706
148.593
296.972
912.723
167.705
157.262
174.274
143.995
71.127
20.8818
15.8213
15.6868
44.8147
79.0533
128.051
173.561
184.623
182.596
158.887
338.929
925.585
164.799
154.9
168.107
163.224
67.029
14.3409
12.905
44.7323
76.3358
85.4238
155.746
187.951
182.513
184.357
165.627
341.737
937.025
166.815
157.698
174.941
165.474
88.4968
22.4524
12.6115
36.3191
71.9905
96.4159
177.062
190.511
186.12
167.79
176.119
936.331
947.094
166.008
167.088
173.837
157.6
89.8276
85.4761
42.2384
29.7522
63.9879
118.564
202.029
189.97
184.59
178.72
207.101
1052.03
324.171
169.876
192.882
210.499
138.24
70.6113
76.8503
102.535
77.7622
77.5623
107.877
159.711
175.479
173.327
185.582
212.551
1131.44
375.311
413.066
234.061
81.9614
38.5164
15.6209
39.332
188.449
85.2439
103.479
156.862
174.43
170.991
169.406
259.907
1264.93
358.356
305.362
259.079
170.315
18.738
11.9904
17.0119
59.1562
107.004
109.332
179.632
178.802
173.114
157.87
310
335.176
228.819
238.351
239.532
209.35
28.8423
14.6542
26.6718
63.3347
134.339
161.03
169.209
195.58
171.059
159.988
336.863
365.229
164.44
209.061
249.948
250.228
189.51
50.2513
25.2573
104.195
186.158
220.189
266.953
227.018
241.641
187.378
919.095
376.032
177.568
197.971
258.681
317.717
306.314
182.038
213.985
220.109
251.838
227.982
252.96
260.57
302.172
216.627
1114.15
1301.08
347.847
203.377
183.19
235.697
289.201
295.954
285.434
245.688
285.56
333.553
301.329
238.856
265.904
272.832
519.635
1346.86
259.65
168.546
215.975
212.48
299.661
296.491
263.96
152.326
258.515
261.318
275.614
303.948
329.43
343.545
277.713
1096.62
243.759
180.955
175.578
208.568
250.919
283.749
382.536
237.374
230.989
256.464
249.967
234.039
278.37
346.944
869.766
360.179
185.833
630.715
427.684
298.461
224.897
215.451
180.275
214.261
224.839
231.769
203.817
191.641
207.604
334.606
4178.1
370.641
614.963
330.02
313.12
339.7
292.051
237.442
278.154
293.963
281.097
244.144
214.133
190.122
218.576
338.31
870.492
1158.49
707.754
351.086
298.789
282.887
292.086
201.71
224.671
275.569
298.485
312.23
239.775
235.361
231.314
374.481
1266.7
240.018
492.165
304.12
247.641
230.104
195.184
227.83
240.399
268.566
291.875
333.922
160.381
229.675
278.914
1515.75
1242.22
248.588
186.707
346.359
280.408
261.336
204.505
172.807
230.883
236.821
297.042
265.748
264.315
192.804
380.92
1345.71
614.4
239.069
194.085
506.262
324.984
282.155
242.41
230.075
243.19
254.795
292.894
307.369
163.416
213.169
399.95
1207.31
607.052
494.614
362.446
320.451
257.939
246.273
194.72
276.296
255.445
295.074
190.836
275.456
1255.44
760.767
563.739
501.36
402.383
339.409
304.632
262.277
233.957
291.773
296.324
158.19
206.511
373.197
1252.01
240.779
195.248
541.151
385.609
283.868
295.285
317.89
257.769
295.301
266.047
182.841
240.326
589.199
1320.99
257.842
205.085
536.077
453.427
290.099
313.266
409.333
370.069
339.327
370.179
197.711
257.013
1285.29
1237.15
257.664
607.623
521.301
481.785
370.12
297.778
248.174
297.257
342.124
518.096
211.007
267.097
1370.67
1284.35
249.875
617.952
519.613
519.612
478.83
275.675
300.234
280.927
385.902
517.84
214.2
357.956
1420.44
1221.96
247.231
202.139
552.126
494.691
528.387
352.35
255.029
284.679
337.767
194.326
220.508
359.195
1524.5
1503.98
1205.55
200.218
183.457
513.143
521.36
634.374
342.296
278.508
382.033
547.265
232.264
374.238
190.838
538.576
503.504
511.977
183.176
536.854
555.722
595.322
567.227
198.104
179.671
502.751
595.699
215.462
233.069
316.464
1237.88
6345.47
627.245
192.461
537.935
587.33
254.766
418.566
2859.48
2148.31
544.101
846.667
249.297
281.853
1249.53
518.407
829.742
249.815
272.422
645.549
907.425
674.538
294.179
244.301
295.27
1250.84
1217.88
307.361
2000.81
897.496
569.384
374.948
211.592
199.895
237.967
246.768
693.539
311.483
224.626
405.672
734.961
1564.52
1410
6510.88
526.387
1548.7
624.464
589.255
1448.16
636.325
431.439
329.918
319.178
297.711
279.133
266.99
361.744
1480.15
651.075
420.906
313.012
297.735
277.904
266.667
264.447
271.195
270.55
267.332
253.74
254.815
267.067
257.912
1400.23
617.071
331.847
293.667
269.716
268.265
264.567
257.855
263.336
267.482
272.506
256.055
242.105
247.398
261.008
258.843
258.35
255.071
267.407
373.888
452.885
933.778
1078.29
588.109
318.726
278.03
266.935
251.002
247.695
255.983
261.665
261.101
255.605
258.464
266.99
245.528
629.873
617.813
261.292
263.92
242.385
253.6
257.927
298.311
674.17
622.45
362.415
279.182
260.766
235.027
216.589
218.917
223.952
232.034
239.419
248.163
247.549
258.729
253.924
252.925
249.012
229.353
575.53
633.579
244.456
259.082
257.356
277.039
322.969
1370.14
475.771
231.328
184.904
176.549
218.906
238.645
562.222
795.69
917.23
191.755
209.178
220.838
210.725
199.147
205.728
225.685
230.857
220.741
207.815
545.555
624.375
255.422
273.731
316.488
673.706
1581.44
421.518
364.842
328.065
286.926
291.993
289.404
318.169
340.82
419.34
463.233
589.68
186.766
200.572
227.831
285.698
780.521
205.872
225.437
237.932
242.613
613.901
630.034
302.235
661.328
1322.78
366.065
448.146
421.741
297.048
271.945
274.265
328.369
239.852
242.222
337.588
396.523
479.49
450.102
434.288
602.881
188.47
276.238
652.446
225.209
240.546
246.828
261.473
304.616
622.029
482.731
1429.61
345.622
363.489
392.271
375.911
249.267
254.132
247.976
251.407
287.109
217.563
215.306
330.427
367.559
401.586
374.656
316.36
266.833
166.317
229.425
180.812
234.659
270.946
406.947
676.46
1171.25
452.422
210.928
216.124
265.78
276.097
309.372
229.079
223.703
216.892
285.242
279.542
209.111
193.948
207.594
231.529
232.855
236.13
296.917
264.18
279.694
223.706
221.436
226.353
261.782
592.825
1248.64
267.676
178.545
306.677
279.536
255.684
309.966
204.125
233.396
268.852
270.156
238.654
247.833
248.235
272.548
215.617
218.59
221.921
232.91
252.16
357.81
203.353
639.99
608.971
730.387
4678.34
814.13
1422.94
334.067
293.883
270.934
258.142
209.437
208.123
163.425
194.884
205.74
257.257
242.033
214.719
231.851
229.043
235.502
232.266
240.219
246.645
247.527
227.318
173.123
625.026
1747.65
1335.75
387.713
294.101
244.951
237.161
261.147
172.557
123.728
63.9392
79.2218
159.992
213.508
216.952
146.39
252.232
237.124
257.876
264.286
297.412
270.728
234.078
156.247
231.436
502.656
498.392
211.353
206.602
255.168
313.157
223.724
198.131
236.503
152.322
108.191
72.4124
70.4552
69.0643
76.1052
109.368
98.3093
107.901
217.848
276.574
320.655
420.252
339.444
150.44
223.535
531.71
472.01
219.063
198.193
229.441
220.608
213.512
205.921
203.155
190.36
191.002
101.944
92.4687
90.2424
88.6866
76.8852
82.081
93.1216
143.951
171.827
245.803
355.525
398.923
604.326
221.489
526.812
427.071
184.863
244.335
239.684
226.628
213.57
201.89
194.8
203.899
196.842
173.531
155.361
127.783
141.94
96.1067
90.4441
103.037
164.271
252.258
273.889
331.837
409.745
417.493
531.067
927.151
1225.05
417.124
182.29
219.638
213.47
213.707
213.443
211.632
194.712
178.135
172.788
159.029
156.962
121.225
133.105
103.885
100.776
91.6106
90.9614
115.019
173.783
270.826
382.035
403.96
491.813
455.329
1209.28
415.856
175.854
206.969
210.301
216.513
218.075
204.095
181.062
130.209
80.4697
107.815
108.495
100.69
101.88
128.495
131.537
175.223
166.521
129.08
169.921
208.743
291.102
362.064
504.566
484.13
1093.19
290.564
172.229
220.191
220.376
223.22
222.992
208.229
183.387
130.143
95.9867
50.0607
58.1424
91.5472
97.3287
101.713
105.667
110.009
117.885
153.638
197.884
210.317
239.037
240.395
292.819
357.668
1411.6
1312.09
312.56
167.252
189.264
213.673
219.626
204.282
177.266
162.616
144.178
117.509
97.0671
80.9068
71.6423
74.407
89.9426
88.1968
99.0589
122.847
112.233
103.143
208.984
244.895
268.609
281.353
223.755
1612.6
459.53
180.311
227.324
221.621
222.672
193.385
129.283
99.4257
89.9659
98.1602
100.488
96.1026
92.7038
86.7536
76.7125
80.0577
94.5898
111.86
152.518
166.334
115.323
182.724
252.284
270.908
222.881
503.094
507.358
217.715
188.408
206.439
216.837
203.368
150.489
65.3503
37.2255
37.3969
45.8087
64.3096
84.1405
93.0437
94.7897
91.037
90.4029
104.311
127.126
169.118
190.518
209.328
224.424
256.993
226.649
525.043
1076
271.127
184.659
207.018
208.153
208.582
173.178
80.6574
44.871
25.102
17.8201
18.7801
25.1969
47.9321
80.9723
105.702
109.115
114.977
130.614
158.44
188.092
219.669
225.582
224.357
183.353
457.534
451.666
177.759
196.536
205.876
204.525
177.866
75.721
41.6808
26.7587
20.5775
15.8929
14.6214
17.4442
24.8276
50.7854
85.7532
118.134
135.656
158.57
186.348
209.475
228.578
248.113
282.339
320.509
508.688
200.454
237.694
224.999
213
184.786
80.5369
45.2921
23.7102
15.047
13.7748
13.321
12.7945
14.3437
16.3529
25.9719
49.9531
93.3992
142.789
182.846
208.539
223.272
222.376
214.804
194.821
886.407
1012.05
257.443
187.249
217.664
225.073
213.733
167.318
83.3254
31.6581
18.2817
11.0267
9.01997
9.67641
10.0448
12.3237
16.9228
20.0643
27.7269
51.9982
131.232
189.122
219.793
231.034
208.861
170.02
440.418
1018.59
272.833
190.837
215.091
215.785
212.472
177.865
119.396
69.0348
35.2422
15.4757
12.3542
6.87107
7.21198
8.89526
11.3984
19.0095
22.6723
43.2717
69.719
138.709
203.761
219.965
228.982
243.931
284.49
1156.16
451.6
216.767
217.274
207.424
203.042
176.798
125.355
77.3178
48.0572
28.9281
12.1078
11.0244
13.7365
8.97592
10.5556
17.4249
26.0167
35.555
55.5933
122.139
199.054
222.276
234.929
244.584
270.562
992.46
836.51
223.72
232.109
203.425
192.583
144.64
115.638
82.5756
57.4269
36.8381
20.7521
13.8927
24.4879
44.0138
29.2405
15.6273
25.1837
43.2933
76.881
136.927
183.103
222.948
249.283
255.503
273.642
998.07
278.871
183.464
188.554
187.1
172.082
124.552
45.0173
45.7137
40.3513
25.7739
20.8431
16.0972
27.5452
49.7194
51.8689
29.8174
28.1426
46.4932
99.8688
178.287
212.327
233.873
228.23
249.585
988.305
843.767
184.353
186.89
195.683
195.748
159.744
103.469
54.5655
25.1438
27.6405
27.3522
25.6791
28.5552
31.9141
40.9817
49.6442
41.8239
37.0542
76.7032
164.472
211.272
230.644
240.493
267.47
439.38
303.744
189.031
192.454
200.95
182.528
124.194
75.8268
56.8275
32.3026
19.159
23.3605
26.9599
29.1899
30.5232
38.3481
56.5779
70.921
71.491
111.415
200.258
218.918
235.035
256.33
281.488
1032.3
1020.48
238.906
190.801
190.717
190.625
152.968
86.2274
57.1322
37.9064
27.4029
19.7123
17.4246
19.9043
22.1687
21.9863
24.476
41.6431
86.3252
143.056
181.976
214.341
229.723
216.524
195.287
930.728
376.04
219.181
207.683
190.806
147.616
100.383
62.0816
37.9433
27.7671
20.9208
17.3658
20.0885
21.9947
23.5852
28.089
30.2745
42.1858
82.124
148.337
196.873
213.116
223.251
260.651
307.415
1314.66
783.915
171.074
178.177
181.327
167.198
119.002
40.416
33.3407
22.4603
15.008
13.4582
13.2563
16.0204
25.4651
34.7346
42.1697
60.8345
83.6351
127.7
177.455
206.781
209.888
238.874
267.367
992.645
242.431
215.123
187.552
182.881
156.422
107.879
55.9309
22.1585
15.3161
13.2744
13.6769
11.2653
10.5419
17.6091
34.2719
53.1416
71.4111
101.188
145.498
194.339
212.682
218.138
174.369
469.433
764.985
172.159
175.517
181.081
170.018
138.766
104.761
66.72
35.9076
16.2863
11.4033
11.5941
14.7809
13.8825
13.468
22.7264
50.2151
82.2441
119.499
173.848
204.762
211.41
241.854
264.2
1093.07
274.637
179.336
180.053
182.313
159.929
116.084
76.6483
53.0521
34.3282
16.7701
10.9802
10.3289
12.5118
19.7723
22.3512
19.381
40.0376
89.6881
153.778
193.223
205.936
210.562
225.04
441.896
771.516
170.956
176.379
184.245
175.73
139.098
89.595
55.976
36.338
24.7722
18.3282
12.9803
13.1471
16.7278
20.9688
28.7826
31.7478
49.3452
87.8368
159.716
201.998
205.631
189.831
198.128
961.625
271.359
174.102
179.335
185.798
165.645
119.174
78.7402
49.2598
30.0308
18.6243
13.6535
14.1693
14.0114
17.5093
26.6326
38.4539
60.85
84.4253
116.631
184.952
217.849
217.587
218.642
303.028
784.431
169.689
170.451
178.583
175.82
137.08
101.047
76.2327
51.3768
30.2719
19.9487
15.1267
12.3173
13.4148
14.5844
24.0332
42.0721
62.0586
101.047
148.962
199.056
226.441
207.42
191.418
930.554
278.067
163.822
167.908
173.043
153.025
97.6409
72.9306
61.5269
50.5854
35.8243
21.6755
14.1921
12.4993
13.1301
15.6504
22.2456
41.0864
65.7866
106.031
174.369
210.483
217.832
263.949
300.284
236.67
202.314
175.82
170.13
128.39
78.9329
58.0721
46.6355
42.6821
39.946
30.3826
19.2781
12.3637
12.1717
16.1079
29.0157
57.7032
90.9092
132.208
190.706
213.806
223.468
170.497
784.685
816.834
165.129
165.786
166.946
161.223
101.989
62.9344
46.7014
39.0817
35.7524
35.7601
37.1616
32.3392
23.2091
19.8697
23.71
36.0005
61.8576
121.182
157.434
197.297
215.358
254.46
266.182
1093.93
780.737
194.917
171.008
167.973
149.957
89.4466
52.3792
37.3016
31.4196
30.3987
31.8359
34.3934
36.0927
36.2371
35.4541
41.014
53.2785
74.2342
112.543
161.483
196.399
202.012
260.075
726.643
399.509
188.588
175.001
166.625
136.381
78.3879
40.1781
30.7869
24.8054
22.0391
23.2552
28.6121
33.3822
36.2272
40.8836
50.0725
67.3115
89.1336
130.068
177.231
198.883
204.005
209.252
868.308
238.386
209.755
186.216
174.796
132.941
90.7857
49.6883
27.2564
23.8809
18.8239
14.3002
18.1963
28.1994
36.148
41.2428
49.3692
66.8258
97.055
148.792
189.858
192.924
227.879
278.434
789.085
204.601
192.717
178.598
169.501
115.447
75.3519
59.2975
38.845
27.0398
23.5776
17.5353
13.1602
17.7724
28.691
40.4932
53.4984
71.2152
100.823
162.064
196.89
212.502
167.417
797.62
416.776
185.434
175.718
180.398
154.109
102.118
66.968
45.5596
35.5918
31.5179
29.5991
27.2235
22.3653
20.2442
24.9383
37.2459
52.9759
78.7553
117.313
168.636
193.327
199.86
215.063
1055.52
231.438
212.02
184.338
177.681
142.917
87.1955
61.116
39.5273
25.0597
20.0608
22.871
27.373
29.2422
29.2019
31.0545
39.9364
58.148
81.9194
135.22
177.03
190.068
202.043
263.914
816.777
168.84
169.196
173.362
165.29
127.51
82.1052
54.4816
37.86
24.9212
15.2399
13.37
19.0706
26.6392
34.7483
39.3225
45.8671
62.4444
89.1051
143.116
183.211
185.354
205.079
422.968
405.808
176.89
167.127
172.435
151.777
112.403
76.8163
49.3709
31.6653
21.9644
16.153
11.4156
10.9154
16.6666
26.4716
39.9029
51.013
68.1482
102.844
151.784
186.286
201.176
163.373
770.286
284.309
161.212
163.12
163.401
135.022
90.0676
64.8532
42.972
25.5785
14.8963
11.3663
10.6333
10.6033
10.606
14.6597
28.5464
49.5478
71.7836
108.039
168.835
184.53
201.697
218.697
1064.65
240.724
210.085
179.77
163.884
127.537
85.1191
62.0475
44.6721
28.4358
15.104
8.73515
7.79989
8.77803
11.0415
13.2079
22.2872
42.4023
74.4342
129.738
171.775
187.265
178.955
235.854
988.908
173.049
161.395
173.949
156.125
98.8681
72.4733
57.5852
47.805
39.4877
24.6401
12.8674
7.94444
7.22135
8.81048
14.2406
24.6284
45.0803
75.7245
138.145
179.314
175.978
213.414
406.621
793.596
162.354
171.704
173.29
155.091
94.6056
65.046
48.4042
40.6635
37.8131
34.7119
24.5705
14.9514
10.0487
6.74336
10.4376
23.2541
48.4606
87.4401
155.009
185.756
197.997
170.119
817.156
736.424
186.747
172.414
173.944
150.835
94.3968
64.3774
46.0146
36.6269
32.8964
30.2937
26.6396
21.794
15.7557
12.6901
10.1602
19.3377
47.9314
93.3305
165.933
188.834
175.88
234.837
288.076
159.702
162.949
167.452
143.938
90.8363
61.6802
44.3803
34.338
30.2134
31.409
27.2897
20.3185
15.4177
12.9198
14.2224
23.0081
50.7784
106.763
171.984
191.297
211.528
291.817
277.403
160.136
163.167
164.611
135.685
82.2949
56.101
39.7757
32.3953
28.757
30.1931
32.3786
25.8873
16.4065
10.7592
13.6049
25.0138
50.9223
113.8
174.917
187.515
218.885
726.338
243.669
210.022
178.115
165.735
120.294
79.8242
52.9735
36.4676
26.7714
23.7204
24.8889
32.137
34.2209
27.6521
20.1415
19.4518
33.2568
59.8314
119.023
174.383
201.095
207.161
764.113
239.181
172.876
170.413
160.972
106.738
73.6684
50.5261
34.9976
25.767
18.9078
15.2136
18.8943
28.675
36.1872
36.8541
38.0363
48.0424
74.6945
124.275
174.734
182.633
219.417
905.838
229.775
171.499
168.97
158.441
106.038
72.8916
50.1491
35.7694
27.1172
21.322
16.1588
12.6788
16.1192
24.8726
34.8967
47.2659
60.9928
83.4621
126.039
169.939
185.658
178.666
1008.44
961.693
180.113
167.9
171.649
159.29
104.462
73.1251
51.7328
36.0944
28.8312
25.8003
23.6211
21.8097
18.7642
19.8292
25.8493
37.8054
57.2278
83.3242
134.598
170.151
184.532
215.316
770.328
216.26
199.016
178.764
156.741
99.2694
69.5582
51.0046
36.2223
27.2754
25.0161
25.2054
26.6754
28.4932
27.8689
29.3105
38.742
56.6635
86.3414
147.778
178.967
192.861
223.481
757.507
189.212
170.022
172.41
146.868
89.5159
59.2968
44.2387
33.2839
24.5697
21.8264
21.6402
22.9407
27.8179
33.1504
38.5571
45.8256
61.7147
89.2518
152.718
186.226
174.062
235.989
405.054
174.64
167.19
166.548
139.732
85.1053
52.4283
31.6623
26.6365
22.0658
17.8315
16.0446
15.5816
19.0317
27.3033
37.2897
49.4307
68.3483
96.9636
151.985
182.048
203.253
291.662
282.026
155.656
162.358
164.537
135.341
91.251
54.9468
27.4897
15.3397
14.564
13.3266
10.7652
8.10319
9.11536
16.6781
30.864
46.9081
68.6938
106.469
158.603
182.956
201.126
688.598
286.266
158.256
162.531
161.551
126.676
92.6849
61.569
34.0036
15.8563
8.51695
6.16153
5.99624
5.56626
6.00728
10.2992
22.4774
43.5816
70.3757
117.036
162.293
180.211
200.684
722.718
248.267
162.882
164.84
164.132
116.369
79.9605
56.4202
39.8063
24.4177
13.7877
7.93688
3.49226
3.41204
5.27803
11.2077
22.6267
41.8577
71.8142
127.607
165.688
169.27
194.746
754.148
235.435
173.115
168.107
162.111
108.861
74.401
54.2978
41.2725
33.1109
23.0596
14.3039
6.87377
3.0579
4.09421
9.5303
22.7218
43.3879
74.5774
133.723
171.568
173.254
165.627
825.813
246.09
175.95
162.029
154.554
95.4258
66.658
49.3491
37.946
31.5845
28.4355
22.058
14.1775
6.79399
4.66296
8.69306
21.4591
43.0027
73.7466
134.929
172.492
178.661
211.384
1024.13
237.4
174.388
159.786
141.143
90.1384
60.1898
45.0068
36.8984
29.1132
21.8716
17.7005
14.7597
12.9913
10.274
12.6728
23.4472
44.8966
76.4335
136.563
174.856
184.802
226.672
960.65
174.707
169.963
160.853
112.04
73.1688
52.9415
40.6011
34.8238
31.0591
22.8692
15.066
9.03406
11.0537
16.864
25.1352
36.2671
54.7264
83.2993
139.508
174.752
190.615
231.429
766.503
228.856
189.201
159.885
69.9149
36.8504
39.5431
36.309
32.1754
29.9992
27.0766
19.455
11.676
7.25144
14.1415
28.2075
47.0116
67.1384
94.8585
149.833
171.747
189.703
236.916
770.017
193.23
170.964
155.577
89.0279
22.4061
21.2072
28.7446
31.0002
27.8938
23.6769
19.7802
15.377
11.7948
11.2933
23.8867
45.4
71.1686
109.568
162.947
179.742
180.14
224.88
418.849
182.63
170.796
162.831
115.05
50.3096
21.3085
20.8002
26.848
28.3131
22.3815
16.2929
11.7624
11.6069
15.1966
24.1786
41.5929
70.898
120.735
164.218
180.931
200.025
262.542
274.911
162.367
168.053
168.21