/*--------------------------------*- C++ -*----------------------------------*\
| =========                 |                                                 |
| \\      /  F ield         | OpenFOAM: The Open Source CFD Toolbox           |
|  \\    /   O peration     | Version:  2312                                  |
|   \\  /    A nd           | Website:  www.openfoam.com                      |
|    \\/     M anipulation  |                                                 |
\*---------------------------------------------------------------------------*/
FoamFile
{
    version     2.0;
    format      ascii;
    arch        "LSB;label=64;scalar=64";
    class       volScalarField;
    location    "60";
    object      p;
}
// * * * * * * * * * * * * * * * * * * * * * * * * * * * * * * * * * * * * * //

dimensions      [0 2 -2 0 0 0 0];

internalField   nonuniform List<scalar> 
404911
(
0.541178
0.543909
0.548944
0.548614
0.536698
0.540512
0.548153
0.54915
0.548311
0.548524
0.550343
0.541287
0.53602
0.539003
0.54097
0.54744
0.545423
0.542028
0.542483
0.543537
0.542013
0.542447
0.535884
0.548591
0.546276
0.528458
0.543207
0.545047
0.551219
0.548416
0.547123
0.543985
0.539963
0.550502
0.546364
0.547989
0.544962
0.566891
0.559002
0.558414
0.54454
0.572325
0.56581
0.561097
0.560464
0.556577
0.570049
0.56661
0.562349
0.564496
0.57867
0.573758
0.567469
0.575706
0.576614
0.57985
0.592025
0.533098
0.530207
0.532425
0.541073
0.541051
0.542142
0.541416
0.541901
0.544771
0.543311
0.542038
0.545767
0.54669
0.546539
0.544706
0.545425
0.547171
0.545443
0.544621
0.544627
0.552503
0.550352
0.558819
0.557261
0.563632
0.561285
0.559071
0.56971
0.566597
0.572659
0.572008
0.566803
0.570972
0.574285
0.57691
0.576166
0.577841
0.580879
0.57894
0.577773
0.581492
0.580475
0.577324
0.578444
0.582869
0.5822
0.574072
0.30361
0.302945
0.302199
0.323097
0.322339
0.30336
0.313074
0.306703
0.304429
0.301581
0.300529
0.333043
0.328606
0.31972
0.314142
0.310673
0.308468
0.304376
0.302445
0.293991
0.338503
0.33554
0.336384
0.334347
0.332005
0.329079
0.324925
0.317062
0.312389
0.309292
0.307756
0.302581
0.296209
0.286937
0.291651
0.299378
0.348653
0.341885
0.338448
0.336956
0.335719
0.334348
0.33283
0.330518
0.324467
0.322859
0.317855
0.312863
0.310446
0.303439
0.291666
0.359292
0.356464
0.352037
0.345416
0.340553
0.338185
0.335962
0.334173
0.332398
0.331376
0.327538
0.324016
0.321095
0.316852
0.313946
0.363563
0.362209
0.357764
0.35459
0.349648
0.343853
0.341805
0.336995
0.334746
0.334228
0.331736
0.328604
0.325719
0.321686
0.317466
0.317584
0.377026
0.372787
0.364542
0.364141
0.358367
0.357218
0.353481
0.344528
0.339411
0.336705
0.336243
0.335104
0.333323
0.330069
0.327339
0.322614
0.32213
0.385675
0.384024
0.380325
0.378053
0.374179
0.369026
0.36605
0.362281
0.359658
0.356106
0.346372
0.342508
0.338541
0.337351
0.336416
0.334769
0.332823
0.332137
0.387897
0.388512
0.385103
0.382194
0.380998
0.377651
0.373487
0.36688
0.365172
0.36185
0.358275
0.350736
0.344039
0.340662
0.338136
0.336505
0.336241
0.332831
0.393844
0.391825
0.389185
0.39009
0.387312
0.384904
0.383209
0.379555
0.376173
0.371424
0.367333
0.364181
0.360241
0.354459
0.346678
0.342665
0.339811
0.339806
0.401994
0.398946
0.395575
0.39148
0.391152
0.388886
0.386874
0.384282
0.38136
0.377372
0.37327
0.370176
0.366464
0.361659
0.358676
0.349776
0.341715
0.413688
0.410068
0.40299
0.399941
0.398569
0.395481
0.392571
0.391432
0.388328
0.385617
0.383657
0.378843
0.374675
0.372481
0.369189
0.363253
0.357552
0.421597
0.419771
0.415445
0.41387
0.408701
0.404166
0.400948
0.397506
0.394965
0.39439
0.392819
0.388007
0.385306
0.381018
0.376136
0.373532
0.371486
0.367021
0.429116
0.424309
0.422453
0.419507
0.416606
0.415926
0.411342
0.407507
0.404125
0.399513
0.397932
0.395411
0.393265
0.391083
0.386424
0.381403
0.378
0.37914
0.434897
0.433346
0.430066
0.427794
0.427919
0.421586
0.418077
0.417349
0.414448
0.409945
0.406311
0.403147
0.40151
0.398622
0.393445
0.391863
0.389192
0.385932
0.43782
0.435733
0.432377
0.429721
0.427934
0.427223
0.422168
0.419847
0.417587
0.415322
0.410526
0.40638
0.405794
0.403946
0.401937
0.396182
0.395389
0.388678
0.446754
0.444307
0.438873
0.43645
0.433428
0.429882
0.428475
0.427187
0.424938
0.421676
0.419037
0.417447
0.413147
0.407755
0.406027
0.404212
0.40048
0.398135
0.450875
0.449986
0.44632
0.44331
0.43942
0.434345
0.431616
0.428686
0.427542
0.426967
0.424883
0.422768
0.41938
0.41497
0.410667
0.407329
0.405669
0.403765
0.456677
0.454096
0.452015
0.451457
0.447571
0.445179
0.442325
0.436101
0.432947
0.429366
0.426051
0.427343
0.426159
0.424187
0.421438
0.416669
0.412673
0.407091
0.46313
0.46029
0.456235
0.459229
0.456602
0.451857
0.448046
0.444866
0.439967
0.43614
0.430534
0.425826
0.426021
0.424963
0.425126
0.423362
0.419259
0.465063
0.464724
0.462263
0.46128
0.46088
0.460487
0.458356
0.454897
0.45059
0.44678
0.443227
0.437684
0.432967
0.427397
0.426802
0.426336
0.425824
0.423862
0.469128
0.465926
0.465614
0.463272
0.461992
0.462101
0.460752
0.458995
0.456628
0.452742
0.448421
0.445512
0.440437
0.434919
0.430394
0.426424
0.426928
0.427108
0.469254
0.469316
0.467381
0.466569
0.464064
0.462257
0.462497
0.461923
0.459942
0.458831
0.456323
0.452076
0.447857
0.443068
0.438432
0.437717
0.42949
0.427612
0.473684
0.471831
0.470223
0.470033
0.468877
0.467546
0.466318
0.464174
0.463173
0.462025
0.460436
0.459664
0.457401
0.455629
0.44913
0.446346
0.440345
0.434433
0.476514
0.475295
0.474015
0.472959
0.47274
0.471999
0.470214
0.468611
0.467475
0.466047
0.465388
0.463856
0.459933
0.459218
0.457185
0.45551
0.450855
0.446639
0.479139
0.476681
0.475039
0.473945
0.473389
0.473468
0.473158
0.471567
0.469196
0.467304
0.466526
0.466297
0.4652
0.461511
0.459991
0.45746
0.455464
0.451171
0.483319
0.481255
0.479348
0.477183
0.475581
0.474139
0.473582
0.473805
0.474103
0.472725
0.470519
0.469202
0.467632
0.466328
0.466457
0.46424
0.457408
0.461187
0.486156
0.483917
0.481721
0.47984
0.47782
0.476109
0.474908
0.473687
0.473728
0.474514
0.473882
0.472571
0.471829
0.470531
0.468329
0.469971
0.467679
0.464402
0.486547
0.485932
0.48452
0.482914
0.480733
0.478509
0.477145
0.47613
0.474788
0.474197
0.474585
0.474623
0.473773
0.472682
0.471141
0.469312
0.46876
0.46751
0.487474
0.487304
0.486635
0.484211
0.483978
0.482276
0.479486
0.477239
0.477228
0.476014
0.475045
0.474833
0.474545
0.473673
0.472373
0.470447
0.468874
0.468964
0.485693
0.486647
0.487701
0.487985
0.488502
0.485909
0.485085
0.483808
0.481853
0.478435
0.47724
0.477142
0.475923
0.475282
0.474766
0.474034
0.472609
0.469088
0.493116
0.489198
0.486516
0.486626
0.487592
0.487917
0.486868
0.485888
0.48495
0.483223
0.480562
0.477909
0.477781
0.477163
0.476302
0.475414
0.47436
0.473677
0.493368
0.493071
0.491091
0.489373
0.487206
0.486387
0.487588
0.487327
0.486438
0.485861
0.484594
0.48247
0.480248
0.478982
0.47858
0.47817
0.477712
0.478584
0.493553
0.493518
0.493246
0.492201
0.491233
0.489933
0.487323
0.48656
0.487464
0.486535
0.485984
0.485125
0.483509
0.482089
0.480349
0.478951
0.478576
0.499975
0.496614
0.495675
0.494723
0.49358
0.492957
0.492686
0.491882
0.489075
0.486609
0.487598
0.487075
0.486349
0.48527
0.484163
0.483078
0.481885
0.479743
0.501274
0.499872
0.499081
0.497611
0.495788
0.494115
0.49254
0.492775
0.492953
0.491027
0.487157
0.486674
0.487072
0.486319
0.485649
0.484979
0.482862
0.483578
0.501864
0.500463
0.499957
0.499975
0.499235
0.497607
0.49554
0.493936
0.493413
0.493074
0.492686
0.489979
0.486669
0.486864
0.486648
0.486537
0.487331
0.485256
0.504108
0.501817
0.501698
0.500926
0.50092
0.50092
0.500559
0.499511
0.497692
0.496105
0.494545
0.493696
0.493589
0.491999
0.489181
0.488112
0.48729
0.48722
0.503152
0.502402
0.502056
0.501186
0.501016
0.501201
0.501505
0.501325
0.500461
0.498592
0.497712
0.495753
0.493879
0.493793
0.492841
0.491091
0.489201
0.486892
0.506496
0.504237
0.503262
0.502664
0.501407
0.50081
0.5007
0.501012
0.501438
0.500633
0.499813
0.498337
0.49674
0.494257
0.494332
0.493745
0.491768
0.491115
0.505289
0.506525
0.505355
0.504615
0.503653
0.502215
0.501186
0.500702
0.500206
0.500778
0.501051
0.500017
0.499249
0.497407
0.495701
0.495202
0.494557
0.491294
0.509319
0.509093
0.507381
0.506136
0.505292
0.504636
0.503037
0.502471
0.50226
0.500813
0.499569
0.500003
0.499856
0.499605
0.498329
0.497551
0.495681
0.513817
0.511887
0.510185
0.508356
0.507646
0.506362
0.505689
0.505405
0.504153
0.503518
0.503917
0.503164
0.501098
0.500547
0.50007
0.499643
0.499422
0.498807
0.512624
0.511836
0.512169
0.510995
0.509631
0.508785
0.506942
0.505495
0.504916
0.505048
0.50476
0.50529
0.505237
0.503767
0.50221
0.50143
0.500306
0.500124
0.514342
0.513427
0.51268
0.512463
0.511273
0.510518
0.510085
0.508837
0.506741
0.504367
0.504128
0.504911
0.505542
0.505874
0.504734
0.503758
0.502364
0.501537
0.514068
0.514015
0.514246
0.513521
0.512971
0.511862
0.511274
0.510891
0.510254
0.509305
0.507625
0.504148
0.504358
0.505056
0.505376
0.504678
0.50361
0.502944
0.516973
0.515125
0.514407
0.514709
0.514428
0.513592
0.512654
0.511967
0.511443
0.511341
0.510601
0.509261
0.506728
0.505205
0.504993
0.504772
0.504255
0.503511
0.518706
0.51738
0.516209
0.515529
0.515632
0.51521
0.51436
0.513117
0.512323
0.51157
0.511471
0.511284
0.510466
0.508664
0.507238
0.506233
0.505619
0.504592
0.520605
0.519286
0.51808
0.516509
0.516376
0.51647
0.516149
0.515398
0.514427
0.513354
0.512538
0.511745
0.511522
0.510823
0.509844
0.508979
0.507713
0.50491
0.521349
0.521161
0.520574
0.519089
0.515983
0.516904
0.517759
0.517361
0.516042
0.514506
0.513046
0.513543
0.512291
0.511736
0.511229
0.510377
0.509217
0.510619
0.524217
0.523694
0.521959
0.522485
0.522105
0.520792
0.517967
0.516476
0.517015
0.517889
0.517686
0.517121
0.515104
0.512719
0.512668
0.51227
0.511934
0.510716
0.509637
0.523289
0.524747
0.524671
0.523623
0.52328
0.523183
0.522076
0.520829
0.519051
0.519399
0.51892
0.518293
0.51849
0.516544
0.513933
0.51337
0.513067
0.513237
0.523812
0.524049
0.524201
0.523799
0.523898
0.523918
0.523102
0.521647
0.520208
0.520152
0.519885
0.518434
0.518661
0.51763
0.516047
0.514224
0.513799
0.52502
0.525358
0.525213
0.524665
0.524498
0.524158
0.524259
0.524107
0.52334
0.522564
0.520643
0.520293
0.519647
0.518224
0.518294
0.517961
0.516951
0.515065
0.528001
0.525495
0.525575
0.525272
0.524996
0.524541
0.52379
0.524054
0.52423
0.523499
0.522694
0.521057
0.520679
0.519543
0.519357
0.51869
0.51851
0.516273
0.52412
0.52774
0.526631
0.525562
0.525146
0.52525
0.525159
0.524017
0.522566
0.522624
0.523519
0.52325
0.522743
0.522026
0.520876
0.520084
0.519476
0.519999
0.528695
0.528131
0.526578
0.525569
0.525167
0.525485
0.52577
0.525456
0.524347
0.52308
0.523441
0.523597
0.523775
0.522977
0.522074
0.521101
0.52113
0.53027
0.529085
0.52734
0.527267
0.526565
0.525736
0.526061
0.526402
0.526022
0.524861
0.523157
0.522553
0.523418
0.523464
0.522965
0.523007
0.522848
0.532422
0.534982
0.532962
0.530635
0.528429
0.528387
0.527736
0.526279
0.52607
0.526771
0.52678
0.525447
0.522995
0.522879
0.523391
0.523557
0.52201
0.522146
0.533881
0.532256
0.534193
0.53356
0.53156
0.530446
0.529899
0.529022
0.528043
0.526557
0.526253
0.526373
0.526739
0.525081
0.524074
0.523505
0.525418
0.534474
0.534571
0.533589
0.533621
0.533078
0.531363
0.530933
0.531032
0.529847
0.529464
0.528578
0.527743
0.52683
0.526795
0.525618
0.524698
0.523157
0.540852
0.538996
0.537191
0.53552
0.534445
0.533576
0.533323
0.532186
0.530463
0.530523
0.530447
0.530241
0.530387
0.530034
0.528244
0.527792
0.526704
0.52525
0.542138
0.541093
0.538958
0.538279
0.536773
0.535425
0.535472
0.534706
0.53339
0.531745
0.53184
0.532059
0.531143
0.530917
0.531149
0.530452
0.529799
0.529118
0.540963
0.541748
0.541222
0.540391
0.538948
0.537084
0.535447
0.535983
0.536049
0.533898
0.532878
0.532875
0.532982
0.532912
0.531351
0.531239
0.531039
0.530554
0.544244
0.542568
0.542633
0.54179
0.540772
0.539601
0.538469
0.536117
0.535504
0.535088
0.533991
0.533521
0.533404
0.533516
0.533845
0.532679
0.531615
0.531735
0.553655
0.548938
0.544793
0.544486
0.54362
0.542302
0.541189
0.540342
0.539384
0.537601
0.535978
0.535799
0.535636
0.534556
0.534171
0.534521
0.533575
0.53119
0.531884
0.545851
0.550259
0.547606
0.544799
0.54408
0.543622
0.542203
0.541264
0.541036
0.540123
0.53811
0.537445
0.537303
0.536622
0.535502
0.534461
0.535131
0.533609
0.532699
0.545326
0.5488
0.547047
0.545736
0.544869
0.543903
0.542455
0.541833
0.541382
0.540241
0.538445
0.538319
0.537983
0.537218
0.536015
0.53483
0.5345
0.533909
0.549011
0.549673
0.55023
0.548408
0.546598
0.54501
0.544177
0.54388
0.542382
0.54168
0.540204
0.538942
0.538907
0.538444
0.537581
0.535817
0.534544
0.55125
0.551337
0.551582
0.550525
0.548578
0.547337
0.546159
0.544872
0.544096
0.542841
0.541888
0.540787
0.539165
0.539173
0.538906
0.53891
0.536166
0.559369
0.554862
0.553528
0.552592
0.55105
0.549364
0.548096
0.546905
0.546131
0.545346
0.544215
0.542617
0.54163
0.540593
0.540429
0.539889
0.539259
0.569395
0.56618
0.561428
0.558181
0.556073
0.554782
0.553376
0.551505
0.549424
0.548348
0.547736
0.547037
0.545263
0.543798
0.54282
0.541746
0.540657
0.543072
0.57325
0.572446
0.568748
0.566587
0.562549
0.559995
0.557599
0.555848
0.554099
0.551615
0.550472
0.549949
0.549321
0.548097
0.545659
0.544102
0.54274
0.574792
0.573529
0.572566
0.571373
0.569026
0.566294
0.56336
0.560259
0.558179
0.556167
0.553939
0.552265
0.55153
0.550642
0.549845
0.547736
0.546146
0.573767
0.57523
0.574518
0.57383
0.572285
0.570662
0.568836
0.566362
0.563267
0.560771
0.558058
0.555716
0.554476
0.552574
0.551648
0.551065
0.548672
0.577513
0.57616
0.575944
0.574885
0.573923
0.572165
0.571763
0.570735
0.56842
0.565275
0.562466
0.559755
0.557381
0.555462
0.553721
0.553147
0.552166
0.577057
0.577936
0.576728
0.576574
0.575932
0.574989
0.572416
0.571651
0.572082
0.569529
0.566683
0.564346
0.561639
0.55966
0.557435
0.555038
0.554501
0.579696
0.578792
0.577518
0.575784
0.576383
0.57656
0.576646
0.575186
0.572136
0.571746
0.569638
0.567426
0.565876
0.563793
0.562612
0.560002
0.557175
0.579045
0.58037
0.578147
0.577328
0.5769
0.577112
0.576978
0.576396
0.573815
0.571852
0.570207
0.568689
0.567301
0.564951
0.566069
0.561876
0.587446
0.585585
0.581088
0.579997
0.578213
0.577617
0.577592
0.577263
0.576509
0.575454
0.573186
0.57081
0.57039
0.568284
0.566849
0.591342
0.587271
0.590205
0.588195
0.583643
0.580353
0.579152
0.578682
0.578343
0.577636
0.576383
0.575318
0.574417
0.572838
0.571654
0.569345
0.593612
0.593436
0.590902
0.588686
0.586858
0.584443
0.581154
0.580798
0.579794
0.57867
0.577977
0.575916
0.573807
0.575005
0.573833
0.571726
0.60255
0.597655
0.595419
0.593457
0.589682
0.587212
0.583956
0.58239
0.581838
0.58114
0.580369
0.579245
0.577827
0.575048
0.574728
0.572346
0.611449
0.60981
0.605473
0.600245
0.597909
0.596898
0.5937
0.591616
0.588885
0.584844
0.582046
0.58033
0.579656
0.580243
0.580012
0.57753
0.6136
0.609364
0.610505
0.609292
0.60383
0.600408
0.598703
0.59687
0.594997
0.593592
0.591747
0.588162
0.583652
0.580703
0.580932
0.580734
0.631723
0.622814
0.616868
0.612912
0.611235
0.607145
0.603959
0.602094
0.600333
0.598498
0.596881
0.59508
0.593963
0.589896
0.584701
0.583532
0.643318
0.635018
0.627595
0.620475
0.617426
0.614764
0.6104
0.606126
0.60489
0.603156
0.601898
0.600351
0.597913
0.594902
0.593453
0.591513
0.650325
0.642061
0.637882
0.633318
0.624735
0.619236
0.617915
0.616595
0.609671
0.60547
0.605387
0.602507
0.60259
0.602631
0.598077
0.594555
0.652092
0.64841
0.645646
0.642634
0.637464
0.631314
0.625341
0.621678
0.61936
0.615682
0.608382
0.608055
0.608594
0.605761
0.604798
0.658383
0.654909
0.651345
0.647859
0.645851
0.641003
0.636245
0.630808
0.626313
0.622221
0.620104
0.613747
0.610536
0.608398
0.610651
0.608558
0.664801
0.661763
0.658172
0.653937
0.650203
0.647227
0.643539
0.639743
0.635036
0.630515
0.625784
0.622954
0.617539
0.613389
0.610386
0.610679
0.67174
0.66876
0.665122
0.660827
0.656297
0.653742
0.64912
0.646048
0.642253
0.638311
0.633852
0.630001
0.625271
0.619796
0.616076
0.671749
0.669489
0.667266
0.663851
0.659734
0.65739
0.651884
0.648269
0.644692
0.641281
0.63637
0.633675
0.627873
0.62573
0.682166
0.673079
0.671844
0.671053
0.665645
0.661541
0.6591
0.655101
0.651395
0.649042
0.643017
0.638363
0.636561
0.679642
0.678747
0.677827
0.67582
0.673601
0.67234
0.669698
0.66376
0.661591
0.657943
0.653968
0.651177
0.646976
0.64059
0.686208
0.682299
0.682293
0.680569
0.679175
0.675276
0.673993
0.671499
0.665984
0.663173
0.659231
0.65738
0.654155
0.651823
0.696691
0.69085
0.685187
0.682415
0.683441
0.682727
0.679237
0.678171
0.673713
0.671553
0.665716
0.663635
0.659969
0.659998
0.699861
0.698605
0.69309
0.690375
0.687453
0.684382
0.685813
0.683362
0.680805
0.67755
0.673795
0.669663
0.666285
0.662327
0.710023
0.70504
0.701364
0.698759
0.698237
0.697273
0.687941
0.68744
0.685705
0.683495
0.680936
0.677495
0.675449
0.669179
0.713963
0.71042
0.706988
0.702971
0.702067
0.696906
0.695866
0.691263
0.690552
0.688537
0.685001
0.683752
0.681299
0.70393
0.70243
0.701744
0.696982
0.696234
0.693403
0.692171
0.686896
0.684816
0.705848
0.702873
0.700836
0.697437
0.699027
0.696008
0.696329
0.691328
0.7034
0.703826
0.703728
0.702318
0.69882
0.697534
0.695773
0.722725
0.714158
0.701837
0.705607
0.70153
0.700689
0.698415
0.717291
0.710464
0.703654
0.700224
0.700627
0.726018
0.723131
0.707932
0.712609
0.70593
0.700966
0.741812
0.750071
0.738757
0.733565
0.709212
0.745592
0.742399
0.745239
0.744596
0.746556
0.712015
0.751573
0.742707
0.734687
0.738606
0.737934
0.763338
0.741623
0.736742
0.106314
0.103769
0.106328
0.138734
0.128756
0.121534
0.118431
0.11245
0.107296
0.102451
0.103781
0.0637304
0.14924
0.150889
0.142651
0.141788
0.137284
0.129735
0.122809
0.11852
0.113883
0.110923
0.104901
0.102076
0.09521
0.0816646
0.0696486
0.156789
0.152058
0.152804
0.148416
0.150741
0.14582
0.141651
0.1389
0.132201
0.125949
0.119537
0.111765
0.109485
0.104929
0.0986365
0.0929457
0.0824712
0.0674274
0.066415
0.0497516
0.0176656
0.0140934
0.183075
0.182252
0.169715
0.161675
0.153497
0.150791
0.150357
0.14836
0.147645
0.14549
0.139981
0.134441
0.129135
0.12298
0.109576
0.116493
0.101438
0.0960613
0.0903467
0.0819862
0.0734093
0.0600733
0.0473881
0.220783
0.206378
0.202239
0.19035
0.185436
0.174266
0.163615
0.156686
0.15452
0.152724
0.150104
0.148127
0.146231
0.141845
0.13381
0.133813
0.126368
0.126029
0.105411
0.102191
0.0949609
0.0902089
0.0815011
0.0748457
0.0690996
0.225991
0.222433
0.221105
0.213758
0.206636
0.188563
0.182611
0.176947
0.170329
0.16646
0.160694
0.155183
0.151638
0.14953
0.146221
0.144749
0.13772
0.136322
0.130555
0.122585
0.106011
0.10268
0.0952458
0.0898231
0.0842761
0.233667
0.228972
0.225348
0.225097
0.219212
0.213782
0.206686
0.199405
0.190469
0.178622
0.16767
0.165315
0.166473
0.159042
0.153239
0.150462
0.147
0.148073
0.140589
0.137664
0.13357
0.124403
0.113418
0.106484
0.098344
0.244495
0.240653
0.233492
0.228272
0.223815
0.223013
0.221695
0.217211
0.208622
0.203683
0.196197
0.186055
0.173148
0.164389
0.163089
0.16389
0.153093
0.153765
0.149566
0.146468
0.143282
0.139879
0.13567
0.127448
0.122163
0.261821
0.246082
0.249517
0.248183
0.242948
0.237324
0.232284
0.22669
0.22407
0.222457
0.218726
0.209981
0.207137
0.200623
0.193517
0.182957
0.171219
0.165307
0.159238
0.156398
0.153136
0.154243
0.146908
0.143887
0.141912
0.133022
0.281019
0.274788
0.269547
0.26022
0.253969
0.254884
0.252312
0.245882
0.240316
0.235248
0.230374
0.22461
0.221224
0.21704
0.212744
0.208534
0.204517
0.198098
0.189114
0.178525
0.170946
0.165548
0.163328
0.158946
0.157956
0.149052
0.143735
0.285582
0.280885
0.274995
0.270423
0.265287
0.259363
0.254931
0.253797
0.249045
0.243595
0.237773
0.232983
0.228306
0.223272
0.215998
0.213881
0.210419
0.20581
0.200337
0.196301
0.187078
0.162354
0.171941
0.168327
0.162322
0.293699
0.291152
0.290811
0.287551
0.282633
0.275656
0.273376
0.269061
0.262699
0.259256
0.256424
0.252436
0.247706
0.242539
0.236872
0.231345
0.224716
0.21624
0.214678
0.21107
0.206151
0.201889
0.196705
0.184213
0.179098
0.302204
0.296675
0.294225
0.292028
0.28847
0.285225
0.279199
0.274846
0.271569
0.267799
0.262103
0.260254
0.255653
0.249896
0.24629
0.240751
0.234595
0.227566
0.218408
0.215815
0.212312
0.207542
0.20098
0.195862
0.309098
0.309446
0.302968
0.304711
0.297482
0.294949
0.292873
0.29046
0.285602
0.281035
0.276611
0.272705
0.270272
0.26415
0.260843
0.257479
0.253025
0.248522
0.243599
0.23759
0.230606
0.225657
0.221204
0.214804
0.20915
0.324313
0.316674
0.310786
0.309025
0.307357
0.304995
0.299779
0.297348
0.294109
0.292451
0.285866
0.28204
0.277796
0.273476
0.270754
0.267583
0.263127
0.259748
0.255558
0.249709
0.24609
0.240857
0.234182
0.230759
0.223137
0.330511
0.327298
0.324608
0.319371
0.314201
0.310056
0.308636
0.305748
0.301883
0.29792
0.296011
0.291994
0.285748
0.282956
0.277556
0.274594
0.271937
0.26717
0.265436
0.262168
0.257429
0.252894
0.248627
0.246569
0.233699
0.338151
0.336409
0.335164
0.332596
0.329852
0.326758
0.322012
0.316651
0.31187
0.308955
0.307257
0.303711
0.299285
0.295379
0.291764
0.288717
0.28482
0.279381
0.275615
0.272659
0.265497
0.265461
0.263806
0.258584
0.256798
0.251871
0.346813
0.34851
0.34141
0.337807
0.335557
0.334569
0.332653
0.328944
0.325283
0.319986
0.314024
0.310575
0.3092
0.305321
0.300317
0.294997
0.291353
0.289271
0.288734
0.282899
0.277358
0.276365
0.270522
0.265907
0.262507
0.256726
0.36864
0.357776
0.349859
0.346306
0.341857
0.338225
0.336007
0.335106
0.334026
0.331608
0.3287
0.323682
0.317592
0.313547
0.310675
0.307486
0.302789
0.297243
0.291623
0.289598
0.289312
0.282634
0.277842
0.275285
0.271441
0.264115
0.263437
0.365346
0.366588
0.36303
0.357911
0.353822
0.348075
0.342818
0.338949
0.337116
0.336121
0.334467
0.332449
0.33048
0.326736
0.321568
0.317238
0.313168
0.309848
0.306248
0.301671
0.293179
0.291602
0.288586
0.283305
0.278692
0.275695
0.27031
0.374435
0.369382
0.366507
0.362798
0.359523
0.355576
0.350066
0.344943
0.340962
0.338123
0.336682
0.334936
0.332834
0.330805
0.328079
0.324049
0.319951
0.315705
0.312607
0.310528
0.305935
0.298424
0.293587
0.288926
0.282314
0.278248
0.386423
0.37897
0.374698
0.371754
0.368648
0.364709
0.361199
0.357988
0.352515
0.347423
0.342627
0.338836
0.337274
0.336043
0.334312
0.331955
0.329086
0.325522
0.321322
0.316895
0.314613
0.310773
0.30762
0.302598
0.295416
0.289839
0.387966
0.387385
0.385612
0.381273
0.377725
0.374614
0.370592
0.36701
0.363207
0.35974
0.355191
0.350484
0.344829
0.339781
0.337148
0.336889
0.33581
0.333461
0.330543
0.327086
0.322781
0.318766
0.315148
0.311722
0.307884
0.303008
0.389953
0.389455
0.387661
0.385585
0.382164
0.379554
0.37648
0.372832
0.368999
0.365175
0.36162
0.357313
0.352764
0.346228
0.340741
0.337706
0.337156
0.336416
0.33451
0.332155
0.329354
0.324796
0.321133
0.316742
0.313158
0.401516
0.398581
0.394088
0.391191
0.389548
0.388076
0.384899
0.381678
0.379108
0.375975
0.371916
0.367458
0.363503
0.359404
0.3554
0.348214
0.341953
0.33892
0.337954
0.337155
0.335488
0.333244
0.330314
0.326423
0.322493
0.321367
0.413543
0.409031
0.405123
0.400579
0.396422
0.393433
0.391225
0.389934
0.386586
0.384069
0.381383
0.378592
0.375034
0.370541
0.365965
0.362221
0.358136
0.352194
0.344824
0.340665
0.339259
0.338244
0.336598
0.334584
0.331557
0.331322
0.422515
0.418209
0.413879
0.410426
0.406912
0.402871
0.398975
0.39646
0.393726
0.391332
0.388373
0.385634
0.382986
0.380002
0.376896
0.373016
0.368986
0.365543
0.361224
0.357021
0.349374
0.344914
0.341263
0.339796
0.337588
0.335653
0.332996
0.424132
0.42106
0.419533
0.415979
0.412868
0.409271
0.405506
0.401833
0.398958
0.396289
0.393845
0.391001
0.388031
0.385135
0.3818
0.378421
0.374815
0.371926
0.368472
0.363941
0.359665
0.35385
0.348987
0.345513
0.343235
0.341251
0.43421
0.430852
0.427726
0.424559
0.421773
0.417595
0.415116
0.412032
0.408215
0.404693
0.401362
0.398615
0.39607
0.394024
0.390308
0.387091
0.383805
0.380019
0.377238
0.374864
0.371027
0.366913
0.363021
0.357371
0.349489
0.346898
0.435115
0.433514
0.430869
0.428977
0.426622
0.424771
0.420135
0.417126
0.414991
0.411496
0.407679
0.404265
0.401191
0.398714
0.395981
0.392375
0.389263
0.385553
0.381231
0.379377
0.376774
0.372695
0.369117
0.364869
0.357094
0.442223
0.439354
0.436842
0.434135
0.431277
0.429552
0.428426
0.425909
0.421879
0.418848
0.417335
0.414429
0.409966
0.406329
0.40374
0.401991
0.398415
0.394455
0.391563
0.388367
0.384804
0.38132
0.378661
0.374902
0.369636
0.446705
0.443399
0.440883
0.438224
0.435309
0.43221
0.429994
0.428625
0.42597
0.422825
0.419697
0.418358
0.415835
0.411345
0.407135
0.405549
0.405023
0.401866
0.39588
0.393683
0.390807
0.387673
0.383408
0.379867
0.378208
0.45216
0.450807
0.448445
0.445538
0.442841
0.440088
0.4369
0.433626
0.431069
0.429603
0.427445
0.424649
0.421835
0.420049
0.417205
0.412605
0.407821
0.405088
0.404969
0.403451
0.398454
0.395995
0.39291
0.390333
0.387256
0.457986
0.455663
0.453509
0.451418
0.447587
0.445074
0.442311
0.438546
0.434763
0.431518
0.429597
0.427984
0.426723
0.424758
0.422612
0.419183
0.415023
0.409991
0.405754
0.404643
0.40369
0.400287
0.397232
0.395166
0.391612
0.46301
0.461926
0.459742
0.458041
0.456378
0.454818
0.450819
0.447267
0.444592
0.440766
0.436678
0.432472
0.429978
0.427406
0.426699
0.425344
0.423807
0.42131
0.417584
0.413889
0.409018
0.406271
0.404636
0.401937
0.396535
0.465547
0.464389
0.462497
0.460856
0.459716
0.459292
0.458351
0.455195
0.45195
0.447994
0.443601
0.43924
0.434769
0.431131
0.427736
0.426543
0.425138
0.423932
0.421696
0.419025
0.416237
0.412421
0.409914
0.40383
0.470967
0.467831
0.466446
0.465259
0.463434
0.461795
0.460477
0.460518
0.460439
0.458113
0.454881
0.450751
0.446695
0.442168
0.436917
0.432273
0.428953
0.42732
0.426011
0.425244
0.423014
0.419905
0.418186
0.414286
0.409479
0.47097
0.469443
0.468845
0.467815
0.46614
0.464501
0.463402
0.461868
0.461359
0.461165
0.46009
0.457773
0.453226
0.448999
0.444498
0.439482
0.434317
0.430952
0.428562
0.427354
0.426507
0.424531
0.421607
0.419199
0.476271
0.473402
0.472078
0.471197
0.469818
0.468781
0.46766
0.466053
0.464621
0.46317
0.462277
0.461774
0.460891
0.459665
0.456827
0.452343
0.44751
0.442828
0.437942
0.433886
0.43038
0.428664
0.427211
0.424639
0.421305
0.477394
0.475852
0.474356
0.47292
0.471781
0.471133
0.469904
0.468789
0.467411
0.466111
0.46465
0.463289
0.462262
0.460828
0.459624
0.457423
0.454012
0.450193
0.445574
0.441111
0.436565
0.433466
0.430455
0.427702
0.483037
0.48005
0.478025
0.476247
0.474932
0.473431
0.472724
0.472368
0.47147
0.469945
0.468489
0.467261
0.465999
0.464964
0.463371
0.461338
0.459586
0.457333
0.454377
0.451671
0.447392
0.443339
0.438882
0.436031
0.436344
0.48288
0.482002
0.480315
0.478689
0.477154
0.475567
0.474055
0.473323
0.473028
0.472334
0.470843
0.469277
0.467773
0.466666
0.465901
0.464552
0.462631
0.460467
0.457954
0.455887
0.452742
0.449131
0.445936
0.44124
0.484469
0.484132
0.482674
0.481232
0.479517
0.477757
0.476131
0.474688
0.473818
0.473448
0.472966
0.471774
0.470447
0.469406
0.468231
0.466798
0.466112
0.464614
0.461713
0.459289
0.457217
0.453841
0.451155
0.449818
0.48557
0.486062
0.485447
0.484805
0.483738
0.482062
0.480267
0.478529
0.476851
0.47544
0.474332
0.473837
0.473512
0.472729
0.471652
0.470814
0.469526
0.467604
0.466955
0.466197
0.463397
0.460489
0.458706
0.454353
0.452276
0.486161
0.486032
0.48616
0.485605
0.485302
0.484418
0.4829
0.481292
0.479579
0.47791
0.476483
0.475224
0.474451
0.474065
0.473537
0.472692
0.471748
0.47044
0.468586
0.467242
0.466322
0.464436
0.463245
0.462789
0.490784
0.486884
0.486866
0.486634
0.486854
0.486423
0.484962
0.48368
0.482306
0.480729
0.479012
0.477504
0.47626
0.475246
0.47461
0.474037
0.473282
0.472315
0.470957
0.469529
0.468437
0.466618
0.465353
0.461234
0.491896
0.490756
0.488572
0.486762
0.486457
0.486841
0.487088
0.485892
0.484513
0.483286
0.481847
0.479978
0.478356
0.47736
0.476262
0.47538
0.474611
0.473706
0.472743
0.471497
0.470075
0.469137
0.468756
0.493485
0.492899
0.492623
0.491397
0.489814
0.487987
0.486773
0.486844
0.487175
0.486283
0.48509
0.484076
0.482989
0.48113
0.479315
0.478238
0.47739
0.476552
0.475708
0.474772
0.473494
0.472708
0.470728
0.466963
0.495464
0.494626
0.493803
0.492947
0.491951
0.491022
0.489567
0.488102
0.487358
0.487287
0.486719
0.485594
0.484679
0.483833
0.482451
0.480858
0.479429
0.478514
0.477611
0.476842
0.476003
0.474463
0.47505
0.471335
0.499035
0.497055
0.496274
0.495166
0.494143
0.493021
0.492039
0.49107
0.489908
0.488824
0.487951
0.487342
0.4862
0.485236
0.484379
0.483268
0.482092
0.480689
0.479626
0.478493
0.477585
0.476996
0.47488
0.502403
0.499621
0.499491
0.498313
0.497119
0.496403
0.495192
0.493921
0.492921
0.4922
0.491451
0.490114
0.488716
0.487852
0.486865
0.485845
0.484926
0.484006
0.482951
0.48178
0.480736
0.479627
0.4792
0.476265
0.503604
0.501517
0.500176
0.499777
0.499059
0.498219
0.497522
0.496219
0.49481
0.493646
0.492792
0.492297
0.491092
0.489376
0.488124
0.487213
0.486298
0.4855
0.484825
0.483776
0.482615
0.482273
0.480352
0.481909
0.50158
0.502135
0.501753
0.501048
0.500451
0.499951
0.499343
0.498662
0.497391
0.496024
0.494958
0.493807
0.493037
0.492275
0.490819
0.489021
0.487728
0.486968
0.486021
0.485685
0.484892
0.483874
0.483729
0.481198
0.504462
0.503424
0.502544
0.501289
0.501044
0.500879
0.500691
0.500349
0.499654
0.498606
0.497232
0.496206
0.494856
0.493736
0.493074
0.491957
0.490209
0.488644
0.487866
0.486969
0.486253
0.485357
0.484989
0.503958
0.506014
0.504977
0.504204
0.503108
0.501949
0.500986
0.500765
0.500847
0.500748
0.50022
0.499278
0.498182
0.497027
0.495953
0.494411
0.493587
0.492698
0.491367
0.489738
0.488556
0.487737
0.487057
0.485906
0.511202
0.506813
0.506418
0.50599
0.504982
0.504013
0.502804
0.501591
0.500876
0.500661
0.500556
0.500344
0.499749
0.499096
0.497951
0.496737
0.495394
0.494376
0.49337
0.49229
0.490764
0.489581
0.488149
0.487298
0.511322
0.509501
0.508074
0.507514
0.506526
0.505671
0.504733
0.503652
0.502419
0.501513
0.50101
0.500496
0.500169
0.500117
0.499589
0.498404
0.497434
0.49638
0.495158
0.494069
0.492938
0.490844
0.489445
0.512074
0.511474
0.510064
0.508823
0.508035
0.507299
0.506222
0.505363
0.504515
0.503372
0.502536
0.502009
0.501165
0.500151
0.499898
0.499778
0.498957
0.498276
0.497432
0.496048