# vtk DataFile Version 2.0
track0
ASCII
DATASET POLYDATA
POINTS 12065 float
-0.0205 0.001 1e-05
-0.02052 0.000999985 1e-05
-0.02054 0.000999974 1e-05
-0.02056 0.000999965 1e-05
-0.02058 0.000999959 1e-05
-0.0206 0.000999956 1e-05
-0.0205 0.00367778 1e-05
-0.02052 0.00367778 1e-05
-0.02054 0.00367777 1e-05
-0.02056 0.00367777 1e-05
-0.02058 0.00367777 1e-05
-0.0206 0.00367777 1e-05
-0.0205 0.00635556 1e-05
-0.02052 0.00635555 1e-05
-0.02054 0.00635555 1e-05
-0.02056 0.00635555 1e-05
-0.02058 0.00635555 1e-05
-0.0206 0.00635555 1e-05
-0.0205 0.00903333 1e-05
-0.02052 0.00903333 1e-05
-0.02054 0.00903333 1e-05
-0.02056 0.00903333 1e-05
-0.02058 0.00903333 1e-05
-0.0206 0.00903333 1e-05
-0.0205 0.0117111 1e-05
-0.02052 0.0117111 1e-05
-0.02054 0.0117111 1e-05
-0.02056 0.0117111 1e-05
-0.02058 0.0117111 1e-05
-0.0206 0.0117111 1e-05
-0.0205 0.0143889 1e-05
-0.02052 0.0143889 1e-05
-0.02054 0.0143889 1e-05
-0.02056 0.0143889 1e-05
-0.02058 0.0143889 1e-05
-0.0206 0.0143889 1e-05
-0.0205 0.0170667 1e-05
-0.02052 0.0170667 1e-05
-0.02054 0.0170667 1e-05
-0.02056 0.0170667 1e-05
-0.02058 0.0170667 1e-05
-0.0206 0.0170667 1e-05
-0.0205 0.0197444 1e-05
-0.02052 0.0197444 1e-05
-0.02054 0.0197444 1e-05
-0.02056 0.0197444 1e-05
-0.02058 0.0197444 1e-05
-0.0206 0.0197444 1e-05
-0.0205 0.0224222 1e-05
-0.02052 0.0224222 1e-05
-0.02054 0.0224222 1e-05
-0.02056 0.0224222 1e-05
-0.02058 0.0224222 1e-05
-0.0206 0.0224222 1e-05
-0.0205 0.0251 1e-05
-0.02052 0.0250998 1e-05
-0.02054 0.0250997 1e-05
-0.02056 0.0250995 1e-05
-0.02058 0.0250995 1e-05
-0.0206 0.0250994 1e-05
-0.0205 0.001 1e-05
-0.0202034 0.00100022 1e-05
-0.0199069 0.00100067 1e-05
-0.0196103 0.00100132 1e-05
-0.0193137 0.00100219 1e-05
-0.0190172 0.00100326 1e-05
-0.0187132 0.00100466 1e-05
-0.0184093 0.00100588 1e-05
-0.0181054 0.0010071 1e-05
-0.0178015 0.00100832 1e-05
-0.0174976 0.00100953 1e-05
-0.0172058 0.00101083 1e-05
-0.016914 0.00101193 1e-05
-0.0166222 0.00101303 1e-05
-0.0163305 0.00101413 1e-05
-0.0160387 0.00101523 1e-05
-0.0157586 0.00101636 1e-05
-0.0154784 0.00101745 1e-05
-0.0151983 0.00101856 1e-05
-0.0149182 0.00101972 1e-05
-0.0146381 0.00102091 1e-05
-0.0143748 0.00102209 1e-05
-0.0141115 0.00102327 1e-05
-0.0138482 0.00102449 1e-05
-0.0135849 0.00102574 1e-05
-0.0133625 0.00102682 1e-05
-0.0133487 0.00102689 1e-05
-0.0133349 0.00102695 1e-05
-0.0133211 0.00102702 1e-05
-0.0133073 0.00102709 1e-05
-0.0132934 0.00102716 1e-05
-0.0130353 0.00102845 1e-05
-0.0127771 0.00102975 1e-05
-0.0125189 0.00103107 1e-05
-0.0122607 0.00103241 1e-05
-0.0120025 0.00103376 1e-05
-0.0117547 0.00103507 1e-05
-0.0115068 0.00103638 1e-05
-0.0112589 0.00103771 1e-05
-0.0110111 0.00103903 1e-05
-0.0107632 0.00104036 1e-05
-0.0105252 0.00104164 1e-05
-0.0102873 0.00104292 1e-05
-0.0100493 0.0010442 1e-05
-0.00981133 0.00104548 1e-05
-0.00957337 0.00104676 1e-05
-0.00934491 0.00104798 1e-05
-0.00911645 0.0010492 1e-05
-0.00888799 0.00105042 1e-05
-0.00865954 0.00105164 1e-05
-0.00843108 0.00105286 1e-05
-0.00821175 0.00105402 1e-05
-0.00799242 0.00105517 1e-05
-0.00777309 0.00105633 1e-05
-0.00755376 0.00105748 1e-05
-0.00733443 0.00105863 1e-05
-0.00712387 0.00105972 1e-05
-0.0069133 0.00106082 1e-05
-0.00670273 0.00106191 1e-05
-0.00649216 0.00106299 1e-05
-0.0062816 0.00106407 1e-05
-0.00607944 0.0010651 1e-05
-0.00587729 0.00106613 1e-05
-0.00567514 0.00106716 1e-05
-0.00547298 0.00106818 1e-05
-0.00527083 0.00106919 1e-05
-0.00507675 0.00107016 1e-05
-0.00488267 0.00107113 1e-05
-0.0046886 0.0010721 1e-05
-0.00449452 0.00107306 1e-05
-0.00430044 0.00107402 1e-05
-0.00411412 0.00107493 1e-05
-0.0039278 0.00107585 1e-05
-0.00374147 0.00107676 1e-05
-0.00355515 0.00107767 1e-05
-0.00336883 0.00107858 1e-05
-0.00318995 0.00107944 1e-05
-0.00301107 0.0010803 1e-05
-0.00283219 0.00108117 1e-05
-0.00265331 0.00108203 1e-05
-0.00247443 0.0010829 1e-05
-0.0023027 0.00108372 1e-05
-0.00213097 0.00108455 1e-05
-0.00195924 0.00108537 1e-05
-0.0017875 0.0010862 1e-05
-0.00161577 0.00108703 1e-05
-0.0014509 0.00108781 1e-05
-0.00128603 0.00108861 1e-05
-0.00112116 0.00108941 1e-05
-0.000956289 0.00109021 1e-05
-0.000791418 0.00109101 1e-05
-0.000633135 0.00109179 1e-05
-0.000474851 0.00109257 1e-05
-0.000316567 0.00109336 1e-05
-0.000158284 0.00109415 1e-05
0 0.00109494 1e-05
0.000105677 0.00109547 1e-05
0.000211355 0.001096 1e-05
0.000317032 0.00109653 1e-05
0.00042271 0.00109706 1e-05
0.000528387 0.00109759 1e-05
0.000634886 0.00109811 1e-05
0.000741385 0.00109864 1e-05
0.000847885 0.00109916 1e-05
0.000954384 0.00109967 1e-05
0.00106088 0.00110018 1e-05
0.00116821 0.00110069 1e-05
0.00127554 0.0011012 1e-05
0.00138286 0.00110169 1e-05
0.00149019 0.00110218 1e-05
0.00159752 0.00110266 1e-05
0.00170568 0.00110314 1e-05
0.00181384 0.00110361 1e-05
0.001922 0.00110407 1e-05
0.00203016 0.00110452 1e-05
0.00213833 0.00110496 1e-05
0.00224733 0.0011054 1e-05
0.00235633 0.00110583 1e-05
0.00246533 0.00110624 1e-05
0.00257434 0.00110665 1e-05
0.00268334 0.00110706 1e-05
0.00279319 0.00110744 1e-05
0.00290304 0.00110783 1e-05
0.00301289 0.00110821 1e-05
0.00312274 0.00110858 1e-05
0.00323259 0.00110894 1e-05
0.00334329 0.00110929 1e-05
0.003454 0.00110964 1e-05
0.0035647 0.00110998 1e-05
0.0036754 0.00111031 1e-05
0.00378611 0.00111064 1e-05
0.00389767 0.00111095 1e-05
0.00400924 0.00111126 1e-05
0.0041208 0.00111156 1e-05
0.00423237 0.00111185 1e-05
0.00434393 0.00111214 1e-05
0.00445636 0.00111241 1e-05
0.00456879 0.00111268 1e-05
0.00468123 0.00111295 1e-05
0.00479366 0.0011132 1e-05
0.00490609 0.00111345 1e-05
0.0050194 0.00111368 1e-05
0.0051327 0.00111391 1e-05
0.00524601 0.00111414 1e-05
0.00535932 0.00111435 1e-05
0.00547262 0.00111456 1e-05
0.00558681 0.00111475 1e-05
0.005701 0.00111495 1e-05
0.00581518 0.00111513 1e-05
0.00592937 0.00111531 1e-05
0.00604356 0.00111547 1e-05
0.00615863 0.00111563 1e-05
0.00627371 0.00111579 1e-05
0.00638878 0.00111593 1e-05
0.00650386 0.00111607 1e-05
0.00661893 0.0011162 1e-05
0.0067349 0.00111632 1e-05
0.00685087 0.00111643 1e-05
0.00696684 0.00111654 1e-05
0.00708281 0.00111664 1e-05
0.00719878 0.00111673 1e-05
0.00731565 0.00111681 1e-05
0.00743252 0.00111688 1e-05
0.00754939 0.00111695 1e-05
0.00766626 0.00111701 1e-05
0.00778313 0.00111706 1e-05
0.00780261 0.00111707 1e-05
0.00782208 0.00111707 1e-05
0.00784155 0.00111708 1e-05
0.00786102 0.00111708 1e-05
0.0078803 0.00111709 1e-05
0.00797865 0.00111712 1e-05
0.008077 0.00111714 1e-05
0.00817534 0.00111716 1e-05
0.00827369 0.00111717 1e-05
0.00837203 0.00111718 1e-05
0.00849073 0.00111718 1e-05
0.00860942 0.00111717 1e-05
0.00872812 0.00111715 1e-05
0.00884682 0.00111713 1e-05
0.00896551 0.0011171 1e-05
0.00908513 0.00111705 1e-05
0.00920475 0.001117 1e-05
0.00932437 0.00111694 1e-05
0.00944398 0.00111687 1e-05
0.0095636 0.00111679 1e-05
0.00968415 0.0011167 1e-05
0.0098047 0.0011166 1e-05
0.00992525 0.0011165 1e-05
0.0100458 0.00111638 1e-05
0.0101663 0.00111626 1e-05
0.0102878 0.00111612 1e-05
0.0104093 0.00111598 1e-05
0.0105308 0.00111583 1e-05
0.0106523 0.00111567 1e-05
0.0107738 0.0011155 1e-05
0.0108962 0.00111531 1e-05
0.0110186 0.00111512 1e-05
0.0111411 0.00111492 1e-05
0.0112635 0.00111471 1e-05
0.0113859 0.0011145 1e-05
0.0115093 0.00111426 1e-05
0.0116327 0.00111402 1e-05
0.0117561 0.00111377 1e-05
0.0118795 0.00111351 1e-05
0.0120028 0.00111325 1e-05
0.0121272 0.00111296 1e-05
0.0122515 0.00111267 1e-05
0.0123759 0.00111237 1e-05
0.0125002 0.00111206 1e-05
0.0126245 0.00111175 1e-05
0.0127498 0.00111141 1e-05
0.0128752 0.00111107 1e-05
0.0130005 0.00111072 1e-05
0.0131258 0.00111036 1e-05
0.0132511 0.00110999 1e-05
0.0133774 0.00110959 1e-05
0.0135036 0.0011092 1e-05
0.0136299 0.0011088 1e-05
0.0137562 0.00110838 1e-05
0.0138825 0.00110796 1e-05
0.0140098 0.00110751 1e-05
0.014137 0.00110707 1e-05
0.0142643 0.00110661 1e-05
0.0143915 0.00110614 1e-05
0.0145188 0.00110566 1e-05
0.0146471 0.00110516 1e-05
0.0147753 0.00110465 1e-05
0.0149036 0.00110414 1e-05
0.0150318 0.00110361 1e-05
0.0151601 0.00110308 1e-05
0.0152893 0.00110253 1e-05
0.0154186 0.00110196 1e-05
0.0155478 0.00110139 1e-05
0.0156771 0.00110081 1e-05
0.0158063 0.00110022 1e-05
0.0159366 0.00109961 1e-05
0.0160668 0.00109899 1e-05
0.0161971 0.00109836 1e-05
0.0163274 0.00109772 1e-05
0.0164576 0.00109707 1e-05
0.0165889 0.0010964 1e-05
0.0167201 0.00109573 1e-05
0.0168514 0.00109504 1e-05
0.0169827 0.00109434 1e-05
0.0171139 0.00109363 1e-05
0.0172462 0.00109291 1e-05
0.0173785 0.00109217 1e-05
0.0175108 0.00109142 1e-05
0.0176431 0.00109066 1e-05
0.0177754 0.0010899 1e-05
0.0179087 0.00108912 1e-05
0.018042 0.00108833 1e-05
0.0181753 0.00108752 1e-05
0.0183087 0.00108669 1e-05
0.018442 0.00108587 1e-05
0.0185763 0.00108504 1e-05
0.0187107 0.00108418 1e-05
0.018845 0.00108331 1e-05
0.0189794 0.00108243 1e-05
0.0191137 0.00108154 1e-05
0.0192491 0.00108065 1e-05
0.0193845 0.00107974 1e-05
0.0195199 0.0010788 1e-05
0.0196553 0.00107786 1e-05
0.0197907 0.00107691 1e-05
0.0199272 0.00107596 1e-05
0.0200636 0.00107499 1e-05
0.0202001 0.00107399 1e-05
0.0203365 0.00107298 1e-05
0.020473 0.00107198 1e-05
0.0206105 0.00107097 1e-05
0.020748 0.00106994 1e-05
0.0208855 0.00106888 1e-05
0.021023 0.0010678 1e-05
0.0211606 0.00106674 1e-05
0.0212991 0.00106567 1e-05
0.0214377 0.00106458 1e-05
0.0215763 0.00106345 1e-05
0.0217149 0.00106232 1e-05
0.0218535 0.00106119 1e-05
0.0219931 0.00106006 1e-05
0.0221328 0.00105891 1e-05
0.0222724 0.00105772 1e-05
0.0224121 0.00105652 1e-05
0.0225517 0.00105533 1e-05
0.0226925 0.00105414 1e-05
0.0228332 0.00105292 1e-05
0.022974 0.00105167 1e-05
0.0231147 0.00105041 1e-05
0.0232555 0.00104915 1e-05
0.0233973 0.0010479 1e-05
0.0235391 0.00104661 1e-05
0.023681 0.0010453 1e-05
0.0238228 0.00104397 1e-05
0.0239647 0.00104266 1e-05
0.0241076 0.00104134 1e-05
0.0242505 0.00103999 1e-05
0.0243935 0.0010386 1e-05
0.0245364 0.00103721 1e-05
0.0246794 0.00103583 1e-05
0.0248234 0.00103444 1e-05
0.0249675 0.00103303 1e-05
0.0251115 0.00103158 1e-05
0.0252556 0.00103012 1e-05
[...]
POINT_DATA 12065
 FIELD attributes 2
p 1 12065 float
-4.58193 -4.57861 -4.5753 -4.57198 -4.56867 -4.56536
-4.73432 -4.7343 -4.73427 -4.73425 -4.73423 -4.73421
-4.90852 -4.9084 -4.90828 -4.90815 -4.90803 -4.90792
-5.00198 -5.00192 -5.00187 -5.00182 -5.00176 -5.00171
-5.04724 -5.04712 -5.04701 -5.0469 -5.04678 -5.04667
-5.05397 -5.05381 -5.05365 -5.05349 -5.05333 -5.05317
-5.02724 -5.02717 -5.0271 -5.02702 -5.02695 -5.02688
-4.95784 -4.95779 -4.95775 -4.95771 -4.95767 -4.95763
-4.83665 -4.83666 -4.83667 -4.83667 -4.83668 -4.83669
-2.62409 -2.64343 -2.66263 -2.6817 -2.70063 -2.71943
-4.58193 -4.58121 -4.57759 -4.57389 -4.57011 -4.56173 -4.57557 -4.59052 -4.60548 -4.62044 -4.64484 -4.66659 -4.69649 -4.7264 -4.75631 -4.78902 -4.80464 -4.8263 -4.84797 -4.86963 -4.89292 -4.91175 -4.93258 -4.95342 -4.97426 -4.99187 -4.99296 -4.99405 -4.99514 -4.99623 -4.99732 -5.01892 -5.04051 -5.06211 -5.08371 -5.10504 -5.12372 -5.14221 -5.1607 -5.1792 -5.19712 -5.21264 -5.22789 -5.24313 -5.25838 -5.27307 -5.28672 -5.30011 -5.31351 -5.32691 -5.33986 -5.35241 -5.36469 -5.37697 -5.38925 -5.4011 -5.41269 -5.42397 -5.43524 -5.44652 -5.45737 -5.46807 -5.47847 -5.48887 -5.49927 -5.5093 -5.51929 -5.52896 -5.53863 -5.5483 -5.55764 -5.56701 -5.57612 -5.58523 -5.59435 -5.60325 -5.61216 -5.62068 -5.6292 -5.63773 -5.64606 -5.65464 -5.6633 -5.67196 -5.68061 -5.68962 -5.69892 -5.70776 -5.71661 -5.72546 -5.73442 -5.74453 -5.75625 -5.76797 -5.77969 -5.79245 -5.80478 -5.81912 -5.83346 -5.8478 -5.86179 -5.87456 -5.88719 -5.89981 -5.91243 -5.92371 -5.93291 -5.94261 -5.95231 -5.96201 -5.97207 -5.98098 -5.98996 -5.99894 -6.00792 -6.01687 -6.02561 -6.03318 -6.04075 -6.04832 -6.05485 -6.06215 -6.06806 -6.07397 -6.07988 -6.08458 -6.09059 -6.09548 -6.10036 -6.10525 -6.10912 -6.11414 -6.11822 -6.12231 -6.1264 -6.1297 -6.13372 -6.13701 -6.14029 -6.14358 -6.1463 -6.14941 -6.15197 -6.15452 -6.15708 -6.15929 -6.16176 -6.16387 -6.16597 -6.16808 -6.16999 -6.17218 -6.17413 -6.17607 -6.17802 -6.17986 -6.18189 -6.18377 -6.18565 -6.18753 -6.18935 -6.19126 -6.19308 -6.19491 -6.19674 -6.19855 -6.19887 -6.19917 -6.19946 -6.19976 -6.20006 -6.20157 -6.20309 -6.2046 -6.20612 -6.20777 -6.20945 -6.21129 -6.21313 -6.21497 -6.2172 -6.2187 -6.22064 -6.22257 -6.2245 -6.22715 -6.22849 -6.23058 -6.23266 -6.23474 -6.23789 -6.23906 -6.24128 -6.2435 -6.24572 -6.24935 -6.25033 -6.25265 -6.25498 -6.2573 -6.26138 -6.26218 -6.26461 -6.26705 -6.26948 -6.27399 -6.27467 -6.27724 -6.2798 -6.28237 -6.28726 -6.28787 -6.29057 -6.29327 -6.29597 -6.3012 -6.30178 -6.30461 -6.30744 -6.31028 -6.31578 -6.31638 -6.31934 -6.3223 -6.32531 -6.33097 -6.3318 -6.33474 -6.33782 -6.34123 -6.34677 -6.34796 -6.35081 -6.35402 -6.35776 -6.36318 -6.36472 -6.36753 -6.37086 -6.37488 -6.38017 -6.38206 -6.38486 -6.38831 -6.39257 -6.39773 -6.39995 -6.40278 -6.40634 -6.41078 -6.41583 -6.41835 -6.42125 -6.42492 -6.4295 -6.43445 -6.43725 -6.44026 -6.44404 -6.44871 -6.45357 -6.45663 -6.45975 -6.46362 -6.46834 -6.4731 -6.47638 -6.47965 -6.48361 -6.4883 -6.49298 -6.49646 -6.49993 -6.50399 -6.50863 -6.51327 -6.51697 -6.52067 -6.52481 -6.5294 -6.534 -6.53788 -6.54176 -6.54597 -6.55048 -6.555 -6.559 -6.563 -6.56723 -6.5717 -6.57616 -6.58025 -6.58433 -6.5886 -6.59304 -6.59749 -6.60164 -6.60579 -6.61009 -6.61453 -6.61898 -6.62317 -6.62738 -6.63172 -6.63616 -6.6406 -6.64483 -6.64908 -6.65344 -6.65786 -6.6623 -6.66654 -6.67082 -6.67518 -6.67959 -6.68402 -6.68826 -6.69255 -6.6969 -6.70128 -6.7057 -6.70992 -6.7142 -6.71854 -6.72289 -6.72729 -6.73147 -6.73574 -6.74005 -6.74435 -6.74872 -6.75286 -6.75711 -6.76137 -6.76563 -6.76994 -6.77404 -6.77824 -6.78244 -6.78665 -6.79089 -6.79494 -6.79907 -6.80321 -6.80734 -6.8115 -6.81549 -6.81954 -6.82359 -6.82764 -6.8317 -6.83561 -6.83956 -6.84351 -6.84745 -6.85141 -6.85522 -6.85905 -6.86287 -6.8667 -6.87054 -6.87123 -6.87193 -6.87263 -6.87332 -6.87402 -6.87702 -6.88003 -6.88304 -6.88605 -6.88906 -6.89263 -6.89619 -6.89975 -6.90331 -6.90688 -6.9103 -6.9137 -6.9171 -6.9205 -6.9239 -6.92716 -6.93037 -6.93358 -6.93679 -6.93998 -6.94304 -6.94602 -6.949 -6.95198 -6.95493 -6.95778 -6.9605 -6.96322 -6.96593 -6.9686 -6.97119 -6.97367 -6.97611 -6.97853 -6.98091 -6.98323 -6.98546 -6.98761 -6.98972 -6.99179 -6.99382 -6.99578 -6.99763 -6.99939 -7.00112 -7.00283 -7.00452 -7.00601 -7.00738 -7.00874 -7.01009 -7.01144 -7.01257 -7.01353 -7.01449 -7.01544 -7.01641 -7.01714 -7.01766 -7.01819 -7.01872 -7.01926 -7.01957 -7.01962 -7.01967 -7.01974 -7.01982 -7.01968 -7.01922 -7.01877 -7.01835 -7.0179 -7.01724 -7.0163 -7.01531 -7.01436 -7.01332 -7.0121 -7.0107 -7.00913 -7.00762 -7.00593 -7.00412 -7.00223 -7.00006 -6.99795 -6.99556 -6.99313 -6.99071 -6.98791 -6.98512 -6.98203 -6.97895 -6.97586 -6.97251 -6.96895 -6.96516 -6.96139 -6.95761 -6.95369 -6.94929 -6.94478 -6.94027 -6.93576 -6.93124 -6.93065 -6.93005 -6.92944 -6.92884 -6.92824 -6.92362 -6.919 -6.91439 -6.90978 -6.90504 -6.89917 -6.89315 -6.88714 -6.88113 -6.87483 -6.86832 -6.86146 -6.8546 -6.84775 -6.84042 -6.83323 -6.82549 -6.81776 -6.80991 -6.80161 -6.79352 -6.78508 -6.77644 -6.76749 -6.75826 -6.74924 -6.74009 -6.73052 -6.72041 -6.71022 -6.70025 -6.69028 -6.67971 -6.66853 -6.65736 -6.6464 -6.63546 -6.6239 -6.61171 -6.59953 -6.58757 -6.57561 -6.56303 -6.54981 -6.53659 -6.5236 -6.51041 -6.49673 -6.4827 -6.46843 -6.45438 -6.43987 -6.42512 -6.4103 -6.39497 -6.37982 -6.36399 -6.34816 -6.33234 -6.31613 -6.29961 -6.28269 -6.26577 -6.24886 -6.23184 -6.22496 -6.21796 -6.21097 -6.20397 -6.19716 -6.18619 -6.17522 -6.16425 -6.15328 -6.14216 -6.12331 -6.10433 -6.08535 -6.06638 -6.04698 -6.02727 -6.00718 -5.9871 -5.96692 -5.94623 -5.92546 -5.90446 -5.88328 -5.86171 -5.83993 -5.81806 -5.79621 -5.7739 -5.75104 -5.72818 -5.70524 -5.68231 -5.65889 -5.63499 -5.61109 -5.58709 -5.56305 -5.53849 -5.51366 -5.48874 -5.46371 -5.43835 -5.41276 -5.38715 -5.36124 -5.33514 -5.30856 -5.28199 -5.25543 -5.22874 -5.21164 -5.19437 -5.17709 -5.15982 -5.1432 -5.13284 -5.12248 -5.11212 -5.10176 -5.09134 -5.06295 -5.03455 -5.00616 -4.97778 -4.9492 -4.91997 -4.89071 -4.86145 -4.83213 -4.80263 -4.77254 -4.74246 -4.71238 -4.68213 -4.65183 -4.62095 -4.59007 -4.55914 -4.52811 -4.49708 -4.46544 -4.43382 -4.40205 -4.37034 -4.33864 -4.30633 -4.27395 -4.24153 -4.20913 -4.17681 -4.14386 -4.11083 -4.07781 -4.0448 -4.01183 -3.9992 -3.98655 -3.9739 -3.96125 -3.94883 -3.92787 -3.90691 -3.88596 -3.86501 -3.844 -3.80987 -3.7758 -3.74175 -3.7077 -3.67351 -3.63883 -3.60426 -3.56973 -3.53513 -3.50047 -3.46533 -3.4302 -3.39518 -3.36009 -3.32499 -3.28942 -3.25386 -3.2182 -3.18266 -3.14712 -3.11112 -3.07506 -3.03894 -3.00284 -2.96686 -2.93042 -2.89386 -2.8573 -2.82075 -2.78423 -2.77316 -2.76207 -2.75097 -2.73988 -2.72892 -2.703 -2.6771 -2.65119 -2.62529 -2.59927 -2.56183 -2.52447 -2.48711 -2.44974 -2.41214 -2.37429 -2.33652 -2.29883 -2.26094 -2.22299 -2.1848 -2.14662 -2.10844 -2.07021 -2.03196 -1.99348 -1.95498 -1.91626 -1.87767 -1.83914 -1.80037 -1.7614 -1.72238 -1.68337 -1.64448 -1.61668 -1.58874 -1.5608 -1.53287 -1.50562 -1.49408 -1.48254 -1.47101 -1.45947 -1.44786 -1.40814 -1.36846 -1.32879 -1.28912 -1.24911 -1.20895 -1.1689 -1.12889 -1.08865 -1.04823 -1.00771 -0.967207 -0.926691 -0.885916 -0.84513 -0.80427 -0.76341 -0.722082 -0.680835 -0.639599 -0.598308 -0.556657 -0.514879 -0.473105 -0.431385 -0.401438 -0.371196 -0.340957 -0.31072 -0.281278 -0.269079 -0.25688 -0.244682 -0.232484 -0.220155 -0.177337 -0.134516 -0.0916989 -0.0488861 -0.00541831 0.0379794 0.0814102 0.124855 0.16879 0.212973 0.257022 0.301066 0.345509 0.390436 0.435383 0.480171 0.525123 0.570744 0.616433 0.662217 0.707821 0.754312 0.800818 0.847321 0.893914 0.907238 0.920783 0.934328 0.947873 0.961222 0.995112 1.029 1.06289 1.09677 1.13122 1.1794 1.2278 1.2762 1.32498 1.37445 1.42368 1.4729 1.52264 1.57328 1.62396 1.67438 1.7248 1.77639 1.82826 1.88029 1.93203 1.98483 2.0378 2.09076 2.14396 2.15984 2.17607 2.19229 2.20851 2.22441 2.26253 2.30066 2.33879 2.37691 2.41587 2.47112 2.52691 2.5827 2.63919 2.69644 2.75332 2.8102 2.86809 2.92706 2.98611 3.04477 3.104 3.16419 3.22444 3.28543 3.326 3.36763 3.40926 3.45089 3.4902 3.51108 3.53197 3.55285 3.57373 3.59514 3.65852 3.72231 3.78609 3.85041 3.91591 3.98104 4.04618 4.1125 4.18006 4.24779 4.31514 4.38321 4.45222 4.52122 4.5911 4.61897 4.64743 4.67598 4.70453 4.73196 4.77462 4.81728 4.85994 4.9027 4.94641 5.01859 5.09141 5.16443 5.23878 5.31366 5.38815 5.46266 5.53873 5.6152 5.69241 5.73845 5.78518 5.83214 5.8791 5.92321 5.95492 5.98663 6.01833 6.05019 6.08257 6.16158 6.24136 6.32114 6.40204 6.48359 6.56466 6.64586 6.72818 6.81058 6.89404 6.92438 6.95497 6.98572 7.01646 7.0461 7.09932 7.15253 7.20573 7.25922 7.31338 7.39773 7.48206 7.56732 7.6533 7.73976 7.8114 7.88337 7.95564 8.02789 8.09499 8.11022 8.12545 8.14068 8.15598 8.17136 8.2581 8.34513 8.43214 8.51955 8.60751 8.69233 8.77719 8.86214 8.94706 9.02636 9.02992 9.03349 9.03705 9.04062 9.04419 9.13154 9.21892 9.30627 9.39352 9.48111 9.56176 9.64226 9.72245 9.80262 9.87968 9.8865 9.89332 9.90013 9.90693 9.91371 9.99957 10.0854 10.1713 10.2564 10.3417 10.4083 10.4748 10.5405 10.6063 10.6716 10.6895 10.7074 10.7253 10.743 10.7606 10.8432 10.9257 11.0079 11.089 11.1699 11.2201 11.27 11.3191 11.3682 11.4182 11.448 11.4778 11.5077 11.537 11.5662 11.6438 11.7213 11.7979 11.8733 11.9485 11.9861 12.0234 12.06 12.0965 12.1344 12.1708 12.2072 12.2436 12.2793 12.3147 12.3857 12.4568 12.5267 12.5955 12.6637 12.6981 12.732 12.7653 12.7986 12.8338 12.8663 12.8988 12.9313 12.9632 12.9946 13.0583 13.1221 13.1847 13.246 13.3068 13.3513 13.395 13.438 13.481 13.5289 13.543 13.5571 13.5712 13.5851 13.5988 13.6546 13.7099 13.7652 13.8192 13.8723 13.9241 13.9756 14.0257 14.0756 14.1247 14.1452 14.1653 14.1851 14.2049 14.2263 14.2529 14.2795 14.306 14.3324 14.3581 14.4019 14.4454 14.4887 14.5307 14.5723 14.6123 14.6522 14.6908 14.729 14.7669 14.799 14.83 14.8609 14.8918 14.9287 14.9315 14.9344 14.9372 14.9401 14.9429 14.9752 15.0075 15.0398 15.072 15.1032 15.1325 15.1616 15.1905 15.2188 15.2468 15.273 15.2992 15.3248 15.35 15.3752 15.3986 15.4218 15.4447 15.4676 15.4902 15.5113 15.532 15.5527 15.5734 15.594 15.5993 15.6046 15.6098 15.6151 15.6208 15.6347 15.6485 15.6623 15.6761 15.6901 15.708 15.7258 15.7437 15.7614 15.7796 15.7964 15.8136 15.8309 15.8488 15.8678 15.8857 15.9019 15.9158 15.9287 15.9411 15.9518 15.9628 15.977 15.9985 16.0204 16.0418 16.063 16.0649 16.0478 16.0305 16.0094 15.9876 15.9641 15.9407 15.9173 15.8909 15.8658 15.8409 15.8158 15.7924 15.7718 15.7507 15.7295 15.7083 15.6814 15.6775 15.6736 15.6697 15.6658 15.6619 15.6307 15.5994 15.5679 15.5364 15.5036 15.4661 15.4279 15.3896 15.3511 15.3112 15.2676 15.2235 15.1791 15.1339 15.0881 15.0387 14.9892 14.9387 14.8868 14.8348 14.7792 14.7235 14.6662 14.6074 14.5484 14.4857 14.423 14.3585 14.2922 14.2259 14.1557 14.0852 14.0127 13.9386 13.8641 13.7855 13.7058 13.6248 13.5428 13.4596 13.3719 13.2822 13.1917 13.101 13.0078 12.9099 12.8088 12.7077 12.6066 12.5032 12.3928 12.2799 12.1669 12.0539 11.9393 11.8149 11.6888 11.5627 11.4366 11.3099 11.2329 11.1552 11.0775 10.9997 10.9111 10.8499 10.7887 10.7276 10.6664 10.6046 10.4481 10.291 10.1338 9.97666 9.81762 9.64337 9.46543 9.28747 9.10947 8.92576 8.73023 8.53301 8.33578 8.13853 7.93924 7.72929 7.49809 7.26683 7.03533 6.77872 6.51309 6.26627 6.02168 5.78171 5.55928 5.32892 5.03369 4.70626 4.33305 3.90263 3.45645 3.08357 2.8092 2.64267 2.54203 2.43735 2.27803 1.81653 0.910068 0