# vtk DataFile Version 2.0
track0
ASCII
DATASET POLYDATA
POINTS 12065 float
-0.0205 0.001 1e-05
-0.02052 0.000999985 1e-05
-0.02054 0.000999974 1e-05
-0.02056 0.000999965 1e-05
-0.02058 0.000999959 1e-05
-0.0206 0.000999956 1e-05
-0.0205 0.00367778 1e-05
-0.02052 0.00367778 1e-05
-0.02054 0.00367777 1e-05
-0.02056 0.00367777 1e-05
-0.02058 0.00367777 1e-05
-0.0206 0.00367777 1e-05
-0.0205 0.00635556 1e-05
-0.02052 0.00635555 1e-05
-0.02054 0.00635555 1e-05
-0.02056 0.00635555 1e-05
-0.02058 0.00635555 1e-05
-0.0206 0.00635555 1e-05
-0.0205 0.00903333 1e-05
-0.02052 0.00903333 1e-05
-0.02054 0.00903333 1e-05
-0.02056 0.00903333 1e-05
-0.02058 0.00903333 1e-05
-0.0206 0.00903333 1e-05
-0.0205 0.0117111 1e-05
-0.02052 0.0117111 1e-05
-0.02054 0.0117111 1e-05
-0.02056 0.0117111 1e-05
-0.02058 0.0117111 1e-05
-0.0206 0.0117111 1e-05
-0.0205 0.0143889 1e-05
-0.02052 0.0143889 1e-05
-0.02054 0.0143889 1e-05
-0.02056 0.0143889 1e-05
-0.02058 0.0143889 1e-05
-0.0206 0.0143889 1e-05
-0.0205 0.0170667 1e-05
-0.02052 0.0170667 1e-05
-0.02054 0.0170667 1e-05
-0.02056 0.0170667 1e-05
-0.02058 0.0170667 1e-05
-0.0206 0.0170667 1e-05
-0.0205 0.0197444 1e-05
-0.02052 0.0197444 1e-05
-0.02054 0.0197444 1e-05
-0.02056 0.0197444 1e-05
-0.02058 0.0197444 1e-05
-0.0206 0.0197444 1e-05
-0.0205 0.0224222 1e-05
-0.02052 0.0224222 1e-05
-0.02054 0.0224222 1e-05
-0.02056 0.0224222 1e-05
-0.02058 0.0224222 1e-05
-0.0206 0.0224222 1e-05
-0.0205 0.0251 1e-05
-0.02052 0.0250998 1e-05
-0.02054 0.0250997 1e-05
-0.02056 0.0250995 1e-05
-0.02058 0.0250995 1e-05
-0.0206 0.0250994 1e-05
-0.0205 0.001 1e-05
-0.0202034 0.00100022 1e-05
-0.0199069 0.00100067 1e-05
-0.0196103 0.00100132 1e-05
-0.0193137 0.00100219 1e-05
-0.0190172 0.00100326 1e-05
-0.0187132 0.00100466 1e-05
-0.0184093 0.00100588 1e-05
-0.0181054 0.0010071 1e-05
-0.0178015 0.00100832 1e-05
-0.0174976 0.00100953 1e-05
-0.0172058 0.00101083 1e-05
-0.016914 0.00101193 1e-05
-0.0166222 0.00101303 1e-05
-0.0163305 0.00101413 1e-05
-0.0160387 0.00101523 1e-05
-0.0157586 0.00101636 1e-05
-0.0154784 0.00101745 1e-05
-0.0151983 0.00101856 1e-05
-0.0149182 0.00101972 1e-05
-0.0146381 0.00102091 1e-05
-0.0143748 0.00102209 1e-05
-0.0141115 0.00102327 1e-05
-0.0138482 0.00102449 1e-05
-0.0135849 0.00102574 1e-05
-0.0133625 0.00102682 1e-05
-0.0133487 0.00102689 1e-05
-0.0133349 0.00102695 1e-05
-0.0133211 0.00102702 1e-05
-0.0133073 0.00102709 1e-05
-0.0132934 0.00102716 1e-05
-0.0130353 0.00102845 1e-05
-0.0127771 0.00102975 1e-05
-0.0125189 0.00103107 1e-05
-0.0122607 0.00103241 1e-05
-0.0120025 0.00103376 1e-05
-0.0117547 0.00103507 1e-05
-0.0115068 0.00103638 1e-05
-0.0112589 0.00103771 1e-05
-0.0110111 0.00103903 1e-05
-0.0107632 0.00104036 1e-05
-0.0105252 0.00104164 1e-05
-0.0102873 0.00104292 1e-05
-0.0100493 0.0010442 1e-05
-0.00981133 0.00104548 1e-05
-0.00957337 0.00104676 1e-05
-0.00934491 0.00104798 1e-05
-0.00911645 0.0010492 1e-05
-0.00888799 0.00105042 1e-05
-0.00865954 0.00105164 1e-05
-0.00843108 0.00105286 1e-05
-0.00821175 0.00105402 1e-05
-0.00799242 0.00105517 1e-05
-0.00777309 0.00105633 1e-05
-0.00755376 0.00105748 1e-05
-0.00733443 0.00105863 1e-05
-0.00712387 0.00105972 1e-05
-0.0069133 0.00106082 1e-05
-0.00670273 0.00106191 1e-05
-0.00649216 0.00106299 1e-05
-0.0062816 0.00106407 1e-05
-0.00607944 0.0010651 1e-05
-0.00587729 0.00106613 1e-05
-0.00567514 0.00106716 1e-05
-0.00547298 0.00106818 1e-05
-0.00527083 0.00106919 1e-05
-0.00507675 0.00107016 1e-05
-0.00488267 0.00107113 1e-05
-0.0046886 0.0010721 1e-05
-0.00449452 0.00107306 1e-05
-0.00430044 0.00107402 1e-05
-0.00411412 0.00107493 1e-05
-0.0039278 0.00107585 1e-05
-0.00374147 0.00107676 1e-05
-0.00355515 0.00107767 1e-05
-0.00336883 0.00107858 1e-05
-0.00318995 0.00107944 1e-05
-0.00301107 0.0010803 1e-05
-0.00283219 0.00108117 1e-05
-0.00265331 0.00108203 1e-05
-0.00247443 0.0010829 1e-05
-0.0023027 0.00108372 1e-05
-0.00213097 0.00108455 1e-05
-0.00195924 0.00108537 1e-05
-0.0017875 0.0010862 1e-05
-0.00161577 0.00108703 1e-05
-0.0014509 0.00108781 1e-05
-0.00128603 0.00108861 1e-05
-0.00112116 0.00108941 1e-05
-0.000956289 0.00109021 1e-05
-0.000791418 0.00109101 1e-05
-0.000633135 0.00109179 1e-05
-0.000474851 0.00109257 1e-05
-0.000316567 0.00109336 1e-05
-0.000158284 0.00109415 1e-05
0 0.00109494 1e-05
0.000105677 0.00109547 1e-05
0.000211355 0.001096 1e-05
0.000317032 0.00109653 1e-05
0.00042271 0.00109706 1e-05
0.000528387 0.00109759 1e-05
0.000634886 0.00109811 1e-05
0.000741385 0.00109864 1e-05
0.000847885 0.00109916 1e-05
0.000954384 0.00109967 1e-05
0.00106088 0.00110018 1e-05
0.00116821 0.00110069 1e-05
0.00127554 0.0011012 1e-05
0.00138286 0.00110169 1e-05
0.00149019 0.00110218 1e-05
0.00159752 0.00110266 1e-05
0.00170568 0.00110314 1e-05
0.00181384 0.00110361 1e-05
0.001922 0.00110407 1e-05
0.00203016 0.00110452 1e-05
0.00213833 0.00110496 1e-05
0.00224733 0.0011054 1e-05
0.00235633 0.00110583 1e-05
0.00246533 0.00110624 1e-05
0.00257434 0.00110665 1e-05
0.00268334 0.00110706 1e-05
0.00279319 0.00110744 1e-05
0.00290304 0.00110783 1e-05
0.00301289 0.00110821 1e-05
0.00312274 0.00110858 1e-05
0.00323259 0.00110894 1e-05
0.00334329 0.00110929 1e-05
0.003454 0.00110964 1e-05
0.0035647 0.00110998 1e-05
0.0036754 0.00111031 1e-05
0.00378611 0.00111064 1e-05
0.00389767 0.00111095 1e-05
0.00400924 0.00111126 1e-05
0.0041208 0.00111156 1e-05
0.00423237 0.00111185 1e-05
0.00434393 0.00111214 1e-05
0.00445636 0.00111241 1e-05
0.00456879 0.00111268 1e-05
0.00468123 0.00111295 1e-05
0.00479366 0.0011132 1e-05
0.00490609 0.00111345 1e-05
0.0050194 0.00111368 1e-05
0.0051327 0.00111391 1e-05
0.00524601 0.00111414 1e-05
0.00535932 0.00111435 1e-05
0.00547262 0.00111456 1e-05
0.00558681 0.00111475 1e-05
0.005701 0.00111495 1e-05
0.00581518 0.00111513 1e-05
0.00592937 0.00111531 1e-05
0.00604356 0.00111547 1e-05
0.00615863 0.00111563 1e-05
0.00627371 0.00111579 1e-05
0.00638878 0.00111593 1e-05
0.00650386 0.00111607 1e-05
0.00661893 0.0011162 1e-05
0.0067349 0.00111632 1e-05
0.00685087 0.00111643 1e-05
0.00696684 0.00111654 1e-05
0.00708281 0.00111664 1e-05
0.00719878 0.00111673 1e-05
0.00731565 0.00111681 1e-05
0.00743252 0.00111688 1e-05
0.00754939 0.00111695 1e-05
0.00766626 0.00111701 1e-05
0.00778313 0.00111706 1e-05
0.00780261 0.00111707 1e-05
0.00782208 0.00111707 1e-05
0.00784155 0.00111708 1e-05
0.00786102 0.00111708 1e-05
0.0078803 0.00111709 1e-05
0.00797865 0.00111712 1e-05
0.008077 0.00111714 1e-05
0.00817534 0.00111716 1e-05
0.00827369 0.00111717 1e-05
0.00837203 0.00111718 1e-05
0.00849073 0.00111718 1e-05
0.00860942 0.00111717 1e-05
0.00872812 0.00111715 1e-05
0.00884682 0.00111713 1e-05
0.00896551 0.0011171 1e-05
0.00908513 0.00111705 1e-05
0.00920475 0.001117 1e-05
0.00932437 0.00111694 1e-05
0.00944398 0.00111687 1e-05
0.0095636 0.00111679 1e-05
0.00968415 0.0011167 1e-05
0.0098047 0.0011166 1e-05
0.00992525 0.0011165 1e-05
0.0100458 0.00111638 1e-05
0.0101663 0.00111626 1e-05
0.0102878 0.00111612 1e-05
0.0104093 0.00111598 1e-05
0.0105308 0.00111583 1e-05
0.0106523 0.00111567 1e-05
0.0107738 0.0011155 1e-05
0.0108962 0.00111531 1e-05
0.0110186 0.00111512 1e-05
0.0111411 0.00111492 1e-05
0.0112635 0.00111471 1e-05
0.0113859 0.0011145 1e-05
0.0115093 0.00111426 1e-05
0.0116327 0.00111402 1e-05
0.0117561 0.00111377 1e-05
0.0118795 0.00111351 1e-05
0.0120028 0.00111325 1e-05
0.0121272 0.00111296 1e-05
0.0122515 0.00111267 1e-05
0.0123759 0.00111237 1e-05
0.0125002 0.00111206 1e-05
0.0126245 0.00111175 1e-05
0.0127498 0.00111141 1e-05
0.0128752 0.00111107 1e-05
0.0130005 0.00111072 1e-05
0.0131258 0.00111036 1e-05
0.0132511 0.00110999 1e-05
0.0133774 0.00110959 1e-05
0.0135036 0.0011092 1e-05
0.0136299 0.0011088 1e-05
0.0137562 0.00110838 1e-05
0.0138825 0.00110796 1e-05
0.0140098 0.00110751 1e-05
0.014137 0.00110707 1e-05
0.0142643 0.00110661 1e-05
0.0143915 0.00110614 1e-05
0.0145188 0.00110566 1e-05
0.0146471 0.00110516 1e-05
0.0147753 0.00110465 1e-05
0.0149036 0.00110414 1e-05
0.0150318 0.00110361 1e-05
0.0151601 0.00110308 1e-05
0.0152893 0.00110253 1e-05
0.0154186 0.00110196 1e-05
0.0155478 0.00110139 1e-05
0.0156771 0.00110081 1e-05
0.0158063 0.00110022 1e-05
0.0159366 0.00109961 1e-05
0.0160668 0.00109899 1e-05
0.0161971 0.00109836 1e-05
0.0163274 0.00109772 1e-05
0.0164576 0.00109707 1e-05
0.0165889 0.0010964 1e-05
0.0167201 0.00109573 1e-05
0.0168514 0.00109504 1e-05
0.0169827 0.00109434 1e-05
0.0171139 0.00109363 1e-05
0.0172462 0.00109291 1e-05
0.0173785 0.00109217 1e-05
0.0175108 0.00109142 1e-05
0.0176431 0.00109066 1e-05
0.0177754 0.0010899 1e-05
0.0179087 0.00108912 1e-05
0.018042 0.00108833 1e-05
0.0181753 0.00108752 1e-05
0.0183087 0.00108669 1e-05
0.018442 0.00108587 1e-05
0.0185763 0.00108504 1e-05
0.0187107 0.00108418 1e-05
0.018845 0.00108331 1e-05
0.0189794 0.00108243 1e-05
0.0191137 0.00108154 1e-05
0.0192491 0.00108065 1e-05
0.0193845 0.00107974 1e-05
0.0195199 0.0010788 1e-05
0.0196553 0.00107786 1e-05
0.0197907 0.00107691 1e-05
0.0199272 0.00107596 1e-05
0.0200636 0.00107499 1e-05
0.0202001 0.00107399 1e-05
0.0203365 0.00107298 1e-05
0.020473 0.00107198 1e-05
0.0206105 0.00107097 1e-05
0.020748 0.00106994 1e-05
0.0208855 0.00106888 1e-05
0.021023 0.0010678 1e-05
0.0211606 0.00106674 1e-05
0.0212991 0.00106567 1e-05
0.0214377 0.00106458 1e-05
0.0215763 0.00106345 1e-05
0.0217149 0.00106232 1e-05
0.0218535 0.00106119 1e-05
0.0219931 0.00106006 1e-05
0.0221328 0.00105891 1e-05
0.0222724 0.00105772 1e-05
0.0224121 0.00105652 1e-05
0.0225517 0.00105533 1e-05
0.0226925 0.00105414 1e-05
0.0228332 0.00105292 1e-05
0.022974 0.00105167 1e-05
0.0231147 0.00105041 1e-05
0.0232555 0.00104915 1e-05
0.0233973 0.0010479 1e-05
0.0235391 0.00104661 1e-05
0.023681 0.0010453 1e-05
0.0238228 0.00104397 1e-05
0.0239647 0.00104266 1e-05
0.0241076 0.00104134 1e-05
0.0242505 0.00103999 1e-05
0.0243935 0.0010386 1e-05
0.0245364 0.00103721 1e-05
0.0246794 0.00103583 1e-05
0.0248234 0.00103444 1e-05
0.0249675 0.00103303 1e-05
0.0251115 0.00103158 1e-05
0.0252556 0.00103012 1e-05
[...]
POINT_DATA 12065
 FIELD attributes 1
U 3 12065 float
10.0004 	0.00731844 	0 10.0004 	0.00585475 	0 10.0003 	0.00439106 	0 10.0002 	0.00292738 	0 10.0001 	0.00146369 	0 10 	0 	0
10.0001 	0.000880265 	0 10 	0.000704212 	0 10 	0.000528159 	0 10 	0.000352106 	0 10 	0.000176053 	0 10 	0 	0
10.0001 	0.000467682 	0 10.0001 	0.000373956 	0 10.0001 	0.00028023 	0 10 	0.000186504 	0 10 	9.27785e-05 	0 10 	0 	0
10 	0.000268097 	0 10 	0.000214478 	0 10 	0.000160858 	0 10 	0.000107239 	0 10 	5.36194e-05 	0 10 	0 	0
10 	8.24325e-05 	0 10 	6.5946e-05 	0 10 	4.94595e-05 	0 10 	3.2973e-05 	0 10 	1.64865e-05 	0 10 	0 	0
10 	-2.43869e-05 	0 10 	-1.95095e-05 	0 10 	-1.46321e-05 	0 10 	-9.75475e-06 	0 10 	-4.87737e-06 	0 10 	0 	0
10 	-0.000214819 	0 10 	-0.000171855 	0 10 	-0.000128891 	0 10 	-8.59275e-05 	0 10 	-4.29638e-05 	0 10 	0 	0
10 	-0.000376951 	0 10 	-0.000301561 	0 10 	-0.00022617 	0 10 	-0.00015078 	0 10 	-7.53902e-05 	0 10 	0 	0
9.99999 	-0.000427009 	0 9.99999 	-0.000341607 	0 9.99999 	-0.000256205 	0 10 	-0.000170804 	0 10 	-8.54018e-05 	0 10 	0 	0
9.17387 	0.0870993 	0 9.1308 	0.0696794 	0 9.08741 	0.0522593 	0 9.04368 	0.0348389 	0 8.99962 	0.0174184 	0 8.95524 	0 	0
10.0004 	0.00731844 	0 10.0024 	0.0151691 	0 10.0045 	0.0221884 	0 10.0065 	0.0291634 	0 10.0085 	0.0360944 	0 10.0135 	0.04631 	0 10.0163 	0.0402095 	0 10.0207 	0.0401685 	0 10.0252 	0.0401277 	0 10.0296 	0.0400871 	0 10.0356 	0.0445481 	0 10.0384 	0.0379087 	0 10.0424 	0.0378655 	0 10.0464 	0.0378222 	0 10.0504 	0.0377789 	0 10.0545 	0.0408805 	0 10.0567 	0.0388041 	0 10.0591 	0.0401144 	0 10.0616 	0.0414262 	0 10.064 	0.0427397 	0 10.0661 	0.0451983 	0 10.0676 	0.0453104 	0 10.069 	0.046513 	0 10.0703 	0.0477169 	0 10.0716 	0.0489218 	0 10.0728 	0.0499403 	0 10.0728 	0.050004 	0 10.0729 	0.0500677 	0 10.073 	0.0501314 	0 10.073 	0.0501951 	0 10.0731 	0.0502492 	0 10.0736 	0.050878 	0 10.0742 	0.0515006 	0 10.0747 	0.0521238 	0 10.0752 	0.0527475 	0 10.0757 	0.0532069 	0 10.0755 	0.0535054 	0 10.0752 	0.0536983 	0 10.0748 	0.0538913 	0 10.0745 	0.0540844 	0 10.0739 	0.054039 	0 10.0735 	0.0541879 	0 10.0724 	0.0541682 	0 10.0713 	0.0541485 	0 10.0702 	0.0541288 	0 10.0686 	0.0538399 	0 10.0682 	0.0539256 	0 10.0666 	0.0537973 	0 10.065 	0.053669 	0 10.0633 	0.0535406 	0 10.0608 	0.0531259 	0 10.0607 	0.0531875 	0 10.0587 	0.0530003 	0 10.0567 	0.052813 	0 10.0546 	0.0526257 	0 10.0511 	0.0521398 	0 10.0517 	0.0522036 	0 10.0493 	0.0519934 	0 10.047 	0.0517832 	0 10.0447 	0.0515729 	0 10.04 	0.0510566 	0 10.0415 	0.0511451 	0 10.0389 	0.0509352 	0 10.0364 	0.0507253 	0 10.0338 	0.0505152 	0 10.028 	0.0499867 	0 10.0305 	0.0501098 	0 10.0278 	0.0499208 	0 10.0251 	0.0497317 	0 10.0224 	0.0495426 	0 10.0155 	0.0490295 	0 10.0191 	0.0492029 	0 10.0163 	0.0490416 	0 10.0135 	0.0488802 	0 10.0107 	0.0487188 	0 10.0026 	0.0482172 	0 10.0074 	0.0484513 	0 10.0046 	0.0483757 	0 10.0018 	0.0483002 	0 9.99901 	0.0482247 	0 9.98969 	0.0478258 	0 9.99585 	0.0481735 	0 9.99309 	0.0481472 	0 9.99032 	0.0481209 	0 9.98756 	0.0480946 	0 9.97702 	0.0476791 	0 9.98459 	0.048087 	0 9.98195 	0.0483152 	0 9.97931 	0.0485435 	0 9.97667 	0.0487717 	0 9.965 	0.0486984 	0 9.97418 	0.0493248 	9.1352e-22 9.97232 	0.0495639 	6.15886e-21 9.97047 	0.0498032 	1.14039e-20 9.96862 	0.0500425 	1.66487e-20 9.95665 	0.0497632 	1.40433e-20 9.96726 	0.0501143 	9.83928e-20 9.96576 	0.0499733 	9.14501e-20 9.96426 	0.0498322 	8.45058e-20 9.96276 	0.0496912 	7.75599e-20 9.95061 	0.0490725 	-1.56959e-20 9.96121 	0.0489889 	-4.26499e-20 9.95974 	0.0485898 	-4.74145e-20 9.95828 	0.0481906 	-5.2177e-20 9.95681 	0.0477914 	-5.69372e-20 9.94473 	0.0471176 	-2.19724e-20 9.95487 	0.0467924 	-1.93852e-20 9.9531 	0.046066 	-1.34554e-20 9.95133 	0.0453396 	-7.52616e-21 9.94955 	0.0446131 	-1.59751e-21 9.93746 	0.04369 	7.50395e-21 9.94718 	0.0433298 	-5.49288e-21 9.94508 	0.0424119 	-2.47318e-20 9.94298 	0.0414938 	-4.3973e-20 9.94087 	0.0405755 	-6.32167e-20 9.92868 	0.0393635 	-9.06485e-20 9.93787 	0.0391258 	-1.29963e-19 9.93536 	0.0382455 	-1.17204e-19 9.93285 	0.0373649 	-1.04438e-19 9.93034 	0.0364841 	-9.16627e-20 9.918 	0.0351518 	-3.07426e-20 9.92654 	0.0350395 	3.80776e-20 9.92359 	0.0342469 	5.20595e-20 9.92065 	0.0334541 	6.60311e-20 9.91769 	0.0326611 	7.99923e-20 9.90528 	0.0313135 	3.79163e-20 9.91307 	0.0312234 	-5.24388e-20 9.90969 	0.030464 	-5.87736e-20 9.90631 	0.0297044 	-6.50924e-20 9.90292 	0.0289445 	-7.13953e-20 9.89051 	0.0276221 	-3.27526e-22 9.89744 	0.0274901 	6.70525e-20 9.89359 	0.0267419 	5.73985e-20 9.88974 	0.0259934 	4.77286e-20 9.88589 	0.0252446 	3.80428e-20 9.87357 	0.0239845 	-2.88122e-20 9.87944 	0.0237919 	-8.8051e-20 9.8751 	0.0230533 	-1.11026e-19 9.87075 	0.0223144 	-1.33994e-19 9.86639 	0.0215752 	-1.56957e-19 9.85425 	0.0203996 	-1.39718e-19 9.85885 	0.0201468 	-1.62821e-19 9.854 	0.0194216 	-1.49978e-19 9.84913 	0.0186961 	-1.3713e-19 9.84426 	0.0179703 	-1.24278e-19 9.83247 	0.0168883 	-8.50607e-20 9.83554 	0.0165835 	-7.19058e-20 9.83017 	0.0158752 	-5.27885e-20 9.82479 	0.0151666 	-3.3673e-20 9.81941 	0.0144576 	-1.45594e-20 9.80822 	0.0134673 	2.50354e-21 9.80943 	0.0131013 	0 9.80357 	0.0124029 	0 9.79769 	0.0117041 	0 9.79181 	0.011005 	0 9.78154 	0.0101002 	0 9.78052 	0.00965742 	-1.64528e-20 9.77417 	0.0089649 	-3.60472e-20 9.7678 	0.00827202 	-5.56435e-20 9.76143 	0.0075788 	-7.52418e-20 9.75246 	0.00676476 	-9.59547e-20 9.74878 	0.00622689 	-1.0255e-19 9.74195 	0.00554029 	-1.03295e-19 9.73511 	0.0048533 	-1.04035e-19 9.72827 	0.00416593 	-1.04769e-19 9.721 	0.00345923 	-1.04605e-19 9.72029 	0.00336983 	-9.83581e-20 9.71909 	0.00325707 	-9.33822e-20 9.71788 	0.00314429 	-8.84066e-20 9.71668 	0.0030315 	-8.34313e-20 9.71549 	0.00291978 	-7.85037e-20 9.70934 	0.00234668 	-5.33465e-20 9.70318 	0.00177326 	-2.81967e-20 9.69701 	0.00119953 	-3.05428e-21 9.69084 	0.00062549 	2.20808e-20 9.67934 	-0.000187297 	5.28018e-20 9.67641 	-0.000657088 	5.37904e-20 9.6686 	-0.00134085 	5.49416e-20 9.66078 	-0.00202509 	5.60902e-20 9.65294 	-0.00270983 	5.72365e-20 9.63358 	-0.00388736 	6.00836e-20 9.63587 	-0.00413201 	4.74646e-20 9.62764 	-0.00481303 	3.48432e-20 9.6194 	-0.00549458 	2.22205e-20 9.61114 	-0.00617667 	9.59656e-21 9.58551 	-0.00755655 	-9.33127e-22 9.59271 	-0.00762515 	-9.06784e-21 9.58408 	-0.00830537 	-2.1124e-20 9.57544 	-0.00898618 	-3.31788e-20 9.56679 	-0.00966757 	-4.52322e-20 9.53542 	-0.0111943 	-5.72996e-20 9.54708 	-0.0111406 	-5.80565e-20 9.53809 	-0.0118222 	-6.56364e-20 9.52908 	-0.0125044 	-7.32128e-20 9.52007 	-0.0131873 	-8.07856e-20 9.4836 	-0.0148024 	-9.91208e-20 9.49922 	-0.0146788 	-1.49721e-19 9.48989 	-0.0153618 	-1.39877e-19 9.48055 	-0.0160455 	-1.30047e-19 9.47119 	-0.0167299 	-1.20232e-19 9.43035 	-0.0183727 	-4.26476e-20 9.44932 	-0.0182314 	-2.77311e-20 9.43969 	-0.0189164 	-1.9551e-20 9.43004 	-0.019602 	-1.137e-20 9.42037 	-0.0202884 	-3.18807e-21 9.3759 	-0.0219009 	0 9.39764 	-0.0217949 	0 9.38772 	-0.0224836 	0 9.3778 	-0.0231731 	0 9.36785 	-0.0238633 	0 9.32051 	-0.0253919 	0 9.34442 	-0.0253746 	1.99798e-21 9.33426 	-0.0260675 	9.59921e-21 9.32408 	-0.0267612 	1.71995e-20 9.31388 	-0.0274557 	2.47989e-20 9.26442 	-0.0288437 	4.28253e-20 9.28993 	-0.0289627 	1.59939e-19 9.27954 	-0.0296585 	1.63004e-19 9.26914 	-0.0303552 	1.66085e-19 9.25872 	-0.0310527 	1.69183e-19 9.20782 	-0.0322482 	4.30273e-20 9.23441 	-0.0325443 	2.34188e-20 9.22383 	-0.0332417 	1.65776e-20 9.21324 	-0.0339401 	9.73531e-21 9.20182 	-0.0346443 	3.30965e-21 9.15091 	-0.0355987 	1.75489e-20 9.17583 	-0.0361167 	1.0802e-19 9.16737 	-0.0368035 	1.15102e-19 9.1566 	-0.0375028 	1.16461e-19 9.14113 	-0.0382017 	1.04722e-19 9.09387 	-0.0388923 	4.0015e-21 9.11546 	-0.0396293 	-1.02995e-19 9.11039 	-0.0403353 	-1.30823e-19 9.09947 	-0.0410352 	-1.41372e-19 9.08066 	-0.0416762 	-1.32701e-19 9.03685 	-0.0421285 	-6.29667e-20 9.05536 	-0.0430602 	-1.84172e-19 9.0531 	-0.0438288 	-2.21906e-19 9.04206 	-0.044529 	-2.24383e-19 9.02058 	-0.0450674 	-1.79663e-19 8.98 	-0.0453083 	-4.84427e-20 8.99567 	-0.0464113 	-2.54471e-20 8.99573 	-0.0472797 	-1.14767e-20 8.98458 	-0.0479801 	-3.98014e-21 8.96103 	-0.0483779 	0 8.92345 	-0.0484329 	0 8.93652 	-0.0496837 	0 8.93845 	-0.0506821 	0 8.92722 	-0.0513823 	0 8.90213 	-0.0516092 	2.01039e-21 8.86732 	-0.0515036 	5.43194e-21 8.87804 	-0.0528802 	2.17489e-21 8.88143 	-0.0540327 	0 8.87014 	-0.0547329 	0 8.84399 	-0.0547656 	2.42728e-21 8.81172 	-0.0545236 	5.85346e-21 8.82031 	-0.0560058 	2.59623e-21 8.82482 	-0.0573306 	1.3738e-21 8.81349 	-0.0580316 	8.14886e-21 8.78668 	-0.0578551 	2.51762e-20 8.75674 	-0.0575008 	4.42779e-20 8.76341 	-0.0590722 	1.74221e-19 8.76876 	-0.0605839 	2.95264e-19 8.75741 	-0.0612871 	2.98992e-19 8.73029 	-0.0608913 	1.74768e-19 8.70247 	-0.0604463 	4.48412e-20 8.70742 	-0.0620913 	2.60296e-20 8.71232 	-0.0637381 	7.21953e-21 8.70077 	-0.0643983 	2.8076e-22 8.67486 	-0.0638764 	3.57236e-21 8.64897 	-0.0633542 	6.86382e-21 8.65239 	-0.0650482 	3.74681e-21 8.65576 	-0.066744 	6.3078e-22 8.64462 	-0.067373 	2.23538e-21 8.62046 	-0.066799 	-1.76947e-21 8.59631 	-0.0662245 	-5.77335e-21 8.59838 	-0.0679619 	-5.072e-20 8.60038 	-0.0697011 	-9.56711e-20 8.58971 	-0.0703013 	-9.71229e-20 8.56712 	-0.0696851 	-5.60239e-20 8.54455 	-0.0690685 	-1.49229e-20 8.54542 	-0.0708401 	8.75158e-20 8.54624 	-0.0726134 	1.89948e-19 8.53605 	-0.0731854 	1.98814e-19 8.51488 	-0.0725371 	1.13421e-19 8.49372 	-0.0718883 	2.80286e-20 8.49356 	-0.0736817 	1.62052e-20 8.49333 	-0.0754769 	4.37777e-21 8.48366 	-0.0760228 	1.78784e-22 8.46375 	-0.0753582 	4.9888e-21 8.44385 	-0.0746931 	9.80046e-21 8.44278 	-0.0764971 	3.98258e-21 8.44164 	-0.0783029 	-1.84122e-21 8.4325 	-0.0788247 	-2.10343e-20 8.41372 	-0.0781577 	-7.27166e-20 8.39496 	-0.0774903 	-1.24401e-19 8.39308 	-0.0792888 	-2.59484e-19 8.39115 	-0.081089 	-3.94561e-19 8.38254 	-0.0815894 	-3.78276e-19 8.36479 	-0.0809398 	-2.23406e-19 8.34705 	-0.0802896 	-6.85366e-20 8.34446 	-0.08208 	5.95485e-20 8.34154 	-0.0838079 	1.8137e-19 8.33306 	-0.0842647 	1.78774e-19 8.31693 	-0.0837306 	9.33585e-20 8.30012 	-0.0831059 	4.09164e-22 8.29691 	-0.084885 	-9.1782e-20 8.29265 	-0.0864099 	-1.67836e-19 8.2843 	-0.0868791 	-1.7723e-19 8.27014 	-0.0865401 	-1.18588e-19 8.25417 	-0.0859465 	-3.8537e-20 8.2504 	-0.0877128 	-2.70395e-20 8.24507 	-0.0890384 	-1.56484e-20 8.23684 	-0.0895215 	-4.45554e-21 8.22439 	-0.0893779 	1.2766e-20 8.20918 	-0.0888195 	3.39764e-20 8.20491 	-0.0905728 	1.13969e-20 8.19872 	-0.0917049 	-2.9477e-21 8.1906 	-0.0922033 	-8.89893e-21 8.17965 	-0.0922533 	-5.45005e-21 8.16513 	-0.091733 	9.94727e-21 8.16042 	-0.0934737 	-7.25416e-21 8.15356 	-0.0944191 	-1.75336e-20 8.14554 	-0.0949344 	-2.40684e-20 8.13588 	-0.0951754 	-3.49313e-20 8.12199 	-0.0946958 	-5.71501e-20 8.11688 	-0.0964247 	5.42644e-20 8.10951 	-0.0971913 	7.78021e-20 8.10159 	-0.0977249 	8.00349e-20 8.09305 	-0.0981534 	7.16716e-20 8.07973 	-0.0977159 	-2.37091e-20 8.07426 	-0.0994344 	7.02234e-20 8.06653 	-0.10003 	7.65311e-20 8.05869 	-0.100583 	7.94901e-20 8.05082 	-0.101137 	8.24369e-20 8.03831 	-0.100802 	9.2947e-21 8.0323 	-0.102371 	-5.87087e-22 8.02455 	-0.102945 	-4.05619e-22 8.01679 	-0.103519 	-2.24177e-22 8.009 	-0.104094 	-4.27595e-23 7.99772 	-0.103963 	1.55768e-20 7.99121 	-0.105347 	0 7.98353 	-0.105944 	0 7.97583 	-0.10654 	0 7.96811 	-0.107137 	0 7.95791 	-0.107206 	1.20656e-20 7.95102 	-0.108415 	0 7.9434 	-0.109035 	0 7.93576 	-0.109655 	0 7.92809 	-0.110276 	0 7.91884 	-0.110539 	0 7.91168 	-0.111581 	0 7.90411 	-0.112226 	0 7.89652 	-0.112871 	0 7.8889 	-0.113516 	0 7.88046 	-0.113971 	-4.43523e-21 7.87312 	-0.114853 	0 7.86559 	-0.115524 	0 7.85804 	-0.116195 	0 7.85046 	-0.116866 	0 7.84274 	-0.117508 	-1.42824e-21 7.84134 	-0.117673 	0 7.83993 	-0.117805 	0 7.83851 	-0.117937 	0 7.8371 	-0.118069 	0 7.83569 	-0.1182 	0 7.82943 	-0.118767 	0 7.82315 	-0.119335 	0 7.81685 	-0.119903 	0 7.81053 	-0.120472 	0 7.80492 	-0.120897 	0 7.79698 	-0.121755 	-8.17549e-21 7.78928 	-0.122483 	-1.79263e-20 7.78155 	-0.123212 	-2.76752e-20 7.77379 	-0.123942 	-3.74223e-20 7.7676 	-0.124357 	-4.71828e-20 7.75935 	-0.125399 	-4.28799e-20 7.75166 	-0.126157 	-4.21371e-20 7.74394 	-0.126915 	-4.13904e-20 7.73619 	-0.127674 	-4.06399e-20 7.73087 	-0.127953 	-4.55004e-20 7.7223 	-0.129174 	-3.4883e-20 7.71461 	-0.129962 	-2.42385e-20 7.7069 	-0.13075 	-1.35919e-20 7.69915 	-0.131539 	-2.94338e-21 7.69469 	-0.13169 	0 7.68578 	-0.133087 	-1.03712e-21 7.67809 	-0.133908 	-5.82482e-21 7.67037 	-0.134728 	-1.06115e-20 7.66261 	-0.135549 	-1.5397e-20 7.65898 	-0.135581 	-2.01628e-20 7.64973 	-0.137153 	-5.48686e-20 7.64202 	-0.138007 	-7.47798e-20 7.63429 	-0.138862 	-9.46933e-20 7.62706 	-0.139615 	-1.10152e-19 7.6237 	-0.139636 	-9.36668e-20 7.61444 	-0.141225 	-6.82582e-20 7.60637 	-0.14227 	-5.3735e-20 7.59861 	-0.14316 	-4.22835e-20 7.59224 	-0.143785 	-4.25008e-20 7.58878 	-0.143862 	-6.67282e-20 7.57952 	-0.145473 	-8.06091e-20 7.57107 	-0.146705 	-7.66407e-20 7.56327 	-0.147633 	-5.82839e-20 7.55774 	-0.148135 	-3.2004e-20 7.55417 	-0.148269 	1.14746e-21 7.5449 	-0.1499 	5.29368e-21 7.53606 	-0.151317 	6.44235e-21 7.52822 	-0.152283 	1.29629e-21 7.52349 	-0.152667 	0 7.51981 	-0.152856 	0 7.51051 	-0.154509 	0 7.50129 	-0.156106 	0 7.49339 	-0.157108 	0 7.48945 	-0.157381 	0 7.48564 	-0.157627 	0 7.47631 	-0.159302 	0 7.46692 	-0.160977 	0 7.45948 	-0.161981 	-1.47054e-20 7.45555 	-0.162285 	-3.22205e-20 7.45161 	-0.162588 	-4.97348e-20 7.44224 	-0.164287 	-3.05389e-20 7.43281 	-0.165986 	-1.13351e-20 7.42582 	-0.167023 	2.37391e-21 7.42175 	-0.167383 	6.38409e-21 7.41766 	-0.167744 	1.0394e-20 7.40824 	-0.169469 	4.24141e-20 7.39876 	-0.171194 	7.44322e-20 7.39221 	-0.172264 	8.04035e-20 7.38798 	-0.172682 	6.56662e-20 7.38374 	-0.1731 	5.09254e-20 7.37425 	-0.174851 	2.69412e-20 7.36471 	-0.176603 	2.94682e-21 7.35858 	-0.177709 	8.05597e-21 7.35418 	-0.178184 	1.72152e-20 7.34977 	-0.178659 	2.6376e-20 7.34022 	-0.180438 	8.85083e-20 7.33105 	-0.182138 	1.429e-19 7.32513 	-0.183252 	1.40362e-19 7.32031 	-0.183892 	9.00667e-20 7.31572 	-0.184423 	2.87169e-20 7.30608 	-0.186232 	2.05062e-20 7.29773 	-0.187802 	1.55105e-20 7.29167 	-0.188959 	1.60691e-20 7.28629 	-0.189809 	2.11066e-20 7.28152 	-0.190396 	2.99993e-20 7.27179 	-0.192234 	9.03267e-20 7.26423 	-0.193678 	1.11714e-19 7.25801 	-0.194878 	1.09087e-19 7.25208 	-0.195936 	9.19596e-20 7.24711 	-0.196578 	3.24505e-20 7.23727 	-0.198446 	2.45395e-20 7.23049 	-0.199767 	1.64694e-20 7.2241 	-0.20101 	8.3794e-21 7.21766 	-0.202254 	2.92274e-22 7.21243 	-0.20297 	0 7.20297 	-0.204783 	0 7.19644 	-0.206068 	0 7.18987 	-0.207354 	0 7.18325 	-0.20864 	0 7.17743 	-0.20957 	0 7.16875 	-0.211252 	0 7.16204 	-0.21258 	0 7.15528 	-0.213907 	0 7.14847 	-0.215234 	0 7.14205 	-0.216374 	5.3898e-21 7.13413 	-0.217928 	5.71686e-21 7.12721 	-0.219296 	1.40635e-20 7.12025 	-0.220664 	2.24131e-20 7.11324 	-0.222032 	3.07656e-20 7.10623 	-0.223381 	3.92711e-20 7.10531 	-0.223561 	4.22656e-20 7.1045 	-0.223722 	4.26655e-20 7.10369 	-0.223883 	4.3065e-20 7.10287 	-0.224044 	4.34642e-20 7.10207 	-0.224204 	4.386e-20 7.09558 	-0.225449 	4.77346e-20 7.08906 	-0.226694 	5.15917e-20 7.0825 	-0.227939 	5.54312e-20 7.0759 	-0.229185 	5.92531e-20 7.07042 	-0.230298 	7.29695e-20 7.06227 	-0.231877 	5.19922e-20 7.0547 	-0.233322 	4.05991e-20 7.04709 	-0.234766 	2.91833e-20 7.03942 	-0.23621 	1.77445e-20 7.03417 	-0.237375 	3.19985e-20 7.02505 	-0.239144 	2.84033e-20 7.01725 	-0.240625 	2.69449e-20 7.0094 	-0.242106 	2.54798e-20 7.00149 	-0.243587 	2.4008e-20 6.99734 	-0.244643 	3.33468e-20 6.98724 	-0.246597 	2.21073e-20 6.97917 	-0.248117 	2.0953e-20 6.97106 	-0.249634 	1.98844e-20 6.96377 	-0.251055 	2.19656e-20 6.95986 	-0.252098 	3.64957e-20 6.94951 	-0.25408 	5.03671e-20 6.9404 	-0.255795 	5.19897e-20 6.93203 	-0.257346 	4.60906e-20 6.92587 	-0.258649 	3.02267e-20 6.92168 	-0.259732 	5.48288e-21 6.91108 	-0.26174 	2.29159e-21 6.9009 	-0.263647 	-1.21386e-22 6.89226 	-0.265228 	-1.46108e-23 6.88724 	-0.26641 	0 6.88276 	-0.267529 	0 6.87189 	-0.26956 	0 6.86095 	-0.27159 	0 6.85256 	-0.273173 	-9.74567e-21 6.84782 	-0.274324 	-1.87176e-20 6.84304 	-0.275475 	-2.76847e-20 6.83189 	-0.277526 	-1.62131e-20 6.82067 	-0.279577 	-4.73067e-21 6.81261 	-0.281198 	3.74749e-21 6.80756 	-0.282379 	1.04226e-20 6.80247 	-0.28356 	1.71011e-20 6.79103 	-0.28563 	1.15201e-20 6.77952 	-0.2877 	5.94385e-21 6.77177 	-0.289359 	6.41975e-21 6.76641 	-0.290568 	2.55656e-20 6.761 	-0.291777 	4.47114e-20 6.74926 	-0.293864 	2.45012e-20 6.73863 	-0.295826 	7.46117e-21 6.73091 	-0.297473 	-1.58227e-21 6.72433 	-0.298879 	-7.12741e-21 6.71859 	-0.300112 	-1.01206e-20 6.70656 	-0.302212 	-5.65976e-20 6.69717 	-0.304023 	-7.65571e-20 6.68913 	-0.305684 	-8.29023e-20 6.6813 	-0.307292 	-8.36631e-20 6.67522 	-0.308542 	-4.72896e-20 6.66306 	-0.31063 	-8.2399e-20 6.65475 	-0.312302 	-7.6939e-20 6.64638 	-0.313973 	-7.14644e-20 6.63795 	-0.315644 	-6.59749e-20 6.63084 	-0.317042 	-3.84394e-20 6.61997 	-0.318962 	-5.61929e-20 6.61133 	-0.320638 	-4.7273e-20 6.60263 	-0.322313 	-3.83337e-20 6.59387 	-0.323989 	-2.93749e-20 6.58543 	-0.325587 	-1.38684e-20 6.58132 	-0.326306 	-1.28918e-20 6.57785 	-0.326956 	-1.18729e-20 6.57437 	-0.327606 	-1.08544e-20 6.57088 	-0.328257 	-9.83604e-21 6.56747 	-0.32889 	-8.84465e-21 6.56164 	-0.329919 	-6.90805e-21 6.55578 	-0.330947 	-4.9708e-21 6.5499 	-0.331976 	-3.0329e-21 6.544 	-0.333005 	-1.09433e-21 6.53874 	-0.333936 	0 6.5287 	-0.335725 	0 6.51889 	-0.337401 	0 6.50901 	-0.339077 	0 6.49906 	-0.340752 	0 6.49085 	-0.342173 	0 6.47994 	-0.344147 	-3.01413e-22 6.46974 	-0.345823 	-2.56571e-21 6.45947 	-0.347499 	-4.82832e-21 6.44956 	-0.349115 	-7.06633e-21 6.44172 	-0.350435 	-9.18844e-21 6.43029 	-0.352447 	1.36817e-20 6.41931 	-0.354264 	2.50385e-20 6.40866 	-0.355934 	2.76869e-20 6.39956 	-0.357378 	1.12609e-20 6.39135 	-0.35869 	-1.62858e-20 6.37952 	-0.360686 	-9.42821e-21 6.36762 	-0.362681 	-2.5724e-21 6.35683 	-0.364301 	4.09176e-21 6.34831 	-0.365596 	8.06457e-21 6.33973 	-0.366891 	1.20356e-20 6.3275 	-0.368861 	7.01643e-21 6.31519 	-0.370831 	1.99344e-21 6.3047 	-0.372459 	5.41492e-21 6.2958 	-0.373729 	1.67998e-20 6.28684 	-0.375 	2.81859e-20 6.27421 	-0.376939 	3.43651e-20 6.26174 	-0.378844 	3.89425e-20 6.25155 	-0.380424 	2.84656e-20 6.24204 	-0.38175 	1.1955e-20 6.2327 	-0.382991 	-6.55804e-21 6.21966 	-0.384895 	9.27299e-21 6.20813 	-0.386581 	1.36402e-20 6.19756 	-0.388126 	1.05901e-20 6.18703 	-0.389636 	5.40143e-21 6.17732 	-0.390844 	-1.82567e-20 6.16421 	-0.392662 	-1.22173e-20 6.15333 	-0.394168 	-4.39199e-21 6.14238 	-0.395673 	3.43296e-21 6.13137 	-0.397178 	1.12576e-20 6.12072 	-0.398539 	1.59628e-20 6.1128 	-0.399579 	1.66981e-20 6.10575 	-0.400496 	1.72924e-20 6.09868 	-0.401414 	1.78888e-20 6.09158 	-0.402331 	1.84873e-20 6.08472 	-0.403214 	1.90654e-20 6.0806 	-0.403769 	2.00905e-20 6.07647 	-0.404323 	2.11178e-20 6.07233 	-0.404878 	2.21472e-20 6.06817 	-0.405433 	2.31789e-20 6.06408 	-0.405914 	1.82954e-20 6.05318 	-0.407425 	1.39915e-20 6.04202 	-0.408849 	9.71243e-21 6.0308 	-0.410273 	5.43092e-21 6.01951 	-0.411697 	1.14694e-21 6.00841 	-0.41285 	-5.53684e-21 5.99769 	-0.414539 	0 5.98617 	-0.415913 	0 5.97459 	-0.417287 	0 5.96304 	-0.418558 	-2.11505e-21 5.95167 	-0.419561 	-9.7591e-21 5.94065 	-0.421214 	-3.80503e-21 5.92929 	-0.422748 	9.77823e-22 5.91736 	-0.424067 	3.68893e-21 5.90565 	-0.425077 	1.22256e-20 5.89394 	-0.426023 	2.19456e-20 5.88258 	-0.427614 	3.80341e-20 5.87114 	-0.429205 	5.41245e-20 5.8593 	-0.430439 	5.52117e-20 5.84732 	-0.431325 	4.15265e-20 5.83528 	-0.432211 	2.78404e-20 5.82359 	-0.433735 	2.9397e-20 5.81182 	-0.435259 	3.09572e-20 5.80032 	-0.436417 	2.44672e-20 5.78812 	-0.437279 	1.25366e-20 5.77577 	-0.438101 	-1.12084e-22 5.76375 	-0.439556 	-2.03275e-20 5.75186 	-0.440797 	-3.13932e-20 5.74007 	-0.441874 	-3.53477e-20 5.72814 	-0.442915 	-3.71472e-20 5.71548 	-0.44367 	-2.07688e-20 5.70322 	-0.44499 	-4.90375e-23 5.69119 	-0.445991 	-4.49858e-21 5.6791 	-0.4469