/*--------------------------------*- C++ -*----------------------------------*\
| =========                 |                                                 |
| \\      /  F ield         | OpenFOAM: The Open Source CFD Toolbox           |
|  \\    /   O peration     | Version:  2312                                  |
|   \\  /    A nd           | Website:  www.openfoam.com                      |
|    \\/     M anipulation  |                                                 |
\*---------------------------------------------------------------------------*/
FoamFile
{
    version     2.0;
    format      ascii;
    arch        "LSB;label=64;scalar=64";
    class       volScalarField;
    location    "70";
    object      omega;
}
// * * * * * * * * * * * * * * * * * * * * * * * * * * * * * * * * * * * * * //

dimensions      [0 0 -1 0 0 0 0];

internalField   nonuniform List<scalar> 
404911
(
281.665
233.469
3447.23
1537.9
230.467
258.427
206.725
616.951
353.632
289.428
262.903
345.894
230.266
287.168
470.697
1123.88
305.994
240.943
268.445
419.259
644.365
289.319
763.567
526.958
240.611
1005.03
302.955
226.649
286.501
1063.79
276.759
240.739
367.977
611.392
280.722
251.245
431.28
491.766
281.01
204.105
365.728
1061.56
267.254
191.707
220.543
430.693
383.725
201.146
228.007
1000.77
415.274
311.544
277.115
1393.62
369.239
615.964
9405.28
191.123
350.898
250.807
283.284
184.502
179.542
86.885
96.8873
260.619
113.612
410.595
145.28
118.075
208.425
50.7767
198.04
120.268
67.662
615.074
2276.4
263.627
105.021
202.898
93.7336
218.276
41.4722
154.911
216.548
83.2322
396.386
107.902
1166.29
380.673
289.297
2988.29
130.452
268.427
200.291
142.898
182.304
249.755
112.377
257.931
702.49
215.047
153.842
559.09
1329.73
562.417
300.573
749.928
392.214
314.438
244.623
245.579
237.554
258.56
2374.27
579.057
261.922
4638.02
659.682
221.554
220.795
220.025
228.451
303.367
1417.68
379.736
255.535
237.448
215.191
577.532
530.778
586.196
227.441
211.097
220.649
217.148
274.629
281.264
211.153
321.604
1289.94
376.875
245.737
223.003
218.906
213.037
213.672
201.273
568.459
518.488
216.835
207.413
231.686
1886.39
316.141
1081.62
317.984
224.148
205.176
212.532
208.72
210.561
211.811
209.977
203.731
199.432
202.289
204.88
225.004
307.818
465.158
658.772
501.323
465.311
460.789
477.307
559.975
205.971
208.614
199.232
197.082
196.86
214.013
233.77
247.479
247.966
344.116
772.332
516.09
434.645
446.913
339.483
388.844
589.119
494.151
193.892
197.879
193.539
203.435
218.164
233.613
274.091
1262.33
1085.3
314.43
650.85
338.121
296.991
276.333
586.355
460.185
348.945
388.367
487.102
494.387
184.887
201.252
209.665
214.086
248.646
564.803
945.046
669.304
312.232
331.278
262.989
254.573
357.095
294.964
481.032
520.7
475.977
360.21
168.887
209.402
213.703
239.847
349.335
1296.4
1321.46
339.113
163.684
234.65
249.581
237.038
189.474
239.527
510.901
377.832
258.877
292.779
315.743
334.733
529.038
209.922
256.386
1189.95
536.257
211.021
144.565
298.772
258.164
249.3
229.771
253.287
262.972
262.441
236.748
288.677
299.214
400.799
490.744
588.719
483.941
532.343
251.993
203.458
508.193
300.423
253.103
273.239
261.142
236.983
259.107
213.504
195.208
411.446
391.058
452.969
523.955
1783.74
419.793
217.936
187.183
191.011
208.197
243.542
260.308
224.746
255.633
252.698
226.405
229.804
243.776
510.116
423.784
481.705
302.407
1121.7
1051.82
952.323
336.912
334.287
198.57
164.087
244.954
225.668
244.53
255.348
243.338
242.866
253.941
273.804
329.578
389.373
235.182
616.032
1194.33
299.731
181.642
178.848
214.062
258.395
262.993
160.194
246.897
230.393
276.545
207.336
182.531
211.82
272.531
320.065
668.967
316.603
531.704
201.824
153.586
174.864
190.166
299.199
236.144
259.544
167.849
195.714
167.705
171.959
198.676
143.304
185.786
301.266
225.322
1073.68
1218.96
306.955
180.464
153.916
163.605
178.108
190.73
188.141
179.938
167.879
131.725
219.275
239.935
253.055
142.106
160.159
428.627
957.214
409.114
178.431
141.822
237.198
248.341
197.336
207.239
190.291
128.242
130.835
134.911
154.636
195.222
239.524
263.579
173.438
335.408
792.932
1172.86
958.175
355.379
286.119
268.872
236.331
195.221
170.844
208.31
176.311
148.396
145.589
156.148
166.987
209.335
194.54
186.934
516.635
485.557
200.035
177.374
182.509
230.428
166.035
173.248
244.364
198.332
248.297
177.532
180.016
173.856
186.553
157.652
169.327
326.898
1045.25
224.748
153.521
197.439
165.799
169.781
183.261
132.445
182.243
222.869
224.564
262.234
262.496
208.432
187.795
209.296
188.773
365.72
485.107
171.761
213.113
195.101
169.863
157.631
177.004
120.939
113.402
163.599
270.067
251.129
259.852
267.781
207.655
227.345
217.169
1068.45
293.202
146.707
155.578
154.015
157.058
145.503
145.685
172.218
100.102
107.935
147.097
181.597
215.377
258.191
290.165
207.495
345.251
1280.72
515.263
208.213
159.031
158.261
152.511
140.286
158.63
148.024
117.315
106.477
96.74
129.287
153.303
162.703
240.641
147.181
231.602
1110.47
1198.06
274.296
148.024
211.629
172.533
153.538
134.16
123.767
121.274
149.83
104.478
128.333
167.186
175
181.239
167.265
191.247
354.396
481.356
185.374
159.629
161.484
161.686
150.792
135.82
128.92
154.969
103.67
107.742
112.741
168.03
205.289
223.18
189.711
218.99
1081.92
1192.27
267.012
148.151
154.311
159.276
157.623
149.437
139.855
132.221
127.356
139.527
132.131
150.545
165.356
187.424
192.18
225.672
327.453
945.439
178.698
152.273
151.119
150.476
148.895
144.84
142.328
140.331
132.439
122.114
123.63
136.66
158.639
172.99
184.284
238.277
380.641
299.773
141.478
174.613
157.828
143.596
133.164
135.456
137.987
137.533
134.292
128.996
130.662
143.474
159.098
187.471
192.549
200.867
572.406
276.76
161.281
182.103
154.797
139.304
126.938
131.496
119.384
128.449
132.709
133.022
138.806
150.507
173.584
165.632
157.487
292.389
1198.82
1230.82
214.153
147.064
158.826
157.792
144.89
131.973
127.092
146.538
110.948
120.506
134.398
146.807
159.16
168.137
210.449
199.028
520.123
996.206
196.935
150.032
147.705
149.153
141.074
129.137
120.79
120.089
121.424
114.638
119.132
144.497
164.431
164.535
180.25
205.014
1133.93
335.093
170.859
156.668
156.54
156.132
147.207
136.486
126.1
121.368
114.436
110.163
117.646
143.291
161.686
185.679
144.547
214.315
1171.42
319.569
153.799
144.072
154.763
153.37
157.535
155.611
112.644
120.14
121.523
121.468
127.109
148.415
165.693
165.979
159.073
315.095
1099.1
235.634
151.334
151.62
156.029
151.132
139.739
149.536
124.741
109.451
113.778
126.675
136.77
151.973
165.826
182.603
184.858
506.446
480.571
179.29
192.841
191.714
163.456
147.213
134.669
111.412
141.434
113.263
79.8409
114.178
146.559
158.519
167.15
177.941
203.777
1077.81
319.6
152.001
144.293
151.053
144.811
140.178
152.566
108.343
128.062
85.2767
121.228
91.5973
131.002
158.049
158.815
182.411
254.336
1210.89
1116.34
215.148
142.981
151.66
151.73
143.829
127.36
141.588
104.118
93.6058
85.0237
79.9444
138.033
146.816
156.866
164.896
149.039
289.376
1109.09
204.325
147.801
149.085
148.574
141.342
131.681
119.497
127.797
117.288
117.749
91.2325
98.9394
136.187
151.521
151.403
168.316
481.085
1091.45
202.105
149.627
147.997
151.403
142.861
132.189
122.067
114.985
111.409
87.7086
79.7969
75.4208
128.748
158.94
158.39
185.651
978.992
1083.79
196.709
148.416
146.449
146.744
142.072
134.728
126.975
114.12
110.306
101.055
95.5129
103.247
117.56
166.842
181.563
256.144
1213.41
314.144
173.946
154.757
149.087
144.531
136.911
130.449
130.695
119.587
104.44
89.9089
87.0396
98.5822
142.147
164.635
182.088
282.649
1212.82
287.535
148.679
144.476
149.947
138.624
128.405
125.646
125.594
128.563
112.106
92.1114
70.7521
82.9941
145.47
155.169
181.633
274.213
1163.07
200.733
161.76
169.537
148.643
136.003
114.901
108.871
110.682
116.688
121.469
112.609
103.799
113.788
152.851
163.521
159.667
288.842
1040.26
197.542
145.079
138.31
137.838
124.647
111.847
105.116
125.7
102.429
109.292
117.585
122.455
129.083
143.916
169.5
147.587
299.728
1111.98
199.723
146.248
141.401
135.237
125.037
112.399
104.277
105.744
114.542
117.919
99.9465
120.158
140.7
148.706
169.587
151.682
315.106
1116.2
206.152
151.015
146.041
139.392
127.575
119.236
114.273
115.095
115.252
111.983
101.858
110.325
135.814
153.842
150.575
166.518
472.681
1046.1
197.591
151.765
152.023
145.337
131.236
116.628
111.829
113.584
121.268
118.908
114.729
120.822
138.396
153.73
164.808
197.842
1053.84
329.755
191.12
151.362
154.731
149.351
128.206
108.271
95.129
99.9388
103.659
109.167
118.075
127.952
142.17
153.546
164.999
200.409
1140.2
335.108
184.306
146.06
153.796
143.521
117.756
104.955
93.1908
84.9805
65.2386
77.4121
110.043
133.064
143.883
152.272
161.891
197.428
1105.35
1240.52
239.275
177.969
149.28
143.795
145.989
117.664
75.3025
74.7408
62.5779
60.9182
43.8165
68.9874
124.254
145.882
149.705
165.01
211.428
1091.48
1127.79
200.259
141.583
215.315
160.113
131.707
120.263
95.0468
56.728
50.6684
45.8145
39.0716
59.1194
122.28
145.853
147.75
154.146
260.302
208.551
153.068
147.808
143.165
130.63
116.172
93.2499
69.5566
44.6094
41.8581
33.4448
75.7946
124.588
150.177
152.964
145.328
276.775
1056.98
207.509
147.273
144.064
143.456
136.765
128.082
116.661
96.5611
96.749
36.8401
30.2131
50.9099
133.387
153.169
167.831
154.829
323.876
1090.23
195.305
145.499
143.096
144.09
140.109
128.629
122.526
114.687
92.0365
84.1202
37.2394
48.1745
132.687
148.953
162.135
161.861
482.976
1182.88
188.243
148.642
148.799
146.528
140.934
132.214
113.307
103.843
90.0821
76.8062
85.5079
86.5213
139.234
155.161
148.953
170.262
912.023
174.297
173.146
165.281
150.641
140.599
136.133
124.339
97.8693
70.2284
67.9403
99.3009
121.116
135.12
154.181
170.322
193.752
1017.28
782.368
286.156
167.721
149.521
139.776
133.032
129.451
117.404
87.2807
50.1133
72.5335
131.657
146.032
145.409
175.141
197.962
1114.49
2237.33
295.794
226.825
222.335
138.946
136.556
133.39
123.1
114.887
102.833
94.0288
67.0499
130.282
152.83
158.673
143.066
220.417
1168.34
315.372
165.987
156.388
165.557
125.248
127.673
131.665
123.507
114.644
97.0743
85.2133
97.5935
133.718
148.246
162.131
153.211
298.867
299.554
158.383
156.539
134.552
112.5
108.529
117.464
124.266
107.467
105.342
50.0637
80.89
125.229
141
150.554
161.149
323.517
1239.54
258.266
164.005
160.309
154.069
114.168
110.753
96.1675
94.8806
116.785
74.0411
60.0724
82.5503
124.199
139.435
143.253
181.881
917.074
1009.48
193.227
153.607
139.445
135.211
93.6528
145.444
123.345
71.0288
62.1588
82.1987
70.5918
83.8802
109.556
157.736
152.846
187.774
1041.12
879.514
155.339
289.741
204.69
105.904
69.1622
83.3376
98.9233
167.376
54.6561
54.0183
73.8544
108.44
152.973
202.644
195.649
188.781
1047.54
480.735
145.899
171.981
168.368
78.7385
50.4221
53.2959
38.2722
78.9202
123.152
69.1464
102.602
141.105
169.625
197.335
244.439
201.531
1092.51
1074.46
261.643
143.63
164.806
172.897
78.5567
35.4001
21.1083
22.9663
43.3112
73.4352
110.208
146.96
157.342
154.093
168.435
188.252
341.972
1110.76
969.906
168.242
193.463
162.584
162.435
78.2942
27.7336
10.6386
15.3744
37.3974
63.3379
119.881
127.56
138.18
154.676
157.952
156.325
219.059
1141.22
246.59
165.556
153.374
137.279
62.0892
22.5762
11.664
12.5553
32.5961
56.8235
107.15
130.807
143.054
155.424
169.921
146.166
277.574
1268.73
281.36
164.487
172.859
137.916
49.7943
17.2087
19.1052
34.568
26.9671
50.4296
75.6558
133.339
148.481
156.53
164.939
158.185
324.157
289.745
178.33
190.226
170.186
53.3336
13.9335
12.0665
24.8641
41.9255
39.1709
94.7847
139.053
153.829
156.562
161.972
164.936
486.695
262.584
280.843
228.989
192.991
71.3209
12.3084
8.93537
14.2449
29.3724
46.6359
64.4305
140.963
159.414
163.05
152.361
172.499
938.657
1029.75
192.207
197.68
219.074
183.297
80.9881
24.4619
10.9906
18.2926
33.2055
78.6138
85.4942
137.549
165.978
162.808
175.25
208.982
1046.59
973.229
195.72
198.5
201.682
162.51
74.7517
23.1824
12.2961
21.9126
42.2844
65.9543
113.547
168.538
168.783
169.436
149.057
297.616
907.635
166.28
148.808
162.664
151.742
77.768
28.1692
18.8759
21.514
48.394
82.2943
135.645
159.372
168.488
174.314
158.306
338.365
919.883
162.902
146.735
157.164
165.947
71.9719
18.7612
17.5942
48.619
77.2659
90.4486
154.606
169.266
167.786
174.712
166.502
340.988
931.864
165.165
149.674
159.078
157.49
88.6181
25.6212
17.2367
37.8383
73.3175
105.626
165.262
167.72
169.625
160.467
177.601
937.603
944.186
165.802
158.676
164.362
155.975
88.3983
76.2421
41.2165
34.533
65.862
118.804
177.007
164.896
167.315
168.614
207.173
1050.6
323.481
170.092
189.136
196.628
142.794
78.6413
104.208
124.435
71.8748
74.0009
105.852
142.631
156.546
157.861
178.088
211.379
1126.8
374.34
404.485
225.688
92.0813
40.1122
23.0674
58.0932
196.908
86.9601
97.8563
140.811
158.067
160.507
164.266
259.534
1259.25
358.016
277.584
240.953
175.481
27.2976
17.4898
25.7049
66.8704
107.825
111.339
169.274
161.804
163.664
156.148
307.834
336.862
227.147
223.863
223.912
202.791
41.3275
22.312
34.8772
72.2801
140.935
163.339
155.789
177.363
162.387
157.385
332.413
366.264
165.794
203
244.443
238.2
193.181
70.2955
40.8755
132.446
188.765
202.118
240.297
206.533
229.399
184.383
910.526
375.747
177.115
189.292
241.065
292.759
281.191
182.412
206.916
223.537
238.317
214.089
235.702
239.418
279.625
213.476
1106.09
1297.14
348.177
203.632
176.807
225.255
269.757
265.199
256.425
223.95
262.952
304.172
278.287
221.515
258.472
264.948
516.451
1343.36
258.55
166.716
208.083
192.336
286.487
274.618
238.342
150.666
229.768
228.904
243.31
270.534
302.409
332.459
273.951
1091.34
243.188
181.161
170.822
186.318
223.545
266.365
358.872
230.559
220.044
240.042
233.486
215.985
246.291
340.65
864.453
357.213
186.367
625.611
399.343
277.059
202.877
209.282
166.289
207.495
214.887
203.791
181.097
181.205
204.527
335.84
4178.43
364.004
613.679
315.682
283.498
299.712
260.133
221.445
260.078
275.241
253.675
224.825
203.997
185.754
216.441
335.907
865.006
1143.69
699.755
352.922
271.717
247.009
255.092
184.84
202.371
249.412
266.906
283.442
237.473
234.118
229.709
372.881
1253.49
231.928
486.907
282.393
222.552
200.554
179.577
208.808
210.62
236.742
262.912
295.553
160.91
229.351
277.905
1512.87
1234.46
245.673
184.003
341.183
257.553
235.723
184.255
157.507
204.984
216.879
266.786
246.539
239.856
192.784
380.09
1343.14
614.705
239.228
193.898
499.763
320.437
253.809
212.976
216.788
224.172
227.493
262.423
295.299
162.802
209.847
395.008
1199.93
602.604
493.104
358.728
305.773
226.521
221.797
180.728
249.86
233.968
278.419
190.068
271.025
1243.22
758.835
557.881
494.507
399.526
318.735
294.712
227.172
205.435
252.049
279.916
155.861
203.229
368.088
1246.66
238.628
192.928
536.806
375.582
255.808
288.088
300.453
232.733
262.56
253.823
182.036
236.12
584.81
1308.18
255.43
204.878
529.935
447.001
280.794
288.117
384.451
352.942
322.379
364.463
197.216
252.94
1273.17
1217.58
250.565
601.594
516.072
478.137
358.275
277.996
243.813
275.73
333.485
511.006
208.168
263.619
1358.3
1268.27
239.56
601.708
512.451
510.535
473.678
264.808
281.57
259.044
365.196
511.902
208.815
351.274
1407.99
1209.96
242.586
195.019
541.104
490.573
522.521
344.752
238.49
263.446
334.333
194.515
218.12
351.989
1513.78
1503.15
1200.32
199.381
180.746
503.526
511.329
628.299
336.896
272.292
379.833
544.73
232.986
373.968
190.249
532.236
491.706
504.72
184.617
540.027
551.12
591.875
563.48
197.064
179.228
498.141
588.962
216.03
233.394
314.307
1229.15
6354.92
621.212
191.791
537.719
585.597
255.248
419.497
2858.03
2146.35
537.069
841.145
246.18
279.167
1246.21
521.308
826.643
247.102
268.982
641.904
901.793
670.571
299.001
245.07
293.947
1246.12
1212.98
305.379
1995.74
883.861
568.251
374.281
213.418
200.047
234.852
239.967
691.805
317.553
222.102
399.86
729.428
1562.5
1406.61
6514.33
527.658
1544.05
622.113
588.455
1452.39
640.089
434.951
330.072
316.048
294.735
275.077
264.321
362.521
1488.69
656.911
425.43
316.694
299.844
278.112
266.586
265.403
271.673
269.407
264.593
251.098
252.796
262.783
256.284
1407.27
624.059
337.381
297.774
271.965
269.465
265.445
258.373
261.301
264.735
270.744
257.127
243.475
247.456
260.32
261.153
263.395
257.914
267.538
370.5
449.874
935.847
1073.04
587.609
320.44
279.879
268.953
253.242
248.188
253.648
257.268
257.022
253.705
255.222
262.846
242.574
630.836
621.321
266.278
270.702
249.965
256.97
256.814
294.616
667.205
621.898
365.683
280.971
259.588
236.455
219.608
221.804
225.703
230.427
233.308
239.769
239.653
251.317
249.275
252.455
249.802
228.761
575.588
633.352
247.545
264.073
262.022
278.88
323.158
1367.88
471.348
229.506
184.993
178.511
221.75
239.431
547.692
797.723
933.978
197.574
212.862
218.65
207.353
198.83
207.647
228.479
232.524
220.878
207.103
542.626
622.382
258.805
279.208
321.425
678.501
1579.44
420.563
350.198
313.903
266.127
265.84
259.982
282.504
328.1
373.476
414.688
578.037
193.761
206.282
231.47
258.611
752.69
210.068
228.437
239.153
242.732
610.311
627.342
304.934
667.033
1326.96
362.939
430.59
393.011
272.105
248.808
243.652
297.873
222.759
207.44
325.095
351.86
416.962
408.771
428.423
598.137
195.262
261.518
620.674
226.941
240.406
245.38
257.804
299.093
616.512
480.989
1431.31
346.975
330.52
349.588
338.189
215.384
221.353
225.267
226.26
266.198
207.092
183.064
306.905
340.805
370.793
354.465
297.753
254.979
173.282
218.851
185.048
236.61
269.426
404.711
677.764
1164.73
451.496
212.163
212.438
255.636
251.396
271.107
203.535
193.259
188.62
248.486
259.798
199.554
176.71
181.779
202.991
203.448
207.836
269.477
247.447
280.569
226.454
225.887
231.306
265.566
595.027
1246.45
264.711
177.22
290.714
263.742
231.027
272.426
194.451
208.084
237.245
243.135
222.332
228.706
226.251
260.65
197.202
200.94
206.099
214.933
232.201
346.311
205.481
644.227
611.739
735.763
4684.13
812.868
1421.96
332.448
277.537
243.667
229.356
192.228
215.58
179.785
194.535
196.628
240.882
224.277
211.585
223.614
223.669
219.714
213.051
221.937
228.433
232.549
219.731
174.912
629.668
1752.89
1332.43
380.903
278.013
222.705
206.529
229.298
180.333
136.547
78.8789
89.0305
186.099
202.267
212.33
146.82
260.221
245.294
240.105
250.653
279.897
254.937
227.004
158.216
233.726
505.48
498.547
213.469
206.924
234.524
274.841
203.651
178.459
210.072
175.389
120.309
84.3676
84.2106
83.5503
76.9712
118.858
114.896
120.097
235.579
252.461
290.66
385.043
327.889
152.842
225.008
532.677
470.377
218.439
193.492
220.749
205.535
189.871
180.389
184.804
176.356
193.249
127.829
114.723
105.614
89.6857
87.4802
98.3804
113.296
162.618
179.813
247.703
329.673
358.426
562.201
222.495
527.485
427.801
186.009
236.47
228.704
213.094
198.218
185.558
176.579
179.881
177.437
162.817
162
141.259
164.873
97.6635
93.1126
110.439
170.849
240.104
253.035
304.809
379.1
395.518
508.675
925.698
1224.71
418.888
184.2
212.357
200.085
198.31
196.224
195.002
179.583
160.219
154.041
142.224
145.972
120.373
141.106
127.714
122.526
106.38
101.597
128.237
167.577
242.169
345.971
372.167
475.984
453.424
1208.46
417.768
177.871
201.214
196.928
200.725
197.934
187.138
170.037
130.56
79.8804
100.519
103.68
99.6838
101.062
128.32
121.782
162.995
163.349
153.831
155.148
184.63
242.32
319.288
485.012
482.132
1093.42
291.368
172.849
213.479
204.824
203.257
199.675
188.409
167.903
138.585
113.061
61.9769
63.5148
93.3421
94.6617
101.86
106.434
109.135
110.665
137.324
180.726
184.528
209.565
227.998
275.185
357.044
1409.72
1310.35
313.727
168.621
180.854
192.735
195.421
184.799
162.486
140.371
130.849
118.729
103.936
93.4833
82.5498
83.1105
93.9428
93.1539
107.064
116.612
114.674
94.1539
190.885
214.51
242.845
270.191
226.642
1612.3
458.67
180.771
219.369
203.211
197.009
175.896
130.767
100.228
90.5007
95.3074
97.706
94.4701
93.6116
92.56
85.9045
86.0596
98.832
118.558
147.791
164.293
153.024
183.033
235.087
261.518
224.198
503.709
505.882
216.915
182.728
188.662
192.47
183.688
148.411
78.3278
42.5425
41.691
50.3618
66.6641
83.2617
89.8581
95.4194
96.9727
98.9501
111.164
130.34
157.148
176.602
190.472
203.776
241.894
223.142
522.411
1074.15
271.77
180.246
196.242
189.689
185.391
165.479
101.647
52.8596
29.8904
21.654
23.3807
31.0592
51.4557
80.1401
103.389
109.372
118.98
132.727
151.618
175.446
200.145
208.331
213.571
182.263
453.13
451.58
178.982
187.723
186.608
181.925
162.174
96.5577
49.6244
31.7117
24.4137
19.4976
17.9543
21.0177
28.8239
52.6185
85.8619
113.908
129.943
147.248
171.37
190.26
204.798
232.783
272.606
321.193
507.494
200.661
227.712
207.356
192.363
169.205
111.602
51.3228
28.4882
19.1387
17.3433
16.5987
16.4469
17.2661
19.3363
29.4329
51.4877
97.0297
137.64
168.615
190.503
202.797
204.025
204.211
195.985
886.001
1010.67
257.838
182.113
203.964
199.348
187.841
155.437
101.014
37.699
22.0144
14.4671
12.7273
13.6277
14.2513
16.7951
20.0959
23.0607
32.6166
55.2053
127.243
173.896
198.285
210.192
199.609
172.249
443.236
1013.58
272.409
186.782
203.758
192.813
184.143
160.809
127.888
77.5216
41.4302
21.5147
18.683
12.162
12.2886
13.8
16.9826
23.8116
27.4325
48.4856
80.8397
134.058
182.563
200.578
216.563
237.918
286.915
1155.5
448.328
208.958
205.398
186.541
177.456
156.616
124.186
87.6457
53.5319
31.7281
17.1966
17.4675
21.2255
15.4249
15.5086
22.8361
32.1734
43.0343
68.3823
132.869
180.906
201.89
220.873
240.062
273.037
994.331
834.565
222.556
222.473
187.348
172.766
138.145
112.817
95.5879
67.5325
42.6408
24.5649
19.3549
30.5678
48.6746
39.1776
22.1449
30.4241
51.7494
89.8467
147.695
171.656
195.716
233.028
251.04
272.934
996.414
278.921
179.416
175.904
172.026
157.272
128.595
52.798
52.2078
53.6446
31.7679
25.693
21.2001
33.7405
57.7504
55.3074
37.4075
34.9179
55.9509
121.585
167.988
190.243
208.974
216.124
249.847
986.702
842.066
184.137
179.052
178.403
174.782
152.29
113.051
71.1691
31.8771
33.7645
35.8307
34.0662
33.5555
37.6595
51.0438
63.0377
50.8471
45.4455
94.3514
158.575
188.662
206.976
224.407
257.771
440.322
301.702
184.367
178.219
179.043
163.131
126.546
83.3118
66.333
41.3356
24.0504
27.8713
32.5207
35.8893
34.9994
45.5441
69.7191
84.9392
96.6371
125.028
182.028
195.487
218.095
249.941
281.83
1030.79
1012.11
235.565
180.534
172.138
168.062
141.606
94.1635
64.7377
44.1778
32.0014
24.1051
21.0866
23.775
26.3898
27.348
30.9094
49.9782
98.0466
137.316
165.158
190.216
207.431
204.277
194.843
930.45
372.271
209.394
195.67
172.619
137.854
103.289
68.6748
44.9375
31.9883
24.146
20.8872
23.4695
26.3124
30.9875
38.7781
42.2829
52.2147
103.488
143.475
177.526
195.809
208.21
249.776
306.621
1310.01
780.183
169.56
169.743
165.899
151.623
121.083
45.0236
36.7949
26.6005
18.557
16.7762
16.6398
19.7813
29.2106
42.5516
55.4893
75.6278
99.3866
126.478
161.022
182.127
191.423
228.119
267.164
989.418
241.089
208.727
174.913
166.582
146.426
109.638
71.7334
30.5929
19.4776
16.9902
16.7814
14.9425
14.4634
22.0433
38.5925
61.3865
81.8152
117.763
142.421
174.907
192.977
205.312
174.11
470.297
761.971
171.538
167.896
165.396
155.977
132.921
105.539
76.1234
46.9497
21.5392
14.7146
15.3129
19.223
17.3128
17.7983
28.5519
57.4593
88.5192
130.863
162.556
183.956
191.346
230.752
262.849
1087.26
273.067
174.876
167.637
165.848
149.009
115.123
84.3634
59.6093
43.1223
22.9605
14.5175
13.5821
16.7844
25.3351
26.8173
24.4704
47.1121
96.947
143.478
174.532
186.392
196.576
217.048
440.978
766.857
169.642
167.71
169.777
160.179
132.689
99.675
64.2041
43.1806
28.8869
22.1256
16.0317
15.367
18.9642
26.1189
37.4142
40.1663
58.0115
99.8238
151.757
183.701
191.029
182.734
198.938
961.51
269.351
168.945
165.185
167.733
152.195
116.625
85.8747
57.61
36.9885
23.3566
17.0107
16.7612
16.4068
19.7034
29.6157
46.0745
72.9243
96.8624
121.063
165.805
194.135
206.873
220.045
304.415
779.56
168.362
162.29
161.824
157.025
128.96
104.221
81.3434
59.3528
36.7957
24.2144
18.7464
15.4281
16.1739
17.8674
26.6937
45.3268
67.4489
108.341
142.523
175.756
202.405
197.258
191.587
930.641
276.028
159.961
155.436
156.942
140.675
104.895
77.4776
68.2558
58.0344
43.4212
27.0153
17.5826
15.4729
16.2874
20.0248
28.5575
48.7765
70.5507
109.575
159.894
187.031
197.207
254.44
298.857
234.51
198.9
163.774
154.865
126.884
82.9697
63.2654
52.0775
49.2203
46.4901
37.2625
24.9372
16.0495
15.9849
21.0255
36.694
69.1209
100.888
126.939
171.218
195.903
209.803
170.533
783.236
811.474
163.83
159.241
153.796
146.655
114.354
69.9952
51.7262
42.8935
39.8322
40.0981
41.8027
38.2272
29.8711
26.391
31.7656
46.4749
73.0525
119.866
149.77
177.842
196.984
247.119
264.299
1086.99
775.569
190.598
161.533
151.986
138.697
103.793
61.9135
42.757
33.9201
32.0128
34.2207
37.4292
40.5926
42.6234
43.7231
50.1864
63.0192
82.1384
115.804
152.661
177.558
186.707
252.557
722.136
396.931
183.893
164.357
153.266
130.364
97.1964
50.9204
36.4872
28.8994
24.9954
25.1063
30.408
36.5228
41.5507
48.7199
59.1942
75.4342
94.8635
127.002
161.073
180.494
192.044
208.876
863.689
236.694
204.247
173.051
159.842
127.261
96.4006
65.3887
36.1723
28.6117
23.0745
18.0454
21.0042
29.3712
39.4972
47.2168
57.923
75.238
105.469
141.864
172.458
176.774
220.107
276.767
783.992
200.834
184.778
164.205
154.73
116.114
79.6209
64.8213
48.3293
33.3179
27.9594
22.015
17.1777
21.5207
31.324
44.9302
60.6298
79.4559
109.668
152.027
177.372
200.048
166.531
794.496
413.546
181.038
164.747
161.66
141.942
109.339
73.7937
51.4703
39.6222
35.3185
32.6852
30.5205
26.8452
25.2004
30.4469
43.3256
59.9346
83.7531
120.87
152.872
174.333
186.121
214.414
1048.58
229.525
206.424
171.995
161.242
132.978
93.1501
67.8903
47.3036
31.6556
23.5955
25.061
29.4437
32.3718
34.4389
38.8006
48.7443
65.5812
87.3763
129.751
159.857
172.613
192.212
262.477
812.162
167.629
161.807
158.113
152.278
123.174
86.5118
60.3723
42.8362
30.6916
19.7688
16.7614
21.1969
28.5643
38.4161
46.2797
55.3311
72.3458
95.8356
136.345
166.246
169.697
197.602
420.287
402.846
172.744
155.905
157.098
141.165
112.702
84.2426
55.6759
36.0208
24.7492
19.1538
14.5362
14.0195
19.3736
28.6268
44.3871
58.7044
75.9412
112.349
144.217
168.361
190.222
162.209
767.23
282.616
156.879
151.893
149.229
129.129
96.6886
72.4244
50.8027
31.633
18.3557
13.9057
12.9474
13.1215
13.574
18.8065
32.3474
54.8163
77.7363
114.754
151.912
165.272
188.854
217.468
1058.26
239.99
204.749
166.284
149.534
121.605
90.7306
69.0837
51.3577
35.1625
19.2759
11.402
9.96462
10.8417
13.4035
17.0534
28.8894
50.284
79.4275
126.435
154.038
170.79
171
234.818
983.29
172.756
155.072
158.415
143.624
106.149
77.9847
63.9181
53.6719
44.5862
29.8937
16.0962
10.1932
9.20845
11.141
16.8688
29.5999
54.4653
83.9
134.997
163.647
163.991
206.341
403.746
788.861
161.131
164.367
158.922
143.677
104.771
72.0854
53.8512
44.826
41.8462
37.9673
27.9839
17.7156
12.4697
9.22795
13.6227
27.3802
54.8429
98.3479
145.043
167.52
187.178
169.665
813.215
732.827
182.537
161.034
159.594
141.385
102.686
71.6755
52.1873
40.2415
35.4244
32.5026
28.0025
23.3452
18.0272
15.1141
13.6232
25.3145
55.5963
101.665
150.675
172.807
167.8
234.242
285.984
155.268
151.301
152.243
136.85
98.5513
68.138
50.0622
38.9943
33.1168
34.0395
29.9948
22.3096
17.0511
15.3795
18.0152
29.9015
60.5719
114.5
156.672
176.476
206.242
289.389
275.159
155.413
151.146
151.359
130.078
88.6801
62.189
44.2626
34.9265
31.3708
32.7673
35.4149
29.4631
19.8448
14.1774
17.7606
31.5984
61.124
117.615
159.128
171.569
213.294
722.479
241.563
202.843
164.658
151.263
121.15
86.3284
60.8348
41.4034
29.1396
24.7805
26.1136
33.4923
37.3951
32.9507
26.4481
26.9029
43.503
68.9811
118.394
157.079
188.182
203.274
760.431
238.005
166.563
154.982
146.955
115.454
82.5865
58.7757
41.1428
28.9473
21.3639
18.0121
21.0219
29.3855
38.3827
42.4454
46.895
58.4573
82.9569
120.026
156.844
170.224
214.067
899.301
229.303
165.887
154.975
145.545
114.354
80.4391
59.2912
42.198
30.5437
24.0744
19.1907
15.9923
19.1445
26.0762
36.6698
51.688
66.4885
88.2489
120.036
152.99
174.44
174.988
998.378
956.194
179.014
162.032
157.997
146.992
112.546
79.2195
59.4288
42.719
32.3877
27.9045
26.2782
25.1486
22.527
23.4097
29.4762
42.7186
62.5943
87.9567
127.794
153.357
173.665
212.452
765.809
210.59
190.999
165.347
145.591
106.555
74.4728
56.4839
41.7129
30.3876
26.3478
26.4696
29.0209
32.105
33.2037
36.6278
45.8294
63.5829
93.231
139.115
160.571
180.454
222.496
753.345
184.56
158.715
155.402
138.132
96.3924
64.2349
48.4695
36.9813
27.0339
22.9841
22.4717
24.3391
30.5398
37.7943
45.827
55.6458
71.181
96.9536
142.35
167.207
162.995
234.452
402.773
169.762
155.814
152.175
131.675
93.1946
60.2537
36.2088
28.3294
23.7954
19.4378
17.4429
17.4471
21.0781
30.297
43.2547
57.7475
77.2862
105.668
141.391
163.6
191.596
287.31
280.642
151.389
149.173
150.331
128.772
96.168
63.1586
35.4284
18.8439
16.4084
14.8237
12.5637
10.5036
12.333
19.9325
33.9759
53.4884
75.9227
114.418
144.968
164.055
190.866
681.84
284.633
153.845
149.747
147.65
122.352
98.0227
69.1983
41.8509
20.2024
11.0864
8.17633
7.75243
7.46786
8.43366
14.0812
27.8552
49.9705
76.8707
119.729
146.757
162.006
192.108
717.568
246.624
157.421
152.346
148.631
119.287
85.1178
64.0832
46.9726
29.5312
16.9541
9.98202
4.87031
4.87392
7.26152
13.9963
27.4968
49.9493
78.9131
123.031
149.813
154.23
187.007
749.519
233.285
166.084
152.417
145.237
114.841
79.2233
60.0208
46.5243
37.4287
26.4532
17.1806
9.01566
4.45422
5.80374
12.2574
26.538
49.3343
79.417
126.661
154.932
163.529
163.274
820.275
243.227
168.185
147.66
138.757
105.048
72.7798
55.7507
42.6386
34.2257
30.524
24.6303
17.1838
9.30906
6.79287
11.7445
25.9281
49.8175
79.3375
128.969
156.432
169.988
209.094
1016.11
234.167
166.552
147.102
129.031
93.9139
65.9173
50.9307
41.8329
32.289
23.6647
19.3616
16.8117
15.974
13.9742
17.8263
30.8477
53.2331
82.3596
130.553
159.016
175.96
224.899
953.316
171.929
162.693
148.679
111.332
74.7993
57.7196
44.9946
37.95
33.4138
25.2235
17.3305
11.7082
13.4755
19.8687
30.7447
45.243
64.2493
92.2571
132.979
158.294
181.429
228.888
761.918
218.561
179.827
145.358
85.2532
40.9424
41.8566
39.1915
34.683
31.0914
27.935
21.472
14.1557
9.98554
16.7931
31.468
53.1468
73.3864
102.304
138.379
154.763
179.596
234.315
766.999
188.863
160.728
143.088
100.4
31.8354
25.7628
30.4815
32.6081
29.3904
24.6906
20.867
17.3381
14.7532
14.66
27.7694
50.6419
76.4604
114.23
147.193
162.601
168.676
222.975
416.48
178.401
158.818
149.367
114.571
63.4274
28.2964
23.5866
28.4138
30.451
24.4823
18.4411
13.8994
13.8741
18.238
29.1688
48.5591
76.9719
119.5
147.884
163.057
190.89
259.881