/*--------------------------------*- C++ -*----------------------------------*\
| =========                 |                                                 |
| \\      /  F ield         | OpenFOAM: The Open Source CFD Toolbox           |
|  \\    /   O peration     | Version:  2312                                  |
|   \\  /    A nd           | Website:  www.openfoam.com                      |
|    \\/     M anipulation  |                                                 |
\*---------------------------------------------------------------------------*/
FoamFile
{
    version     2.0;
    format      ascii;
    arch        "LSB;label=64;scalar=64";
    class       volScalarField;
    location    "70";
    object      p;
}
// * * * * * * * * * * * * * * * * * * * * * * * * * * * * * * * * * * * * * //

dimensions      [0 2 -2 0 0 0 0];

internalField   nonuniform List<scalar> 
404911
(
1.26017
1.25977
1.26565
1.28666
1.25872
1.25952
1.26757
1.27405
1.28089
1.28442
1.2754
1.26406
1.25989
1.26017
1.26224
1.26818
1.27759
1.27124
1.26917
1.26791
1.27775
1.27669
1.27084
1.28728
1.28247
1.26237
1.28714
1.28627
1.28844
1.30575
1.29664
1.29092
1.28383
1.29342
1.30156
1.30059
1.29897
1.32133
1.3153
1.31248
1.29865
1.33344
1.32442
1.31907
1.31567
1.30545
1.33254
1.3273
1.32168
1.32369
1.34193
1.33527
1.33041
1.33572
1.3434
1.34179
1.36706
1.24939
1.25235
1.25188
1.26649
1.26464
1.27385
1.27055
1.26841
1.28032
1.27685
1.27298
1.28522
1.28358
1.29035
1.28609
1.28411
1.29602
1.29233
1.2886
1.28612
1.30573
1.30181
1.3158
1.31217
1.32357
1.31924
1.31488
1.33207
1.32755
1.33814
1.33556
1.33001
1.3408
1.33973
1.35625
1.35808
1.35731
1.36917
1.36525
1.36136
1.37459
1.37148
1.3665
1.37628
1.37731
1.37507
1.37395
0.670598
0.666001
0.661806
0.711513
0.707412
0.682296
0.688006
0.676304
0.670229
0.664758
0.659609
0.729346
0.72252
0.709509
0.697549
0.687115
0.681337
0.673677
0.668323
0.645857
0.748609
0.740961
0.737837
0.732019
0.726946
0.724001
0.717398
0.704176
0.691597
0.684818
0.679631
0.671445
0.660027
0.643689
0.644344
0.646392
0.767011
0.757056
0.750112
0.743854
0.738298
0.733432
0.728745
0.723844
0.717566
0.712172
0.699864
0.690734
0.684629
0.675655
0.643445
0.785906
0.779551
0.77163
0.761295
0.752538
0.746146
0.740093
0.734989
0.730007
0.725888
0.719024
0.711732
0.704186
0.695621
0.689867
0.793685
0.790244
0.782618
0.776568
0.767446
0.757938
0.750981
0.742759
0.737095
0.733357
0.728
0.722268
0.715305
0.706873
0.698101
0.694695
0.813914
0.805847
0.79531
0.792414
0.783082
0.780093
0.773233
0.761622
0.752158
0.744282
0.739971
0.735489
0.730782
0.724864
0.718441
0.709749
0.704974
0.834471
0.828871
0.822026
0.816692
0.809242
0.801555
0.796302
0.78842
0.783373
0.776227
0.764738
0.756511
0.748123
0.743037
0.738574
0.733432
0.728628
0.724083
0.841192
0.839183
0.83211
0.825385
0.820534
0.813771
0.807244
0.798838
0.793015
0.786831
0.781179
0.771264
0.760015
0.752339
0.746258
0.740547
0.736831
0.730373
0.855903
0.850443
0.844697
0.841967
0.835448
0.829559
0.824629
0.817893
0.811095
0.803108
0.796026
0.790626
0.784752
0.776735
0.765495
0.756742
0.750376
0.746445
0.867891
0.862626
0.855647
0.848831
0.844417
0.838329
0.833379
0.82788
0.821577
0.815044
0.807298
0.800609
0.794535
0.78798
0.78258
0.771033
0.757817
0.884912
0.879222
0.870449
0.866196
0.860631
0.853895
0.848034
0.842737
0.837421
0.832008
0.825655
0.818523
0.810951
0.80457
0.79885
0.790963
0.783943
0.901108
0.895563
0.888012
0.884919
0.878122
0.870799
0.864365
0.857486
0.851582
0.846969
0.84289
0.835749
0.829444
0.822148
0.814175
0.808498
0.802819
0.796175
0.912966
0.906981
0.903591
0.89698
0.89048
0.888784
0.882201
0.874948
0.868599
0.861028
0.856203
0.849959
0.844946
0.83989
0.832787
0.823705
0.817445
0.815591
0.926146
0.922081
0.916117
0.912771
0.908036
0.899412
0.893315
0.890948
0.886695
0.879134
0.87208
0.865232
0.862004
0.856258
0.848212
0.842916
0.837649
0.830265
0.933101
0.929082
0.923649
0.918073
0.913769
0.909526
0.901898
0.897005
0.892014
0.888315
0.880968
0.872657
0.86867
0.865292
0.861825
0.852911
0.847142
0.83755
0.949389
0.94353
0.935436
0.931392
0.926243
0.920054
0.915525
0.912278
0.906734
0.900899
0.895443
0.891466
0.885011
0.876258
0.870197
0.866494
0.862765
0.856799
0.958245
0.953584
0.947194
0.941901
0.935861
0.928155
0.923697
0.917791
0.91345
0.909782
0.905557
0.901664
0.895272
0.888972
0.881633
0.874604
0.870281
0.865769
0.968953
0.965761
0.961228
0.957505
0.950437
0.94601
0.941142
0.932336
0.92659
0.91997
0.913794
0.91161
0.907936
0.903608
0.898765
0.89305
0.885725
0.877694
0.979721
0.973807
0.969016
0.968479
0.963263
0.955952
0.950336
0.945402
0.938069
0.931383
0.923296
0.915793
0.912684
0.908544
0.905732
0.901547
0.895047
0.989474
0.986128
0.980644
0.976445
0.973093
0.97048
0.966068
0.960796
0.954219
0.948014
0.942499
0.934678
0.927644
0.919301
0.915995
0.912143
0.908305
0.90379
0.997778
0.991881
0.988722
0.983347
0.979002
0.976242
0.972157
0.96804
0.964167
0.958619
0.951986
0.946501
0.939022
0.931072
0.923747
0.917399
0.915046
0.911664
1.00238
0.999619
0.99514
0.991687
0.986075
0.981056
0.978581
0.975011
0.970529
0.967297
0.963251
0.9574
0.951066
0.943988
0.936596
0.932907
0.922102
0.918297
1.01441
1.00908
1.00458
1.00173
0.998211
0.994501
0.990702
0.985159
0.980784
0.977061
0.97287
0.969472
0.965339
0.962157
0.953844
0.94841
0.940041
0.932046
1.02498
1.02096
1.01663
1.01198
1.00846
1.00498
1.00114
0.997026
0.993559
0.988903
0.985111
0.980922
0.974704
0.971394
0.967017
0.96319
0.956033
0.950683
1.03273
1.02741
1.02305
1.01865
1.01454
1.01109
1.00819
1.00488
0.99951
0.994273
0.990882
0.988255
0.984402
0.978321
0.974492
0.969655
0.964875
0.958242
1.04306
1.03933
1.03515
1.03035
1.02575
1.02103
1.01701
1.01365
1.01111
1.00823
1.00327
0.998354
0.993929
0.989552
0.987347
0.982678
0.972962
0.974987
1.04945
1.0458
1.04199
1.03794
1.0331
1.0282
1.02378
1.01936
1.01585
1.01334
1.01054
1.00683
1.00283
0.998541
0.99371
0.992624
0.987386
0.982344
1.05426
1.05145
1.04822
1.04487
1.04069
1.03583
1.03099
1.02662
1.0223
1.01852
1.01553
1.01253
1.00889
1.00494
1.0008
0.996741
0.993809
0.989694
1.05943
1.05698
1.05375
1.04963
1.04749
1.04389
1.03871
1.03317
1.02947
1.02535
1.02154
1.01818
1.01474
1.01085
1.00676
1.00247
0.998594
0.996499
1.06498
1.06408
1.06196
1.05911
1.05709
1.05314
1.05035
1.04734
1.04315
1.03699
1.03174
1.02837
1.02453
1.02101
1.01759
1.01383
1.00955
1.00347
1.07697
1.07064
1.06588
1.06329
1.06065
1.05836
1.05559
1.05268
1.0501
1.04644
1.04148
1.03516
1.03142
1.02782
1.02414
1.02067
1.01668
1.01321
1.08266
1.0794
1.07458
1.07073
1.06627
1.06205
1.05982
1.05734
1.05457
1.05208
1.04896
1.04466
1.03954
1.03509
1.03154
1.02822
1.02519
1.02307
1.08618
1.08425
1.08151
1.07768
1.07446
1.07104
1.06571
1.06138
1.05951
1.05652
1.05394
1.05104
1.04721
1.04295
1.03838
1.03423
1.03129
1.09864
1.093
1.08983
1.08693
1.08351
1.08011
1.0776
1.07499
1.07003
1.06412
1.06189
1.05896
1.05623
1.05311
1.04965
1.04579
1.04182
1.03678
1.10404
1.10015
1.09694
1.09331
1.08972
1.0859
1.08164
1.07947
1.0781
1.07396
1.06711
1.06372
1.06131
1.05835
1.05538
1.05216
1.04761
1.04598
1.10831
1.10465
1.10166
1.09929
1.09649
1.09306
1.08918
1.08521
1.08167
1.07999
1.07766
1.07262
1.06653
1.06376
1.06087
1.05838
1.05622
1.05172
1.11877
1.11381
1.11049
1.10681
1.10386
1.10131
1.09917
1.09657
1.09289
1.089
1.08498
1.08207
1.08036
1.07649
1.07109
1.06731
1.06378
1.06112
1.12219
1.11911
1.1163
1.11259
1.10926
1.10608
1.10348
1.10143
1.09913
1.09528
1.09185
1.08774
1.08393
1.0819
1.07879
1.07484
1.07027
1.06529
1.12939
1.12502
1.1218
1.11885
1.11514
1.11165
1.10841
1.10558
1.10339
1.10114
1.09904
1.09512
1.09107
1.08648
1.08434
1.08132
1.07726
1.07415
1.13191
1.13131
1.12792
1.12482
1.1217
1.11799
1.11445
1.11127
1.10787
1.10511
1.10284
1.10053
1.0978
1.09392
1.08977
1.08713
1.08397
1.0786
1.14068
1.13836
1.13417
1.13057
1.1272
1.12415
1.12039
1.1173
1.11474
1.11123
1.10659
1.10378
1.1021
1.09992
1.09647
1.09357
1.08924
1.15159
1.14691
1.14341
1.13976
1.13682
1.13303
1.12948
1.12633
1.12261
1.11952
1.11773
1.11569
1.11157
1.1074
1.10401
1.10209
1.09969
1.09685
1.15408
1.1514
1.14968
1.14647
1.14315
1.14006
1.13605
1.1318
1.12783
1.12475
1.12181
1.12013
1.11863
1.11599
1.11124
1.10742
1.10448
1.10233
1.15991
1.15681
1.15396
1.15192
1.14893
1.14599
1.1433
1.1402
1.13568
1.13059
1.12632
1.12377
1.12169
1.11989
1.11706
1.11382
1.11022
1.1073
1.1634
1.16145
1.15936
1.15644
1.15415
1.15119
1.14839
1.14572
1.14326
1.14006
1.13622
1.12959
1.12608
1.12351
1.12117
1.11859
1.11557
1.11293
1.17032
1.1664
1.16355
1.16136
1.15896
1.15627
1.15327
1.15032
1.14749
1.14517
1.14265
1.13959
1.13473
1.13001
1.12642
1.1234
1.12057
1.11752
1.17543
1.17262
1.16963
1.16639
1.16393
1.16146
1.15862
1.15523
1.15199
1.14897
1.14658
1.14444
1.14195
1.1383
1.13418
1.13007
1.1266
1.12315
1.18127
1.17822
1.17535
1.17183
1.16897
1.1666
1.16421
1.16133
1.15795
1.15436
1.15121
1.14835
1.14618
1.14369
1.14077
1.13751
1.13345
1.12787
1.1853
1.18323
1.18102
1.17779
1.17314
1.17107
1.16931
1.16714
1.16382
1.1599
1.15577
1.15376
1.15067
1.14819
1.14566
1.14277
1.13955
1.13845
1.19465
1.19143
1.1873
1.18593
1.18407
1.18145
1.17725
1.17274
1.17036
1.1692
1.16747
1.16447
1.16021
1.15547
1.15317
1.15067
1.14812
1.14478
1.14195
1.19839
1.19729
1.19439
1.19069
1.1884
1.18666
1.1846
1.18146
1.1772
1.17437
1.17132
1.16923
1.16753
1.16386
1.15908
1.15617
1.15386
1.15153
1.20013
1.19804
1.19556
1.1927
1.19057
1.18873
1.18679
1.18408
1.18035
1.17725
1.17423
1.17057
1.16905
1.16626
1.1626
1.15871
1.15644
1.20881
1.20665
1.20361
1.20017
1.19726
1.19445
1.19226
1.19025
1.18827
1.18648
1.18267
1.17956
1.17638
1.17255
1.17054
1.16815
1.16514
1.16134
1.21628
1.21163
1.20945
1.20611
1.20276
1.19956
1.19625
1.19378
1.19178
1.18988
1.1882
1.18491
1.18201
1.17844
1.17588
1.17308
1.17058
1.16612
1.21671
1.21838
1.21532
1.21199
1.20861
1.20554
1.20277
1.19934
1.19483
1.19199
1.19135
1.19024
1.18794
1.18483
1.18154
1.17854
1.17566
1.17401
1.22343
1.22097
1.2177
1.21447
1.21107
1.20815
1.20576
1.20367
1.19977
1.1951
1.19288
1.19146
1.18982
1.1871
1.18413
1.1809
1.17867
1.22966
1.22689
1.2225
1.22045
1.21756
1.21385
1.21081
1.20837
1.20639
1.20317
1.19821
1.19467
1.19307
1.19101
1.18873
1.18686
1.18436
1.24047
1.23996
1.23526
1.23086
1.22597
1.22365
1.22083
1.21671
1.21297
1.21061
1.20901
1.20591
1.20072
1.1977
1.19547
1.19321
1.18951
1.18823
1.2451
1.2414
1.24131
1.23829
1.23376
1.2298
1.22692
1.22406
1.2206
1.21609
1.21226
1.21039
1.20882
1.20488
1.20131
1.19811
1.19751
1.25026
1.24838
1.24453
1.2423
1.23969
1.23553
1.23218
1.22966
1.22654
1.22408
1.22047
1.2165
1.21302
1.21071
1.20747
1.20391
1.20037
1.26264
1.25873
1.25512
1.2514
1.24811
1.24481
1.24232
1.239
1.23388
1.2312
1.22838
1.22588
1.22368
1.22062
1.21642
1.21354
1.21
1.20606
1.26857
1.26473
1.26067
1.25813
1.25475
1.25138
1.24967
1.24681
1.24262
1.23694
1.23464
1.23146
1.22748
1.22492
1.22273
1.21977
1.21683
1.21351
1.27075
1.26962
1.26631
1.26374
1.26058
1.25713
1.25318
1.25157
1.25021
1.24555
1.2403
1.23692
1.23392
1.23098
1.22684
1.22432
1.22191
1.21899
1.27734
1.27458
1.27286
1.2694
1.26625
1.26324
1.26055
1.25572
1.2522
1.24984
1.24656
1.24253
1.23901
1.23605
1.23352
1.22997
1.22647
1.22457
1.29314
1.28597
1.27992
1.27794
1.27522
1.27179
1.26852
1.26531
1.26295
1.2589
1.25464
1.25193
1.24898
1.245
1.2416
1.23903
1.23593
1.23156
1.22915
1.29085
1.29276
1.2875
1.28258
1.27964
1.27694
1.27361
1.2702
1.2676
1.26466
1.26049
1.25695
1.25417
1.25111
1.24743
1.24357
1.24173
1.23732
1.2341
1.29089
1.2928
1.28894
1.28579
1.28276
1.27957
1.27592
1.2725
1.26969
1.2663
1.26223
1.2593
1.25635
1.25319
1.24959
1.246
1.24313
1.24021
1.29939
1.2973
1.29577
1.29212
1.28864
1.28535
1.28234
1.27969
1.27549
1.27218
1.26854
1.26471
1.26202
1.25896
1.25567
1.25183
1.24849
1.30665
1.30359
1.30156
1.29839
1.29449
1.29135
1.28817
1.28523
1.28216
1.27848
1.27474
1.27173
1.26747
1.26481
1.26213
1.25952
1.25421
1.3197
1.31197
1.30805
1.30507
1.30153
1.29804
1.29464
1.29067
1.2877
1.28519
1.28185
1.27762
1.27447
1.27117
1.26855
1.26541
1.26213
1.3344
1.33075
1.32423
1.31852
1.3133
1.30971
1.306
1.30224
1.29817
1.29435
1.29117
1.28869
1.2848
1.28086
1.27754
1.27439
1.2707
1.27074
1.3423
1.33937
1.33421
1.33054
1.3243
1.31915
1.31472
1.31114
1.30671
1.30207
1.29823
1.29491
1.29212
1.28896
1.28434
1.2804
1.2769
1.34795
1.3444
1.34096
1.33768
1.33333
1.32866
1.32375
1.31854
1.31455
1.31028
1.30573
1.30144
1.29811
1.29504
1.29198
1.28779
1.28394
1.35141
1.35055
1.34744
1.34426
1.34006
1.33588
1.33201
1.32787
1.32249
1.31809
1.31355
1.30896
1.30525
1.30087
1.2978
1.29477
1.29088
1.35949
1.35576
1.35319
1.34957
1.34685
1.34206
1.33834
1.33568
1.33138
1.32609
1.32127
1.31689
1.31233
1.30803
1.30405
1.30133
1.2979
1.36386
1.36226
1.35849
1.35606
1.35319
1.35015
1.34536
1.34054
1.33838
1.33447
1.32979
1.32528
1.32056
1.31641
1.31193
1.30722
1.30469
1.37266
1.36851
1.36494
1.36046
1.35819
1.35591
1.35437
1.3509
1.34525
1.34106
1.33701
1.33263
1.3287
1.32442
1.321
1.31627
1.31114
1.37429
1.37217
1.36817
1.36514
1.36177
1.35882
1.35616
1.35366
1.3491
1.34425
1.3399
1.33598
1.33203
1.32743
1.32615
1.3196
1.38732
1.38183
1.37526
1.37178
1.36817
1.36489
1.36175
1.35896
1.35565
1.35237
1.34765
1.34273
1.33955
1.33484
1.33102
1.39753
1.39386
1.3909
1.38572
1.3793
1.3751
1.37163
1.36817
1.36468
1.36152
1.35755
1.35354
1.35027
1.34632
1.34236
1.33794
1.40413
1.40229
1.39673
1.39164
1.38643
1.38156
1.37769
1.37527
1.37166
1.36787
1.36433
1.35929
1.35362
1.35245
1.34926
1.34428
1.41858
1.4115
1.40817
1.40181
1.39532
1.39069
1.38441
1.38027
1.3772
1.37427
1.37126
1.36858
1.36416
1.3578
1.35474
1.35054
1.44143
1.43375
1.42457
1.41683
1.41286
1.40797
1.40227
1.3982
1.39327
1.38742
1.3812
1.37649
1.37192
1.37078
1.36848
1.36357
1.44822
1.44139
1.43831
1.43286
1.42441
1.41793
1.41333
1.40799
1.40333
1.3998
1.39602
1.39055
1.3839
1.37639
1.37313
1.37151
1.47107
1.45939
1.44933
1.4424
1.43799
1.43068
1.42385
1.41876
1.4141
1.40932
1.40492
1.40236
1.3991
1.39321
1.38482
1.37961
1.48713
1.47747
1.466
1.45489
1.44881
1.44378
1.43693
1.42854
1.4228
1.41839
1.41509
1.41129
1.40682
1.40443
1.40137
1.3955
1.49776
1.48772
1.48168
1.47458
1.46299
1.45405
1.44938
1.44509
1.43568
1.42624
1.42287
1.41683
1.41515
1.41274
1.40555
1.40188
1.50315
1.49801
1.49249
1.48744
1.48069
1.47164
1.4629
1.45642
1.45092
1.44371
1.4329
1.42752
1.42492
1.41928
1.41629
1.51342
1.50908
1.50349
1.49703
1.49153
1.48505
1.47772
1.47054
1.46324
1.45652
1.4513
1.44167
1.43383
1.42877
1.42791
1.42222
1.52264
1.51836
1.51389
1.50918
1.50196
1.49548
1.48873
1.48261
1.47615
1.46937
1.46176
1.45726
1.45053
1.44189
1.43537
1.43263
1.53481
1.52919
1.52358
1.51795
1.51195
1.507
1.49971
1.49341
1.48756
1.48113
1.47436
1.46744
1.46096
1.45413
1.44768
1.5385
1.53257
1.52875
1.52359
1.51678
1.51127
1.50438
1.49803
1.49205
1.48695
1.47998
1.47392
1.46532
1.46108
1.55602
1.54385
1.53898
1.53484
1.52773
1.52167
1.51577
1.50907
1.50347
1.49818
1.491
1.48418
1.4799
1.5615
1.55654
1.5524
1.54893
1.54464
1.53959
1.53359
1.52647
1.52103
1.51485
1.50838
1.50244
1.49624
1.48769
1.5748
1.56699
1.56303
1.55744
1.55423
1.54888
1.54421
1.53921
1.53109
1.52605
1.51878
1.51335
1.50762
1.5028
1.59097
1.58211
1.57361
1.56623
1.56402
1.56058
1.55562
1.55085
1.54431
1.53918
1.53125
1.52519
1.51892
1.51608
1.5998
1.59562
1.58793
1.58038
1.5742
1.56794
1.56686
1.56205
1.55661
1.55086
1.5448
1.53762
1.53092
1.52439
1.61533
1.60678
1.60009
1.59483
1.58939
1.58542
1.57459
1.57115
1.567
1.56134
1.55577
1.55056
1.54542
1.53644
1.62447
1.61828
1.61096
1.60429
1.6005
1.59015
1.58584
1.5799
1.5776
1.57271
1.56588
1.56071
1.55675
1.60637
1.60374
1.5983
1.58847
1.58447
1.5816
1.5786
1.57032
1.5645
1.61045
1.60474
1.6
1.59166
1.58874
1.58463
1.58279
1.57488
1.61642
1.61278
1.60764
1.60467
1.59627
1.5891
1.58658
1.64672
1.63256
1.61473
1.61412
1.60519
1.59924
1.59171
1.63969
1.62817
1.61616
1.60838
1.60422
1.65916
1.65328
1.63124
1.63514
1.6236
1.61357
1.69048
1.69829
1.67771
1.67227
1.63326
1.69616
1.6906
1.69016
1.68653
1.68647
1.64296
1.71368
1.68657
1.67473
1.67715
1.67429
1.73194
1.70193
1.68384
0.2396
0.230203
0.227835
0.314426
0.298456
0.28547
0.275417
0.259623
0.244442
0.231481
0.228432
0.167385
0.356298
0.349489
0.331878
0.32553
0.314979
0.302843
0.291931
0.279882
0.264787
0.250824
0.235634
0.226981
0.215637
0.196047
0.176785
0.396125
0.382505
0.373225
0.358087
0.351497
0.337181
0.326528
0.318731
0.308031
0.296896
0.283782
0.267277
0.254415
0.240064
0.226535
0.21538
0.197998
0.174436
0.166147
0.13933
0.095579
0.0776041
0.441341
0.436737
0.418957
0.404479
0.387224
0.37378
0.362073
0.350301
0.340997
0.331319
0.321305
0.311696
0.300713
0.288688
0.272157
0.268107
0.241218
0.228985
0.216289
0.199936
0.182527
0.159885
0.13486
0.496576
0.477537
0.46852
0.451457
0.442856
0.425601
0.407714
0.390936
0.378184
0.366231
0.354652
0.344288
0.334579
0.324912
0.311745
0.305702
0.294059
0.293896
0.263717
0.246409
0.231467
0.219481
0.202813
0.18676
0.169603
0.510514
0.502846
0.498375
0.487564
0.475
0.452215
0.445208
0.432581
0.415792
0.39934
0.383954
0.370981
0.361041
0.35006
0.338345
0.329737
0.317369
0.310084
0.300356
0.292602
0.26907
0.252035
0.236614
0.222978
0.208113
0.531269
0.520519
0.511376
0.507212
0.498312
0.489609
0.478008
0.467532
0.453842
0.436984
0.415931
0.400338
0.391912
0.377281
0.369054
0.358301
0.344075
0.33553
0.322396
0.31423
0.305452
0.297034
0.280961
0.260988
0.244231
0.554699
0.546021
0.533143
0.523484
0.513139
0.507865
0.502869
0.494631
0.480635
0.472412
0.461252
0.446188
0.425266
0.405063
0.392471
0.386556
0.370772
0.363756
0.350763
0.337503
0.327909
0.318505
0.310008
0.297782
0.286382
0.585703
0.567576
0.566521
0.55995
0.550272
0.539031
0.528667
0.518766
0.511276
0.506323
0.4985
0.483488
0.475175
0.465304
0.453394
0.436928
0.415657
0.398372
0.386013
0.378183
0.370425
0.360591
0.342877
0.333286
0.324848
0.30942
0.615931
0.60691
0.598927
0.587065
0.576526
0.570633
0.564956
0.554275
0.544283
0.533653
0.525027
0.514805
0.507539
0.498844
0.488128
0.478075
0.468776
0.4572
0.442269
0.423485
0.407407
0.395298
0.385341
0.37362
0.366308
0.347879
0.337485
0.625882
0.618677
0.60958
0.601384
0.59295
0.582589
0.571987
0.567542
0.558907
0.549184
0.539023
0.529596
0.520476
0.512307
0.499303
0.49144
0.482227
0.47208
0.459863
0.448525
0.433248
0.405237
0.408204
0.394411
0.378889
0.649206
0.644659
0.639301
0.630692
0.622073
0.611832
0.605643
0.597579
0.586881
0.577893
0.570373
0.562501
0.553097
0.544122
0.53477
0.526323
0.516711
0.501812
0.494868
0.485787
0.474607
0.462829
0.451212
0.436612
0.42514
0.665367
0.654014
0.646618
0.640501
0.633646
0.626915
0.616466
0.608626
0.601006
0.592014
0.581602
0.574662
0.565695
0.555519
0.547556
0.539352
0.530558
0.520828
0.50571
0.498786
0.489776
0.478295
0.464547
0.452188
0.687206
0.682819
0.673193
0.668607
0.657272
0.649221
0.643541
0.637894
0.628952
0.619097
0.611219
0.603137
0.595745
0.584621
0.577487
0.568236
0.558974
0.550727
0.542826
0.533615
0.524301
0.512863
0.504047
0.492944
0.480981
0.712629
0.70112
0.691343
0.684453
0.677092
0.670573
0.661121
0.653301
0.646355
0.641453
0.631131
0.622351
0.613352
0.604505
0.597697
0.590662
0.580885
0.571951
0.563462
0.554309
0.547203
0.538773
0.526946
0.5188
0.506285
0.727273
0.720974
0.714636
0.706101
0.696929
0.687398
0.680595
0.673366
0.665067
0.656472
0.64959
0.642284
0.632862
0.625446
0.614655
0.607749
0.599999
0.59091
0.583818
0.575092
0.565982
0.557779
0.55004
0.545126
0.52772
0.747969
0.742431
0.737351
0.731025
0.724988
0.718958
0.711042
0.701741
0.69142
0.683513
0.67753
0.66988
0.661603
0.653198
0.644279
0.6381
0.629312
0.619111
0.611427
0.603275
0.590452
0.585071
0.578073
0.567872
0.561634
0.552784
0.76373
0.763294
0.752831
0.745757
0.739518
0.734328
0.729047
0.722722
0.716576
0.707481
0.69593
0.687137
0.681455
0.674118
0.665573
0.656255
0.646335
0.640056
0.635511
0.625233
0.61389
0.607943
0.597669
0.587507
0.578062
0.566884
0.792893
0.778849
0.768654
0.762814
0.755473
0.747763
0.741165
0.736127
0.731611
0.7265
0.721135
0.712932
0.701699
0.692606
0.685429
0.678567
0.670426
0.660094
0.64867
0.64164
0.637017
0.626403
0.616812
0.609959
0.602166
0.58831
0.582086
0.798321
0.796647
0.789582
0.781763
0.775131
0.766596
0.758266
0.750268
0.743512
0.738458
0.733628
0.728632
0.723639
0.71676
0.70732
0.698487
0.690421
0.683261
0.675838
0.666847
0.651749
0.645552
0.638528
0.629252
0.620164
0.612024
0.605013
0.81096
0.803648
0.797896
0.791321
0.785129
0.77862
0.770409
0.761777
0.753618
0.746316
0.740892
0.735781
0.73067
0.725509
0.719341
0.71132
0.702885
0.694457
0.68775
0.681856
0.673706
0.660555
0.650661
0.641837
0.631223
0.622827
0.830413
0.819542
0.812848
0.807499
0.801645
0.794963
0.788462
0.782255
0.773949
0.765665
0.75717
0.749147
0.743287
0.73846
0.733693
0.72835
0.722031
0.714562
0.706353
0.697478
0.690509
0.683019
0.676253
0.66685
0.655284
0.646066
0.840919
0.83635
0.831568
0.823956
0.817241
0.811434
0.804796
0.798454
0.791503
0.784927
0.777444
0.769933
0.761476
0.752402
0.745208
0.74092
0.736549
0.731158
0.725066
0.718036
0.709824
0.701302
0.693311
0.685604
0.678225
0.669922
0.84731
0.843523
0.838351
0.833038
0.826876
0.820862
0.814761
0.808152
0.801539
0.794589
0.787935
0.780846
0.773755
0.765036
0.755646
0.748039
0.743205
0.738642
0.733511
0.727974
0.721599
0.71373
0.70601
0.697514
0.690035
0.866231
0.86105
0.85376
0.847281
0.841691
0.83695
0.831187
0.824541
0.818576
0.812238
0.805386
0.798233
0.791343
0.78461
0.778154
0.769057
0.759127
0.751668
0.746439
0.741515
0.73608
0.730576
0.72434
0.717172
0.709748
0.704518
0.884279
0.877772
0.871635
0.864565
0.857872
0.851247
0.845318
0.840969
0.834677
0.82871
0.822554
0.816281
0.809583
0.802315
0.795173
0.788977
0.782692
0.774761
0.764099
0.75589
0.750193
0.745017
0.739464
0.733827
0.727697
0.724027
0.901301
0.89378
0.886652
0.880766
0.875143
0.868749
0.862069
0.855779
0.849685
0.844583
0.838464
0.832642
0.82648
0.819841
0.813446
0.806542
0.799809
0.79376
0.787158
0.780837
0.77061
0.761942
0.754632
0.748964
0.743153
0.737735
0.731735
0.905201
0.900754
0.897152
0.890681
0.884844
0.87913
0.873076
0.866534
0.860119
0.854178
0.848888
0.843112
0.837139
0.830902
0.824004
0.817353
0.810524
0.804582
0.798589
0.791539
0.784864
0.776502
0.76823
0.761284
0.754988
0.749276
0.9216
0.915706
0.910264
0.905187
0.900601
0.893778
0.88839
0.883387
0.877269
0.870989
0.864374
0.858174
0.852513
0.847478
0.841685
0.834956
0.828178
0.82095
0.814942
0.809222
0.80279
0.79606
0.789191
0.7808
0.769924
0.764912
0.926627
0.922728
0.917638
0.913091
0.908471
0.904483
0.89724
0.891482
0.887647
0.881929
0.875251
0.868607
0.861769
0.856501
0.850979
0.845142
0.838958
0.83214
0.824212
0.818896
0.812755
0.806108
0.799744
0.792675
0.782715
0.941176
0.935735
0.930386
0.925103
0.919778
0.915152
0.91133
0.906955
0.899804
0.894378
0.890693
0.886028
0.878869
0.871708
0.86564
0.861277
0.855918
0.848817
0.842578
0.836661
0.829621
0.82283
0.816973
0.810636
0.801767
0.950463
0.944578
0.939242
0.933644
0.928261
0.922751
0.917569
0.913335
0.908721
0.902194
0.896827
0.89288
0.888372
0.881319
0.873493
0.868474
0.865193
0.860773
0.852183
0.846122
0.84015
0.833629
0.826058
0.819862
0.816209
0.961798
0.958353
0.954035
0.948376
0.942886
0.937465
0.931797
0.926103
0.920697
0.91625
0.911761
0.905926
0.900673
0.896257
0.891386
0.884403
0.876042
0.869897
0.866654
0.862788
0.856221
0.850387
0.844026
0.838486
0.831397
0.971429
0.966821
0.962532
0.958473
0.952121
0.946718
0.941506
0.93541
0.929086
0.92331
0.918196
0.913666
0.909338
0.904776
0.900534
0.895277
0.888651
0.880934
0.873704
0.869157
0.864928
0.859257
0.853957
0.848951
0.842438
0.983343
0.979805
0.974845
0.970664
0.966756
0.963197
0.956978
0.950845
0.945764
0.939549
0.932789
0.926211
0.920598
0.915284
0.911299
0.906946
0.902861
0.898249
0.892468
0.886221
0.87907
0.873452
0.868595
0.862839
0.855306
0.990928
0.986993
0.982274
0.977598
0.973528
0.97039
0.967598
0.962236
0.956531
0.950449
0.944125
0.937427
0.930308
0.923668
0.917702
0.913273
0.908667
0.904645
0.900248
0.895182
0.889815
0.883799
0.879075
0.869842
1.00366
0.997517
0.993319
0.989478
0.984936
0.980284
0.975776
0.972763
0.970197
0.965962
0.960823
0.954542
0.94826
0.941894
0.934308
0.927041
0.920892
0.916059
0.911558
0.907766
0.903037
0.897708
0.893117
0.88697
0.881223
1.00817
1.00389
1.00054
0.996608
0.99224
0.987666
0.9835
0.978841
0.975269
0.972218
0.968727
0.964716
0.958967
0.952485
0.946129
0.938507
0.930876
0.924472
0.919154
0.914721
0.910772
0.90607
0.900925
0.89555
1.02053
1.01514
1.01111
1.0072
1.00305
0.999305
0.995417
0.991037
0.986606
0.982023
0.978125
0.974639
0.970967
0.967495
0.963208
0.957318
0.950877
0.943622
0.936218
0.929184
0.922809
0.918154
0.913595
0.908193
0.902604
1.02635
1.02229
1.0181
1.0137
1.0095
1.00588
1.00206
0.998148
0.993994
0.98992
0.985461
0.981249
0.977414
0.973208
0.969334
0.965038
0.959968
0.954446
0.947753
0.940866
0.933756
0.927781
0.921965
0.916474
1.03838
1.03343
1.02907
1.02473
1.02056
1.01599
1.01202
1.0086
1.00507
1.00095
0.996767
0.992752
0.988523
0.984688
0.980653
0.976153
0.971702
0.967044
0.962057
0.957308
0.951016
0.944601
0.937506
0.932439
0.929971
1.04261
1.03977
1.03611
1.03203
1.02763
1.02317
1.01851
1.01441
1.01098
1.00764
1.0038
0.999575
0.995198
0.991077
0.987492
0.983808
0.979564
0.974818
0.969784
0.965362
0.960089
0.954299
0.948749
0.941656
1.0479
1.04566
1.0424
1.03906
1.03507
1.03051
1.02584
1.02126
1.01708
1.01347
1.01018
1.00665
1.00268
0.998624
0.994457
0.990198
0.98691
0.983105
0.977957
0.972944
0.96839
0.962935
0.958137
0.954206
1.0569
1.05421
1.0511
1.04839
1.04549
1.04197
1.0379
1.0334
1.02868
1.02414
1.01983
1.01603
1.01265
1.00924
1.00545
1.00163
0.997578
0.993069
0.989561
0.986377
0.981555
0.976271
0.971426
0.965177
0.961513
1.06179
1.05912
1.05622
1.05332
1.051
1.04806
1.04463
1.04077
1.03638
1.03167
1.02712
1.02278
1.01883
1.01529
1.0118
1.00813
1.0044
1.00049
0.996223
0.99215
0.98855
0.984463
0.981069
0.977234
1.07085
1.06446
1.06174
1.0584
1.0561
1.05389
1.05049
1.04714
1.04351
1.03938
1.03475
1.03008
1.02578
1.02175
1.01805
1.01444
1.0108
1.00714
1.00325
0.999293
0.995414
0.990962
0.987053
0.981324
1.07661
1.07277
1.06829
1.06387
1.06026
1.05778
1.05614
1.0531
1.04964
1.0462
1.04236
1.0378
1.03302
1.02888
1.02489
1.02112
1.01739
1.01371
1.0101
1.00617
1.00221
0.998725
0.995784
1.08568
1.0828
1.07959
1.07556
1.0717
1.06726
1.06302
1.05995
1.05794
1.05514
1.05183
1.04863
1.0453
1.04102
1.03627
1.03199
1.02819
1.02455
1.02094
1.01731
1.0134
1.0098
1.0053
0.999087
1.09131
1.08827
1.08503
1.08169
1.07817
1.07477
1.07096
1.06686
1.06302
1.06017
1.05731
1.05402
1.0509
1.04783
1.04412
1.03982
1.03536
1.03144
1.02771
1.02416
1.02072
1.01667
1.01438
1.0082
1.09858
1.09451
1.09144
1.0879
1.08452
1.08106
1.07759
1.07426
1.07079
1.06697
1.06327
1.06001
1.05655
1.05336
1.05027
1.04678
1.04286
1.03859
1.03476
1.03089
1.02715
1.0238
1.01915
1.10784
1.10312
1.10065
1.09729
1.09397
1.09075
1.08735
1.08376
1.08022
1.07708
1.0741
1.07039
1.06646
1.06274
1.05922
1.05593
1.0527
1.04935
1.04566
1.0417
1.03786
1.03423
1.03116
1.02494
1.11448
1.10927
1.10561
1.10273
1.0996
1.09646
1.0935
1.09012
1.08646
1.08282
1.07952
1.07675
1.07342
1.06946
1.06543
1.06175
1.05841
1.05509
1.05199
1.04857
1.04466
1.0414
1.03704
1.03637
1.11631
1.11456
1.1114
1.10814
1.10502
1.10194
1.09891
1.09608
1.09286
1.0894
1.08597
1.08251
1.07939
1.07641
1.07281
1.06861
1.0645
1.06111
1.05752
1.05449
1.05138
1.04789
1.04479
1.03997
1.12316
1.1201
1.11688
1.11307
1.11001
1.10711
1.10413
1.1012
1.09846
1.09559
1.0922
1.08894
1.0855
1.08207
1.07908
1.07585
1.07184
1.06744
1.06392
1.06041
1.05697
1.05358
1.05093
1.12983
1.12967
1.12589
1.12288
1.11953
1.11586
1.11215
1.10899
1.10609
1.1033
1.10065
1.09792
1.09484
1.09146
1.08836
1.08474
1.08156
1.07846
1.07483
1.07058
1.06651
1.06318
1.05992
1.05605
1.14069
1.13424
1.13164
1.1288
1.12558
1.12234
1.11878
1.11501
1.11147
1.10833
1.1054
1.10272
1.10009
1.09754
1.09428
1.09101
1.08766
1.08431
1.08096
1.07758
1.07361
1.06972
1.06562
1.06257
1.14441
1.14106
1.1377
1.13469
1.13134
1.1282
1.12497
1.12155
1.1179
1.11441
1.11121
1.108
1.10492
1.10232
1.09976
1.09675
1.09377
1.09065
1.0871
1.08351
1.07994
1.0755
1.07169
1.15007
1.147
1.14339
1.14028
1.13725
1.13411
1.13077
1.12747
1.12419
1.12064
1.11734
1.11439
1.11123
1.10761
1.10456
1.10206
1.09934
1.0966
1.09364
1.09004
1.08635
1.08297
1.07812
1.15398
1.15155
1.14887
1.14607
1.14323
1.14009
1.13675
1.13337
1.1299
1.12655
1.12305
1.11989
1.11712
1.11446
1.11118
1.10796
1.1049
1.10202
1.09919
1.09648
1.09299
1.08929
1.08578
1.15854
1.15708
1.15417
1.15133
1.14841
1.14578
1.14286
1.13976
1.13632
1.13265
1.12881
1.12518
1.12219
1.1195
1.11704
1.11406
1.11092
1.10797
1.105
1.10222
1.09901
1.09502
1.09683
1.16517
1.16201
1.15941
1.15666
1.15394
1.15117
1.1483
1.14536
1.14243
1.13931
1.13589
1.13183
1.12741
1.12424
1.12154
1.119
1.11617
1.11326
1.11043
1.10768
1.10459
1.10147
1.09753
1.17019
1.16726
1.16456
1.16177
1.1591
1.15647
1.15374
1.15077
1.1477
1.14471
1.14187
1.13909
1.13539
1.13071
1.12672
1.12373
1.12096
1.11798
1.11529
1.11261
1.11016
1.10638
1.10392
1.1768
1.17472
1.17247
1.16989
1.167
1.1642
1.16152
1.15899
1.15624
1.15316
1.14996
1.14686
1.14409
1.1416
1.13862
1.13463
1.13036
1.12671
1.1237
1.12049
1.11758
1.11502
1.11268
1.18525
1.1812
1.17797
1.17547
1.17258
1.16962
1.16672
1.16408
1.16157
1.15879
1.15562
1.15227
1.1491
1.14627
1.14386
1.14123
1.13785
1.13399
1.13034
1.12705
1.12374
1.12088
1.11881
1.18839
1.18595
1.1837
1.1808
1.17816
1.17541
1.17223
1.16938
1.16682
1.16434
1.16158
1.15842
1.15494
1.15164
1.14861
1.14602
1.14347
1.14045
1.13694
1.13361
1.13027
1.12616
1.12375
1.19603
1.19156
1.18864
1.18612
1.18364
1.18102
1.17829
1.17488
1.17194
1.16957
1.1672
1.16441
1.16123
1.15764
1.15408
1.151
1.14824
1.14566
1.14288
1.13961
1.13652
1.13335
1.12879
1.19887
1.19708
1.19379
1.19066
1.18829
1.18604
1.18356
1.18092
1.17769
1.17454
1.17187
1.16956
1.16713
1.1643
1.16084
1.15676
1.15359
1.15071
1.14796
1.14525
1.1422
1.13943
1.13755
1.20407
1.2014
1.19905
1.19603
1.19293
1.19033
1.18817
1.18579
1.18328
1.18058
1.17738
1.17479
1.17208
1.16917
1.16674
1.16358
1.15982
1.15657
1.15373
1.15086
1.14777
1.14513
1.14214
1.21192
1.20758