/*--------------------------------*- C++ -*----------------------------------*\
  =========                 |
  \\      /  F ield         | OpenFOAM: The Open Source CFD Toolbox
   \\    /   O peration     | Website:  https://openfoam.org
    \\  /    A nd           | Version:  8
     \\/     M anipulation  |
\*---------------------------------------------------------------------------*/
FoamFile
{
    version     2.0;
    format      ascii;
    class       volScalarField;
    location    "75";
    object      epsilon;
}
// * * * * * * * * * * * * * * * * * * * * * * * * * * * * * * * * * * * * * //

dimensions      [0 2 -3 0 0 0 0];

internalField   nonuniform List<scalar> 
12225
(
285.501
270.727
257.893
243.84
232.439
223.137
216.792
212.78
212.838
214.122
217.496
221.282
228.682
233.556
242.389
247.929
257.058
265.832
52.4919
91.8928
106.992
114.795
124.932
136.938
152.959
170.315
191.795
211.82
236.66
257.225
283.781
302.453
329.676
344.644
375.024
383.475
20.3228
34.8562
44.6803
50.4775
55.4202
59.6445
64.7319
69.7467
76.5097
83.4743
91.8816
99.9521
109.028
118.233
127.12
137.875
145.662
159.539
15.3482
19.6967
24.1153
27.5709
30.5068
32.8831
35.1803
37.3306
39.5594
42.0108
44.4611
47.405
49.9299
53.4437
55.9057
60.0044
62.4913
67.3447
14.6508
15.8627
17.368
19.0745
20.642
22.0321
23.2557
24.449
25.4653
26.6351
27.5689
28.8391
29.7252
31.1378
31.9991
33.5454
34.4568
36.2216
14.7068
14.877
15.2017
15.867
16.5678
17.2898
17.9272
18.5932
19.1282
19.7533
20.2138
20.836
21.2506
21.89
22.2805
22.9468
23.3374
24.0867
14.7422
14.6201
14.6248
14.737
14.9298
15.2203
15.4923
15.813
16.0748
16.3917
16.6278
16.9378
17.1513
17.4593
17.6554
17.9699
18.1549
18.5091
14.7627
14.5866
14.4637
14.3811
14.3667
14.3901
14.4382
14.5351
14.6196
14.7401
14.8347
14.964
15.0569
15.191
15.2795
15.4192
15.5047
15.6684
14.7667
14.5908
14.4345
14.2963
14.1846
14.1042
14.0392
14.0066
13.9811
13.9791
13.9818
13.9936
14.007
14.0347
14.0545
14.0906
14.1184
14.1683
14.7663
14.594
14.4319
14.282
14.1426
14.0215
13.9108
13.8187
13.736
13.6689
13.6093
13.5626
13.5177
13.4874
13.4529
13.4365
13.4073
13.4082
14.7658
14.5945
14.4321
14.2802
14.1359
14.0029
13.8775
13.7636
13.6571
13.5615
13.4719
13.3934
13.3179
13.2541
13.1897
13.1393
13.0829
13.0454
14.7657
14.5944
14.4321
14.2798
14.1351
13.9995
13.871
13.7511
13.6374
13.5323
13.4324
13.341
13.2534
13.1745
13.0975
13.03
12.9619
12.9048
14.7657
14.5941
14.432
14.2794
14.1348
13.9987
13.8694
13.7479
13.6323
13.5238
13.4205
13.3239
13.2316
13.1459
13.0635
12.9876
12.9139
12.8469
14.7657
14.594
14.4319
14.279
14.1345
13.9981
13.8689
13.7468
13.6309
13.5214
13.4173
13.3189
13.2253
13.137
13.0527
12.9733
12.8975
12.8261
14.7657
14.5939
14.4317
14.2787
14.1342
13.9977
13.8684
13.7461
13.6303
13.5205
13.4163
13.3175
13.2237
13.1347
13.0501
12.9697
12.8933
12.8207
14.7657
14.5938
14.4316
14.2785
14.1339
13.9973
13.868
13.7457
13.6297
13.5199
13.4157
13.3169
13.223
13.1339
13.0492
12.9688
12.8922
12.8195
14.7657
14.5937
14.4315
14.2783
14.1337
13.997
13.8677
13.7453
13.6294
13.5195
13.4153
13.3164
13.2226
13.1335
13.0489
12.9684
12.8919
12.8191
14.7657
14.5937
14.4314
14.2782
14.1336
13.9968
13.8675
13.745
13.6291
13.5192
13.4151
13.3162
13.2224
13.1333
13.0488
12.9683
12.8919
12.8192
14.7657
14.5936
14.4314
14.2782
14.1335
13.9967
13.8674
13.745
13.6291
13.5192
13.4151
13.3163
13.2226
13.1335
13.049
12.9686
12.8923
12.8196
14.7657
14.5936
14.4314
14.2782
14.1336
13.9968
13.8676
13.7452
13.6294
13.5195
13.4156
13.3167
13.2232
13.1341
13.0498
12.9694
12.8932
12.8206
14.7657
14.5937
14.4315
14.2784
14.1338
13.9972
13.8679
13.7457
13.6298
13.5202
13.4162
13.3178
13.2242
13.1356
13.0514
12.9715
12.8956
12.8234
14.7657
14.5937
14.4316
14.2785
14.1341
13.9976
13.8687
13.7468
13.6317
13.5228
13.42
13.3226
13.2308
13.1437
13.0617
12.9836
12.9104
12.8403
14.7658
14.5937
14.4318
14.2788
14.1354
14.0004
13.8745
13.7564
13.6469
13.5442
13.4495
13.3602
13.2784
13.2007
13.1299
13.062
13.0009
12.9408
14.7655
14.5928
14.4328
14.2844
14.1516
14.0323
13.9292
13.8378
13.7596
13.6897
13.6309
13.577
13.5327
13.4902
13.4567
13.422
13.3973
13.3673
14.7592
14.5932
14.4603
14.3602
14.3029
14.2765
14.2803
14.2917
14.3201
14.3518
14.3938
14.4317
14.4784
14.5166
14.5654
14.6009
14.6516
14.682
14.7213
14.691
14.7539
14.9175
15.1821
15.4603
15.7457
16.0095
16.2683
16.4985
16.7286
16.929
17.1381
17.3154
17.5114
17.6702
17.8603
18.0023
14.7477
15.5123
16.5468
17.6836
18.702
19.5647
20.3313
20.9894
21.6076
22.1513
22.6979
23.1848
23.7054
24.1624
24.6796
25.1191
25.6464
26.0732
15.9871
20.9923
25.0225
27.7589
29.779
31.3508
32.7612
34.0369
35.3261
36.573
37.9131
39.2185
40.6553
42.0174
43.5494
44.9673
46.6226
48.0492
29.9025
47.2148
54.8605
58.6594
61.5872
64.3932
67.5159
70.8866
74.6054
78.5317
82.7382
87.0205
91.4927
95.9313
100.468
104.864
109.278
113.527
165.798
160.075
154.898
149.564
144.476
139.68
135.606
132.107
129.254
126.957
125.283
123.999
123.266
122.734
122.702
122.811
123.074
123.572
9.57506
4.26699
5.78938
7.03759
8.00205
8.56338
8.27625
8.21957
8.01358
7.52729
7.42461
7.355
7.29283
7.19717
7.35897
8.83032
41.416
47.7304
52.9608
55.7995
51.4888
48.0015
48.7038
52.2148
57.9399
65.789
75.6977
87.8961
102.336
119.084
138.001
158.759
180.806
203.945
227.742
252.12
276.7
301.509
326.224
350.961
375.444
399.854
423.948
447.955
471.654
495.31
518.703
542.127
565.359
588.716
611.96
635.42
658.849
682.582
706.367
730.54
754.822
779.56
804.459
829.877
855.473
881.626
907.974
934.898
961.989
989.636
1017.39
1045.65
1073.95
1102.64
1131.28
1160.17
1188.89
1217.64
1246.05
1274.27
1301.93
1329.21
1355.72
1381.66
1406.68
1431.03
1454.49
1477.47
1499.58
1520.53
1539.87
1557.89
1574.03
1588.52
1601.21
1611.63
1619.53
1623.68
1630.34
1629.59
1627.55
1622.14
1613.66
1602.02
1586.91
1568.68
1547.25
1522.74
1495.17
1464.65
1431.33
1395.68
1358.27
1319.2
1278.69
1237.05
1194.63
1151.69
1108.6
1065.55
1022.29
977.555
934.144
891.678
850.43
810.602
772.269
735.598
700.949
668.231
640.646
618.716
598.578
579.328
561.005
543.439
526.697
510.696
495.487
480.979
467.222
454.115
441.728
429.65
417.948
406.792
396.216
386.224
376.81
367.924
359.548
351.581
343.971
336.71
329.798
323.221
316.963
311.017
305.353
299.935
294.754
289.791
285.043
280.5
276.149
271.977
267.976
264.142
260.464
256.93
253.536
250.266
247.108
244.04
241.065
238.1
235.24
232.167
229.405
225.677
222.94
217.777
213.722
197.957
18.0249
13.5345
12.6886
12.4112
12.3176
12.326
12.5063
12.7618
13.1072
13.5465
14.1007
14.7729
15.6165
16.7697
18.4725
21.5683
28.1487
34.2339
39.881
45.1531
49.789
54.0104
59.6516
66.7918
74.9911
83.9582
93.5294
103.608
114.094
124.902
135.969
146.934
157.722
168.288
178.63
188.782
198.757
208.602
218.327
227.976
237.55
247.088
256.585
266.073
275.544
285.029
294.515
304.032
313.565
323.146
332.755
342.423
352.126
361.898
371.712
381.596
391.522
401.521
411.558
421.661
431.792
441.98
452.179
462.416
472.635
482.859
493.025
503.156
513.188
523.14
532.946
542.619
552.094
561.377
570.409
579.195
587.686
595.899
603.796
611.412
618.74
625.864
632.832
639.781
646.795
653.823
660.337
666.425
671.997
677.096
681.613
685.492
688.668
691.099
692.619
693.382
693.099
691.996
689.713
686.421
681.898
676.255
669.442
661.468
652.329
642.046
630.649
618.222
604.898
590.681
575.355
559.403
542.954
526.137
509.064
491.833
474.462
456.871
439.509
422.403
405.631
389.279
373.398
358.046
343.293
329.215
316.233
304.557
293.692
283.379
273.555
264.179
255.245
246.732
238.635
230.931
223.615
216.66
210.008
203.557
197.356
191.442
185.826
180.508
175.464
170.686
166.171
161.89
157.821
153.945
150.255
146.743
143.401
140.221
137.191
134.296
131.528
128.876
126.336
123.901
121.564
119.319
117.16
115.083
113.083
111.156
109.297
107.501
105.765
104.079
102.447
100.844
99.304
97.7313
96.2931
94.692
93.3765
91.9017
93.0266
94.1249
34.1979
22.4412
19.0612
17.6854
17.0557
16.8647
16.9894
17.3683
17.9955
18.8898
20.0866
21.646
23.6687
26.2765
29.6139
33.8585
39.0696
45.0811
51.4412
57.8637
64.2715
71.0346
77.8901
84.8406
91.8964
99.0028
106.157
113.391
120.741
128.225
135.852
143.345
150.919
158.562
166.273
174.05
181.887
189.777
197.708
205.671
213.655
221.652
229.652
237.649
245.637
253.612
261.57
269.509
277.424
285.316
293.18
301.038
308.869
316.673
324.444
332.181
339.878
347.534
355.14
362.697
370.193
377.629
384.994
392.29
399.506
406.65
413.681
420.588
427.357
433.987
440.469
446.803
452.982
459.01
464.885
470.616
476.209
481.68
487.045
492.328
497.551
502.744
507.924
513.104
518.262
523.324
528.194
532.865
537.314
541.517
545.441
549.025
552.222
554.991
557.151
558.855
559.53
559.843
559.253
557.836
555.456
552.111
547.759
542.38
535.963
528.517
520.069
510.67
500.391
489.288
477.408
464.916
451.921
438.533
424.848
410.963
396.948
382.872
368.884
355.06
341.464
328.156
315.179
302.581
290.416
278.761
267.763
257.498
247.833
238.654
229.908
221.57
213.623
206.057
198.86
192.018
185.517
179.343
173.468
167.849
162.479
157.36
152.491
147.863
143.424
139.201
135.193
131.39
127.774
124.324
121.036
117.904
114.92
112.074
109.358
106.763
104.279
101.899
99.6174
97.4273
95.3228
93.2976
91.3472
89.4667
87.6522
85.8991
84.2036
82.5616
80.9701
79.4233
77.9211
76.4517
75.0289
73.6158
72.275
70.9073
69.7118
68.3493
68.3553
68.6087
50.6958
30.6525
25.212
23.0814
22.1625
21.8898
22.0614
22.6102
23.536
24.8621
26.6463
28.9653
31.8945
35.5099
39.8665
44.9667
50.7153
56.9104
63.2765
69.5907
75.7606
81.8153
87.7507
93.6143
99.4751
105.399
111.452
117.691
124.15
130.834
137.73
144.877
152.191
159.648
167.232
174.929
182.724
190.598
198.533
206.511
214.516
222.534
230.548
238.549
246.524
254.464
262.361
270.208
277.995
285.716
293.358
300.933
308.429
315.841
323.163
330.391
337.519
344.542
351.454
358.252
364.928
371.481
377.904
384.195
390.35
396.366
402.233
407.951
413.518
418.939
424.217
429.36
434.373
439.27
444.06
448.758
453.379
457.943
462.467
466.972
471.474
475.99
480.53
485.095
489.682
494.236
498.724
503.13
507.428
511.601
515.6
519.375
522.868
526.014
528.736
530.989
532.584
533.37
533.625
533.066
531.6
529.183
525.768
521.319
515.82
509.272
501.697
493.137
483.653
473.313
462.2
450.428
438.103
425.335
412.228
398.885
385.398
371.859
358.371
345.012
331.846
318.932
306.323
294.081
282.262
270.925
260.131
249.909
240.214
230.992
222.205
213.832
205.857
198.268
191.052
184.195
177.683
171.501
165.627
160.037
154.714
149.647
144.83
140.251
135.887
131.733
127.777
124.016
120.435
117.003
113.727
110.603
107.623
104.774
102.052
99.4478
96.9535
94.5624
92.2685
90.0654
87.9466
85.9065
83.9402
82.0428
80.21
78.4375
76.7213
75.0574
73.4425
71.8721
70.3442
68.8526
67.4015
65.9761
64.6019
63.2452
61.998
60.7364
59.9542
59.8432
66.9223
38.9419
31.817
29.093
27.9778
27.6895
27.955
28.697
29.903
31.5999
33.8347
36.6591
40.1123
44.2046
48.9001
54.1039
59.6646
65.3955
71.1171
76.7093
82.14
87.4499
92.7128
98.0195
103.457
109.095
114.982
121.147
127.597
134.321
141.298
148.516
155.961
163.611
171.442
179.427
187.543
195.764
204.065
212.425
220.821
229.233
237.643
246.032
254.387
262.694
270.939
279.112
287.203
295.205
303.112
310.916
318.605
326.173
333.612
340.916
348.079
355.095
361.957
368.661
375.203
381.578
387.784
393.82
399.685
405.382
410.905
416.257
421.442
426.467
431.341
436.074
440.679
445.17
449.562
453.871
458.116
462.314
466.485
470.646
474.813
479.001
483.22
487.477
491.773
496.088
500.407
504.716
508.996
513.22
517.354
521.34
525.123
528.635
531.806
534.557
536.796
538.265
538.988
539.091
538.29
536.525
533.734
529.867
524.895
518.808
511.62
503.367
494.105
483.905
472.86
461.072
448.657
435.727
422.399
408.785
394.994
381.125
367.276
353.53
339.965
326.653
313.662
301.051
288.873
277.17
265.981
255.316
245.162
235.487
226.269
217.487
209.128
201.177
193.62
186.442
179.628
173.161
167.023
161.193
155.653
150.387
145.384
140.631
136.109
131.809
127.712
123.82
120.115
116.579
113.205
109.984
106.906
103.953
101.127
98.421
95.8257
93.336
90.9454
88.6478
86.4366
84.3063
82.2518
80.2686
78.3518
76.4972
74.7007
72.9581
71.2658
69.6198
68.015
66.449
64.9229
63.4302
61.9822
60.5699
59.2378
57.9564
56.9004
56.3365
82.5106
47.7333
38.9302
35.6475
34.3661
34.0686
34.4061
35.2854
36.67
38.5683
41.0033
43.9925
47.5313
51.5808
56.0627
60.8632
65.8504
70.899
75.9195
80.8758
85.79
90.7242
95.7585
100.971
106.426
112.167
118.219
124.59
131.275
138.262
145.533
153.072
160.861
168.877
177.097
185.496
194.049
202.73
211.515
220.377
229.294
238.241
247.198
256.142
265.057
273.923
282.725
291.449
300.08
308.607
317.017
325.301
333.447
341.445
349.286
356.963
364.467
371.792
378.931
385.879
392.629
399.179
405.525
411.665
417.598
423.322
428.845
434.173
439.314
444.276
449.071
453.711
458.211
462.585
466.852
471.028
475.132
479.184
483.202
487.207
491.216
495.246
499.31
503.418
507.57
511.774
516.028
520.322
524.64
528.964
533.254
537.461
541.526
545.382
548.953
552.154
554.886
557.022
558.217
558.836
558.577
557.332
555.02
551.575
546.953
541.132
534.116
525.935
516.641
506.309
495.031
482.918
470.087
456.663
442.774
428.543
414.087
399.519
384.945
370.464
356.171
342.147
328.461
315.175
302.336
289.982
278.141
266.823
256.02
245.716
235.895
226.54
217.636
209.167
201.12
193.478
186.225
179.342
172.812
166.614
160.73
155.142
149.836
144.797
140.007
135.454
131.123
127.003
123.082
119.345
115.78
112.379
109.13
106.022
103.047
100.194
97.4517
94.8188
92.288
89.8534
87.5086
85.2483
83.0676
80.9618
78.9264
76.9568
75.0487
73.1978
71.4002
69.652
67.9481
66.2872
64.6677
63.0865
61.5491
60.0555
58.6294
57.2738
56.0618
55.143
96.8733
56.3187
46.0276
42.2607
40.8343
40.5166
40.884
41.8177
43.2494
45.1629
47.5565
50.4217
53.7317
57.4339
61.4536
65.7031
70.0987
74.5764
79.1065
83.6955
88.3818
93.2207
98.2719
103.587
109.203
115.144
121.421
128.032
134.971
142.226
149.785
157.63
165.746
174.112
182.707
191.509
200.494
209.636
218.91
228.291
237.752
247.27
256.818
266.375
275.917
285.424
294.877
304.256
313.544
322.725
331.785
340.708
349.483
358.096
366.536
374.794
382.858
390.721
398.374
405.81
413.023
420.009
426.763
433.282
439.567
445.618
451.439
457.036
462.415
467.586
472.56
477.349
481.966
486.429
490.753
494.956
499.059
503.081
507.043
510.968
514.877
518.793
522.736
526.723
530.769
534.886
539.076
543.337
547.66
552.027
556.409
560.758
565.014
569.112
572.974
576.51
579.617
582.183
583.961
584.895
585.059
584.224
582.284
579.155
574.777
569.116
562.164
553.944
544.505
533.921
522.288
509.722
496.348
482.3
467.714
452.725
437.465
422.063
406.643
391.319
376.188
361.341
346.847
332.77
319.155
306.042
293.451
281.396
269.872
258.871
248.379
238.383
228.866
219.815
211.212
203.041
195.285
187.924
180.94
174.312
168.022
162.051
156.382
150.998
145.883
141.022
136.399
132.001
127.815
123.827
120.025
116.398
112.935
109.625
106.458
103.424
100.515
97.7194
95.0277
92.4347
89.9345
87.5227
85.195
82.9469
80.774
78.6717
76.6354
74.6607
72.7431
70.8787
69.0631
67.2934
65.5678
63.8847
62.2468
60.6571
59.1297
57.6761
56.3347
55.1485
109.471
64.0928
52.5312
48.3539
46.801
46.4544
46.8165
47.7383
49.1213
50.9278
53.1404
55.7413
58.7031
61.9849
65.5372
69.3086
73.2578
77.3601
81.6135
86.0357
90.6597
95.5237
100.665
106.113
111.889
118.004
124.463
131.264
138.4
145.865
153.647
161.734
170.113
178.766
187.677
196.825
206.189
215.743
225.465
235.328
245.306
255.374
265.505
275.673
285.855
296.027
306.164
316.247
326.253
336.163
345.96
355.625
365.142
374.497
383.674
392.661
401.445
410.015
418.36
426.472
434.341
441.962
449.327
456.435
463.28
469.865
476.189
482.257
488.073
493.645
498.983
504.098
509.002
513.711
518.241
522.609
526.835
530.94
534.947
538.879
542.763
546.625
550.491
554.385
558.329
562.341
566.429
570.598
574.842
579.156
583.511
587.866
592.166
596.346
600.33
604.029
607.336
610.138
612.256
613.429
613.859
613.288
611.584
608.649
604.406
598.807
591.832
583.498
573.848
562.956
550.92
537.859
523.904
509.198
493.891
478.132
462.071
445.851
429.605
413.452
397.5
381.838
366.543
351.676
337.287
323.411
310.072
297.282
285.043
273.348
262.187
251.547
241.413
231.77
222.601
213.888
205.613
197.758
190.301
183.223
176.505
170.126
164.069
158.316
152.849
147.653
142.712
138.011
133.535
129.272
125.208
121.331
117.63
114.094
110.712
107.474
104.371
101.394
98.5329
95.7714
93.1046
90.5298
88.044
85.6431
83.3228
81.0785
78.9054
76.7988
74.7541
72.7667
70.8326
68.9482
67.1113
65.3203
63.5769
61.8841
60.251
58.6888
57.2232
55.8214
119.761
70.556
57.9424
53.4224
51.7626
51.3886
51.736
52.6245
53.931
55.603
57.6162
59.9545
62.6013
65.5351
68.7325
72.1711
75.836
79.7216
83.8345
88.1899
92.8099
97.7172
102.933
108.474
114.351
120.571
127.137
134.047
141.3
148.89
156.812
165.056
173.612
182.468
191.61
201.021
210.682
220.572
230.666
240.942
251.373
261.933
272.596
283.336
294.127
304.943
315.758
326.547
337.287
347.956
358.53
368.992
379.319
389.495
399.501
409.32
418.938
428.339
437.511
446.44
455.116
463.528
471.669
479.53
487.108
494.397
501.397
508.107
514.532
520.675
526.543
532.145
537.493
542.599
547.478
552.147
556.625
560.931
565.089
569.125
573.064
576.936
580.771
584.598
588.444
592.331
596.275
600.282
604.358
608.498
612.686
616.883
621.041
625.1
628.988
632.618
635.888
638.681
640.842
642.08
642.558
642.04
640.38
637.465
633.205
627.538
620.435
611.902
601.98
590.737
578.276
564.715
550.198
534.879
518.92
502.482
485.722
468.789
451.823
434.947
418.276
401.9
385.898
370.331
355.25
340.69
326.677
313.225
300.337
288.011
276.238
265.005
254.298
244.102
234.399
225.172
216.402
208.07
200.156
192.64
185.501
178.719
172.276
166.153
160.333
154.799
149.534
144.523
139.752
135.205
130.871
126.736
122.787
119.015
115.408
111.956
108.649
105.477
102.432
99.4985
96.6603
93.918
91.2699
88.7125
86.2417
83.8526
81.5403
79.2998
77.1261
75.0143
72.9602
70.9598
69.0105
67.1105
65.2602
63.4622
61.7221
60.0485
58.4599
56.8838
127.377
75.3755
61.9344
57.1364
55.3939
55.0072
55.359
56.2375
57.5005
59.0853
60.9653
63.1289
65.5705
68.2846
71.2665
74.5111
78.0174
81.7874
85.8284
90.1504
94.7666
99.6893
104.931
110.5
116.405
122.649
129.238
136.172
143.453
151.08
159.05
167.357
175.994
184.954
194.228
203.803
213.662
223.787
234.158
244.753
255.545
266.511
277.625
288.862
300.198
311.603
323.051
334.514
345.966
357.381
368.735
380.005
391.169
402.204
413.088
423.802
434.327
444.645
454.737
464.589
474.185
483.512
492.556
501.308
509.758
517.898
525.723
533.23
540.417
547.285
553.84
560.085
566.03
571.684
577.061
582.174
587.04
591.678
596.11
600.358
604.45
608.415
612.283
616.087
619.857
623.618
627.39
631.183
635.005
638.86
642.736
646.603
650.418
654.128
657.667
660.953
663.892
666.373
668.23
669.255
669.486
668.734
666.848
663.707
659.214
653.296
645.909
637.056
626.773
615.132
602.235
588.211
573.208
557.387
540.913
523.949
506.654
489.179
471.666
454.24
437.021
420.102
403.558
387.451
371.83
356.732
342.182
328.196
314.782
301.937
289.657
277.927
266.735
256.065
245.9
236.223
227.015
218.258
209.932
202.016
194.491
187.336
180.532
174.061
167.906
162.048
156.472
151.162
146.103
141.281
136.681
132.292
128.099
124.093
120.261
116.594
113.081
109.713
106.48
103.369
100.359
97.4504
94.6416
91.93
89.3111
86.7801
84.3314
81.9599
79.6601
77.4268
75.2554
73.1417
71.0826
69.0758
67.1207
65.2189
63.3736
61.5901
59.8818
58.1563
132.173
78.4108
64.376
59.3697
57.5765
57.2031
57.5968
58.5141
59.798
61.3775
63.2238
65.3278
67.6899
70.3134
73.2027
76.3618
79.7954
83.5082
87.5066
91.7968
96.3867
101.283
106.495
112.027
117.888
124.081
130.611
137.484
144.706
152.284
160.222
168.498
177.114
186.072
195.369
204.997
214.944
225.195
235.733
246.537
257.585
268.849
280.3
291.934
303.724
315.638
327.646
339.718
351.825
363.94
376.038
388.094
400.082
411.976
423.752
435.386
446.854
458.134
469.207
480.05
490.646
500.977
511.024
520.774
530.211
539.324
548.103
556.539
564.627
572.364
579.75
586.786
593.477
599.83
605.853
611.559
616.959
622.071
626.91
631.498
635.858
640.018
644.006
647.855
651.596
655.256
658.855
662.404
665.914
669.39
672.825
676.196
679.465
682.586
685.501
688.136
690.408
692.215
693.384
693.814
693.422
692.068
689.6
685.897
680.874
674.45
666.565
657.228
646.478
634.394
621.075
606.654
591.275
575.097
558.28
540.986
523.366
505.572
487.736
469.984
452.451
435.22
418.36
401.93
385.979
370.542
355.644
341.305
327.532
314.328
301.688
289.599
278.048
267.02
256.498
246.467
236.909
227.806
219.139
210.889
203.035
195.559
188.441
181.663
175.209
169.061
163.203
157.62
152.296
147.217
142.37
137.742
133.319
129.091
125.045
121.172
117.461
113.902
110.486
107.198
104.019
100.95
97.9875
95.1292
92.37
89.7045
87.1271
84.6319
82.2132
79.8654
77.5832
75.3624
73.1992
71.0909
69.036
67.035
65.0889
63.2002
61.3783
59.5232
134.174
79.675
65.3055
60.1789
58.3769
58.0488
58.5267
59.5363
60.9076
62.5552
64.458
66.6055
68.9961
71.6338
74.5248
77.6751
81.0923
84.7821
88.7501
93.0008
97.54
102.373
107.506
112.947
118.704
124.787
131.185
137.913
144.987
152.42
160.229
168.38
176.885
185.75
194.972
204.549
214.472
224.732
235.315
246.204
257.38
268.821
280.503
292.437
304.583
316.909
329.386
341.983
354.666
367.399
380.174
392.964
405.734
418.456
431.101
443.644
456.056
468.313
480.389
492.261
503.904
515.295
526.414
537.239
547.752
557.934
567.771
577.249
586.358
595.089
603.436
611.398
618.975
626.168
632.983
639.425
645.505
651.233
656.62
661.682
666.438
670.908
675.118
679.099
682.879
686.485
689.935
693.236
696.396
699.421
702.304
705.026
707.553
709.843
711.848
713.503
714.736
715.443
715.524
714.881
713.41
711.008
707.517
702.829
696.84
689.475
680.731
670.652
659.281
646.686
632.964
618.232
602.627
586.294
569.379
552.031
534.387
516.581
498.76
481.008
463.452
446.189
429.288
412.803
396.778
381.248
366.238
351.764
337.841
324.475
311.66
299.384
287.634
276.395
265.653
255.392
245.598
236.255
227.344
218.847
210.745
203.02
195.654
188.629
181.929
175.539
169.442
163.625
158.073
152.771
147.705
142.864
138.235
133.806
129.566
125.504
121.611
117.874
114.285
110.829
107.492
104.274
101.171
98.179
95.2921
92.5045
89.8102
87.2028
84.6761
82.2241
79.8412
77.5225
75.2639
73.0622
70.9151
68.8219
66.782
64.7957
62.8686
60.9014
133.686
79.3913
64.9665
59.8134
58.0316
57.7589
58.3271
59.4423
60.9309
62.7066
64.7467
67.0233
69.5287
72.2611
75.2213
78.4071
81.8416
85.5307
89.4779
93.6869
98.1626
102.914
107.932
113.232
118.832
124.752
130.973
137.518
144.398
151.623
159.196
167.121
175.413
184.081
193.128
202.554
212.358
222.534
233.072
243.962
255.187
266.727
278.557
290.665
303.032
315.634
328.445
341.436
354.577
367.84
381.224
394.68
408.171
421.655
435.119
448.533
461.86
475.073
488.145
501.046
513.75
526.229
538.456
550.404
562.05
573.37
584.342
594.949
605.172
614.998
624.417
633.42
642.001
650.159
657.893
665.205
672.097
678.574
684.641
690.306
695.579
700.475
705.011
709.213
713.107
716.714
720.044
723.103
725.886
728.397
730.628
732.557
734.151
735.369
736.173
736.5
736.293
735.488
733.999
731.77
728.672
724.482
719.195
712.826
705.343
696.75
687.102
676.29
664.334
651.29
637.25
622.316
606.614
590.271
573.423
556.2
538.729
521.125
503.53
485.996
468.759
451.831
435.251
419.062
403.304
388.007
373.191
358.883
345.058
331.759
318.984
306.723
294.961
283.686
272.884
262.541
252.649
243.193
234.156
225.521
217.27
209.387
201.854
194.657
187.781
181.212
174.935
168.937
163.203
157.722
152.478
147.461
142.659
138.059
133.652
129.427
125.372
121.479
117.734
114.127
110.652
107.305
104.08
100.972
97.9747
95.0817
92.2863
89.5817
86.9614
84.4188
81.948
79.5436
77.201
74.9164
72.6871
70.5111
68.3866
66.3123
64.2904
62.2275
131.425
77.979
63.6382
58.5003
56.7593
56.5639
57.2526
58.5132
60.1661
62.1127
64.3034
66.721
69.3562
72.2048
75.2649
78.5329
82.0302
85.7498
89.6941
93.867
98.2753
102.934
107.829
112.98
118.396
124.08
130.052
136.332
142.934
149.874
157.164
164.82
172.852
181.267
190.074
199.276
208.878
218.877
229.27
240.05
251.208
262.731
274.607
286.821
299.352
312.179
325.277
338.62
352.175
365.9
379.776
393.777
407.876
422.04
436.265
450.493
464.671
478.788
492.815
506.718
520.465
534.024
547.362
560.449
573.253
585.746
597.899
609.688
621.09
632.084
642.652
652.782
662.461
671.681
680.437
688.723
696.536
703.873
710.731
717.107
723.001
728.419
733.368
737.866
741.932
745.579
748.809
751.614
753.983
755.906
757.372
758.351
758.808
758.692
757.992
756.62
754.544
751.74
748.139
743.432
737.812
731.389
724.273
716.257
707.304
697.442
686.521
674.643
661.858
648.227
633.823
618.734
603.058
586.9
570.365
553.558
536.581
519.527
502.502
485.531
468.817
452.389
436.294
420.57
405.254
390.37
375.935
361.978
348.491
335.528
323.059
311.061
299.521
288.428
277.767
267.515
257.682
248.258
239.229
230.58
222.295
214.36
206.758
199.478
192.508
185.835
179.448
173.333
167.478
161.871
156.499
151.351
146.418
141.686
137.147
132.789
128.603
124.577
120.704
116.978
113.393
109.942
106.62
103.419
100.333
97.3552
94.4781
91.6949
88.9983
86.3816
83.8383
81.3626
78.9496
76.5951
74.2954
72.0481
69.8501
67.699
65.5945
63.4519
126.918
75.2265
61.3035
56.3125
54.6581
54.552
55.3547
56.7502
58.5624
60.6965
63.0952
65.7219
68.558
71.5916
74.8155
78.2226
81.8132
85.5906
89.5578
93.7174
98.0727
102.624
107.387
112.377
117.612
123.103
128.866
134.916
141.271
147.949
154.969
162.346
170.097
178.234
186.769
195.711
205.068
214.844
225.039
235.653
246.679
258.11
269.938
282.151
294.732
307.662
320.92
334.482
348.323
362.415
376.733
391.252
405.934
420.736
435.617
450.552
465.498
480.446
495.357
510.198
524.933
539.528
553.944
568.144
582.091
595.751
609.089
622.074
634.675
646.866
658.622
669.922
680.748
691.086
700.923
710.247
719.049
727.313
735.029
742.181
748.758
754.751
760.157
764.983
769.236
772.916
776.012
778.504
780.366
781.573
782.116
781.938
781.023
779.269
776.669
773.204
768.774
763.142
756.437
749.238
741.267
732.557
722.897
712.44
701.246
689.361
676.805
663.63
649.881
635.613
620.877
605.737
590.256
574.504
558.549
542.462
526.31
510.161
494.084
478.138
462.395
446.908
431.718
416.86
402.362
388.247
374.527
361.223
348.304
335.843
323.822
312.228
301.049
290.276
279.898
269.897
260.301
251.082
242.223
233.709
225.528
217.667
210.114
202.851
195.879
189.19
182.772
176.615
170.706
165.036
159.594
154.37
149.355
144.536
139.907
135.454
131.171
127.053
123.094
119.287
115.626
112.103
108.712
105.446
102.297
99.2586
96.3226
93.482
90.7292
88.0571
85.459
82.9286
80.4608
78.0507
75.6945
73.3888
71.1299
68.9148
66.741
64.5346
120.921
71.6137
58.3263
53.5754
52.0471
52.0548
52.9895
54.5329
56.5163
58.8413
61.4475
64.2948
67.3556
70.6106
74.0493
77.6692
81.4479
85.3782
89.4602
93.696
98.0909
102.652
107.391
112.323
117.463
122.829
128.44
134.314
140.473
146.938
153.728
160.865
168.368
176.253
184.538
193.234
202.353
211.906
221.899
232.333
243.203
254.498
266.237
278.406
290.988
303.967
317.324
331.039
345.094
359.476
374.13
389.035
404.164
419.484
434.957
450.549
466.206
481.894
497.594
513.285
528.934
544.498
559.931
575.192
590.237
605.027
619.521
633.68
647.466
660.847
673.788
686.262
698.243
709.71
720.641
731.018
740.821
750.027
758.608
766.539
773.79
780.338
786.165
791.264
795.624
799.226
802.045
804.046
805.186
805.411
804.812
803.165
800.422
796.58
791.518
785.05
777.372
768.938
759.646
749.192
737.811
725.634
712.761
699.328
685.46
671.261
656.813
642.178
627.404
612.524
597.567
582.552
567.503
552.44
537.386
522.365
507.404
492.534
477.788
463.201
448.809
434.645
420.736
407.106
393.778
380.768
368.09
355.755
343.766
332.136
320.868
309.956
299.395
289.178
279.296
269.725
260.497
251.598
243.017
234.744
226.771
219.087
211.68
204.536
197.67
191.067
184.713
178.599
172.717
167.06
161.614
156.376
151.338
146.483
141.812
137.316
132.991
128.831
124.832
120.987
117.288
113.729
110.303
107.002
103.818
100.745
97.7755
94.9007
92.1133
89.4061
86.7719
84.2046
81.6984
79.2484
76.8501
74.4999
72.1935
69.9278
67.6985
65.444
114.172
67.6039
55.1242
50.7166
49.3846
49.5695
50.6844
52.4306
54.6461
57.2332
60.1316
63.3052
66.7037
70.2957
74.0581
77.9648
81.9929
86.1521
90.4439
94.8696
99.4337
104.143
109.007
114.04
119.258
124.677
130.318
136.199
142.345
148.775
155.514
162.583
170.003
177.796
185.98
194.571
203.583
213.03
222.92
233.26
244.051
255.29
266.981
279.116
291.689
304.688
318.097
331.899
346.074
360.596
375.44
390.583
405.997
421.652
437.513
453.547
469.723
486.013
502.374
518.765
535.15
551.5
567.764
583.899
599.857
615.593
631.062
646.219
661.023
675.428
689.398
702.891
715.879
728.327
740.211
751.501
762.166
772.17
781.472
790.028
797.792
804.722
810.784
815.953
820.189
823.452
825.697
826.876
826.952
826.005
823.731
820.094
815.005
808.24
799.961
790.535
779.913
767.828
754.511
740.082
724.742
708.718
692.236
675.521
658.775
642.164
625.81
609.786
594.131
578.848
563.925
549.332
535.037
521.002
507.198
493.596
480.18
466.937
453.868
440.975
428.267
415.752
403.443
391.352
379.495
367.881
356.522
345.427
334.6
324.048
313.773
303.775
294.052
284.601
275.417
266.495
257.84
249.45
241.322
233.452
225.834
218.462
211.328
204.419
197.751
191.315
185.102
179.106
173.323
167.747
162.362
157.171
152.17
147.35
142.707
138.233
133.93
129.789
125.805
121.971
118.282
114.73
111.308
108.01
104.826
101.751
98.7756
95.8937
93.0971
90.3783
87.7302
85.1464
82.6211
80.1492
77.7259
75.3473
73.0091
70.7085
68.4393
66.1536
107.708
63.8059
52.1996
48.2268
47.1945
47.6658
49.081
51.1658
53.7598
56.7549
60.0785
63.6627
67.4594
71.46
75.6462
80.002
84.5095
89.148
93.9086
98.7864
103.782
108.898
114.143
119.528
125.066
130.776
136.676
142.788
149.134
155.737
162.622
169.814
177.336
185.212
193.462
202.107
211.162
220.642
230.557
240.914
251.721
262.98
274.687
286.84
299.429
312.446
325.877
339.71
353.927
368.512
383.446
398.706
414.269
430.106
446.188
462.486
478.965
495.596
512.34
529.161
546.016
562.854
579.638
596.326
612.87
629.228
645.346
661.18
676.678
691.795
706.478
720.685
734.372
747.505
760.042
771.95
783.184
793.693
803.42
812.301
820.274
827.276
833.259
838.167
841.933
844.489
845.769
845.77
844.6
841.849
837.437
831.149
823.047
813.411
802.195
789.146
774.459
758.236
740.675
722.018
702.562
682.639
662.586
642.716
623.304
604.559
586.621
569.561
553.386
538.061
523.517
509.669
496.423