/*--------------------------------*- C++ -*----------------------------------*\
  =========                 |
  \\      /  F ield         | OpenFOAM: The Open Source CFD Toolbox
   \\    /   O peration     | Website:  https://openfoam.org
    \\  /    A nd           | Version:  8
     \\/     M anipulation  |
\*---------------------------------------------------------------------------*/
FoamFile
{
    version     2.0;
    format      ascii;
    class       volScalarField;
    location    "75";
    object      k;
}
// * * * * * * * * * * * * * * * * * * * * * * * * * * * * * * * * * * * * * //

dimensions      [0 2 -2 0 0 0 0];

internalField   nonuniform List<scalar> 
12225
(
0.362811
0.344027
0.327717
0.309856
0.29537
0.283548
0.275484
0.270382
0.270458
0.27207
0.276374
0.281147
0.290584
0.296635
0.308219
0.314203
0.328007
0.330177
0.440271
0.468755
0.461621
0.448447
0.450454
0.458504
0.474763
0.499227
0.525085
0.553451
0.58227
0.608494
0.636679
0.657597
0.684922
0.698613
0.729747
0.733726
0.390404
0.417857
0.420236
0.416834
0.411639
0.407846
0.408072
0.410151
0.414769
0.421683
0.431289
0.440314
0.452352
0.462386
0.475045
0.486083
0.497705
0.512381
0.377042
0.387167
0.391463
0.391342
0.390261
0.387888
0.38568
0.384095
0.382938
0.382966
0.38348
0.384518
0.386626
0.388804
0.391561
0.395126
0.397944
0.403327
0.374434
0.376094
0.378425
0.378663
0.378272
0.377193
0.375491
0.373726
0.37202
0.370452
0.369288
0.36812
0.367462
0.3669
0.366609
0.366605
0.36689
0.367443
0.37378
0.372704
0.372658
0.372362
0.371769
0.370805
0.369548
0.368063
0.366561
0.364951
0.363516
0.362038
0.360742
0.359527
0.358403
0.35748
0.356532
0.355991
0.373775
0.371739
0.370388
0.369279
0.368231
0.367101
0.365904
0.364566
0.363218
0.361777
0.36039
0.358983
0.357631
0.356336
0.355067
0.353924
0.352756
0.3518
0.373819
0.371559
0.369634
0.367972
0.366496
0.365096
0.363762
0.362408
0.361083
0.359733
0.35841
0.357095
0.355804
0.354556
0.353324
0.352168
0.351012
0.349971
0.373832
0.371553
0.369449
0.367522
0.365772
0.364144
0.362631
0.361179
0.359792
0.35844
0.357128
0.355851
0.354605
0.353403
0.352224
0.351102
0.349995
0.348965
0.373832
0.37156
0.369418
0.367402
0.365524
0.363764
0.36212
0.360567
0.359097
0.357696
0.356354
0.355068
0.353828
0.352639
0.351487
0.350389
0.349318
0.34831
0.373829
0.371561
0.369413
0.367377
0.365455
0.363638
0.361926
0.360308
0.358776
0.357324
0.355942
0.354627
0.35337
0.352171
0.35102
0.349924
0.348866
0.347867
0.373828
0.371559
0.369409
0.367369
0.365436
0.363603
0.361866
0.36022
0.358658
0.357176
0.355768
0.354428
0.353152
0.351938
0.350777
0.349673
0.348614
0.347611
0.373827
0.371557
0.369405
0.367364
0.365428
0.363589
0.361844
0.360186
0.35861
0.357113
0.355689
0.354335
0.353044
0.351817
0.350646
0.349533
0.348467
0.347457
0.373827
0.371555
0.369402
0.36736
0.365421
0.363581
0.361832
0.36017
0.358589
0.357085
0.355654
0.354292
0.352994
0.351758
0.35058
0.349459
0.348388
0.347369
0.373826
0.371554
0.369399
0.367355
0.365416
0.363573
0.361823
0.360159
0.358577
0.357071
0.355638
0.354272
0.352972
0.351733
0.350553
0.349427
0.348354
0.347331
0.373826
0.371553
0.369396
0.367352
0.36541
0.363567
0.361816
0.360152
0.358568
0.357062
0.355627
0.354262
0.352961
0.351722
0.35054
0.349414
0.34834
0.347316
0.373826
0.371551
0.369395
0.367348
0.365406
0.363562
0.36181
0.360145
0.358561
0.357054
0.35562
0.354254
0.352954
0.351714
0.350534
0.349408
0.348335
0.347311
0.373825
0.371551
0.369393
0.367346
0.365404
0.363559
0.361807
0.360141
0.358557
0.35705
0.355616
0.35425
0.352951
0.351711
0.350532
0.349406
0.348335
0.347311
0.373825
0.37155
0.369393
0.367345
0.365403
0.363558
0.361806
0.36014
0.358557
0.35705
0.355617
0.354252
0.352953
0.351715
0.350536
0.349412
0.348341
0.34732
0.373825
0.37155
0.369393
0.367346
0.365405
0.363559
0.361809
0.360143
0.358562
0.357055
0.355624
0.354259
0.352963
0.351725
0.350549
0.349426
0.348358
0.347337
0.373825
0.371551
0.369394
0.367349
0.365407
0.363565
0.361814
0.360151
0.358569
0.357067
0.355636
0.354276
0.352979
0.351747
0.350571
0.349453
0.348385
0.34737
0.373826
0.371552
0.369396
0.367352
0.365413
0.363573
0.361826
0.360168
0.358593
0.357096
0.355674
0.354321
0.353035
0.35181
0.350644
0.349533
0.348476
0.347466
0.373826
0.371553
0.369399
0.36736
0.36543
0.363605
0.36188
0.360248
0.358702
0.357235
0.355843
0.354518
0.353258
0.352055
0.350911
0.349815
0.348772
0.347771
0.373828
0.37155
0.369412
0.367418
0.365558
0.363823
0.362195
0.36066
0.359201
0.35781
0.356477
0.355197
0.353967
0.352783
0.351645
0.350548
0.349496
0.348479
0.373822
0.371554
0.369604
0.367894
0.366341
0.364896
0.363501
0.362131
0.360773
0.35943
0.358101
0.356794
0.355517
0.354272
0.353068
0.351902
0.350785
0.349704
0.37378
0.371989
0.371112
0.370266
0.369361
0.368316
0.367053
0.365639
0.364131
0.362588
0.361045
0.359539
0.358092
0.356703
0.355403
0.354164
0.353031
0.351945
0.374298
0.375565
0.37778
0.377858
0.377291
0.375888
0.373833
0.371644
0.369501
0.36748
0.365655
0.364068
0.362688
0.361502
0.360564
0.359756
0.359209
0.358698
0.378733
0.394398
0.398302
0.396574
0.392568
0.387616
0.383631
0.380446
0.378224
0.376803
0.376393
0.376626
0.377233
0.378465
0.380144
0.382046
0.384363
0.386579
0.408342
0.427527
0.42241
0.41102
0.402202
0.397836
0.398441
0.400947
0.405711
0.412657
0.420471
0.429141
0.437968
0.447116
0.456013
0.465006
0.473512
0.482082
0.366033
0.353411
0.341985
0.33021
0.318975
0.308387
0.299391
0.291671
0.28537
0.280298
0.276607
0.27377
0.272158
0.270982
0.270918
0.271166
0.27174
0.272854
0.0317486
0.0658543
0.0898897
0.109671
0.125291
0.135907
0.137921
0.144397
0.144588
0.140092
0.136718
0.135143
0.131489
0.143454
0.151032
0.162873
0.143912
0.129975
0.12617
0.1315
0.140401
0.152517
0.161958
0.173107
0.186774
0.203281
0.222943
0.245654
0.271242
0.299239
0.329405
0.360908
0.39308
0.425388
0.457505
0.48919
0.520222
0.55055
0.580018
0.608697
0.636473
0.663486
0.689646
0.715135
0.739871
0.764062
0.787614
0.810758
0.833384
0.855739
0.877689
0.89949
0.92099
0.942446
0.963697
0.984994
1.00615
1.02742
1.04861
1.06998
1.09128
1.11281
1.13429
1.156
1.17766
1.19954
1.22133
1.24331
1.26514
1.2871
1.30885
1.33063
1.35212
1.37351
1.39449
1.41523
1.43543
1.45524
1.47439
1.49302
1.51085
1.52809
1.5445
1.56035
1.5755
1.59016
1.60358
1.61613
1.62743
1.63766
1.64668
1.65418
1.66009
1.66422
1.66581
1.66969
1.6678
1.66528
1.66042
1.65354
1.64442
1.63292
1.61925
1.60335
1.58524
1.56491
1.54237
1.51772
1.49132
1.46343
1.43408
1.40342
1.37165
1.33894
1.30554
1.27161
1.23732
1.20173
1.1655
1.12957
1.094
1.05898
1.02464
0.991134
0.958684
0.9274
0.898197
0.874989
0.854694
0.8353
0.816518
0.798345
0.780821
0.763881
0.747576
0.731857
0.716773
0.702226
0.688375
0.674908
0.661594
0.64874
0.636426
0.624666
0.613479
0.602831
0.592702
0.583014
0.573691
0.56473
0.556134
0.547897
0.540005
0.532452
0.525213
0.51825
0.51155
0.505096
0.498883
0.492903
0.487144
0.481591
0.476235
0.471072
0.466091
0.461279
0.45663
0.452128
0.447759
0.4435
0.439351
0.435223
0.43122
0.426978
0.423115
0.41807
0.414445
0.406862
0.403567
0.381498
0.0598932
0.108398
0.146653
0.17294
0.191968
0.206676
0.220329
0.23164
0.240957
0.248393
0.254597
0.260185
0.265969
0.273838
0.282702
0.292074
0.305787
0.321992
0.343765
0.37078
0.400555
0.429598
0.458604
0.488887
0.520858
0.554839
0.591243
0.630242
0.671817
0.715702
0.761621
0.809224
0.857984
0.907153
0.956454
1.00562
1.05444
1.10272
1.15029
1.19704
1.24285
1.28766
1.33142
1.37413
1.41577
1.45639
1.496
1.53467
1.57244
1.6094
1.6456
1.68113
1.71604
1.75045
1.78439
1.81797
1.85123
1.88427
1.91712
1.94989
1.98259
2.01533
2.04812
2.08107
2.11417
2.14752
2.18109
2.21496
2.2491
2.28359
2.31838
2.35351
2.38893
2.42467
2.46063
2.49682
2.53315
2.5696
2.60605
2.64246
2.67865
2.71453
2.74986
2.7845
2.8182
2.85105
2.88329
2.91478
2.94533
2.97491
3.00321
3.02998
3.05489
3.0777
3.09805
3.11587
3.13014
3.13959
3.14891
3.15245
3.15387
3.14939
3.1405
3.127
3.10881
3.08585
3.05804
3.02522
2.98731
2.94523
2.89933
2.84992
2.79738
2.74215
2.68465
2.62531
2.56454
2.50277
2.44031
2.37762
2.31499
2.25276
2.19126
2.13074
2.07143
2.01373
1.95784
1.90386
1.85153
1.80077
1.75162
1.70413
1.65836
1.61435
1.5721
1.53156
1.49272
1.45551
1.41988
1.38518
1.35173
1.31967
1.28901
1.25975
1.23185
1.20524
1.17985
1.1555
1.13205
1.10952
1.0879
1.06715
1.04724
1.02814
1.00978
0.992061
0.974963
0.958458
0.942526
0.927142
0.912263
0.897857
0.883905
0.870392
0.857292
0.844574
0.832217
0.820196
0.808477
0.797028
0.785821
0.774795
0.763936
0.753077
0.74245
0.73118
0.72108
0.707632
0.698453
0.668001
0.114015
0.173339
0.216169
0.245949
0.268467
0.286717
0.302551
0.316579
0.329399
0.341788
0.354536
0.36854
0.384724
0.403935
0.42658
0.452941
0.48386
0.518433
0.555884
0.594728
0.633445
0.672224
0.711964
0.753083
0.795861
0.840594
0.887631
0.93723
0.989481
1.04425
1.10127
1.16013
1.22033
1.28145
1.3431
1.40491
1.46658
1.52781
1.58838
1.6481
1.7068
1.7644
1.82081
1.87599
1.92992
1.98263
2.03411
2.08442
2.13358
2.18166
2.22871
2.27477
2.31991
2.3642
2.40767
2.4504
2.49243
2.53382
2.57461
2.61486
2.6546
2.6939
2.73279
2.77132
2.80953
2.84747
2.88516
2.92267
2.96
2.99721
3.03433
3.07138
3.10839
3.14539
3.1824
3.21944
3.25653
3.29369
3.33095
3.36832
3.40579
3.44337
3.48101
3.51866
3.55618
3.59348
3.63048
3.66698
3.70284
3.73786
3.7718
3.80429
3.83497
3.86348
3.8894
3.91235
3.93186
3.94642
3.95831
3.96327
3.96573
3.96164
3.95167
3.93569
3.91358
3.88528
3.85082
3.8103
3.76391
3.7121
3.6553
3.59399
3.52864
3.45981
3.38802
3.31385
3.23782
3.1605
3.08237
3.00391
2.92552
2.8476
2.77048
2.69448
2.6199
2.54718
2.47669
2.40852
2.34249
2.27852
2.2166
2.15677
2.09908
2.04355
1.99016
1.93891
1.88974
1.84259
1.79738
1.7539
1.71212
1.67205
1.63364
1.59685
1.56165
1.52794
1.49567
1.46461
1.43458
1.4057
1.37794
1.35126
1.32562
1.30097
1.27721
1.25424
1.23204
1.2106
1.18988
1.16985
1.15045
1.13164
1.11342
1.09575
1.0786
1.06193
1.04572
1.02994
1.01455
0.999508
0.984783
0.970321
0.956093
0.941981
0.928084
0.913956
0.900501
0.885533
0.874795
0.848571
0.169972
0.239522
0.287249
0.321029
0.347048
0.368392
0.38692
0.403876
0.420285
0.437124
0.455337
0.475851
0.499518
0.527001
0.558639
0.594407
0.633845
0.675994
0.719701
0.763938
0.808252
0.852977
0.898738
0.946202
0.995964
1.04848
1.10407
1.16283
1.22467
1.28931
1.35632
1.42522
1.49555
1.56685
1.63872
1.71076
1.78264
1.85409
1.92485
1.99473
2.06357
2.13124
2.19766
2.26277
2.32652
2.3889
2.44989
2.50952
2.5678
2.62476
2.68042
2.73482
2.78799
2.83998
2.89083
2.94057
2.98924
3.03688
3.08353
3.12923
3.17402
3.21793
3.26101
3.30331
3.34485
3.3857
3.4259
3.46549
3.50454
3.5431
3.58123
3.61899
3.65644
3.69365
3.73068
3.7676
3.80447
3.84135
3.87833
3.91544
3.95274
3.99025
4.02797
4.06585
4.10385
4.14186
4.17979
4.21747
4.25472
4.29137
4.32713
4.36163
4.39449
4.42528
4.45354
4.47877
4.50051
4.51783
4.53097
4.53714
4.54013
4.53636
4.52598
4.50881
4.48468
4.45352
4.41534
4.37026
4.31853
4.26053
4.19672
4.12761
4.05377
3.97581
3.89437
3.81008
3.72357
3.63547
3.54636
3.45677
3.36717
3.27799
3.18968
3.10268
3.0174
2.93421
2.85339
2.77506
2.69917
2.62569
2.5546
2.48594
2.41973
2.35597
2.29466
2.23576
2.17922
2.12499
2.07296
2.02301
1.97507
1.92908
1.88497
1.84267
1.80212
1.76322
1.72593
1.69008
1.65557
1.62235
1.59038
1.5596
1.52996
1.50141
1.47381
1.44706
1.42119
1.39617
1.37198
1.34858
1.32587
1.30384
1.28248
1.26176
1.24163
1.22206
1.20301
1.18445
1.16635
1.14865
1.13134
1.11435
1.09765
1.08116
1.06492
1.04871
1.03301
1.01674
1.00393
0.981539
0.225137
0.305988
0.35967
0.398414
0.428605
0.453539
0.47528
0.495356
0.515055
0.53553
0.557825
0.582859
0.611351
0.643717
0.679988
0.719793
0.762443
0.807102
0.853026
0.899789
0.94744
0.996444
1.04746
1.10114
1.15797
1.21824
1.28202
1.34919
1.41947
1.49248
1.56778
1.6449
1.7234
1.80286
1.88291
1.96319
2.0434
2.12326
2.20254
2.28103
2.35855
2.43496
2.51014
2.58401
2.65648
2.7275
2.79704
2.86507
2.93158
2.99657
3.06004
3.122
3.18247
3.24145
3.29898
3.35507
3.40975
3.46305
3.51498
3.56558
3.61489
3.66292
3.70973
3.75535
3.79982
3.84319
3.88552
3.92687
3.96729
4.00687
4.04568
4.08379
4.1213
4.1583
4.19486
4.2311
4.26709
4.30293
4.33873
4.37456
4.41051
4.44663
4.48297
4.51955
4.55634
4.59331
4.63038
4.66741
4.70427
4.74075
4.77661
4.81148
4.84495
4.8766
4.90593
4.9324
4.95544
4.97444
4.98883
4.99621
4.99998
4.99693
4.98688
4.96955
4.9447
4.91219
4.872
4.82423
4.76912
4.707
4.63837
4.56375
4.48377
4.39909
4.31041
4.21842
4.12384
4.02734
3.92955
3.83107
3.73247
3.63429
3.53711
3.44136
3.34749
3.25584
3.16668
3.08014
2.99625
2.91501
2.83643
2.76053
2.68732
2.61681
2.54898
2.48378
2.42116
2.36106
2.30339
2.24804
2.19492
2.14394
2.09503
2.0481
2.00305
1.95982
1.9183
1.8784
1.84
1.80302
1.76741
1.73308
1.7
1.66808
1.63726
1.60743
1.57858
1.55066
1.52364
1.49747
1.47201
1.4473
1.42333
1.40007
1.37744
1.35543
1.33399
1.3131
1.29271
1.27278
1.25328
1.23416
1.21539
1.1969
1.17871
1.16073
1.14321
1.1257
1.11074
1.09036
0.278191
0.369544
0.431115
0.47597
0.511042
0.539996
0.565136
0.588195
0.610631
0.633707
0.658514
0.685931
0.716569
0.750712
0.788305
0.828998
0.87229
0.917689
0.964888
1.01386
1.06485
1.11832
1.17475
1.23456
1.29799
1.36508
1.43573
1.5097
1.58665
1.66619
1.74792
1.83145
1.91638
2.00236
2.08905
2.17613
2.26333
2.35036
2.43699
2.52301
2.60822
2.69245
2.77555
2.8574
2.93788
3.01692
3.09443
3.17036
3.24466
3.3173
3.38825
3.45749
3.52501
3.59081
3.65488
3.71722
3.77785
3.83677
3.89399
3.94953
4.00341
4.05565
4.10628
4.15534
4.20286
4.24888
4.29346
4.33667
4.37856
4.41922
4.45873
4.49717
4.53466
4.57128
4.60714
4.64236
4.67704
4.71132
4.7453
4.7791
4.81285
4.84664
4.88057
4.91471
4.94909
4.98373
5.0186
5.05361
5.08866
5.1236
5.15818
5.19209
5.22493
5.25628
5.28563
5.31243
5.33608
5.35596
5.37139
5.37991
5.3845
5.38244
5.3732
5.35639
5.33169
5.29889
5.25789
5.20875
5.15166
5.08695
5.01508
4.9366
4.85217
4.76248
4.66827
4.5703
4.46932
4.36604
4.26119
4.15547
4.04955
3.94408
3.83962
3.73668
3.63569
3.53699
3.44085
3.34743
3.2568
3.16899
3.08404
3.00196
2.92278
2.84647
2.77302
2.70239
2.63452
2.56934
2.50676
2.44668
2.389
2.33363
2.28048
2.22945
2.18044
2.13336
2.08811
2.04459
2.0027
1.96236
1.92347
1.88598
1.8498
1.81486
1.78111
1.74846
1.71686
1.68627
1.65665
1.62795
1.6001
1.57308
1.54686
1.52141
1.49659
1.47243
1.44892
1.42597
1.40357
1.38167
1.36025
1.33925
1.31865
1.2984
1.2785
1.25892
1.23981
1.22102
1.20419
1.18239
0.327163
0.42887
0.498699
0.550046
0.590302
0.623454
0.652004
0.677823
0.702472
0.727286
0.753392
0.781682
0.81278
0.847019
0.884467
0.924991
0.968384
1.01447
1.0632
1.11469
1.16917
1.22694
1.28825
1.35327
1.42202
1.49442
1.57027
1.64929
1.73117
1.81557
1.90214
1.99056
2.08048
2.17162
2.26366
2.35632
2.44933
2.54243
2.63538
2.72795
2.81993
2.91113
3.00137
3.0905
3.17837
3.26486
3.34985
3.43327
3.51503
3.59505
3.67328
3.74967
3.82418
3.89679
3.96745
4.03615
4.10288
4.16762
4.23036
4.29111
4.34986
4.40663
4.46143
4.51427
4.56519
4.61422
4.66141
4.70681
4.75048
4.7925
4.83295
4.87192
4.90951
4.94582
4.98098
5.01511
5.04833
5.08077
5.11259
5.14393
5.17493
5.20575
5.23653
5.26739
5.29843
5.32972
5.36127
5.39307
5.42507
5.45717
5.48918
5.52083
5.55176
5.58156
5.60977
5.63583
5.65914
5.67904
5.69486
5.70445
5.70928
5.70821
5.69991
5.68395
5.65992
5.6275
5.58652
5.53698
5.47899
5.41287
5.33903
5.25803
5.17052
5.07724
4.97894
4.87642
4.77047
4.66191
4.55154
4.44016
4.32848
4.21719
4.10688
3.99809
3.89126
3.78676
3.68483
3.58568
3.48939
3.39605
3.3057
3.21836
3.13405
3.05277
2.97447
2.89914
2.82669
2.75707
2.69019
2.62594
2.56423
2.50496
2.44803
2.39333
2.34076
2.29022
2.24161
2.19483
2.14979
2.10637
2.06451
2.02411
1.98511
1.94742
1.91099
1.87574
1.84161
1.80855
1.77652
1.74548
1.71538
1.68618
1.65784
1.63032
1.60355
1.57751
1.55215
1.52737
1.50318
1.47953
1.45639
1.43371
1.41147
1.38964
1.3682
1.34716
1.3266
1.30651
1.28792
1.26509
0.370274
0.481157
0.558692
0.616312
0.661695
0.699053
0.731012
0.759521
0.786205
0.81245
0.839438
0.868129
0.899249
0.933277
0.970485
1.01098
1.05478
1.10191
1.15241
1.20639
1.26397
1.32526
1.39034
1.4592
1.53175
1.60784
1.68724
1.76971
1.85497
1.94273
2.03272
2.12466
2.21828
2.3133
2.40947
2.50653
2.60422
2.70229
2.80051
2.89863
2.99645
3.09374
3.1903
3.28596
3.38054
3.47389
3.56586
3.65633
3.74518
3.8323
3.91762
4.00105
4.08251
4.16194
4.23929
4.31451
4.38756
4.45839
4.52699
4.59332
4.65736
4.7191
4.77853
4.83567
4.8905
4.94306
4.99338
5.04148
5.08744
5.13129
5.17313
5.21303
5.25108
5.28741
5.32211
5.35532
5.38717
5.41781
5.4474
5.47612
5.50413
5.53162
5.55878
5.58578
5.61278
5.63989
5.6672
5.69475
5.72254
5.75057
5.77871
5.80673
5.83435
5.86122
5.8869
5.91089
5.93259
5.95134
5.96644
5.97615
5.981
5.98027
5.9726
5.95739
5.93412
5.90238
5.86191
5.8126
5.75452
5.68791
5.61315
5.53076
5.4414
5.34579
5.24474
5.13909
5.02971
4.91746
4.80319
4.68773
4.57183
4.4562
4.34147
4.2282
4.11685
4.00778
3.90128
3.79754
3.69671
3.59887
3.50409
3.41242
3.32386
3.23841
3.15605
3.07673
3.00039
2.92697
2.85637
2.78851
2.72329
2.6606
2.60034
2.54239
2.48667
2.43305
2.38144
2.33173
2.28383
2.23764
2.19307
2.15004
2.10846
2.06827
2.02939
1.99176
1.9553
1.91998
1.88574
1.85254
1.82034
1.78911
1.75879
1.72935
1.70073
1.67289
1.64579
1.61937
1.59359
1.56838
1.54371
1.51953
1.49583
1.47257
1.44973
1.42733
1.40542
1.38404
1.3638
1.33994
0.405731
0.523886
0.607917
0.671098
0.721243
0.762674
0.798072
0.829418
0.858362
0.886318
0.914518
0.943998
0.975597
1.00994
1.04748
1.08849
1.13313
1.18151
1.23369
1.28972
1.34962
1.41338
1.48095
1.55224
1.62711
1.70538
1.78686
1.87134
1.95858
2.04836
2.14046
2.23465
2.33071
2.4284
2.5275
2.62777
2.72899
2.83092
2.93332
3.03595
3.13859
3.24102
3.34302
3.44438
3.54491
3.64444
3.74277
3.83977
3.93528
4.02916
4.12129
4.21157
4.29987
4.38612
4.47021
4.55208
4.63165
4.70885
4.78362
4.85592
4.92568
4.99288
5.05748
5.11946
5.1788
5.2355
5.28956
5.341
5.38986
5.43618
5.48001
5.52142
5.5605
5.59735
5.63208
5.6648
5.69565
5.72479
5.75239
5.77861
5.80367
5.82777
5.85113
5.87397
5.89648
5.91884
5.94119
5.96362
5.98622
6.00903
6.03202
6.05504
6.07788
6.10027
6.12184
6.14216
6.16067
6.17676
6.18971
6.19808
6.202
6.20065
6.19282
6.17779
6.15494
6.12376
6.08389
6.03513
5.97746
5.91103
5.83617
5.75336
5.66323
5.56656
5.46422
5.35703
5.24587
5.1316
5.01512
4.89723
4.77873
4.66033
4.54269
4.4264
4.31194
4.19967
4.08989
3.98282
3.87863
3.77742
3.67928
3.58427
3.4924
3.40368
3.31809
3.23557
3.15608
3.07955
3.00589
2.93503
2.86685
2.80127
2.73817
2.67745
2.61899
2.5627
2.50847
2.4562
2.40578
2.35713
2.31015
2.26476
2.22088
2.17843
2.13734
2.09755
2.05899
2.02161
1.98536
1.9502
1.9161
1.883
1.85087
1.81966
1.78932
1.75982
1.73111
1.70313
1.67586
1.64923
1.6232
1.59771
1.5727
1.54816
1.52406
1.5004
1.47723
1.45458
1.43277
1.40786
0.4323
0.555472
0.644401
0.712093
0.766396
0.811646
0.850519
0.884975
0.916645
0.946936
0.977091
1.00818
1.04111
1.0766
1.11519
1.15726
1.20304
1.25268
1.30623
1.36369
1.42503
1.49017
1.55902
1.63146
1.70733
1.78647
1.86873
1.95393
2.0419
2.13246
2.22544
2.32066
2.41795
2.51711
2.61794
2.72025
2.82382
2.92844
3.03388
3.13991
3.24631
3.35285
3.4593
3.56545
3.67108
3.77599
3.87998
3.98288
4.08449
4.18467
4.28324
4.38007
4.47502
4.56795
4.65876
4.74733
4.83355
4.91732
4.99855
5.07715
5.15305
5.22617
5.29646
5.36385
5.4283
5.48977
5.54825
5.60373
5.6562
5.7057
5.75225
5.7959
5.83672
5.87479
5.91021
5.94308
5.97354
6.00172
6.02779
6.05194
6.07436
6.09529
6.11495
6.1336
6.15148
6.16879
6.18572
6.20241
6.219
6.23561
6.25229
6.26898
6.28556
6.30185
6.31759
6.33243
6.34591
6.35748
6.36642
6.37164
6.37307
6.36965
6.36043
6.34451
6.32125
6.29005
6.25044
6.20215
6.14505
6.07923
6.00495
5.92263
5.83288
5.7365
5.6344
5.52732
5.41609
5.30157
5.18461
5.06605
4.94666
4.82718
4.70826
4.59055
4.47452
4.36054
4.24893
4.1399
4.03365
3.93031
3.82998
3.73274
3.63862
3.54762
3.45973
3.37489
3.29307
3.2142
3.13821
3.06502
2.99453
2.92665
2.86127
2.79829
2.7376
2.67909
2.62267
2.56823
2.51568
2.46492
2.41587
2.36843
2.32254
2.27812
2.23509
2.1934
2.15298
2.11377
2.07574
2.03884
2.00302
1.96826
1.9345
1.9017
1.86982
1.83881
1.80863
1.77925
1.75061
1.72267
1.69539
1.6687
1.64256
1.61689
1.59164
1.56684
1.54249
1.51861
1.49536
1.46939
0.449465
0.575387
0.667482
0.738478
0.796198
0.844903
0.887213
0.925025
0.959901
0.99319
1.02609
1.05964
1.09476
1.13217
1.17244
1.21598
1.26307
1.31385
1.36838
1.42666
1.48863
1.55421
1.6233
1.69578
1.77152
1.85041
1.9323
2.01709
2.10464
2.19483
2.28754
2.38263
2.47997
2.57941
2.68079
2.78393
2.88866
2.99478
3.10209
3.21037
3.31939
3.42895
3.5388
3.64872
3.7585
3.86791
3.97674
4.08479
4.19185
4.29773
4.40224
4.50522
4.60648
4.70587
4.80323
4.89843
4.99132
5.08177
5.16964
5.25482
5.33718
5.41663
5.49306
5.56639
5.63653
5.70342
5.76699
5.82721
5.88405
5.9375
5.98756
6.03426
6.07764
6.11775
6.15466
6.18848
6.2193
6.24726
6.2725
6.29519
6.31552
6.33373
6.35006
6.36478
6.37814
6.39038
6.40172
6.41232
6.42235
6.43199
6.44137
6.45052
6.45943
6.46801
6.47614
6.48356
6.48995
6.49491
6.49766
6.49768
6.49427
6.48653
6.47365
6.45483
6.4295
6.39702
6.35686
6.30865
6.25218
6.18746
6.11467
6.03412
5.94628
5.85196
5.75173
5.64642
5.53687
5.42389
5.30829
5.1909
5.07246
4.95368
4.83519
4.71779
4.60188
4.48783
4.37594
4.26647
4.15959
4.05548
3.95426
3.85602
3.76081
3.66863
3.57947
3.4933
3.41006
3.32972
3.25221
3.17745
3.10537
3.03587
2.96884
2.9042
2.84182
2.78162
2.7235
2.66735
2.61309
2.56064
2.50989
2.46078
2.41322
2.36714
2.32248
2.27917
2.23716
2.19639
2.15683
2.11842
2.08113
2.04491
2.00973
1.97554
1.9423
1.90998
1.87852
1.84789
1.81804
1.78894
1.76053
1.73277
1.70561
1.67894
1.65268
1.62683
1.60139
1.57638
1.55178
1.52481
0.457338
0.58395
0.677622
0.75078
0.811141
0.862788
0.908347
0.949598
0.98798
1.02473
1.06095
1.0976
1.13552
1.1754
1.21778
1.26305
1.3115
1.36327
1.41844
1.47701
1.53896
1.60422
1.6727
1.74432
1.81899
1.89665
1.9772
2.06057
2.14668
2.23546
2.32682
2.42068
2.51695
2.61551
2.71626
2.81906
2.92376
3.03018
3.13816
3.2475
3.35798
3.4694
3.58154
3.69417
3.80707
3.92001
4.03277
4.14513
4.25686
4.36775
4.47759
4.58616
4.69327
4.79874
4.90238
5.00402
5.10348
5.20059
5.29517
5.38707
5.47613
5.56221
5.64517
5.72489
5.80124
5.87411
5.94341
6.00906
6.07099
6.12916
6.18354
6.23411
6.2809
6.32391
6.36321
6.39884
6.4309
6.45948
6.48469
6.50669
6.52566
6.54179
6.55534
6.56657
6.57577
6.58319
6.58902
6.59343
6.5966
6.59874
6.60004
6.60064
6.60059
6.59992
6.59866
6.59672
6.59374
6.5892
6.58247
6.57354
6.56194
6.54704
6.52817
6.50509
6.47657
6.44186
6.40039
6.35172
6.29558
6.23188
6.16071
6.08224
5.9968
5.90574
5.80921
5.70776
5.60209
5.49293
5.38103
5.26714
5.15198
5.03621
4.92035
4.80515
4.69116
4.57879
4.46832
4.36001
4.25405
4.15064
4.04991
3.95201
3.85699
3.76483
3.67555
3.58911
3.50548
3.42461
3.34648
3.27101
3.19814
3.12776
3.0598
2.99415
2.93072
2.86941
2.81013
2.7528
2.69733
2.64363
2.59163
2.54124
2.4924
2.44504
2.39908
2.35448
2.31119
2.26916
2.22834
2.18869
2.15018
2.11275
2.07639
2.04104
2.00667
1.97323
1.9407
1.90902
1.87815
1.84806
1.81868
1.78998
1.76191
1.73437
1.7072
1.68042
1.65401
1.62795
1.60214
1.57422
0.456398
0.582211
0.676079
0.750227
0.812326
0.86647
0.91504
0.959657
1.00161
1.04191
1.08167
1.12171
1.16274
1.20535
1.25003
1.29713
1.34691
1.39952
1.45505
1.51352
1.57495
1.63929
1.70652
1.77659
1.84944
1.92506
2.00342
2.08451
2.16832
2.25483
2.34388
2.43546
2.52958
2.62617
2.72517
2.82648
2.92998
3.03554
3.14301
3.25223
3.363
3.47513
3.58843
3.70266
3.81761
3.93306
4.04877
4.16452
4.28006
4.39516
4.50959
4.62312
4.73551
4.84652
4.95601
5.06376
5.16956
5.27318
5.37442
5.47306
5.56891
5.6618
5.75155
5.83799
5.92096
6.0003
6.07587
6.14755
6.21523
6.27884
6.33828
6.39353
6.44455
6.49132
6.53386
6.5722
6.60637
6.63644
6.66249
6.68463
6.703
6.71777
6.72918
6.7375
6.74304
6.74604
6.74665
6.74498
6.74117
6.73548
6.72814
6.71932
6.70923
6.69795
6.68542
6.67117
6.65562
6.63885
6.62166
6.60304
6.58251
6.55964
6.53396
6.50436
6.4705
6.43181
6.38774
6.33782
6.28172
6.21921
6.15025
6.07483
5.99311
5.90582
5.81334
5.71619
5.61497
5.51032
5.40293
5.29345
5.18258
5.0709
4.95896
4.84803
4.73817
4.62961
4.52263
4.41746
4.31432
4.21344
4.11478
4.01865
3.92517
3.83434
3.74615
3.66061
3.57767
3.4973
3.41953
3.34428
3.27149
3.20107
3.13295
3.06703
3.00322
2.94145
2.88163
2.82369
2.76755
2.71313
2.66035
2.60915
2.55946
2.51121
2.46436
2.41884
2.37461
2.33164
2.28988
2.24929
2.20984
2.17148
2.1342
2.09794
2.06268
2.02837
1.99498
1.96247
1.93079
1.8999
1.86974
1.84027
1.81142
1.78311
1.75516
1.72758
1.70031
1.67331
1.64642
1.61767
0.449848
0.573351
0.666355
0.740715
0.803852
0.859519
0.910072
0.957116
1.0019
1.04551
1.08874
1.13219
1.17635
1.22164
1.26858
1.31746
1.36848
1.42177
1.47743
1.53553
1.59609
1.65913
1.72467
1.79275
1.86321
1.93615
2.01162
2.08969
2.17043
2.25396
2.34011
2.42886
2.52021
2.61414
2.71062
2.80959
2.91098
3.01469
3.1206
3.22859
3.3385
3.45017
3.56341
3.67802
3.79379
3.91052
4.02797
4.14592
4.26412
4.38233
4.50031
4.61782
4.73461
4.85051
4.96534
5.07877
5.19054
5.30039
5.40807
5.51333
5.6159
5.71562
5.81227
5.90563
5.99549
6.08164
6.1639
6.24209
6.31607
6.3857
6.45087
6.51148
6.56747
6.61877
6.66536
6.70721
6.74433
6.77673
6.80444
6.82751
6.84602
6.86013
6.87003
6.87601
6.87841
6.87752
6.87336
6.86579
6.855
6.84128
6.82486
6.80591
6.78425
6.76025
6.73426
6.70753
6.67966
6.65084
6.6203
6.58844
6.55522
6.52048
6.48391
6.4451
6.40364
6.35907
6.3109
6.25866
6.20193
6.14038
6.07378
6.00202
5.92514
5.84336
5.75696
5.66631
5.57186
5.47412
5.37364
5.27101
5.1668
5.06154
4.95559
4.85001
4.74513
4.64126
4.53869
4.43766
4.33835
4.24105
4.14585
4.05314
3.96281
3.87483
3.7892
3.70593
3.62498
3.54628
3.46991
3.39587
3.3241
3.25453
3.18708
3.12168
3.05825
2.99672
2.93702
2.8791
2.82289
2.76831
2.71529
2.66378
2.61372
2.56504
2.5177
2.47166
2.42689
2.38334
2.34098
2.29978
2.25971
2.22073
2.18282
2.14593
2.11004
2.07512
2.04113
2.00802
1.97576
1.94428
1.91354
1.88347
1.85402
1.82506
1.79647
1.76821
1.74022
1.71241
1.68459
1.65511
0.435418
0.556199
0.64763
0.721469
0.785053
0.842106
0.894733
0.944361
0.992003
1.03834
1.08419
1.13017
1.17678
1.22447
1.27351
1.32403
1.37616
1.43001
1.48566
1.54318
1.60263
1.66409
1.72763
1.79338
1.86134
1.93154
2.00404
2.0789
2.15616
2.23579
2.31788
2.40256
2.48989
2.57993
2.67267
2.76813
2.86625
2.96699
3.07028
3.17601
3.28406
3.39431
3.50658
3.6207
3.73649
3.85373
3.97222
4.09171
4.21198
4.33276
4.45382
4.57487
4.69563
4.81575
4.93503
5.05326
5.17017
5.28548
5.39891
5.51021
5.61914
5.72554
5.82902
5.92932
6.02615
6.11928
6.20842
6.29341
6.37404
6.45013
6.5215
6.588
6.64953
6.70597
6.75724
6.80328
6.84403
6.87944
6.90949
6.93414
6.95344
6.96743
6.97629
6.98031
6.98019
6.97609
6.96736
6.954
6.93607
6.91371
6.8872
6.85689
6.82358
6.78754
6.74915
6.7079
6.66453
6.61944
6.57284
6.52508
6.47647
6.42722
6.37741
6.32699
6.27577
6.22347
6.1697
6.11402
6.05595
5.99504
5.93089
5.86319
5.79174
5.71648
5.63744
5.55477
5.46873
5.37965
5.28794
5.19407
5.0985
5.00171
4.90416
4.80643
4.70894
4.61204
4.51604
4.42116
4.32762
4.23565
4.14521
4.05681
3.97044
3.88613
3.8039
3.72374
3.64565
3.56958
3.49578
3.4241
3.35444
3.28674
3.22094
3.15697
3.09477
3.03424
2.97539
2.91816
2.86252
2.80838
2.7557
2.70442
2.6545
2.60588
2.55852
2.51241
2.4675
2.42377
2.3812
2.33975
2.2994
2.26013
2.2219
2.18469
2.14847
2.11322
2.07889
2.04544
2.01282
1.98099
1.94988
1.91941
1.88951
1.86007
1.831
1.80223
1.77365
1.74518
1.71658
1.68651
0.415848
0.533384
0.622618
0.695264
0.758493
0.815916
0.869589
0.920855
0.970663
1.01974
1.06852
1.11741
1.16666
1.21645
1.26711
1.31883
1.37173
1.42589
1.48139
1.53828
1.59663
1.6565
1.71796
1.78102
1.84569
1.91219
1.98066
2.05123
2.12404
2.19922
2.2769
2.35716
2.44009
2.52577
2.61426
2.70559
2.79977
2.8968
2.99664
3.09923
3.20449
3.31233
3.4226
3.53517
3.64986
3.76649
3.88485
4.00474
4.12591
4.24813
4.37113
4.49465
4.61843
4.7422
4.86569
4.98859
5.11061
5.23144
5.35075
5.46819
5.58339
5.69603
5.8059
5.91271
6.01618
6.11604
6.21207
6.30402
6.39154
6.47438
6.5523
6.62509
6.69258
6.7546
6.81101
6.86172
6.90658
6.94548
6.97831
7.00496
7.02536
7.0395
7.0474
7.04953
7.04741
7.03979
7.02603
7.00629
6.98087
6.94989
6.91357
6.87232
6.82665
6.7763
6.72193
6.66394
6.60289
6.53942
6.47418
6.40793
6.34134
6.27506
6.2096
6.14528
6.08229
6.02056
5.95988
5.89984
5.83993
5.77956
5.71814
5.65513
5.59003
5.52247
5.4522
5.37911
5.30322
5.22466
5.14366
5.06054
4.97562
4.8893
4.80198
4.71406
4.62595
4.53798
4.45044
4.36357
4.27759
4.19272
4.10908
4.02689
3.94626
3.86726
3.78995
3.71436
3.64046
3.56821
3.49781
3.42922
3.36239
3.29728
3.23384
3.17201
3.11174
3.05295
2.99574
2.94
2.88566
2.83266
2.78098
2.73055
2.68136
2.63335
2.58648
2.54075
2.49616
2.45268
2.41029
2.36897
2.32872
2.28949
2.25128
2.21407
2.17782
2.14252
2.10812
2.07459
2.04188
2.00992
1.97864
1.94796
1.9178
1.88808
1.8587
1.82957
1.80057
1.77158
1.74235
1.71182
0.39363
0.507739
0.594429
0.665422
0.727747
0.784925
0.838953
0.89109
0.942184
0.992812
1.04337
1.09415
1.14536
1.19712
1.24948
1.30248
1.35618
1.41063
1.46585
1.52192
1.57889
1.63686
1.69593
1.75622
1.81794
1.88119
1.94612
2.01289
2.08167
2.15263
2.22593
2.30171
2.3801
2.46123
2.5452
2.63209
2.72195
2.81482
2.91069
3.00956
3.11138
3.21608
3.32356
3.43371
3.54639
3.66143
3.77866
3.89787
4.01885
4.14137
4.26517
4.39
4.51559
4.64167
4.76793
4.89408
5.01979
5.14473
5.26856
5.39094
5.51153
5.63
5.74598
5.85912
5.96909
6.0755
6.17798
6.27617
6.36984
6.45871
6.54254
6.62105
6.69407
6.76141
6.8228
6.87802
6.92688
6.96917
7.00467
7.03319
7.05455
7.06865
7.07546
7.07605
7.07175
7.06042
7.04172
7.01574
6.98268
6.94241
6.89523
6.84147
6.78148
6.71557
6.64423
6.56807
6.48789
6.40461
6.31928
6.23303
6.14699
6.06227
5.97987
5.90055
5.82486
5.75303
5.685
5.62042
5.55874
5.49923
5.44109
5.38348
5.3256
5.26677
5.20642
5.14414
5.07973
5.01307
4.94424
4.87336
4.80063
4.72632
4.65073
4.57419
4.49703
4.41955
4.34202
4.2647
4.18778
4.11147
4.03594
3.96136
3.88785
3.81552
3.74443
3.67464
3.60618
3.53906
3.47336
3.40909
3.34623
3.28478
3.22471
3.16597
3.10852
3.0523
2.99738
2.94371
2.89125
2.83996
2.78982
2.74079
2.69285
2.64596
2.6001
2.55531
2.51157
2.46884
2.42711
2.38639
2.34666
2.30791
2.27013
2.23328
2.19736
2.16234
2.12821
2.0949
2.06237
2.03054
1.99934
1.96871
1.93857
1.90881
1.87934
1.85005