/*--------------------------------*- C++ -*----------------------------------*\
  =========                 |
  \\      /  F ield         | OpenFOAM: The Open Source CFD Toolbox
   \\    /   O peration     | Website:  https://openfoam.org
    \\  /    A nd           | Version:  8
     \\/     M anipulation  |
\*---------------------------------------------------------------------------*/
FoamFile
{
    version     2.0;
    format      ascii;
    class       volScalarField;
    location    "75";
    object      nut;
}
// * * * * * * * * * * * * * * * * * * * * * * * * * * * * * * * * * * * * * //

dimensions      [0 2 -1 0 0 0 0];

internalField   nonuniform List<scalar> 
12225
(
4.1495e-05
3.93455e-05
3.74801e-05
3.5437e-05
3.37804e-05
3.24282e-05
3.1506e-05
3.0922e-05
3.09309e-05
3.1113e-05
3.16072e-05
3.21487e-05
3.32318e-05
3.39076e-05
3.52736e-05
3.58372e-05
3.76684e-05
3.69087e-05
0.000332346
0.000215206
0.000179251
0.000157667
0.000146174
0.000138167
0.000132624
0.0001317
0.000129379
0.000130147
0.000128934
0.000129551
0.000128558
0.000128678
0.000128067
0.000127451
0.000127799
0.000126349
0.000674975
0.000450836
0.000355723
0.000309793
0.000275173
0.000250994
0.000231525
0.000217073
0.000202367
0.000191718
0.000182201
0.000174573
0.000168911
0.000162746
0.000159771
0.000154233
0.000153053
0.000148102
0.000833609
0.00068493
0.000571914
0.000499923
0.000449321
0.000411797
0.000380537
0.000355676
0.000333619
0.000314196
0.000297678
0.000280706
0.000269441
0.00025457
0.000246823
0.00023417
0.000228069
0.000217397
0.000861254
0.000802522
0.000742082
0.000676544
0.00062388
0.000581185
0.000545649
0.000514148
0.000489132
0.000463716
0.000445198
0.000422902
0.00040883
0.00038909
0.000378018
0.000360585
0.000351592
0.000335471
0.00085498
0.000840344
0.000822187
0.000786463
0.000750797
0.00071572
0.000685601
0.000655741
0.000632209
0.000606837
0.000588358
0.000566159
0.000551145
0.000531446
0.000518872
0.000501217
0.000490216
0.000473525
0.000852909
0.000850684
0.000844236
0.000832802
0.00081739
0.000796876
0.000777789
0.000756447
0.00073864
0.000718622
0.000702996
0.000684751
0.000671145
0.000654539
0.000642667
0.000627362
0.000616876
0.000601795
0.000851925
0.000851811
0.000850175
0.00084738
0.00084144
0.000833667
0.000824833
0.000813243
0.00080264
0.000790135
0.000779332
0.00076694
0.00075671
0.000744777
0.000735323
0.000723906
0.000715194
0.000703529
0.000851753
0.000851539
0.000851038
0.000850328
0.000848878
0.000846135
0.000843007
0.000838213
0.000833305
0.000827172
0.00082097
0.000814425
0.000807953
0.0008009
0.000794445
0.000787374
0.000780871
0.00077355
0.000851772
0.000851386
0.000851049
0.000850625
0.000850246
0.000849349
0.000848389
0.000846736
0.0008449
0.000842436
0.00083979
0.000836608
0.000833535
0.000829805
0.000826507
0.000822347
0.000819108
0.000814335
0.000851789
0.000851357
0.000851014
0.000850609
0.000850327
0.000849894
0.000849512
0.000848903
0.000848268
0.000847341
0.000846392
0.000845074
0.000843851
0.000842167
0.000840755
0.000838719
0.000837249
0.000834854
0.00085179
0.000851359
0.000850997
0.000850603
0.000850289
0.00084993
0.000849635
0.000849262
0.00084893
0.000848469
0.000848051
0.000847443
0.000846915
0.000846135
0.000845507
0.000844546
0.000843849
0.000842708
0.000851787
0.000851363
0.000850986
0.000850603
0.000850267
0.00084992
0.000849621
0.000849299
0.000849023
0.000848702
0.000848428
0.000848081
0.000847789
0.000847396
0.000847074
0.000846623
0.000846268
0.000845756
0.000851783
0.000851365
0.000850979
0.000850602
0.000850255
0.000849913
0.000849601
0.00084929
0.000849008
0.000848721
0.000848463
0.000848192
0.00084795
0.000847688
0.000847454
0.000847194
0.000846962
0.0008467
0.000851781
0.000851365
0.000850973
0.000850599
0.000850246
0.000849907
0.000849588
0.00084928
0.000848991
0.000848711
0.000848447
0.000848191
0.00084795
0.000847714
0.000847493
0.000847276
0.000847072
0.000846871
0.00085178
0.000851364
0.00085097
0.000850595
0.000850239
0.000849901
0.000849579
0.000849272
0.00084898
0.000848701
0.000848435
0.00084818
0.000847938
0.000847706
0.000847485
0.000847274
0.000847072
0.00084688
0.000851779
0.000851363
0.000850967
0.000850591
0.000850234
0.000849895
0.000849572
0.000849265
0.000848972
0.000848693
0.000848427
0.000848173
0.00084793
0.000847699
0.000847479
0.000847268
0.000847068
0.000846877
0.000851779
0.000851362
0.000850965
0.000850589
0.000850231
0.000849891
0.000849568
0.00084926
0.000848967
0.000848688
0.000848422
0.000848169
0.000847927
0.000847697
0.000847477
0.000847268
0.000847069
0.000846879
0.000851779
0.000851362
0.000850965
0.000850588
0.00085023
0.00084989
0.000849567
0.00084926
0.000848967
0.000848689
0.000848423
0.000848171
0.00084793
0.000847701
0.000847483
0.000847275
0.000847077
0.000846889
0.000851779
0.000851362
0.000850965
0.000850589
0.000850231
0.000849892
0.00084957
0.000849264
0.000848972
0.000848695
0.000848431
0.00084818
0.000847941
0.000847713
0.000847496
0.000847289
0.000847092
0.000846906
0.000851779
0.000851363
0.000850966
0.000850592
0.000850235
0.000849898
0.000849576
0.000849272
0.000848981
0.000848706
0.000848441
0.000848191
0.000847948
0.00084772
0.000847494
0.000847284
0.000847075
0.000846881
0.000851778
0.000851366
0.000850968
0.000850598
0.000850241
0.00084991
0.000849585
0.000849281
0.000848976
0.000848687
0.000848386
0.0008481
0.000847793
0.000847502
0.00084718
0.000846881
0.000846541
0.000846237
0.000851777
0.000851373
0.000850971
0.000850615
0.000850242
0.000849893
0.000849485
0.000849065
0.000848547
0.000848003
0.000847336
0.000846652
0.00084583
0.000845021
0.000844059
0.00084316
0.000842079
0.000841135
0.000851802
0.00085141
0.00085097
0.000850551
0.000849864
0.000848975
0.000847622
0.000846004
0.000843944
0.000841694
0.000839039
0.000836329
0.000833269
0.000830309
0.000827011
0.000823985
0.000820557
0.000817623
0.000852137
0.000851403
0.000850234
0.000848257
0.000844481
0.000839384
0.000832755
0.000825832
0.000818022
0.000810149
0.000801822
0.000793892
0.000785673
0.000778127
0.00077026
0.000763317
0.000755855
0.000749647
0.000854142
0.00084772
0.000840129
0.000827131
0.00080875
0.000789709
0.000770085
0.000751568
0.000733526
0.000717175
0.000701306
0.000687231
0.000673394
0.000661337
0.000649177
0.000638864
0.000628031
0.000619248
0.000854973
0.000818343
0.000776259
0.000726657
0.000685027
0.000649961
0.000618631
0.000592237
0.000568679
0.000548669
0.00053015
0.000514524
0.000499415
0.000486771
0.000474099
0.00046372
0.000452803
0.000444126
0.000807494
0.000666885
0.000570607
0.000509906
0.00046576
0.000431318
0.000404305
0.000382717
0.000364456
0.000349391
0.000336308
0.000325515
0.000315025
0.000306807
0.000298646
0.00029213
0.000285186
0.000279919
0.000501861
0.000348411
0.00029272
0.000259198
0.000236396
0.000221213
0.000211624
0.000204104
0.000198567
0.000195154
0.000192313
0.000190467
0.000188686
0.000187552
0.000186282
0.000185581
0.000184661
0.000184241
7.27285e-05
7.0223e-05
6.79532e-05
6.56136e-05
6.33814e-05
6.12773e-05
5.94896e-05
5.79564e-05
5.67042e-05
5.56962e-05
5.49636e-05
5.43998e-05
5.40805e-05
5.38469e-05
5.38355e-05
5.38859e-05
5.39989e-05
5.42227e-05
9.47436e-06
9.14722e-05
0.000125612
0.000153817
0.000176556
0.000194124
0.000206858
0.000228301
0.000234791
0.000234655
0.000226578
0.000223483
0.000213366
0.000257338
0.000278976
0.000270373
4.5006e-05
3.1854e-05
2.70522e-05
2.78908e-05
3.44563e-05
4.3614e-05
4.84714e-05
5.16506e-05
5.41874e-05
5.65304e-05
5.90946e-05
6.17903e-05
6.47036e-05
6.76746e-05
7.07653e-05
7.38407e-05
7.69118e-05
7.98544e-05
8.27161e-05
8.5426e-05
8.80262e-05
9.04764e-05
9.28134e-05
9.50134e-05
9.71084e-05
9.90842e-05
0.000100968
0.000102751
0.000104455
0.000106077
0.000107634
0.000109125
0.000110563
0.000111949
0.000113293
0.000114597
0.000115869
0.000117112
0.00011833
0.000119527
0.000120705
0.000121869
0.000123018
0.00012416
0.000125289
0.000126415
0.00012753
0.000128645
0.000129751
0.000130857
0.000131953
0.000133049
0.000134133
0.000135218
0.000136286
0.000137352
0.000138399
0.00013944
0.000140456
0.00014146
0.000142435
0.00014339
0.000144309
0.000145201
0.000146047
0.000146856
0.000147607
0.00014831
0.000148975
0.000149668
0.000150293
0.000150889
0.000151438
0.000151949
0.00015241
0.000152808
0.000153149
0.00015352
0.000153185
0.000153971
0.000153814
0.00015386
0.000153768
0.000153604
0.000153361
0.000152981
0.000152515
0.000151942
0.000151265
0.000150482
0.000149582
0.000148539
0.000147367
0.000146108
0.000144752
0.000143294
0.000141741
0.000140098
0.000138373
0.000136577
0.000134782
0.000132957
0.000130873
0.000128783
0.000126659
0.000124511
0.000122354
0.000120189
0.000118007
0.000115838
0.000113336
0.000111367
0.000109836
0.000108394
0.000106957
0.000105553
0.00010418
0.000102833
0.000101513
0.000100223
9.89652e-05
9.77307e-05
9.65467e-05
9.54149e-05
9.42548e-05
9.31133e-05
9.20039e-05
9.09283e-05
8.98916e-05
8.88946e-05
8.79343e-05
8.70111e-05
8.61147e-05
8.52448e-05
8.44021e-05
8.35875e-05
8.27997e-05
8.20388e-05
8.13038e-05
8.05924e-05
7.99023e-05
7.92329e-05
7.8583e-05
7.7953e-05
7.73417e-05
7.67481e-05
7.6171e-05
7.56101e-05
7.50647e-05
7.45339e-05
7.4017e-05
7.35129e-05
7.30205e-05
7.25385e-05
7.20662e-05
7.1599e-05
7.11423e-05
7.06729e-05
7.02353e-05
6.97034e-05
6.9341e-05
6.84109e-05
6.85841e-05
6.61694e-05
1.79112e-05
7.81353e-05
0.00015255
0.000216882
0.000269262
0.000311887
0.000349347
0.000378406
0.000398668
0.000409913
0.000413723
0.000412421
0.000407682
0.000402444
0.000389381
0.000355969
0.000298966
0.000272568
0.000266686
0.000274024
0.000290024
0.000307531
0.000317319
0.00032206
0.000325591
0.00033
0.000336377
0.000345036
0.000356027
0.000369096
0.000383954
0.000401105
0.000420057
0.000440098
0.000460909
0.000482117
0.000503458
0.00052463
0.000545444
0.000565678
0.000585224
0.00060394
0.00062179
0.000638702
0.000654694
0.000669745
0.00068391
0.000697196
0.000709683
0.000721395
0.00073243
0.000742818
0.000752663
0.000762001
0.000770932
0.000779493
0.00078778
0.000795827
0.000803728
0.000811517
0.000819281
0.000827052
0.00083492
0.000842917
0.000851134
0.000859599
0.000868398
0.000877549
0.000887127
0.000897145
0.00090767
0.000918714
0.000930331
0.000942522
0.000955319
0.000968708
0.000982694
0.000997242
0.00101232
0.00102784
0.00104368
0.00105962
0.00107542
0.0010907
0.00110514
0.0011189
0.00113306
0.00114737
0.00116183
0.00117636
0.0011909
0.00120536
0.00121962
0.00123355
0.00124717
0.00126017
0.00127226
0.00128199
0.00129388
0.00130301
0.00131284
0.00132003
0.00132595
0.00133043
0.00133341
0.00133483
0.00133457
0.00133234
0.00132776
0.00132168
0.00131493
0.00130672
0.00129713
0.00128625
0.00127422
0.00126121
0.00124756
0.00123393
0.00121945
0.00120448
0.00118908
0.00117331
0.00115733
0.00114121
0.00112491
0.00110857
0.00109091
0.00107113
0.00105054
0.00102989
0.00100943
0.000989343
0.000969713
0.000950634
0.000932108
0.000914175
0.000896805
0.000880022
0.000864
0.000848341
0.00083324
0.000818718
0.000804734
0.000791247
0.000778339
0.000765928
0.000753948
0.000742271
0.000730824
0.000719696
0.000708908
0.000698451
0.00068831
0.00067848
0.00066891
0.000659561
0.000650432
0.000641529
0.000632852
0.000624396
0.000616135
0.00060806
0.00060017
0.000592464
0.000584926
0.000577543
0.000570307
0.000563204
0.000556207
0.000549323
0.000542486
0.000535756
0.00052892
0.000522261
0.000515207
0.000508133
0.000501155
0.000490381
0.000471964
0.00042667
3.42112e-05
0.0001205
0.000220638
0.000307836
0.000380326
0.000438705
0.000484911
0.00051934
0.000542655
0.000556581
0.000563192
0.000564721
0.000562816
0.000558854
0.00055303
0.00054533
0.000539316
0.000536579
0.000540629
0.00055014
0.000561877
0.000572532
0.000585702
0.000601624
0.000620324
0.000642344
0.000667973
0.000697197
0.000729797
0.000765382
0.000803463
0.000845036
0.000888086
0.000932065
0.000976413
0.00102062
0.00106426
0.00110698
0.0011485
0.0011886
0.00122715
0.00126405
0.00129927
0.0013328
0.00136468
0.00139493
0.00142365
0.00145091
0.00147679
0.00150138
0.00152481
0.00154702
0.00156824
0.00158854
0.00160805
0.00162683
0.001645
0.00166263
0.00167983
0.00169666
0.00171322
0.00172958
0.00174583
0.00176202
0.00177823
0.00179448
0.001811
0.00182787
0.00184517
0.00186295
0.00188127
0.00190017
0.0019197
0.00193986
0.00196068
0.00198215
0.00200427
0.00202698
0.00205026
0.00207402
0.00209817
0.00212258
0.00214711
0.00217165
0.00219615
0.00222077
0.00224582
0.00227113
0.0022966
0.00232207
0.00234742
0.00237245
0.00239692
0.00242055
0.00244363
0.00246501
0.00248665
0.00250371
0.00252147
0.00253421
0.00254824
0.00255839
0.00256575
0.00257028
0.00257191
0.00257056
0.00256619
0.00255871
0.00254807
0.00253465
0.00251884
0.00250047
0.00247967
0.00245666
0.00243165
0.00240495
0.00237692
0.00234802
0.00231804
0.00228725
0.00225582
0.00222393
0.00219177
0.00215948
0.00212712
0.00209474
0.00206175
0.00202754
0.00199269
0.00195785
0.00192336
0.00188947
0.00185631
0.001824
0.00179256
0.00176204
0.00173245
0.00170379
0.00167612
0.00164943
0.00162374
0.00159899
0.00157512
0.00155208
0.00153033
0.00150943
0.00148923
0.00146934
0.00144961
0.00143044
0.00141185
0.00139378
0.00137622
0.00135917
0.0013425
0.00132612
0.00131008
0.00129441
0.00127913
0.00126422
0.00124963
0.00123535
0.00122141
0.00120782
0.00119453
0.00118153
0.00116881
0.00115635
0.0011441
0.00113205
0.00112013
0.00110837
0.00109651
0.00108482
0.00107258
0.00106024
0.0010469
0.00103257
0.00100759
0.000944582
5.12889e-05
0.000168448
0.000294545
0.000401855
0.000489107
0.000557983
0.000610734
0.000649282
0.000675459
0.000691696
0.000700278
0.000703568
0.000704092
0.000703909
0.000704525
0.000707163
0.000712966
0.000722664
0.000736724
0.000754758
0.000776055
0.000800354
0.000828435
0.000860732
0.00089746
0.000938708
0.000984345
0.00103403
0.00108727
0.00114349
0.00120209
0.00126184
0.00132267
0.001384
0.00144521
0.00150576
0.00156522
0.00162325
0.00167959
0.00173407
0.00178656
0.00183701
0.0018854
0.00193173
0.00197604
0.00201841
0.00205891
0.00209762
0.00213466
0.00217013
0.00220419
0.00223681
0.00226814
0.0022983
0.00232737
0.00235547
0.00238268
0.00240911
0.00243484
0.00245997
0.00248459
0.00250877
0.0025326
0.00255617
0.00257955
0.00260282
0.00262611
0.00264951
0.00267307
0.00269686
0.00272093
0.00274533
0.0027701
0.00279526
0.00282083
0.00284681
0.00287321
0.00290001
0.00292719
0.0029547
0.00298251
0.00301054
0.00303874
0.00306704
0.00309536
0.00312392
0.00315276
0.00318175
0.00321077
0.0032397
0.00326836
0.00329655
0.00332406
0.00335063
0.0033761
0.00339997
0.00342277
0.00344408
0.00346249
0.00347557
0.00348975
0.00349986
0.00350649
0.00350964
0.0035092
0.00350509
0.00349726
0.0034857
0.00347041
0.00345161
0.00342951
0.00340419
0.00337585
0.00334474
0.00331115
0.00327539
0.00323782
0.00319879
0.00315846
0.00311709
0.00307493
0.00303222
0.00298922
0.00294612
0.00290305
0.00286006
0.00281691
0.00277335
0.00272963
0.00268616
0.00264323
0.00260107
0.00255982
0.00251959
0.00248043
0.00244238
0.00240546
0.00236967
0.00233503
0.00230155
0.00226924
0.00223807
0.00220797
0.00217888
0.00215095
0.00212404
0.00209814
0.00207292
0.00204826
0.00202459
0.00200163
0.00197926
0.00195749
0.00193636
0.0019156
0.00189505
0.00187492
0.00185525
0.00183606
0.00181735
0.00179898
0.00178101
0.0017635
0.00174646
0.00172982
0.00171357
0.00169772
0.00168222
0.00166706
0.00165219
0.00163757
0.00162317
0.0016088
0.00159455
0.00157991
0.00156505
0.00154907
0.00153183
0.00151298
0.00144892
6.81653e-05
0.000216389
0.000365924
0.000491048
0.00059094
0.000668586
0.000727249
0.000769558
0.000798428
0.000816816
0.000827705
0.000834042
0.000838582
0.000843654
0.000851013
0.000861845
0.000876881
0.000896503
0.000920858
0.000949896
0.000983538
0.00102185
0.00106507
0.00111331
0.00116649
0.00122435
0.00128648
0.00135231
0.00142121
0.00149252
0.00156559
0.00163964
0.00171394
0.00178794
0.00186116
0.00193321
0.00200377
0.00207261
0.00213954
0.00220444
0.00226721
0.00232782
0.00238625
0.00244252
0.00249666
0.00254872
0.00259877
0.00264689
0.00269313
0.00273759
0.00278031
0.00282141
0.002861
0.00289917
0.00293603
0.00297166
0.00300615
0.00303959
0.00307207
0.00310368
0.00313448
0.00316457
0.00319401
0.00322289
0.00325125
0.00327916
0.00330673
0.00333406
0.00336119
0.00338819
0.00341511
0.00344199
0.00346888
0.00349581
0.00352281
0.00354989
0.00357709
0.00360441
0.00363187
0.00365946
0.0036872
0.00371508
0.00374309
0.00377119
0.00379936
0.00382768
0.00385613
0.00388461
0.00391302
0.00394124
0.00396912
0.00399648
0.0040231
0.00404875
0.00407317
0.00409605
0.00411716
0.00413747
0.00415586
0.00416737
0.00417987
0.00418851
0.0041935
0.00419479
0.00419228
0.00418588
0.00417551
0.00416116
0.00414285
0.0041207
0.00409488
0.00406553
0.00403288
0.00399719
0.00395874
0.00391785
0.00387487
0.00383012
0.00378387
0.00373642
0.00368807
0.00363912
0.00358985
0.00354048
0.0034912
0.0034421
0.00339314
0.00334429
0.00329568
0.00324754
0.00320009
0.0031535
0.00310792
0.00306344
0.00302012
0.002978
0.00293709
0.00289739
0.00285891
0.00282166
0.00278563
0.0027508
0.00271711
0.0026845
0.00265302
0.00262258
0.00259325
0.00256465
0.00253675
0.0025097
0.00248342
0.00245782
0.00243296
0.00240902
0.00238566
0.00236277
0.00234042
0.0023186
0.00229735
0.00227661
0.00225614
0.00223615
0.00221671
0.00219786
0.00217942
0.00216146
0.00214401
0.00212699
0.0021104
0.0020942
0.00207844
0.002063
0.00204775
0.00203266
0.0020174
0.00200194
0.00198563
0.00196782
0.00195144
0.00189929
8.44147e-05
0.000257486
0.000429676
0.00057197
0.000683954
0.000770314
0.000835435
0.000882448
0.000915143
0.000937109
0.000951818
0.000962553
0.000972252
0.000983335
0.000997601
0.00101624
0.00103993
0.00106904
0.00110368
0.00114387
0.00118955
0.00124065
0.00129705
0.00135853
0.00142474
0.00149518
0.00156929
0.00164642
0.00172592
0.00180713
0.00188941
0.00197213
0.00205473
0.00213676
0.00221783
0.00229763
0.00237589
0.00245241
0.00252703
0.00259965
0.00267017
0.00273855
0.00280477
0.00286882
0.00293071
0.00299048
0.00304817
0.00310382
0.0031575
0.00320927
0.00325919
0.00330734
0.0033538
0.00339865
0.00344197
0.00348383
0.00352431
0.00356348
0.00360141
0.00363817
0.00367384
0.00370849
0.00374216
0.00377495
0.00380692
0.00383814
0.00386864
0.00389845
0.00392763
0.00395623
0.00398428
0.00401183
0.00403893
0.00406561
0.00409191
0.00411787
0.00414354
0.00416894
0.00419412
0.00421912
0.00424399
0.00426877
0.00429351
0.00431826
0.00434308
0.00436791
0.00439272
0.00441747
0.00444209
0.00446649
0.00449057
0.00451419
0.00453716
0.0045593
0.00458036
0.00460012
0.00461832
0.00463494
0.00465171
0.00466131
0.00467144
0.00467828
0.00468165
0.00468147
0.0046776
0.00466992
0.00465833
0.00464278
0.00462326
0.00459984
0.00457263
0.00454178
0.0045075
0.00447004
0.00442967
0.0043867
0.00434143
0.00429418
0.00424528
0.00419503
0.00414379
0.00409187
0.00403957
0.00398715
0.00393483
0.00388275
0.00383098
0.00377957
0.00372864
0.00367833
0.0036288
0.00358021
0.00353268
0.00348627
0.00344107
0.00339709
0.00335435
0.00331286
0.0032726
0.00323359
0.0031958
0.00315921
0.00312377
0.00308944
0.00305618
0.00302396
0.00299274
0.00296238
0.00293279
0.00290399
0.00287594
0.00284859
0.00282192
0.002796
0.0027707
0.00274608
0.00272222
0.002699
0.00267644
0.00265455
0.00263322
0.00261252
0.00259248
0.00257308
0.00255403
0.00253552
0.00251759
0.00250014
0.00248318
0.00246672
0.00245076
0.00243521
0.00241999
0.00240504
0.00239013
0.00237512
0.00235961
0.00234279
0.00232791
0.00228177
9.94411e-05
0.000293928
0.000486297
0.000644325
0.000768008
0.000863412
0.000935815
0.000988815
0.00102688
0.00105407
0.00107417
0.00109065
0.00110652
0.00112424
0.00114567
0.00117201
0.001204
0.00124199
0.00128606
0.00133613
0.00139199
0.00145337
0.0015199
0.00159113
0.00166656
0.0017456
0.00182767
0.00191214
0.0019984
0.00208587
0.00217401
0.00226231
0.00235033
0.00243771
0.00252411
0.00260928
0.00269299
0.00277507
0.00285537
0.00293377
0.00301019
0.00308457
0.00315687
0.00322705
0.00329512
0.00336108
0.00342495
0.00348675
0.00354651
0.00360428
0.00366011
0.00371403
0.00376612
0.00381642
0.00386498
0.00391187
0.00395714
0.00400084
0.00404303
0.00408375
0.00412305
0.004161
0.00419762
0.00423298
0.00426712
0.00430008
0.0043319
0.0043626
0.00439223
0.00442084
0.00444846
0.00447514
0.00450092
0.00452586
0.00454999
0.00457337
0.00459606
0.00461811
0.00463959
0.00466056
0.0046811
0.00470127
0.00472115
0.0047408
0.00476026
0.00477958
0.00479875
0.00481777
0.00483663
0.00485531
0.00487376
0.00489188
0.00490958
0.0049267
0.00494308
0.00495852
0.00497282
0.00498578
0.00499833
0.00500717
0.00501426
0.00501952
0.00502161
0.00502051
0.00501606
0.00500809
0.00499646
0.00498106
0.00496184
0.00493879
0.00491198
0.00488152
0.00484758
0.00481039
0.0047702
0.00472727
0.0046819
0.00463439
0.00458507
0.00453429
0.00448237
0.00442967
0.00437652
0.0043232
0.00426994
0.00421694
0.0041643
0.00411213
0.00406054
0.00400966
0.00395962
0.00391054
0.00386254
0.00381568
0.00377003
0.0037256
0.00368241
0.00364047
0.00359976
0.00356028
0.00352201
0.00348491
0.00344896
0.00341409
0.00338026
0.00334742
0.00331553
0.0032845
0.00325425
0.00322475
0.00319597
0.00316785
0.00314037
0.00311355
0.00308733
0.00306172
0.00303674
0.00301248
0.00298905
0.00296646
0.00294467
0.00292367
0.00290344
0.00288396
0.00286509
0.00284686
0.0028293
0.00281215
0.00279557
0.00277954
0.00276407
0.00274912
0.00273462
0.00272051
0.0027066
0.00269275
0.00267865
0.00266362
0.00265001
0.00261187
0.000112717
0.000325093
0.000534774
0.000706988
0.000841981
0.000946751
0.00102729
0.00108756
0.00113252
0.00116649
0.00119342
0.00121684
0.00123977
0.00126467
0.0012934
0.00132721
0.00136683
0.00141259
0.00146452
0.00152243
0.00158599
0.00165476
0.00172826
0.00180595
0.00188727
0.00197166
0.00205853
0.00214735
0.00223758
0.00232872
0.00242034
0.00251201
0.00260339
0.00269415
0.00278403
0.00287281
0.00296027
0.00304627
0.00313067
0.00321333
0.00329418
0.00337313
0.00345012
0.00352511
0.00359807
0.00366897
0.0037378
0.00380458
0.0038693
0.00393199
0.00399266
0.00405133
0.00410804
0.00416281
0.00421567
0.00426666
0.00431581
0.00436315
0.0044087
0.00445251
0.00449459
0.00453499
0.00457371
0.0046108
0.00464628
0.00468017
0.00471251
0.00474331
0.00477261
0.00480044
0.00482684
0.00485185
0.00487552
0.00489789
0.00491902
0.00493897
0.0049578
0.00497559
0.00499242
0.00500837
0.00502353
0.00503799
0.00505186
0.00506523
0.00507817
0.00509077
0.00510309
0.00511519
0.0051271
0.00513889
0.00515056
0.00516211
0.0051735
0.00518466
0.00519548
0.00520584
0.00521557
0.00522449
0.00523287
0.00523988
0.00524472
0.00524832
0.00524944
0.00524792
0.00524355
0.00523612
0.00522542
0.00521128
0.00519355
0.00517218
0.00514715
0.00511852
0.00508641
0.00505102
0.00501256
0.00497127
0.00492742
0.00488128
0.00483319
0.00478346
0.00473245
0.0046805
0.00462798
0.0045752
0.00452244
0.00446987
0.00441767
0.00436594
0.00431482
0.00426441
0.00421485
0.00416627
0.00411875
0.00407238
0.00402719
0.00398321
0.00394046
0.00389893
0.00385862
0.00381951
0.00378159
0.00374482
0.00370916
0.00367455
0.00364095
0.00360829
0.00357653
0.00354559
0.00351541
0.00348594
0.00345714
0.00342896
0.00340139
0.0033744
0.00334797
0.00332209
0.00329677
0.00327207
0.00324806
0.00322509
0.00320316
0.00318217
0.00316207
0.0031428
0.00312428
0.0031065
0.00308948
0.00307311
0.00305745
0.00304238
0.00302788
0.00301398
0.00300063
0.00298776
0.00297522
0.00296287
0.00295048
0.00293754
0.00292529
0.00289474
0.00012371
0.000350092
0.000574029
0.000758737
0.00090446
0.00101872
0.00110799
0.00117653
0.00122955
0.00127152
0.00130642
0.00133771
0.00136836
0.00140076
0.00143672
0.00147749
0.00152379
0.00157594
0.00163393
0.00169752
0.00176632
0.00183987
0.00191764
0.0019991
0.0020837
0.00217092
0.00226024
0.0023512
0.00244333
0.00253623
0.00262953
0.0027229
0.00281604
0.00290867
0.00300058
0.00309155
0.00318141
0.00327
0.00335719
0.00344286
0.00352691
0.00360925
0.00368979
0.00376846
0.00384521
0.00391999
0.00399278
0.00406356
0.00413231
0.00419901
0.00426367
0.00432626
0.00438681
0.0044453
0.00450175
0.00455616
0.00460855
0.00465891
0.00470726
0.00475359
0.00479793
0.00484027
0.00488061
0.00491898
0.00495537
0.0049898
0.00502227
0.00505281
0.00508142
0.00510814
0.005133
0.00515601
0.00517724
0.00519672
0.0052145
0.00523066
0.00524526
0.00525839
0.00527013
0.00528059
0.00528987
0.0052981
0.00530539
0.00531188
0.00531768
0.00532293
0.00532773
0.00533221
0.00533647
0.00534062
0.00534478
0.00534901
0.00535336
0.00535785
0.00536246
0.00536714
0.00537178
0.00537626
0.00538062
0.00538477
0.00538758
0.00538958
0.00538992
0.00538832
0.00538451
0.00537822
0.00536918
0.00535714
0.00534188
0.00532322
0.00530108
0.00527541
0.00524628
0.00521388
0.00517843
0.00514008
0.00509904
0.00505558
0.00500999
0.00496257
0.00491365
0.0048636
0.00481279
0.00476162
0.00471036
0.00465922
0.00460837
0.00455794
0.00450807
0.00445887
0.00441048
0.00436305
0.00431666
0.0042714
0.00422729
0.00418437
0.00414264
0.0041021
0.00406275
0.00402458
0.00398756
0.00395167
0.00391686
0.00388307
0.00385024
0.00381831
0.00378722
0.00375691
0.00372733
0.00369841
0.00367011
0.0036424
0.00361524
0.00358861
0.00356249
0.00353687
0.00351177
0.00348722
0.00346328
0.00344021
0.00341845
0.00339776
0.00337804
0.00335921
0.00334121
0.00332401
0.00330764
0.00329206
0.0032773
0.00326333
0.00325015
0.00323761
0.00322568
0.00321429
0.0032033
0.00319259
0.00318198
0.00317112
0.00316038
0.00313598
0.000132045
0.000368414
0.000603424
0.000798736
0.000954305
0.00107784
0.00117604
0.00125337
0.00131514
0.00136586
0.00140938
0.00144907
0.00148774
0.00152767
0.00157057
0.00161764
0.00166961
0.00172678
0.00178916
0.00185654
0.00192856
0.00200478
0.00208471
0.00216786
0.00225375
0.00234191
0.00243191
0.00252332
0.00261577
0.00270892
0.00280246
0.00289617
0.00298978
0.00308305
0.00317577
0.00326776
0.00335885
0.00344889
0.00353777
0.00362535
0.00371155
0.00379625
0.00387937
0.00396077
0.00404038
0.00411814
0.00419402
0.00426797
0.00433996
0.00440994
0.00447789
0.00454375
0.00460752
0.00466918
0.00472869
0.00478605
0.00484125
0.00489425
0.00494504
0.0049936
0.00503992
0.00508397
0.00512575
0.00516524
0.00520242
0.00523729
0.00526984
0.00530008
0.00532799
0.0053536
0.00537692
0.00539797
0.00541678
0.0054334
0.00544787
0.00546026
0.00547064
0.00547909
0.00548571
0.00549062
0.00549394
0.0054958
0.00549638
0.00549581
0.00549426
0.00549191
0.0054889
0.0054854
0.0054816
0.00547766
0.00547379
0.00547014
0.00546686
0.00546407
0.00546185
0.00546025
0.00545925
0.00545878
0.00545892
0.0054595
0.00546007
0.00546035
0.00545994
0.00545837
0.00545534
0.00545055
0.00544368
0.00543437
0.0054223
0.00540719
0.00538884
0.00536709
0.0053419
0.00531348
0.00528215
0.00524786
0.00521077
0.0051711
0.0051291
0.00508506
0.00503924
0.00499199
0.00494375
0.00489502
0.00484608
0.00479713
0.00474836
0.00469991
0.00465189
0.00460446
0.00455778
0.00451199
0.00446721
0.00442351
0.00438094
0.0043395
0.00429922
0.00426008
0.00422209
0.00418526
0.00414955
0.00411494
0.00408138
0.0040488
0.00401714
0.00398634
0.00395633
0.00392705
0.00389845
0.00387048
0.00384308
0.00381622
0.00378986
0.00376399
0.00373858
0.00371364
0.00368918
0.00366522
0.00364184
0.00361923
0.00359797
0.00357786
0.00355874
0.00354053
0.00352318
0.00350667
0.00349104
0.00347627
0.00346242
0.00344949
0.00343749
0.00342638
0.00341605
0.00340625
0.00339685
0.00338778
0.00337891
0.00336997
0.00336076
0.00334135
0.00013756
0.000380004
0.000622871
0.000826709
0.00099092
0.00112315
0.00122999
0.0013161
0.00138678
0.00144643
0.00149876
0.00154691
0.00159351
0.00164068
0.00169003
0.00174269
0.00179936
0.00186038
0.00192581
0.00199551
0.00206919
0.00214647
0.00222697
0.00231024
0.0023959
0.00248355
0.00257285
0.00266342
0.00275493
0.00284702
0.00293939
0.00303224
0.00312525
0.00321812
0.00331064
0.00340262
0.00349391
0.00358439
0.00367393
0.00376244
0.00384982
0.003936
0.00402097
0.0041043
0.00418593
0.00426585
0.00434402
0.00442041
0.00449497
0.00456763
0.00463831
0.00470692
0.00477343
0.00483781
0.00490002
0.00496001
0.00501774
0.00507317
0.00512624
0.00517691
0.00522514
0.00527088
0.0053141
0.00535477
0.00539284
0.00542828
0.00546108
0.00549121
0.00551866
0.00554341
0.00556547
0.00558484
0.00560155
0.00561562
0.00562709
0.00563602
0.00564247
0.00564653
0.0056483
0.00564791
0.00564548
0.00564118
0.00563519
0.0056277
0.00561891
0.005609
0.00559817
0.00558663
0.00557458
0.0055623
0.00555005
0.00553809
0.00552668
0.00551604
0.00550639
0.00549789
0.00549059
0.00548464
0.00548003
0.00547666
0.00547401
0.00547164
0.00546946
0.00546705
0.00546424
0.0054607
0.00545614
0.00545003
0.0054419
0.00543136
0.00541806
0.00540169
0.005382
0.00535925
0.00533318
0.005304
0.00527187
0.00523698
0.00519957
0.00515994
0.0051181
0.00507445
0.00502945
0.0049839
0.00493799
0.00489191
0.00484585
0.00479995
0.00475434
0.00470916
0.0046646
0.00462087
0.0045781
0.00453636
0.00449569
0.0044561
0.0044176
0.00438019
0.00434389
0.00430871
0.00427463
0.00424161
0.00420961
0.00417856
0.0041484
0.00411904
0.00409042
0.00406249
0.00403519
0.00400847
0.00398229
0.0039566
0.00393137
0.00390657
0.00388221
0.00385827
0.00383479
0.0038118
0.00378937
0.00376772
0.00374735
0.00372808
0.00370976
0.00369232
0.00367574
0.00366002
0.00364519
0.00363128
0.00361835
0.00360641
0.00359553
0.00358567
0.00357679
0.00356862
0.00356076
0.00355324
0.00354595
0.00353871
0.00353093
0.00351549
0.000140297
0.000385187
0.000632803
0.000842992
0.00101436
0.00115414
0.0012688
0.00136314
0.00144234
0.00151077
0.00157165
0.00162788
0.00168194
0.00173579
0.00179093
0.00184843
0.00190896
0.00197288
0.0020403
0.00211118
0.00218533
0.00226247
0.00234231
0.00242449
0.00250865
0.00259446
0.002682
0.00277083
0.00286055
0.00295077
0.00304108
0.00313205
0.00322328
0.00331458
0.00340575
0.00349666
0.00358718
0.00367718
0.00376655
0.00385518
0.00394298
0.00402985
0.00411571
0.00419994
0.0042827
0.00436397
0.00444369
0.00452183
0.00459834
0.00467327
0.00474622
0.00481713
0.00488599
0.00495276
0.00501739
0.0050798
0.00513993
0.0051977
0.00525302
0.00530582
0.00535603
0.00540358
0.00544841
0.00549046
0.00552968
0.005566
0.00559938
0.00562978
0.00565716
0.00568149
0.00570276
0.00572094
0.00573605
0.00574809
0.00575709
0.00576309
0.00576615
0.00576635
0.00576377
0.00575856
0.00575084
0.00574081