/*--------------------------------*- C++ -*----------------------------------*\
  =========                 |
  \\      /  F ield         | OpenFOAM: The Open Source CFD Toolbox
   \\    /   O peration     | Website:  https://openfoam.org
    \\  /    A nd           | Version:  8
     \\/     M anipulation  |
\*---------------------------------------------------------------------------*/
FoamFile
{
    version     2.0;
    format      ascii;
    class       volScalarField;
    location    "75";
    object      p;
}
// * * * * * * * * * * * * * * * * * * * * * * * * * * * * * * * * * * * * * //

dimensions      [0 2 -2 0 0 0 0];

internalField   nonuniform List<scalar> 
12225
(
-1.83803
-4.0246
-5.1213
-5.43701
-5.61228
-5.77303
-5.89437
-5.97844
-6.04156
-6.09138
-6.1299
-6.16036
-6.18125
-6.19027
-6.18377
-6.147
-6.1004
-5.88732
-5.00054
-5.76784
-5.92532
-5.82793
-5.80925
-5.86903
-5.93646
-5.991
-6.03703
-6.07698
-6.11044
-6.13727
-6.15673
-6.16543
-6.16156
-6.13327
-6.10267
-6.00579
-5.40134
-5.38596
-5.51007
-5.58316
-5.67204
-5.78435
-5.88167
-5.95523
-6.01338
-6.06158
-6.10128
-6.13287
-6.15647
-6.16948
-6.17165
-6.1565
-6.14522
-6.11837
-5.28018
-5.22226
-5.46023
-5.61378
-5.70966
-5.80803
-5.89596
-5.96472
-6.01992
-6.06648
-6.10559
-6.13726
-6.16163
-6.17696
-6.18417
-6.18144
-6.18611
-6.19778
-5.27063
-5.29355
-5.51828
-5.65529
-5.73287
-5.81706
-5.89871
-5.96535
-6.01969
-6.06605
-6.10559
-6.13829
-6.16442
-6.18328
-6.19655
-6.20539
-6.22296
-6.25555
-5.32928
-5.37668
-5.54786
-5.66692
-5.74246
-5.82263
-5.90139
-5.96718
-6.02142
-6.0679
-6.10803
-6.14199
-6.17024
-6.1929
-6.21202
-6.23024
-6.2573
-6.30023
-5.39034
-5.43316
-5.56523
-5.67666
-5.75484
-5.8316
-5.90645
-5.97078
-6.02473
-6.07126
-6.11194
-6.14729
-6.1779
-6.20431
-6.22867
-6.25408
-6.28761
-6.33433
-5.44478
-5.48106
-5.58796
-5.6916
-5.76942
-5.84186
-5.91243
-5.97515
-6.02882
-6.07547
-6.11683
-6.15372
-6.18676
-6.21668
-6.24551
-6.27624
-6.31383
-6.36159
-5.49566
-5.52751
-5.61554
-5.70911
-5.78423
-5.85278
-5.91955
-5.98056
-6.03385
-6.08066
-6.12276
-6.1612
-6.19655
-6.22955
-6.26203
-6.29656
-6.33663
-6.38394
-5.54416
-5.5722
-5.64502
-5.72811
-5.79956
-5.86478
-5.92817
-5.98727
-6.03996
-6.08689
-6.12975
-6.16962
-6.20706
-6.2427
-6.27807
-6.31523
-6.35651
-6.40278
-5.59025
-5.61464
-5.6753
-5.74873
-5.81596
-5.87797
-5.93824
-5.99537
-6.04732
-6.09433
-6.13784
-6.17899
-6.21823
-6.25609
-6.29371
-6.33259
-6.37438
-6.41925
-5.63023
-5.6515
-5.70333
-5.76886
-5.8319
-5.89093
-5.9485
-6.00385
-6.05511
-6.10213
-6.14613
-6.18815
-6.22875
-6.26822
-6.30743
-6.34737
-6.38915
-6.43283
-5.66761
-5.68629
-5.73098
-5.78942
-5.84831
-5.90452
-5.95954
-6.0131
-6.06367
-6.11077
-6.15514
-6.19787
-6.23936
-6.28015
-6.32057
-6.36133
-6.403
-6.44553
-5.70743
-5.72369
-5.76191
-5.81332
-5.86764
-5.92092
-5.97328
-6.02477
-6.07446
-6.1217
-6.16669
-6.20994
-6.25216
-6.29384
-6.33536
-6.37681
-6.41842
-6.4599
-5.74868
-5.76268
-5.79534
-5.84026
-5.8898
-5.94003
-5.98991
-6.03919
-6.08768
-6.13498
-6.18068
-6.22455
-6.26721
-6.30934
-6.35152
-6.39353
-6.43519
-6.47599
-5.78968
-5.80177
-5.82981
-5.86925
-5.91419
-5.96137
-6.00909
-6.0565
-6.10358
-6.15061
-6.19687
-6.24163
-6.28464
-6.32698
-6.36922
-6.4116
-6.45336
-6.49402
-5.82782
-5.83841
-5.86302
-5.89836
-5.9395
-5.98383
-6.02985
-6.07601
-6.12197
-6.16835
-6.21496
-6.26051
-6.30426
-6.34668
-6.38886
-6.43119
-6.47324
-6.51401
-5.85897
-5.86865
-5.89119
-5.92407
-5.96286
-6.00527
-6.05023
-6.09594
-6.14149
-6.18749
-6.23427
-6.28053
-6.32511
-6.36795
-6.41018
-6.45244
-6.49468
-6.53577
-5.87622
-5.88582
-5.90804
-5.9406
-5.97931
-6.02171
-6.06687
-6.11317
-6.15948
-6.20606
-6.2534
-6.30042
-6.3459
-6.38952
-6.43228
-6.47487
-6.5174
-6.55887
-5.86921
-5.8797
-5.90386
-5.93909
-5.98069
-6.02565
-6.07286
-6.12097
-6.16915
-6.21741
-6.26606
-6.314
-6.36039
-6.40495
-6.44877
-6.49214
-6.53516
-6.57685
-5.84874
-5.86041
-5.88764
-5.92724
-5.9732
-6.02177
-6.07181
-6.1225
-6.17298
-6.22331
-6.27318
-6.322
-6.36898
-6.41462
-6.45936
-6.5037
-6.54696
-6.58895
-5.81834
-5.83113
-5.86272
-5.90921
-5.96119
-6.01376
-6.06688
-6.1205
-6.17387
-6.22643
-6.27772
-6.32722
-6.37494
-6.42141
-6.46714
-6.51201
-6.55548
-6.59736
-5.78132
-5.79427
-5.83113
-5.8875
-5.94725
-6.0043
-6.06065
-6.11719
-6.17312
-6.22763
-6.28019
-6.33051
-6.3791
-6.4265
-6.47308
-6.5183
-6.56182
-6.60359
-5.74015
-5.75224
-5.79659
-5.8641
-5.93071
-5.99289
-6.05431
-6.11466
-6.17276
-6.22843
-6.28167
-6.33263
-6.3819
-6.43009
-6.47711
-6.52254
-6.56595
-6.60772
-5.69501
-5.70159
-5.76706
-5.84857
-5.91493
-5.97852
-6.04564
-6.11107
-6.17194
-6.22898
-6.28304
-6.33467
-6.38454
-6.43316
-6.48034
-6.52567
-6.56891
-6.61081
-5.65292
-5.61758
-5.72983
-5.84456
-5.91164
-5.97207
-6.03997
-6.10691
-6.1688
-6.22667
-6.28148
-6.33382
-6.38436
-6.43341
-6.48071
-6.52593
-6.56907
-6.61101
-5.66776
-5.51004
-5.64142
-5.79903
-5.89447
-5.9714
-6.04599
-6.11395
-6.1754
-6.23282
-6.28713
-6.33905
-6.38924
-6.43801
-6.48485
-6.52941
-6.57192
-6.6134
-5.79089
-5.61213
-5.62933
-5.70447
-5.79778
-5.90286
-5.99947
-6.08043
-6.15088
-6.21513
-6.27437
-6.32965
-6.38243
-6.43334
-6.48179
-6.52736
-6.57056
-6.61305
-5.49842
-6.09084
-6.18301
-6.06221
-6.01259
-6.04531
-6.09815
-6.14873
-6.19929
-6.25071
-6.30101
-6.3496
-6.39745
-6.44479
-6.49043
-6.5334
-6.57393
-6.6149
-2.51034
-4.27434
-5.28151
-5.58453
-5.73867
-5.88757
-6.00727
-6.09559
-6.16897
-6.23515
-6.29509
-6.35015
-6.40257
-6.45339
-6.50181
-6.54646
-6.587
-6.62277
-7.98835
-7.97366
-7.96054
-7.96442
-7.97626
-7.99314
-8.01427
-8.03656
-8.0586
-8.07975
-8.09795
-8.11291
-8.12481
-8.13479
-8.14422
-8.15444
-8.16683
-8.18213
-8.19858
-8.21459
-8.23012
-8.25058
-8.27618
-8.3065
-8.34172
-8.38231
-8.42873
-8.48217
-8.54364
-8.61449
-8.6953
-8.78679
-8.8885
-9.00034
-9.12077
-9.24907
-9.383
-9.52179
-9.66307
-9.80639
-9.94966
-10.0929
-10.2344
-10.3745
-10.512
-10.6475
-10.78
-10.9105
-11.0379
-11.1633
-11.2858
-11.4068
-11.5251
-11.642
-11.7564
-11.8696
-11.9805
-12.0901
-12.1971
-12.3028
-12.4056
-12.5063
-12.603
-12.6966
-12.7851
-12.8691
-12.9466
-13.0179
-13.0809
-13.1357
-13.1802
-13.2142
-13.236
-13.2452
-13.2398
-13.2191
-13.1802
-13.1219
-13.041
-12.9357
-12.8027
-12.6398
-12.4441
-12.2134
-11.9454
-11.6382
-11.2896
-10.8976
-10.4608
-9.97895
-9.4528
-8.88262
-8.26868
-7.61207
-6.91429
-6.17782
-5.40555
-4.60133
-3.76934
-2.91461
-2.04223
-1.15783
-0.26701
0.624328
1.51039
2.38557
3.24456
4.0826
4.89534
5.67914
6.4308
7.1479
7.82852
8.47153
9.07624
9.64262
10.1709
10.662
11.1168
11.5368
11.9237
12.279
12.6043
12.9019
13.1737
13.4224
13.6502
13.859
14.0494
14.2227
14.3801
14.523
14.6527
14.7706
14.8778
14.9754
15.0643
15.1456
15.2201
15.2886
15.3516
15.4098
15.4636
15.5135
15.5599
15.6033
15.6441
15.6824
15.7187
15.7528
15.7853
15.8162
15.8458
15.8742
15.9014
15.9272
15.9522
15.9763
15.9995
16.0217
16.0431
16.0637
16.0833
16.1025
16.1208
16.138
16.1548
16.171
16.1864
16.2017
16.217
16.2319
16.2477
16.2657
16.2869
16.3144
16.3544
16.4127
16.5134
16.6481
-7.9966
-7.98834
-7.98498
-7.99394
-8.01139
-8.03221
-8.05252
-8.07174
-8.08973
-8.10494
-8.1162
-8.12317
-8.12653
-8.12795
-8.12844
-8.12987
-8.13344
-8.14036
-8.15
-8.1612
-8.17415
-8.18941
-8.20797
-8.23171
-8.26076
-8.29525
-8.33664
-8.3865
-8.4463
-8.51747
-8.60068
-8.69625
-8.80344
-8.92122
-9.0476
-9.18109
-9.31949
-9.46145
-9.605
-9.74929
-9.89281
-10.0353
-10.1756
-10.3139
-10.4494
-10.5826
-10.713
-10.8411
-10.9664
-11.0896
-11.2104
-11.3295
-11.4463
-11.5616
-11.6749
-11.787
-11.8972
-12.0061
-12.1132
-12.2188
-12.3222
-12.4237
-12.5221
-12.6177
-12.7092
-12.7964
-12.8782
-12.954
-13.0224
-13.0828
-13.1337
-13.1742
-13.2028
-13.2185
-13.2196
-13.2046
-13.1714
-13.1181
-13.0424
-12.9421
-12.8147
-12.6581
-12.4703
-12.2493
-11.9931
-11.6994
-11.3657
-10.9896
-10.5695
-10.1051
-9.59673
-9.04435
-8.4482
-7.80899
-7.12813
-6.40779
-5.65073
-4.86046
-4.04102
-3.19714
-2.33374
-1.4564
-0.570574
0.317679
1.20275
2.07873
2.9405
3.78289
4.60169
5.39281
6.15312
6.87979
7.57093
8.22498
8.8413
9.4195
9.95985
10.4628
10.9295
11.3612
11.7593
12.1254
12.4611
12.7683
13.0488
13.3049
13.5385
13.752
13.9473
14.1254
14.2876
14.4353
14.5698
14.6923
14.8039
14.9056
14.9986
15.0837
15.1618
15.2336
15.2998
15.3609
15.4174
15.4699
15.5188
15.5644
15.6073
15.6476
15.6854
15.7212
15.7553
15.7878
15.8188
15.8482
15.8764
15.9035
15.9294
15.9544
15.9784
16.0015
16.0236
16.0448
16.0653
16.0848
16.1035
16.1216
16.1387
16.1552
16.1715
16.1871
16.2023
16.218
16.2348
16.2532
16.2752
16.3025
16.34
16.3926
16.4841
16.5966
-8.01343
-8.01019
-8.0092
-8.01642
-8.0305
-8.04719
-8.06349
-8.07805
-8.09018
-8.09932
-8.10504
-8.10762
-8.10754
-8.10575
-8.10311
-8.10067
-8.09923
-8.09962
-8.10197
-8.10628
-8.11267
-8.12251
-8.13753
-8.16019
-8.19226
-8.23451
-8.28704
-8.34987
-8.42293
-8.5062
-8.59935
-8.70194
-8.81291
-8.93122
-9.05545
-9.18462
-9.31719
-9.45224
-9.58841
-9.7251
-9.86125
-9.99658
-10.1304
-10.2626
-10.3927
-10.521
-10.6471
-10.7713
-10.8934
-11.0138
-11.1323
-11.2492
-11.3644
-11.4782
-11.5905
-11.7016
-11.8111
-11.9195
-12.0262
-12.1316
-12.2351
-12.3367
-12.4358
-12.5323
-12.6253
-12.7145
-12.799
-12.878
-12.9506
-13.0158
-13.0723
-13.1192
-13.1551
-13.1785
-13.1879
-13.1816
-13.1575
-13.1136
-13.0478
-12.9578
-12.8413
-12.6964
-12.5211
-12.3134
-12.0712
-11.7925
-11.4748
-11.1157
-10.7134
-10.2674
-9.77782
-9.24424
-8.66685
-8.04599
-7.38315
-6.67999
-5.93938
-5.16429
-4.35886
-3.52725
-2.67446
-1.80574
-0.926632
-0.0430946
0.839251
1.71445
2.5774
3.42272
4.24617
5.04333
5.81104
6.54613
7.24669
7.91082
8.5378
9.12692
9.67841
10.1926
10.6705
11.1134
11.5229
11.9002
12.2473
12.5658
12.8578
13.1253
13.3704
13.5948
13.8002
13.9878
14.1591
14.3152
14.4576
14.5874
14.7059
14.814
14.913
15.0036
15.0868
15.1632
15.2337
15.2988
15.359
15.4149
15.4669
15.5154
15.5609
15.6035
15.6437
15.6817
15.7178
15.752
15.7844
15.8154
15.845
15.8734
15.9005
15.9266
15.9517
15.9757
15.9986
16.0207
16.0419
16.0621
16.0814
16.1001
16.1178
16.135
16.1517
16.1677
16.1836
16.2
16.2172
16.2358
16.2577
16.2845
16.3203
16.3678
16.4438
16.5196
-8.01629
-8.02224
-8.02565
-8.03252
-8.04366
-8.05611
-8.06769
-8.07749
-8.08482
-8.08934
-8.09089
-8.08981
-8.08661
-8.08212
-8.07714
-8.07267
-8.06956
-8.06874
-8.07078
-8.07639
-8.08618
-8.10133
-8.12306
-8.15289
-8.19204
-8.24133
-8.30088
-8.37055
-8.4498
-8.5381
-8.63462
-8.73864
-8.84908
-8.96513
-9.08564
-9.20989
-9.33666
-9.46533
-9.59485
-9.72482
-9.85437
-9.98336
-10.1111
-10.2378
-10.3628
-10.4864
-10.6083
-10.7288
-10.8477
-10.9653
-11.0815
-11.1965
-11.3102
-11.423
-11.5346
-11.6454
-11.7549
-11.8635
-11.9709
-12.0771
-12.1816
-12.2845
-12.3852
-12.4835
-12.5787
-12.6704
-12.7578
-12.8402
-12.9166
-12.9861
-13.0477
-13.1001
-13.1421
-13.1723
-13.189
-13.1905
-13.1748
-13.14
-13.0837
-13.0039
-12.8983
-12.7649
-12.6015
-12.4061
-12.1766
-11.9108
-11.6065
-11.2613
-10.8732
-10.4416
-9.96619
-9.44667
-8.88271
-8.27492
-7.6243
-6.93276
-6.20264
-5.43715
-4.63998
-3.8154
-2.96818
-2.10355
-1.22719
-0.344839
0.537543
1.41431
2.27993
3.1293
3.95765
4.7608
5.53511
6.27758
6.98588
7.65827
8.29366
8.89143
9.4516
9.97461
10.4614
10.9133
11.3318
11.7183
12.0746
12.4023
12.7036
12.9802
13.234
13.4667
13.6799
13.8749
14.053
14.2157
14.3642
14.4997
14.6236
14.7368
14.8405
14.9354
15.0227
15.1029
15.1769
15.2453
15.3085
15.3671
15.4217
15.4726
15.5202
15.5648
15.6069
15.6467
15.6843
15.7198
15.7536
15.7859
15.8167
15.8462
15.8743
15.9013
15.9272
15.9519
15.9757
15.9984
16.0201
16.041
16.0609
16.0801
16.0983
16.1159
16.1329
16.1493
16.1656
16.1822
16.1993
16.2178
16.2391
16.2647
16.2975
16.3379
16.3966
16.441
-7.98262
-7.99748
-8.00797
-8.0174
-8.02868
-8.04006
-8.0498
-8.05733
-8.06232
-8.0647
-8.06454
-8.06229
-8.05857
-8.05426
-8.05021
-8.04742
-8.04679
-8.04938
-8.05597
-8.0675
-8.08473
-8.10857
-8.13972
-8.17899
-8.22684
-8.28369
-8.34949
-8.42414
-8.50703
-8.59767
-8.69517
-8.79881
-8.90755
-9.02069
-9.1372
-9.25651
-9.37767
-9.50025
-9.62341
-9.74691
-9.87006
-9.99282
-10.1147
-10.2357
-10.3555
-10.4743
-10.5919
-10.7085
-10.824
-10.9386
-11.0522
-11.1651
-11.2772
-11.3888
-11.4996
-11.61
-11.7196
-11.8286
-11.9368
-12.0441
-12.1503
-12.2551
-12.3581
-12.459
-12.5572
-12.6522
-12.7433
-12.8298
-12.9108
-12.9854
-13.0525
-13.1109
-13.1595
-13.1966
-13.2209
-13.2305
-13.2236
-13.198
-13.1517
-13.0823
-12.9878
-12.8657
-12.714
-12.5304
-12.3127
-12.0588
-11.7663
-11.4327
-11.0561
-10.6358
-10.171
-9.66152
-9.10659
-8.50698
-7.86344
-7.17799
-6.45269
-5.69091
-4.89603
-4.0725
-3.22506
-2.35898
-1.48016
-0.594248
0.29245
1.17452
2.0459
2.90176
3.73677
4.54706
5.32844
6.07829
6.79374
7.47346
8.11591
8.72087
9.28805
9.81826
10.3122
10.7714
11.1968
11.5902
11.953
12.2873
12.5946
12.8772
13.1365
13.3746
13.5926
13.7923
13.9748
14.1417
14.2941
14.4336
14.561
14.6777
14.7845
14.8825
14.9726
15.0555
15.132
15.2026
15.268
15.3287
15.3851
15.4378
15.487
15.5332
15.5767
15.6177
15.6564
15.6931
15.7281
15.7613
15.7931
15.8233
15.8523
15.8799
15.9065
15.9318
15.9561
15.9794
16.0017
16.023
16.0434
16.0629
16.0816
16.0994
16.1167
16.1333
16.1497
16.1662
16.1831
16.201
16.2212
16.2446
16.2731
16.3056
16.3487
16.3682
-7.91257
-7.93801
-7.95952
-7.97459
-7.98849
-8.00105
-8.01108
-8.01833
-8.02286
-8.02497
-8.02502
-8.02363
-8.02156
-8.01977
-8.0192
-8.02083
-8.0256
-8.03444
-8.0482
-8.06773
-8.09369
-8.12677
-8.16737
-8.21586
-8.27226
-8.33662
-8.40857
-8.48784
-8.57376
-8.66589
-8.76339
-8.86573
-8.972
-9.08168
-9.19391
-9.3083
-9.42407
-9.54094
-9.65824
-9.77587
-9.89325
-10.0104
-10.1269
-10.2429
-10.3581
-10.4727
-10.5863
-10.6995
-10.8119
-10.9239
-11.0353
-11.1464
-11.2571
-11.3677
-11.4779
-11.5881
-11.698
-11.8077
-11.9169
-12.0258
-12.1339
-12.241
-12.3468
-12.451
-12.5528
-12.652
-12.7476
-12.8391
-12.9256
-13.0061
-13.0795
-13.1448
-13.2006
-13.2456
-13.2781
-13.2965
-13.2987
-13.283
-13.2469
-13.1884
-13.105
-12.9944
-12.8544
-12.6825
-12.4764
-12.2338
-11.9524
-11.6295
-11.2632
-10.8523
-10.3965
-9.89461
-9.34634
-8.75188
-8.11242
-7.42945
-6.70546
-5.94334
-5.14679
-4.32012
-3.46827
-2.59679
-1.71145
-0.818483
0.0761462
0.966319
1.84632
2.71059
3.55419
4.3726
5.16207
5.91944
6.6423
7.32892
7.97817
8.58959
9.16329
9.69986
10.2001
10.6653
11.0964
11.4951
11.8629
12.2019
12.5137
12.8004
13.0636
13.3051
13.5265
13.7293
13.9148
14.0845
14.2397
14.3817
14.5116
14.6306
14.7397
14.8399
14.932
15.0169
15.0951
15.1675
15.2344
15.2966
15.3544
15.4084
15.4588
15.5062
15.5508
15.5928
15.6325
15.6702
15.706
15.7401
15.7725
15.8035
15.8331
15.8613
15.8884
15.9143
15.9391
15.9629
15.9856
16.0074
16.0281
16.048
16.0669
16.085
16.1024
16.1192
16.1355
16.1517
16.1681
16.1852
16.2039
16.2245
16.2481
16.2726
16.3021
16.3015
-7.81787
-7.85466
-7.88873
-7.91107
-7.92905
-7.94418
-7.95602
-7.96466
-7.97048
-7.9741
-7.97619
-7.97756
-7.97912
-7.98183
-7.98669
-7.9946
-8.00646
-8.02305
-8.04508
-8.07318
-8.10786
-8.14953
-8.19836
-8.25447
-8.31765
-8.38776
-8.46426
-8.54685
-8.63479
-8.72771
-8.82479
-8.92565
-9.0295
-9.13598
-9.24439
-9.35445
-9.46554
-9.57752
-9.68983
-9.80245
-9.91492
-10.0273
-10.1393
-10.2511
-10.3623
-10.4733
-10.5838
-10.6941
-10.804
-10.914
-11.0237
-11.1335
-11.2434
-11.3535
-11.4636
-11.5742
-11.6848
-11.7956
-11.9065
-12.0174
-12.1279
-12.2379
-12.347
-12.455
-12.5611
-12.665
-12.7658
-12.8631
-12.9557
-13.0428
-13.1234
-13.1963
-13.2602
-13.3136
-13.355
-13.3827
-13.3948
-13.3892
-13.3638
-13.3163
-13.2442
-13.1452
-13.0168
-12.8565
-12.6618
-12.4303
-12.1595
-11.8467
-11.4897
-11.0875
-10.6391
-10.1434
-9.60013
-9.00905
-8.3715
-7.68877
-6.96352
-6.19843
-5.39741
-4.56477
-3.70565
-2.82592
-1.9314
-1.02873
-0.12382
0.776619
1.66705
2.54127
3.39465
4.22211
5.02031
5.78564
6.51618
7.20981
7.86589
8.48372
9.06371
9.60606
10.1119
10.5819
11.0177
11.4205
11.7924
12.1349
12.4502
12.7399
13.006
13.25
13.4739
13.6788
13.8665
14.0382
14.1954
14.3393
14.471
14.5917
14.7025
14.8043
14.8979
14.9842
15.0638
15.1374
15.2055
15.2688
15.3277
15.3827
15.4342
15.4824
15.5279
15.5707
15.6113
15.6497
15.6862
15.721
15.7541
15.7857
15.8159
15.8447
15.8723
15.8987
15.924
15.9482
15.9713
15.9935
16.0145
16.0347
16.0539
16.0722
16.0897
16.1064
16.1226
16.1385
16.1542
16.1702
16.1869
16.2044
16.223
16.2399
16.2578
16.2408
-7.71574
-7.76196
-7.80758
-7.83717
-7.85966
-7.87803
-7.89256
-7.90368
-7.91203
-7.91847
-7.92392
-7.92933
-7.93569
-7.94397
-7.95513
-7.96998
-7.98932
-8.01373
-8.0438
-8.07991
-8.12236
-8.17135
-8.22686
-8.28886
-8.35705
-8.43119
-8.5107
-8.59528
-8.68421
-8.77718
-8.87343
-8.97269
-9.07426
-9.1779
-9.28299
-9.38939
-9.49656
-9.60445
-9.71261
-9.8211
-9.92952
-10.038
-10.1463
-10.2546
-10.3627
-10.4708
-10.5788
-10.687
-10.7951
-10.9036
-11.0123
-11.1215
-11.2311
-11.3414
-11.4521
-11.5635
-11.6755
-11.7881
-11.9012
-12.0146
-12.1282
-12.2417
-12.3548
-12.4671
-12.5781
-12.6873
-12.7941
-12.8976
-12.997
-13.0914
-13.1798
-13.2609
-13.3334
-13.3959
-13.4469
-13.4844
-13.5068
-13.5119
-13.4975
-13.4612
-13.4006
-13.3133
-13.1965
-13.0477
-12.8643
-12.6436
-12.3831
-12.0799
-11.7317
-11.3371
-10.8952
-10.4049
-9.86507
-9.27613
-8.63875
-7.95467
-7.22609
-6.45608
-5.6484
-4.80761
-3.93918
-3.04896
-2.14342
-1.22896
-0.312277
0.600188
1.50207
2.38758
3.25137
4.08885
4.89614
5.67015
6.40856
7.10971
7.77259
8.3968
8.98249
9.53012
10.0406
10.5148
10.9543
11.3605
11.7354
12.0808
12.3986
12.6907
12.9589
13.2049
13.4305
13.6371
13.8263
13.9996
14.1582
14.3035
14.4366
14.5586
14.6706
14.7736
14.8683
14.9557
15.0364
15.1109
15.18
15.2442
15.304
15.3598
15.4121
15.4611
15.5072
15.5508
15.592
15.6311
15.6682
15.7035
15.7372
15.7694
15.8001
15.8295
15.8576
15.8845
15.9103
15.9349
15.9585
15.9809
16.0024
16.0228
16.0422
16.0606
16.0782
16.0949
16.1109
16.1263
16.1412
16.1559
16.1705
16.1847
16.1984
16.2081
16.2161
16.186
-7.62129
-7.67348
-7.72786
-7.76348
-7.79009
-7.81167
-7.82904
-7.843
-7.8544
-7.86426
-7.87362
-7.88348
-7.89488
-7.90872
-7.92592
-7.94717
-7.97317
-8.00436
-8.04116
-8.08379
-8.13243
-8.18708
-8.24761
-8.31389
-8.38553
-8.46227
-8.54356
-8.62912
-8.71828
-8.81078
-8.90595
-9.00358
-9.10302
-9.20415
-9.30641
-9.40974
-9.51368
-9.61827
-9.7231
-9.82829
-9.93352
-10.039
-10.1444
-10.2501
-10.3558
-10.4618
-10.568
-10.6747
-10.7817
-10.8895
-10.9978
-11.107
-11.2169
-11.3279
-11.4398
-11.5528
-11.6667
-11.7817
-11.8975
-12.0142
-12.1313
-12.249
-12.3665
-12.4838
-12.6003
-12.7154
-12.8285
-12.9389
-13.0457
-13.1479
-13.2446
-13.3344
-13.4161
-13.4882
-13.5491
-13.597
-13.63
-13.6461
-13.6429
-13.6182
-13.5693
-13.4937
-13.3886
-13.2513
-13.079
-12.8691
-12.6186
-12.3247
-11.9845
-11.5972
-11.1611
-10.6751
-10.1379
-9.54987
-8.91148
-8.22458
-7.49118
-6.71454
-5.89853
-5.04791
-4.16851
-3.26625
-2.34814
-1.42052
-0.490801
0.434727
1.349
2.24658
3.12147
3.96959
4.78651
5.56969
6.31622
7.02486
7.69427
8.32447
8.91529
9.46759
9.98189
10.4596
10.902
11.3109
11.6881
12.0357
12.3553
12.6492
12.9189
13.1665
13.3933
13.6012
13.7916
13.966
14.1257
14.2721
14.4062
14.5293
14.6423
14.7462
14.8419
14.9301
15.0116
15.087
15.1569
15.2218
15.2823
15.3388
15.3918
15.4414
15.4882
15.5324
15.5741
15.6138
15.6514
15.6873
15.7215
15.7542
15.7855
15.8154
15.844
15.8714
15.8976
15.9227
15.9467
15.9695
15.9913
16.012
16.0317
16.0503
16.0678
16.0845
16.1001
16.115
16.129
16.1422
16.1546
16.1655
16.1745
16.1776
16.1771
16.1365
-7.54453
-7.5991
-7.65864
-7.69807
-7.72758
-7.75172
-7.77155
-7.78812
-7.80246
-7.81564
-7.82873
-7.84271
-7.85861
-7.87723
-7.89944
-7.92582
-7.95699
-7.99326
-8.035
-8.08228
-8.13518
-8.19361
-8.25739
-8.3263
-8.39995
-8.47809
-8.56016
-8.64591
-8.73472
-8.8264
-8.92031
-9.0163
-9.11381
-9.21275
-9.31263
-9.41345
-9.51481
-9.61678
-9.71903
-9.82171
-9.92455
-10.0278
-10.1311
-10.2349
-10.339
-10.4437
-10.5488
-10.6548
-10.7614
-10.869
-10.9776
-11.0874
-11.1983
-11.3106
-11.4242
-11.5393
-11.6557
-11.7736
-11.8927
-12.0131
-12.1344
-12.2567
-12.3793
-12.502
-12.6244
-12.7459
-12.8659
-12.9836
-13.0981
-13.2086
-13.3139
-13.4128
-13.504
-13.586
-13.6572
-13.7157
-13.7597
-13.7869
-13.7952
-13.7821
-13.745
-13.6812
-13.5878
-13.462
-13.3008
-13.1014
-12.8607
-12.5755
-12.2435
-11.8624
-11.4316
-10.9491
-10.4138
-9.82558
-9.18525
-8.4942
-7.75481
-6.97022
-6.14455
-5.28294
-4.39121
-3.47599
-2.54405
-1.60262
-0.658811
0.280178
1.20771
2.11758
3.00437
3.86325
4.69027
5.4823
6.23691
6.95247
7.6281
8.26355
8.85899
9.41509
9.93268
10.413
10.8577
11.2687
11.6476
11.9967
12.3178
12.6129
12.8839
13.1324
13.3603
13.5691
13.7604
13.9357
14.0962
14.2435
14.3784
14.5024
14.6162
14.7209
14.8174
14.9064
14.9886
15.0647
15.1352
15.2008
15.262
15.3191
15.3726
15.4229
15.4702
15.515
15.5573
15.5974
15.6356
15.672
15.7067
15.7399
15.7717
15.8021
15.8312
15.8591
15.8858
15.9113
15.9357
15.959
15.9811
16.0021
16.022
16.0408
16.0584
16.0749
16.0902
16.1044
16.1175
16.1292
16.1393
16.147
16.1515
16.1486
16.1409
16.0916
-7.4902
-7.54485
-7.60453
-7.64542
-7.67623
-7.70177
-7.72327
-7.74179
-7.7584
-7.77421
-7.79025
-7.80746
-7.82678
-7.84894
-7.87474
-7.90466
-7.93927
-7.97881
-8.02358
-8.07358
-8.12887
-8.18929
-8.25465
-8.32472
-8.3991
-8.47754
-8.5595
-8.64477
-8.73276
-8.82331
-8.91582
-9.01022
-9.10594
-9.20298
-9.30088
-9.39967
-9.499
-9.59898
-9.69931
-9.80017
-9.90132
-10.003
-10.105
-10.2077
-10.3109
-10.415
-10.5198
-10.6256
-10.7325
-10.8406
-10.95
-11.0609
-11.1734
-11.2876
-11.4034
-11.5211
-11.6405
-11.7618
-11.8847
-12.0092
-12.1352
-12.2624
-12.3904
-12.519
-12.6477
-12.776
-12.9031
-13.0284
-13.1511
-13.2701
-13.3843
-13.4926
-13.5935
-13.6856
-13.7671
-13.8364
-13.8913
-13.9298
-13.9496
-13.9481
-13.9227
-13.8705
-13.7887
-13.6741
-13.5238
-13.3344
-13.1031
-12.8264
-12.5012
-12.1264
-11.7
-11.2202
-10.6859
-10.0967
-9.45346
-8.75739
-8.01101
-7.2176
-6.38145
-5.50811
-4.60345
-3.67465
-2.72845
-1.7728
-0.814609
0.138204
1.07928
2.00166
2.90032
3.76977
4.60655
5.40694
6.16902
6.89084
7.57199
8.2119
8.81121
9.37025
9.89039
10.3726
10.8191
11.2313
11.6116
11.9617
12.2839
12.5798
12.8516
13.1008
13.3295
13.539
13.7311
13.907
14.0684
14.2163
14.352
14.4767
14.5913
14.6967
14.7939
14.8836
14.9664
15.0432
15.1144
15.1806
15.2423
15.3001
15.3542
15.405
15.4529
15.4982
15.541
15.5817
15.6204
15.6573
15.6925
15.7262
15.7585
15.7894
15.819
15.8474
15.8746
15.9006
15.9255
15.9491
15.9716
15.993
16.0131
16.032
16.0496
16.066
16.081
16.0946
16.1067
16.1168
16.1247
16.1293
16.1296
16.1214
16.1073
16.0511
-7.45941
-7.51176
-7.56739
-7.60708
-7.63756
-7.6631
-7.68503
-7.70436
-7.72217
-7.7395
-7.75733
-7.77649
-7.79787
-7.82208
-7.84989
-7.88169
-7.91804
-7.95908
-8.00514
-8.05615
-8.11219
-8.17306
-8.2386
-8.30855
-8.38257
-8.46039
-8.54153
-8.62576
-8.71253
-8.80171
-8.89273
-8.98553
-9.07963
-9.17501
-9.27126
-9.36845
-9.46625
-9.56476
-9.66376
-9.76341
-9.86353
-9.96437
-10.0658
-10.168
-10.271
-10.375
-10.4801
-10.5864
-10.694
-10.8032
-10.914
-11.0266
-11.141
-11.2576
-11.3761
-11.4968
-11.6196
-11.7447
-11.8717
-12.0008
-12.1316
-12.2641
-12.3979
-12.5327
-12.6679
-12.8031
-12.9377
-13.0708
-13.2017
-13.3293
-13.4525
-13.5702
-13.6809
-13.783
-13.8749
-13.9547
-14.0205
-14.0699
-14.1009
-14.1106
-14.0965
-14.0556
-13.9849
-13.8811
-13.7409
-13.5611
-13.3384
-13.0692
-12.7508
-12.381
-11.9583
-11.4808
-10.9468
-10.3562
-9.70931
-9.0078
-8.25401
-7.45144
-6.60476
-5.71945
-4.80202
-3.85932
-2.89901
-1.92872
-0.956382
0.0105091
0.964657
1.89956
2.80935
3.68908
4.53464
5.34282
6.11131
6.83869
7.52427
8.16789
8.76998
9.33126
9.85296
10.3365
10.784
11.1971
11.5781
11.9289
12.2516
12.5481
12.8204
13.0703
13.2995
13.5096
13.7022
13.8789
14.0408
14.1895
14.3259
14.4513
14.5666
14.6728
14.7706
14.861
14.9445
15.0219
15.0937
15.1606
15.2229
15.2813
15.336
15.3874
15.4359
15.4817
15.5251
15.5663
15.6055
15.643
15.6787
15.7129
15.7457
15.7771
15.8072
15.8362
15.8639
15.8904
15.9157
15.9398
15.9627
15.9843
16.0047
16.0238
16.0415
16.0578
16.0725
16.0854
16.0965
16.1051
16.1108
16.1125
16.1089
16.0959
16.0763
16.0144
-7.44903
-7.49649
-7.54531
-7.58166
-7.61024
-7.63435
-7.65531
-7.67413
-7.69183
-7.70935
-7.72763
-7.74738
-7.7694
-7.79422
-7.82254
-7.85471
-7.89126
-7.93231
-7.97818
-8.02882
-8.0843
-8.14442
-8.20905
-8.27795
-8.35078
-8.4273
-8.50706
-8.58984
-8.67512
-8.76276
-8.85225
-8.94354
-9.03616
-9.13013
-9.22505
-9.321
-9.41766
-9.51518
-9.6133
-9.71224
-9.81182
-9.9123
-10.0135
-10.1159
-10.2191
-10.3237
-10.4294
-10.5368
-10.6457
-10.7564
-10.869
-10.9838
-11.1006
-11.2198
-11.3413
-11.4654
-11.5919
-11.721
-11.8524
-11.9863
-12.1222
-12.2602
-12.3999
-12.5409
-12.6828
-12.8251
-12.9671
-13.108
-13.2471
-13.3833
-13.5154
-13.6423
-13.7625
-13.8744
-13.9763
-14.0663
-14.1424
-14.2024
-14.2438
-14.2642
-14.2608
-14.2305
-14.1702
-14.0764
-13.9457
-13.7747
-13.5599
-13.2978
-12.985
-12.6201
-12.2008
-11.7252
-11.1914
-10.5991
-9.94859
-9.24148
-8.48028
-7.66855
-6.81132
-5.91407
-4.98378
-4.02725
-3.05285
-2.06813
-1.08186
-0.101353
0.865293
1.81192
2.73193
3.6209
4.47412
5.28895
6.06273
6.79456
7.48345
8.12976
8.73356
9.29618
9.81856
10.3028
10.7506
11.1642
11.5453
11.8965
12.2194
12.5163
12.7889
13.0393
13.2689
13.4796
13.6728
13.8501
14.0127
14.1621
14.2992
14.4254
14.5415
14.6484
14.747
14.838
14.9222
15.0003
15.0728
15.1404
15.2034
15.2624
15.3177
15.3697
15.4188
15.4652
15.5092
15.551
15.5908
15.6288
15.6651
15.6999
15.7332
15.7652
15.7959
15.8253
15.8536
15.8806
15.9064
15.9309
15.9542
15.9762
15.9969
16.0162
16.0339
16.0501
16.0645
16.0768
16.0869
16.0941
16.0977
16.0966
16.0895
16.0722
16.0479
15.9812
-7.45349
-7.49444
-7.53502
-7.56637
-7.59163
-7.61307
-7.63186
-7.64893
-7.66524
-7.68161
-7.69892
-7.71781
-7.73906
-7.7631
-7.79061
-7.82186
-7.85738
-7.89726
-7.94185
-7.99106
-8.04501
-8.10351
-8.16643
-8.23355
-8.30456
-8.37925
-8.45716
-8.53812
-8.62164
-8.7076
-8.79551
-8.88533
-8.97662
-9.06937
-9.16321
-9.25822
-9.35409
-9.45095
-9.54859
-9.6472
-9.74661
-9.84711
-9.94856
-10.0513
-10.1552
-10.2606
-10.3674
-10.4761
-10.5865
-10.6991
-10.8138
-10.9309
-11.0503
-11.1725
-11.2972
-11.4249
-11.5553
-11.6886
-11.8246
-11.9634
-12.1046
-12.2483
-12.3939
-12.5413
-12.6899
-12.8393
-12.9888
-13.1376
-13.2848
-13.4295
-13.5705
-13.7064
-13.8359
-13.9573
-14.0689
-14.1687
-14.2546
-14.3246
-14.376
-14.4066
-14.4132
-14.393
-14.3424
-14.258
-14.136
-13.9731
-13.7656
-13.5099
-13.2027
-12.8419
-12.4256
-11.9512
-11.417
-10.8222
-10.1675
-9.45435
-8.68524
-7.86415
-6.99595
-6.08682
-5.14343
-4.17351
-3.18508
-2.18679
-1.18707
-0.194256
0.783991
1.74063
2.66963
3.56592
4.42542
5.24505
6.02276
6.75739
7.44838
8.09589
8.70043
9.26315
9.78556
10.2696
10.7173
11.1307
11.5118
11.8629
12.1859
12.4829
12.7558
13.0065
13.2366
13.4478
13.6417
13.8197
13.9831
14.1332
14.2712
14.3982
14.5151
14.6228
14.7223
14.8141
14.8992
14.978
15.0513
15.1196
15.1834
15.2431
15.2991
15.3518
15.4016
15.4486
15.4933
15.5357
15.5761
15.6147
15.6516
15.687
15.7209
15.7535
15.7848
15.8148
15.8436
15.8711
15.8974
15.9224
15.9461
15.9685
15.9895
16.009
16.0268
16.0429
16.057
16.0688
16.0779
16.0837
16.0854
16.0817
16.0713
16.0502
16.0218
15.9514
-7.46727
-7.5006
-7.53224
-7.55755
-7.57836
-7.59601
-7.61157
-7.62589
-7.6398
-7.65397
-7.66922
-7.6861
-7.70539
-7.72747
-7.75301
-7.78223
-7.81568
-7.8534
-7.89576
-7.94267
-7.99425
-8.05029
-8.11076
-8.17541
-8.24401
-8.31635
-8.39204
-8.4709
-8.55249
-8.63668
-8.72302
-8.81142
-8.90146
-8.99314
-9.08611
-9.18039
-9.27575
-9.37225
-9.46974
-9.56834
-9.66796
-9.76881
-9.87082
-9.97426
-10.0791
-10.1856
-10.2938
-10.404
-10.5162
-10.6307
-10.7476
-10.8672
-10.9895
-11.1147
-11.2429
-11.3743
-11.5087
-11.6463
-11.787
-11.9307
-12.0773
-12.2266
-12.3783
-12.5322
-12.6876
-12.8442
-13.0012
-13.1579
-13.3132
-13.4663
-13.616
-13.7608
-13.8994
-14.0299
-14.1509
-14.2599
-14.3553
-14.4346
-14.4957
-14.5355
-14.5517
-14.5406
-14.499
-14.4229
-14.3087
-14.1527
-13.9517
-13.7011
-13.3984
-13.0408
-12.6261
-12.1517
-11.6158
-11.0178
-10.358
-9.63821
-8.86094
-8.03042
-7.15149
-6.23072
-5.27479
-4.29214
-3.29079
-2.28022
-1.26871
-0.265414
0.722355
1.68687
2.62265
3.52406
4.38764
5.21006
5.98981
6.72545
7.41696
8.06417
8.66825
9.23001
9.75165
10.2347
10.6818
11.0944
11.4753
11.826
12.1491
12.4461
12.7194
12.9704
13.2011
13.413
13.6077
13.7864
13.9508
14.1019
14.2409
14.3689
14.4868
14.5956
14.696
14.7888
14.8748
14.9546
15.0288
15.0979
15.1626
15.2231
15.2799
15.3334
15.3839
15.4317
15.4771
15.5202
15.5613
15.6006
15.6382
15.6742
15.7088
15.742
15.7739
15.8045
15.8338
15.8619
15.8887
15.9143
15.9384
15.9612
15.9825
16.0022
16.0202
16.0362
16.0501
16.0613
16.0695
16.074
16.0739
16.0679
16.0546
16.0301
15.998
15.9245
-7.48645
-7.51178
-7.53462
-7.55341
-7.56885
-7.58174
-7.59298
-7.60338
-7.6137
-7.62455
-7.63668
-7.65053
-7.66683
-7.68588
-7.70838
-7.7345
-7.76479
-7.79926
-7.83832
-7.88188
-7.93013
-7.98292
-8.04023
-8.10188
-8.16763
-8.2373
-8.31052
-8.38714
-8.46669
-8.54909
-8.63382
-8.72087
-8.80975
-8.90052
-8.99273
-9.08652
-9.18152
-9.2779
-9.3754
-9.47426
-9.57426
-9.67571
-9.77845
-9.88286
-9.98878
-10.0967
-10.2063
-10.3183
-10.4324
-10.5493
-10.6686
-10.791
-10.9161
-11.0447
-11.1763
-11.3115
-11.45
-11.5922
-11.7375
-11.8865
-12.0384
-12.1936
-12.3514
-12.5117
-12.6739
-12.8376
-13.0019
-13.1662
-13.3295
-13.4908
-13.6488
-13.8023
-13.9494
-14.0888
-14.2182
-14.3361
-14.4403
-14.5283
-14.5979
-14.6464
-14.6707
-14.6677
-14.6336
-14.5644
-14.4565
-14.3063
-14.1098
-13.8635
-13.5637
-13.208
-12.7936
-12.3181
-11.7796
-11.1776
-10.5125
-9.7859
-9.00077
-8.16106
-7.27224
-6.34055
-5.37363
-4.37965
-3.3677
-2.34687
-1.32645
-0.315066
0.679104
1.649
2.58848
3.49262
4.35758
5.1807
5.96022
6.69518
7.38536
8.03105
8.63326
9.19339
9.71337
10.1952
10.641
11.0529
11.4331
11.7836
12.1066
12.4039
12.6775
12.9291
13.1606
13.3734
13.5691
13.7491
13.9146
14.067
14.2073
14.3366
14.4557
14.5657
14.6673
14.7614
14.8485
14.9294
15.0047
15.0749
15.1405
15.202
15.2598
15.3142
15.3655
15.4142
15.4604
15.5043
15.5462
15.5862
15.6246
15.6613
15.6966
15.7305
15.763
15.7942
15.8242
15.8529
15.8803
15.9063
15.931
15.9542
15.9759
15.9959
16.014
16.03
16.0436
16.0544
16.0618
16.0651
16.0633
16.0552
16.0392
16.0117
15.9764
15.9004
-7.50549
-7.52424
-7.53928
-7.55164
-7.5613
-7.56871
-7.57476