/*--------------------------------*- C++ -*----------------------------------*\
  =========                 |
  \\      /  F ield         | OpenFOAM: The Open Source CFD Toolbox
   \\    /   O peration     | Website:  https://openfoam.org
    \\  /    A nd           | Version:  8
     \\/     M anipulation  |
\*---------------------------------------------------------------------------*/
FoamFile
{
    version     2.0;
    format      ascii;
    class       surfaceScalarField;
    location    "75";
    object      phi;
}
// * * * * * * * * * * * * * * * * * * * * * * * * * * * * * * * * * * * * * //

dimensions      [0 3 -1 0 0 0 0];

internalField   nonuniform List<scalar> 
24170
(
3.12884e-06
5.95692e-08
3.04647e-06
8.23787e-08
2.97318e-06
7.33034e-08
2.90425e-06
6.89381e-08
2.83953e-06
6.47203e-08
2.78173e-06
5.78189e-08
2.73183e-06
4.99105e-08
2.68917e-06
4.26623e-08
2.65266e-06
3.65217e-08
2.62121e-06
3.14611e-08
2.5938e-06
2.74285e-08
2.56948e-06
2.43288e-08
2.54748e-06
2.20216e-08
2.52695e-06
2.0542e-08
2.50712e-06
1.98394e-08
2.48556e-06
2.15766e-08
2.46208e-06
2.3493e-08
4.73596e-08
2.41474e-06
3.45313e-06
2.36888e-08
3.45698e-06
7.85463e-08
3.45042e-06
7.9866e-08
3.43884e-06
8.054e-08
3.42386e-06
7.97024e-08
3.40636e-06
7.53343e-08
3.3868e-06
6.94839e-08
3.36585e-06
6.3633e-08
3.34417e-06
5.82167e-08
3.32233e-06
5.33098e-08
3.3008e-06
4.89751e-08
3.27982e-06
4.53254e-08
3.25955e-06
4.23143e-08
3.23993e-06
4.01803e-08
3.22106e-06
3.87241e-08
3.20263e-06
4.00224e-08
3.18519e-06
4.0951e-08
5.72003e-08
3.17537e-06
3.66824e-06
1.79695e-08
3.6791e-06
6.769e-08
3.68522e-06
7.37494e-08
3.6891e-06
7.66641e-08
3.69048e-06
7.83263e-08
3.68924e-06
7.65812e-08
3.68575e-06
7.29746e-08
3.68048e-06
6.89101e-08
3.6738e-06
6.49029e-08
3.66602e-06
6.11008e-08
3.65738e-06
5.76204e-08
3.6481e-06
5.46142e-08
3.63831e-06
5.21111e-08
3.62811e-06
5.03906e-08
3.61744e-06
4.94047e-08
3.60684e-06
5.06362e-08
3.59516e-06
5.26307e-08
6.18842e-08
3.59049e-06
3.92584e-06
1.75193e-08
3.93581e-06
5.77327e-08
3.94232e-06
6.7241e-08
3.94768e-06
7.13198e-08
3.95184e-06
7.41665e-08
3.95448e-06
7.39533e-08
3.95577e-06
7.16974e-08
3.95594e-06
6.8749e-08
3.95517e-06
6.56811e-08
3.95359e-06
6.26905e-08
3.95132e-06
5.99095e-08
3.94843e-06
5.75095e-08
3.945e-06
5.55576e-08
3.94109e-06
5.43107e-08
3.93668e-06
5.38299e-08
3.93232e-06
5.50142e-08
3.9277e-06
5.72604e-08
6.2719e-08
3.92688e-06
4.20815e-06
1.64929e-08
4.21586e-06
5.00318e-08
4.22141e-06
6.16911e-08
4.22631e-06
6.64266e-08
4.23078e-06
6.96913e-08
4.23442e-06
7.03241e-08
4.23717e-06
6.89449e-08
4.23916e-06
6.67671e-08
4.24046e-06
6.43786e-08
4.24116e-06
6.19944e-08
4.24132e-06
5.97551e-08
4.24101e-06
5.78309e-08
4.24025e-06
5.63178e-08
4.23914e-06
5.54255e-08
4.23772e-06
5.52541e-08
4.23645e-06
5.62936e-08
4.23547e-06
5.82463e-08
6.15454e-08
4.23665e-06
4.51065e-06
1.49352e-08
4.51675e-06
4.39381e-08
4.52184e-06
5.66077e-08
4.52643e-06
6.18422e-08
4.53085e-06
6.52752e-08
4.53474e-06
6.64434e-08
4.53798e-06
6.57148e-08
4.54062e-06
6.41316e-08
4.54273e-06
6.22749e-08
4.54436e-06
6.03729e-08
4.54555e-06
5.8573e-08
4.54636e-06
5.70349e-08
4.54682e-06
5.58677e-08
4.54702e-06
5.52317e-08
4.54706e-06
5.52175e-08
4.54731e-06
5.60568e-08
4.54802e-06
5.75446e-08
5.94949e-08
4.55007e-06
4.83426e-06
1.33921e-08
4.83949e-06
3.8718e-08
4.84444e-06
5.1652e-08
4.84891e-06
5.73762e-08
4.85324e-06
6.09501e-08
4.85718e-06
6.25069e-08
4.86059e-06
6.23005e-08
4.86352e-06
6.12074e-08
4.866e-06
5.97922e-08
4.86809e-06
5.82932e-08
4.8698e-06
5.6861e-08
4.8712e-06
5.56429e-08
4.87232e-06
5.47482e-08
4.87326e-06
5.42921e-08
4.87415e-06
5.43362e-08
4.87525e-06
5.49589e-08
4.87682e-06
5.59788e-08
5.70438e-08
4.87927e-06
5.18099e-06
1.1988e-08
5.18561e-06
3.41057e-08
5.19044e-06
4.68281e-08
5.19484e-06
5.29752e-08
5.19911e-06
5.66892e-08
5.20308e-06
5.85463e-08
5.2066e-06
5.87808e-08
5.2097e-06
5.81156e-08
5.21242e-06
5.70853e-08
5.21478e-06
5.59366e-08
5.21683e-06
5.48217e-08
5.2186e-06
5.3874e-08
5.22016e-06
5.31932e-08
5.2216e-06
5.28586e-08
5.22305e-06
5.29005e-08
5.2247e-06
5.3312e-08
5.22675e-06
5.3932e-08
5.44024e-08
5.22939e-06
5.55264e-06
1.06895e-08
5.55674e-06
3.00061e-08
5.56137e-06
4.21961e-08
5.56573e-06
4.86164e-08
5.56997e-06
5.24517e-08
5.57398e-06
5.45424e-08
5.57761e-06
5.5154e-08
5.58085e-06
5.48735e-08
5.58375e-06
5.419e-08
5.58634e-06
5.33552e-08
5.58864e-06
5.25202e-08
5.59071e-06
5.18042e-08
5.59262e-06
5.12938e-08
5.59444e-06
5.10407e-08
5.59629e-06
5.10507e-08
5.59833e-06
5.12792e-08
5.60068e-06
5.1584e-08
5.16627e-08
5.60342e-06
5.95099e-06
9.47947e-09
5.95463e-06
2.63665e-08
5.95903e-06
3.78048e-08
5.96334e-06
4.43183e-08
5.96756e-06
4.82368e-08
5.97161e-06
5.05037e-08
5.97534e-06
5.14313e-08
5.97873e-06
5.14937e-08
5.9818e-06
5.1123e-08
5.9846e-06
5.05711e-08
5.98714e-06
4.99838e-08
5.98948e-06
4.94694e-08
5.99169e-06
4.90963e-08
5.99383e-06
4.88998e-08
5.99602e-06
4.88704e-08
5.99835e-06
4.89512e-08
6.00091e-06
4.903e-08
4.8869e-08
6.0037e-06
6.37793e-06
8.35883e-09
6.3812e-06
2.31064e-08
6.38535e-06
3.36507e-08
6.38959e-06
4.00824e-08
6.3938e-06
4.40349e-08
6.39788e-06
4.64255e-08
6.40171e-06
4.76068e-08
6.40524e-06
4.79663e-08
6.4085e-06
4.78759e-08
6.4115e-06
4.75754e-08
6.41428e-06
4.72098e-08
6.41688e-06
4.68701e-08
6.41937e-06
4.66144e-08
6.42181e-06
4.64622e-08
6.42428e-06
4.64019e-08
6.42686e-06
4.6379e-08
6.42958e-06
4.63117e-08
4.60132e-08
6.43244e-06
5.74172e-06
7.47516e-09
5.74422e-06
2.06134e-08
5.74754e-06
3.03288e-08
5.75107e-06
3.65631e-08
5.75461e-06
4.0499e-08
5.75809e-06
4.29557e-08
5.7614e-06
4.43014e-08
5.7645e-06
4.48722e-08
5.76739e-06
4.49904e-08
5.77009e-06
4.48806e-08
5.77262e-06
4.46785e-08
5.77503e-06
4.44693e-08
5.77734e-06
4.42988e-08
5.77962e-06
4.41852e-08
5.78191e-06
4.41106e-08
5.78425e-06
4.40331e-08
5.78667e-06
4.38891e-08
4.35364e-08
5.78915e-06
6.99909e-06
6.54204e-09
7.00174e-06
1.79706e-08
7.00535e-06
2.67191e-08
7.0093e-06
3.26191e-08
7.01334e-06
3.64635e-08
7.01736e-06
3.89448e-08
7.02124e-06
4.04253e-08
7.02492e-06
4.11934e-08
7.0284e-06
4.1517e-08
7.03169e-06
4.15969e-08
7.03481e-06
4.15596e-08
7.03779e-06
4.14826e-08
7.04069e-06
4.14038e-08
7.04353e-06
4.13338e-08
7.04638e-06
4.12625e-08
7.04925e-06
4.11562e-08
7.05216e-06
4.09788e-08
4.06083e-08
7.05508e-06
8.53183e-06
5.56183e-09
8.5346e-06
1.52029e-08
8.53848e-06
2.28427e-08
8.54285e-06
2.82435e-08
8.54743e-06
3.18947e-08
8.55204e-06
3.4334e-08
8.55657e-06
3.58991e-08
8.56093e-06
3.683e-08
8.56511e-06
3.73415e-08
8.56911e-06
3.76003e-08
8.57294e-06
3.77262e-08
8.57664e-06
3.77807e-08
8.58024e-06
3.77997e-08
8.58378e-06
3.7789e-08
8.58729e-06
3.77455e-08
8.5908e-06
3.76479e-08
8.59429e-06
3.74802e-08
3.71424e-08
8.59775e-06
1.04002e-05
4.54193e-09
1.04031e-05
1.23218e-08
1.04073e-05
1.87092e-08
1.04121e-05
2.34277e-08
1.04172e-05
2.67497e-08
1.04225e-05
2.90578e-08
1.04278e-05
3.06296e-08
1.04329e-05
3.16676e-08
1.04379e-05
3.233e-08
1.04428e-05
3.27522e-08
1.04475e-05
3.30257e-08
1.0452e-05
3.3214e-08
1.04565e-05
3.33376e-08
1.04609e-05
3.34099e-08
1.04652e-05
3.34245e-08
1.04695e-05
3.33798e-08
1.04737e-05
3.32679e-08
3.30123e-08
1.04778e-05
1.26779e-05
3.47701e-09
1.26809e-05
9.3144e-09
1.26853e-05
1.42967e-08
1.26906e-05
1.81368e-08
1.26964e-05
2.09633e-08
1.27024e-05
2.30166e-08
1.27085e-05
2.44988e-08
1.27146e-05
2.55629e-08
1.27206e-05
2.63254e-08
1.27265e-05
2.68746e-08
1.27322e-05
2.72842e-08
1.27379e-05
2.7598e-08
1.27434e-05
2.78414e-08
1.27488e-05
2.80171e-08
1.27541e-05
2.81308e-08
1.27592e-05
2.81783e-08
1.27643e-05
2.81705e-08
2.8035e-08
1.27693e-05
1.54543e-05
2.34919e-09
1.54575e-05
6.1143e-09
1.54623e-05
9.51602e-09
1.54682e-05
1.22673e-08
1.54747e-05
1.44029e-08
1.54817e-05
1.60504e-08
1.54889e-05
1.73242e-08
1.54961e-05
1.83208e-08
1.55033e-05
1.91117e-08
1.55104e-05
1.97479e-08
1.55175e-05
2.02692e-08
1.55244e-05
2.07071e-08
1.55311e-05
2.10772e-08
1.55378e-05
2.13849e-08
1.55443e-05
2.16306e-08
1.55506e-05
2.18158e-08
1.55569e-05
2.19511e-08
2.19786e-08
1.55629e-05
1.88389e-05
1.1025e-09
1.88424e-05
2.57446e-09
1.88478e-05
4.15103e-09
1.88545e-05
5.5655e-09
1.88621e-05
6.79153e-09
1.88703e-05
7.8595e-09
1.88788e-05
8.79584e-09
1.88875e-05
9.62605e-09
1.88963e-05
1.0374e-08
1.8905e-05
1.1052e-08
1.89136e-05
1.16683e-08
1.89221e-05
1.22299e-08
1.89304e-05
1.27422e-08
1.89386e-05
1.32049e-08
1.89466e-05
1.36174e-08
1.89545e-05
1.39783e-08
1.89621e-05
1.42953e-08
1.45176e-08
1.89696e-05
2.29648e-05
-3.91857e-10
2.2969e-05
-1.62705e-09
2.29755e-05
-2.27679e-09
2.29836e-05
-2.52994e-09
2.29928e-05
-2.4559e-09
2.30028e-05
-2.14012e-09
2.30133e-05
-1.66008e-09
2.3024e-05
-1.07505e-09
2.30348e-05
-4.13534e-10
2.30456e-05
2.87612e-10
2.30563e-05
1.00726e-09
2.30668e-05
1.71415e-09
2.30771e-05
2.40208e-09
2.30873e-05
3.05606e-09
2.30972e-05
3.67995e-09
2.3107e-05
4.26064e-09
2.31164e-05
4.80689e-09
5.26698e-09
2.31257e-05
1.68119e-05
-1.59067e-09
1.68152e-05
-4.93884e-09
1.68203e-05
-7.35324e-09
1.68267e-05
-8.88431e-09
1.68339e-05
-9.63929e-09
1.68416e-05
-9.835e-09
1.68496e-05
-9.66221e-09
1.68578e-05
-9.21741e-09
1.68659e-05
-8.5947e-09
1.68741e-05
-7.84233e-09
1.68821e-05
-7.03296e-09
1.689e-05
-6.19052e-09
1.68978e-05
-5.36167e-09
1.69054e-05
-4.5406e-09
1.69128e-05
-3.75644e-09
1.69201e-05
-2.99705e-09
1.69272e-05
-2.2849e-09
-1.64063e-09
1.69341e-05
1.46357e-05
-2.74819e-09
1.4639e-05
-8.17683e-09
1.4644e-05
-1.23326e-08
1.46501e-05
-1.50089e-08
1.46569e-05
-1.64215e-08
1.46641e-05
-1.70136e-08
1.46715e-05
-1.70455e-08
1.46789e-05
-1.66671e-08
1.46864e-05
-1.59998e-08
1.46937e-05
-1.51647e-08
1.47009e-05
-1.42273e-08
1.4708e-05
-1.32524e-08
1.47149e-05
-1.22644e-08
1.47216e-05
-1.1293e-08
1.47282e-05
-1.03405e-08
1.47346e-05
-9.42722e-09
1.47409e-05
-8.5486e-09
-7.74845e-09
1.4747e-05
1.27412e-05
-3.83682e-09
1.27445e-05
-1.14579e-08
1.27496e-05
-1.74271e-08
1.27556e-05
-2.10329e-08
1.27621e-05
-2.28899e-08
1.27689e-05
-2.37682e-08
1.27758e-05
-2.39229e-08
1.27826e-05
-2.35103e-08
1.27894e-05
-2.27363e-08
1.2796e-05
-2.17586e-08
1.28025e-05
-2.06723e-08
1.28087e-05
-1.95393e-08
1.28149e-05
-1.83926e-08
1.28209e-05
-1.72636e-08
1.28267e-05
-1.61552e-08
1.28323e-05
-1.50928e-08
1.28379e-05
-1.4068e-08
-1.31192e-08
1.28432e-05
1.10918e-05
-4.7537e-09
1.10952e-05
-1.48267e-08
1.11006e-05
-2.28113e-08
1.11066e-05
-2.70237e-08
1.11128e-05
-2.90915e-08
1.11192e-05
-3.01397e-08
1.11256e-05
-3.03076e-08
1.11319e-05
-2.97757e-08
1.1138e-05
-2.88403e-08
1.11439e-05
-2.76954e-08
1.11497e-05
-2.6439e-08
1.11553e-05
-2.51313e-08
1.11607e-05
-2.3823e-08
1.1166e-05
-2.25289e-08
1.11711e-05
-2.12782e-08
1.11761e-05
-2.00661e-08
1.1181e-05
-1.89135e-08
-1.78255e-08
1.11857e-05
9.65588e-06
-5.42364e-09
9.65945e-06
-1.83948e-08
9.66504e-06
-2.83928e-08
9.67088e-06
-3.28603e-08
9.67687e-06
-3.50823e-08
9.68296e-06
-3.62205e-08
9.6889e-06
-3.62436e-08
9.69462e-06
-3.54887e-08
9.70013e-06
-3.43501e-08
9.70546e-06
-3.30172e-08
9.7106e-06
-3.15775e-08
9.71557e-06
-3.00933e-08
9.72038e-06
-2.86132e-08
9.72501e-06
-2.71633e-08
9.7295e-06
-2.57567e-08
9.73384e-06
-2.44071e-08
9.73805e-06
-2.31178e-08
-2.18969e-08
9.74212e-06
8.40536e-06
-5.43247e-09
8.40983e-06
-2.28643e-08
8.41529e-06
-3.38498e-08
8.42062e-06
-3.81911e-08
8.42637e-06
-4.08344e-08
8.43225e-06
-4.20935e-08
8.43788e-06
-4.18729e-08
8.4432e-06
-4.08105e-08
8.44826e-06
-3.94027e-08
8.45306e-06
-3.78244e-08
8.45764e-06
-3.61492e-08
8.462e-06
-3.44472e-08
8.46616e-06
-3.2766e-08
8.47013e-06
-3.11325e-08
8.47394e-06
-2.95566e-08
8.47758e-06
-2.80495e-08
8.48108e-06
-2.66138e-08
-2.52627e-08
8.48445e-06
7.31456e-06
-2.7045e-09
7.32136e-06
-2.96719e-08
7.32712e-06
-3.96022e-08
7.33234e-06
-4.34119e-08
7.33807e-06
-4.65672e-08
7.3438e-06
-4.78215e-08
7.34915e-06
-4.72234e-08
7.3541e-06
-4.57614e-08
7.35868e-06
-4.39811e-08
7.36289e-06
-4.20364e-08
7.36676e-06
-4.00187e-08
7.37031e-06
-3.79973e-08
7.37359e-06
-3.60399e-08
7.37662e-06
-3.41581e-08
7.37942e-06
-3.23638e-08
7.38204e-06
-3.06635e-08
7.38449e-06
-2.90592e-08
-2.75571e-08
7.38679e-06
6.36248e-06
4.87687e-09
6.37205e-06
-3.92343e-08
6.37964e-06
-4.71966e-08
6.38651e-06
-5.02796e-08
6.39308e-06
-5.31418e-08
6.39874e-06
-5.34815e-08
6.40344e-06
-5.19209e-08
6.40738e-06
-4.96997e-08
6.41069e-06
-4.7293e-08
6.41343e-06
-4.47882e-08
6.41568e-06
-4.22596e-08
6.41749e-06
-3.98054e-08
6.41891e-06
-3.74682e-08
6.42002e-06
-3.52675e-08
6.42086e-06
-3.32087e-08
6.42149e-06
-3.12912e-08
6.42196e-06
-2.95223e-08
-2.78799e-08
6.4223e-06
5.54133e-06
9.0111e-09
5.55044e-06
-4.83454e-08
5.55858e-06
-5.53361e-08
5.56648e-06
-5.81699e-08
5.57317e-06
-5.98375e-08
5.57777e-06
-5.80925e-08
5.58035e-06
-5.44964e-08
5.58128e-06
-5.0639e-08
5.58095e-06
-4.69672e-08
5.57964e-06
-4.34734e-08
5.57757e-06
-4.01875e-08
5.57492e-06
-3.7157e-08
5.57183e-06
-3.43897e-08
5.56844e-06
-3.18731e-08
5.56482e-06
-2.9599e-08
5.56108e-06
-2.75569e-08
5.55732e-06
-2.57418e-08
-2.41189e-08
5.55356e-06
4.86019e-06
-2.35768e-08
4.86543e-06
-5.35808e-08
4.86536e-06
-5.52633e-08
4.86242e-06
-5.52269e-08
4.85741e-06
-5.48356e-08
4.85012e-06
-5.08105e-08
4.8407e-06
-4.50706e-08
4.82961e-06
-3.95603e-08
4.81739e-06
-3.47506e-08
4.80453e-06
-3.06027e-08
4.79139e-06
-2.70459e-08
4.77825e-06
-2.40244e-08
4.7653e-06
-2.14517e-08
4.75268e-06
-1.9259e-08
4.74047e-06
-1.7396e-08
4.72875e-06
-1.58321e-08
4.71761e-06
-1.46045e-08
-1.42408e-08
4.70775e-06
4.1791e-06
4.12552e-06
4.07026e-06
4.01503e-06
3.96019e-06
3.90938e-06
3.86431e-06
3.82475e-06
3.79e-06
3.7594e-06
3.73235e-06
3.70832e-06
3.68687e-06
3.66761e-06
3.65021e-06
3.63438e-06
3.61978e-06
3.60554e-06
3.93225e-08
-3.94893e-08
1.00413e-07
-6.11986e-08
1.62656e-07
-6.23945e-08
2.21127e-07
-5.85809e-08
2.74647e-07
-5.36689e-08
3.26774e-07
-5.22946e-08
3.7521e-07
-4.86621e-08
4.1167e-07
-3.66963e-08
4.39266e-07
-2.78257e-08
4.5714e-07
-1.8125e-08
4.63306e-07
-6.37863e-09
4.58058e-07
4.99765e-09
4.4274e-07
1.51309e-08
4.18752e-07
2.38237e-08
3.82031e-07
3.66048e-08
3.42078e-07
3.98906e-08
3.05373e-07
3.65772e-08
2.67954e-07
3.73292e-08
2.30677e-07
3.71302e-08
1.91108e-07
3.94743e-08
1.44333e-07
4.66282e-08
8.8253e-08
5.60408e-08
2.37367e-08
6.44132e-08
-4.79707e-08
7.17493e-08
-1.28137e-07
8.00996e-08
-2.17382e-07
8.93265e-08
-3.16289e-07
9.88269e-08
-4.24294e-07
1.0808e-07
-5.40734e-07
1.16349e-07
-6.63851e-07
1.2315e-07
-7.92162e-07
1.28178e-07
-9.23591e-07
1.31398e-07
-1.05653e-06
1.32788e-07
-1.18916e-06
1.32526e-07
-1.32017e-06
1.30847e-07
-1.44838e-06
1.28067e-07
-1.57299e-06
1.24449e-07
-1.69341e-06
1.2028e-07
-1.80931e-06
1.15775e-07
-1.92058e-06
1.11149e-07
-2.02722e-06
1.06543e-07
-2.12942e-06
1.02094e-07
-2.22736e-06
9.78736e-08
-2.32142e-06
9.39561e-08
-2.41183e-06
9.03607e-08
-2.49905e-06
8.71174e-08
-2.58331e-06
8.42165e-08
-2.66508e-06
8.16609e-08
-2.74454e-06
7.94241e-08
-2.82215e-06
7.74949e-08
-2.89802e-06
7.58416e-08
-2.97259e-06
7.44431e-08
-3.0459e-06
7.32683e-08
-3.11833e-06
7.22966e-08
-3.18986e-06
7.14948e-08
-3.26085e-06
7.0836e-08
-3.3312e-06
7.0293e-08
-3.40121e-06
6.98426e-08
-3.47071e-06
6.94587e-08
-3.54e-06
6.91115e-08
-3.60884e-06
6.87845e-08
-3.67746e-06
6.84523e-08
-3.74557e-06
6.80995e-08
-3.81341e-06
6.76909e-08
-3.88061e-06
6.72141e-08
-3.94737e-06
6.66263e-08
-4.01326e-06
6.59209e-08
-4.07842e-06
6.50499e-08
-4.14236e-06
6.40106e-08
-4.20517e-06
6.27496e-08
-4.26633e-06
6.12643e-08
-4.32584e-06
5.94961e-08
-4.38316e-06
5.74345e-08
-4.43821e-06
5.50194e-08
-4.49038e-06
5.22467e-08
-4.53952e-06
4.90502e-08
-4.58491e-06
4.54298e-08
-4.62629e-06
4.13155e-08
-4.66286e-06
3.66917e-08
-4.69432e-06
3.14606e-08
-4.71977e-06
2.56258e-08
-4.73884e-06
1.91574e-08
-4.7508e-06
1.22157e-08
-4.75577e-06
5.04205e-09
-4.75366e-06
-1.82903e-09
-4.74509e-06
-8.4377e-09
-4.72964e-06
-1.50637e-08
-4.70728e-06
-2.19004e-08
-4.67759e-06
-2.89732e-08
-4.64025e-06
-3.62085e-08
-4.5954e-06
-4.37517e-08
-4.54285e-06
-5.15189e-08
-4.48242e-06
-5.94641e-08
-4.41393e-06
-6.75656e-08
-4.33739e-06
-7.56734e-08
-4.25285e-06
-8.37138e-08
-4.16039e-06
-9.17062e-08
-4.06019e-06
-9.95068e-08
-3.95251e-06
-1.07071e-07
-3.83764e-06
-1.1435e-07
-3.7159e-06
-1.21289e-07
-3.58773e-06
-1.2779e-07
-3.45357e-06
-1.33806e-07
-3.31394e-06
-1.39286e-07
-3.16936e-06
-1.4419e-07
-3.02045e-06
-1.48479e-07
-2.86782e-06
-1.52127e-07
-2.71216e-06
-1.55092e-07
-2.55415e-06
-1.57384e-07
-2.3945e-06
-1.58985e-07
-2.2339e-06
-1.59928e-07
-2.07303e-06
-1.60185e-07
-1.91258e-06
-1.59823e-07
-1.75314e-06
-1.58834e-07
-1.59531e-06
-1.57306e-07
-1.43957e-06
-1.55241e-07
-1.28643e-06
-1.52746e-07
-1.13629e-06
-1.4984e-07
-9.89474e-07
-1.46654e-07
-8.46173e-07
-1.43153e-07
-7.06525e-07
-1.39415e-07
-5.70663e-07
-1.35472e-07
-4.38838e-07
-1.31366e-07
-3.11149e-07
-1.27217e-07
-1.87359e-07
-1.23446e-07
-6.72362e-08
-1.19896e-07
5.01994e-08
-1.1741e-07
1.64613e-07
-1.14498e-07
2.74075e-07
-1.09731e-07
3.78221e-07
-1.04487e-07
4.76959e-07
-9.92407e-08
5.70523e-07
-9.41075e-08
6.59056e-07
-8.92077e-08
7.42879e-07
-8.45154e-08
8.22163e-07
-8.00757e-08
8.97223e-07
-7.5849e-08
9.68237e-07
-7.18745e-08
1.03548e-06
-6.81068e-08
1.09912e-06
-6.45528e-08
1.1594e-06
-6.11824e-08
1.21654e-06
-5.80106e-08
1.27078e-06
-5.50273e-08
1.32229e-06
-5.22161e-08
1.37123e-06
-4.95686e-08
1.41776e-06
-4.70869e-08
1.46203e-06
-4.47698e-08
1.50418e-06
-4.26035e-08
1.54436e-06
-4.05862e-08
1.5827e-06
-3.86988e-08
1.61931e-06
-3.69377e-08
1.65432e-06
-3.53115e-08
1.68785e-06
-3.38094e-08
1.72002e-06
-3.24217e-08
1.75093e-06
-3.11447e-08
1.78067e-06
-2.99676e-08
1.80935e-06
-2.88906e-08
1.83707e-06
-2.79165e-08
1.8639e-06
-2.70119e-08
1.8899e-06
-2.61803e-08
1.91516e-06
-2.54218e-08
1.93973e-06
-2.47314e-08
1.96368e-06
-2.41014e-08
1.98705e-06
-2.35168e-08
2.0099e-06
-2.29842e-08
2.03224e-06
-2.24751e-08
2.05409e-06
-2.19883e-08
2.0755e-06
-2.15354e-08
2.09643e-06
-2.1053e-08
2.11684e-06
-2.05289e-08
2.13668e-06
-1.9962e-08
2.15584e-06
-1.92777e-08
2.17411e-06
-1.83915e-08
2.19125e-06
-1.72572e-08
2.2068e-06
-1.56621e-08
2.21988e-06
-1.31897e-08
2.22908e-06
-9.29713e-09
2.2295e-06
-5.2654e-10
2.21223e-06
1.71722e-08
2.15647e-06
5.56568e-08
1.2042e-07
2.03595e-06
6.59642e-08
-1.05621e-07
1.3343e-07
-1.28774e-07
1.89742e-07
-1.1883e-07
2.35813e-07
-1.04738e-07
2.72176e-07
-9.0142e-08
2.95624e-07
-7.58419e-08
3.08119e-07
-6.12745e-08
3.16084e-07
-4.47722e-08
3.1597e-07
-2.7824e-08
3.08317e-07
-1.05901e-08
2.94999e-07
6.83357e-09
2.76038e-07
2.38473e-08
2.51095e-07
3.9983e-08
2.19969e-07
5.48717e-08
1.87971e-07
6.8535e-08
1.47705e-07
8.01062e-08
9.33766e-08
9.08373e-08
3.02784e-08
1.00371e-07
-4.28445e-08
1.1018e-07
-1.25e-07
1.21579e-07
-2.1466e-07
1.36237e-07
-3.11801e-07
1.53154e-07
-4.17881e-07
1.70465e-07
-5.33581e-07
1.87449e-07
-6.57131e-07
2.03631e-07
-7.86486e-07
2.18686e-07
-9.19771e-07
2.32091e-07
-1.05488e-06
2.43202e-07
-1.19005e-06
2.51486e-07
-1.32357e-06
2.56661e-07
-1.45414e-06
2.58704e-07
-1.58061e-06
2.57844e-07
-1.70232e-06
2.54436e-07
-1.81878e-06
2.48938e-07
-1.92986e-06
2.41852e-07
-2.03554e-06
2.33675e-07
-2.13602e-06
2.24848e-07
-2.23157e-06
2.15755e-07
-2.32256e-06
2.06695e-07
-2.40938e-06
1.97909e-07
-2.49245e-06
1.89561e-07
-2.57219e-06
1.8177e-07
-2.64896e-06
1.74597e-07
-2.72313e-06
1.6808e-07
-2.79503e-06
1.62215e-07
-2.86496e-06
1.56991e-07
-2.93315e-06
1.52371e-07
-2.99986e-06
1.4832e-07
-3.06526e-06
1.44787e-07
-3.12954e-06
1.41727e-07
-3.19282e-06
1.39082e-07
-3.25524e-06
1.36808e-07
-3.31686e-06
1.34851e-07
-3.37779e-06
1.33165e-07
-3.43803e-06
1.31697e-07
-3.49767e-06
1.30403e-07
-3.55667e-06
1.29236e-07
-3.61506e-06
1.28156e-07
-3.67277e-06
1.27114e-07
-3.72983e-06
1.26072e-07
-3.78609e-06
1.24989e-07
-3.84156e-06
1.23831e-07
-3.89606e-06
1.22554e-07
-3.94956e-06
1.21119e-07
-4.00187e-06
1.19485e-07
-4.05292e-06
1.17609e-07
-4.10248e-06
1.15453e-07
-4.15045e-06
1.12974e-07
-4.19658e-06
1.10136e-07
-4.24073e-06
1.06893e-07
-4.28264e-06
1.03207e-07
-4.32216e-06
9.90319e-08
-4.359e-06
9.43325e-08
-4.39303e-06
8.90659e-08
-4.42397e-06
8.32098e-08
-4.45168e-06
7.67375e-08
-4.47588e-06
6.96458e-08
-4.49647e-06
6.19144e-08
-4.51327e-06
5.35464e-08
-4.5263e-06
4.45343e-08
-4.53548e-06
3.491e-08
-4.54091e-06
2.46949e-08
-4.54251e-06
1.39414e-08
-4.54003e-06
2.65678e-09
-4.53251e-06
-9.20126e-09
-4.51913e-06
-2.16774e-08
-4.49929e-06
-3.46907e-08
-4.47268e-06
-4.82608e-08
-4.4388e-06
-6.22996e-08
-4.39752e-06
-7.68778e-08
-4.3487e-06
-9.19066e-08
-4.29224e-06
-1.0739e-07
-4.22794e-06
-1.23231e-07
-4.15571e-06
-1.39301e-07
-4.07547e-06
-1.55447e-07
-3.98721e-06
-1.71551e-07
-3.89104e-06
-1.8747e-07
-3.78714e-06
-2.03064e-07
-3.67573e-06
-2.18179e-07
-3.5571e-06
-2.32725e-07
-3.43161e-06
-2.46566e-07
-3.29969e-06
-2.59528e-07
-3.16182e-06
-2.71488e-07
-3.01856e-06
-2.82351e-07
-2.8705e-06
-2.92019e-07
-2.71829e-06
-3.00427e-07
-2.5626e-06
-3.07507e-07
-2.40414e-06
-3.13216e-07
-2.24361e-06
-3.17518e-07
-2.0818e-06
-3.20419e-07
-1.91937e-06
-3.21947e-07
-1.75704e-06
-3.22133e-07
-1.59544e-06
-3.21044e-07
-1.43521e-06
-3.18747e-07
-1.27686e-06
-3.15342e-07
-1.12094e-06
-3.10915e-07
-9.67866e-07
-3.056e-07
-8.18049e-07
-2.99528e-07
-6.71789e-07
-2.9282e-07
-5.29306e-07
-2.85554e-07
-3.9073e-07
-2.77832e-07
-2.56191e-07
-2.69788e-07
-1.25595e-07
-2.61688e-07
1.11311e-09
-2.53693e-07
1.23588e-07
-2.4574e-07
2.41381e-07
-2.37597e-07
3.53334e-07
-2.29334e-07
4.59394e-07
-2.20603e-07
5.60783e-07
-2.11218e-07
6.57742e-07
-2.01605e-07
7.5036e-07
-1.92066e-07
8.38727e-07
-1.82733e-07
9.22943e-07
-1.73723e-07
1.00314e-06
-1.65056e-07
1.07947e-06
-1.56774e-07
1.15209e-06
-1.48867e-07
1.22115e-06
-1.41359e-07
1.28681e-06
-1.34226e-07
1.34925e-06
-1.27465e-07
1.40865e-06
-1.2106e-07
1.46518e-06
-1.15009e-07
1.51904e-06
-1.09305e-07
1.57038e-06
-1.03929e-07
1.61934e-06
-9.88667e-08
1.66605e-06
-9.41125e-08
1.71066e-06
-8.9659e-08
1.75329e-06
-8.54886e-08
1.79407e-06
-8.15975e-08
1.83313e-06
-7.79641e-08
1.87058e-06
-7.45804e-08
1.90653e-06
-7.14427e-08
1.9411e-06
-6.85424e-08
1.97438e-06
-6.58628e-08
2.00649e-06
-6.3394e-08
2.0375e-06
-6.11159e-08
2.06751e-06
-5.90277e-08
2.09659e-06
-5.71242e-08
2.12484e-06
-5.53743e-08
2.15231e-06
-5.37643e-08
2.17907e-06
-5.22932e-08
2.20519e-06
-5.09507e-08
2.23071e-06
-4.97215e-08
2.25569e-06
-4.85864e-08
2.28016e-06
-4.75429e-08
2.30415e-06
-4.65537e-08
2.32768e-06
-4.56085e-08
2.35076e-06
-4.46992e-08
2.37338e-06
-4.37569e-08
2.3955e-06
-4.27357e-08
2.41707e-06
-4.16111e-08
2.43797e-06
-4.02619e-08
2.45805e-06
-3.85476e-08
2.47702e-06
-3.63111e-08
2.49448e-06
-3.32027e-08
2.50978e-06
-2.85575e-08
2.5217e-06
-2.12935e-08
2.52974e-06
-8.64328e-09
2.53287e-06
1.398e-08
2.52868e-06
5.97732e-08
1.47252e-07
2.50178e-06
5.97898e-08
-1.6556e-07
1.0343e-07
-1.72513e-07
1.36312e-07
-1.51811e-07
1.60471e-07
-1.28965e-07
1.76193e-07
-1.05944e-07
1.83231e-07
-8.29465e-08
1.81773e-07
-5.98895e-08
1.73475e-07
-3.6543e-08
1.58686e-07
-1.31033e-08
1.37739e-07
1.02868e-08
1.11039e-07
3.34708e-08
7.86189e-08
5.62072e-08
4.03129e-08
7.82363e-08
-4.2126e-09
9.93519e-08
-5.5249e-08
1.19529e-07
-1.14154e-07
1.38975e-07
-1.81699e-07
1.58344e-07
-2.59046e-07
1.7768e-07
-3.4641e-07
1.97506e-07
-4.43212e-07
2.18351e-07
-5.47294e-07
2.40284e-07
-6.56857e-07
2.62694e-07
-7.70947e-07
2.84529e-07
-8.88288e-07
3.04778e-07
-1.00729e-06
3.22605e-07
-1.12601e-06
3.37406e-07
-1.24271e-06
3.48761e-07
-1.35593e-06
3.56416e-07
-1.46479e-06
3.60316e-07
-1.56875e-06
3.60613e-07
-1.66771e-06
3.57634e-07
-1.76173e-06
3.51852e-07
-1.85116e-06
3.43823e-07
-1.93635e-06
3.34098e-07
-2.01775e-06
3.23204e-07
-2.09574e-06
3.11625e-07
-2.17071e-06
2.99773e-07
-2.24299e-06
2.87988e-07
-2.31287e-06
2.76535e-07
-2.38061e-06
2.65611e-07
-2.44644e-06
2.55351e-07
-2.51055e-06
2.45842e-07
-2.57311e-06
2.37126e-07
-2.63429e-06
2.29218e-07
-2.6942e-06
2.22101e-07
-2.753e-06
2.15748e-07
-2.81077e-06
2.10114e-07
-2.86763e-06
2.05148e-07
-2.92366e-06
2.00792e-07
-2.97896e-06
1.96988e-07
-3.03357e-06
1.93673e-07
-3.08758e-06
1.90785e-07
-3.14102e-06
1.88263e-07
-3.19393e-06
1.86048e-07
-3.24634e-06
1.84078e-07
-3.29827e-06
1.82296e-07
-3.34972e-06
1.80646e-07
-3.40068e-06
1.79073e-07
-3.45113e-06
1.77521e-07
-3.50106e-06
1.75937e-07
-3.55039e-06
1.7427e-07
-3.59909e-06
1.7247e-07
-3.64707e-06
1.70484e-07
-3.69427e-06
1.68261e-07
-3.74057e-06
1.65746e-07
-3.7859e-06
1.62888e-07
-3.83012e-06
1.59634e-07
-3.87311e-06
1.55932e-07
-3.91472e-06
1.51731e-07
-3.95481e-06
1.46979e-07
-3.99322e-06
1.41623e-07
-4.02978e-06
1.35611e-07
-4.06431e-06
1.28895e-07
-4.09665e-06
1.21429e-07
-4.12659e-06
1.13178e-07
-4.15396e-06
1.04111e-07
-4.1785e-06
9.42093e-08
-4.20001e-06
8.34492e-08
-4.21823e-06
7.1814e-08
-4.23293e-06
5.92849e-08
-4.24379e-06
4.58499e-08
-4.25051e-06
3.14874e-08
-4.25265e-06
1.61704e-08
-4.24979e-06
-1.32578e-10
-4.24144e-06
-1.74529e-08
-4.22724e-06
-3.57762e-08
-4.20679e-06
-5.50443e-08
-4.17968e-06
-7.51909e-08
-4.14556e-06
-9.61857e-08
-4.10412e-06
-1.17913e-07
-4.0553e-06
-1.4039e-07
-3.99892e-06
-1.63509e-07
-3.93478e-06
-1.87126e-07
-3.8628e-06
-2.1108e-07
-3.7829e-06
-2.35165e-07
-3.69509e-06
-2.59195e-07
-3.59944e-06
-2.82966e-07
-3.49612e-06
-3.06254e-07
-3.38537e-06
-3.28833e-07
-3.26749e-06
-3.50515e-07
-3.14286e-06
-3.71131e-07
-3.0119e-06
-3.90408e-07
-2.87513e-06
-4.08165e-07
-2.73313e-06
-4.24237e-07
-2.58651e-06
-4.38487e-07
-2.43595e-06
-4.50806e-07
-2.28214e-06
-4.61098e-07
-2.1258e-06
-4.69303e-07
-1.96767e-06
-4.75371e-07
-1.80848e-06
-4.79325e-07
-1.64893e-06
-4.81197e-07
-1.48972e-06
-4.81076e-07
-1.33145e-06
-4.79039e-07
-1.17474e-06
-4.75226e-07
-1.02011e-06
-4.69756e-07
-8.68053e-07
-4.62801e-07
-7.18978e-07
-4.54531e-07
-5.73268e-07
-4.45155e-07
-4.31175e-07
-4.3484e-07
-2.92915e-07
-4.23736e-07
-1.58533e-07
-4.12058e-07
-2.80973e-08
-4.00034e-07
9.8162e-08
-3.8772e-07
2.19792e-07
-3.75149e-07
3.36541e-07
-3.62341e-07
4.48321e-07
-3.4931e-07
5.55058e-07
-3.36036e-07
6.56876e-07
-3.22459e-07
7.54217e-07
-3.08621e-07
8.47258e-07
-2.94767e-07
9.36148e-07
-2.81095e-07
1.02098e-06
-2.67753e-07
1.10189e-06
-2.54834e-07
1.17899e-06
-2.42397e-07
1.25244e-06
-2.30472e-07
1.32238e-06
-2.19077e-07
1.38895e-06
-2.08222e-07
1.45232e-06
-1.97903e-07
1.51265e-06
-1.88108e-07
1.5701e-06
-1.78829e-07
1.62485e-06
-1.70058e-07
1.67706e-06
-1.61781e-07
1.72688e-06
-1.53982e-07
1.77445e-06
-1.4664e-07
1.8199e-06
-1.39744e-07
1.86336e-06
-1.33279e-07
1.90496e-06
-1.27232e-07
1.94482e-06
-1.21587e-07
1.98305e-06
-1.16324e-07
2.01979e-06
-1.11425e-07
2.05512e-06
-1.06881e-07
2.08916e-06
-1.02674e-07
2.12199e-06
-9.8786e-08
2.15371e-06
-9.51979e-08
2.1844e-06
-9.18918e-08
2.21415e-06
-8.88592e-08
2.24304e-06
-8.6086e-08
2.27113e-06
-8.3543e-08
2.2985e-06
-8.12075e-08
2.32521e-06
-7.90686e-08
2.3513e-06
-7.7112e-08
2.37683e-06
-7.53177e-08
2.40185e-06
-7.36648e-08
2.42638e-06
-7.21329e-08
2.45045e-06
-7.06892e-08
2.47409e-06
-6.9307e-08
2.49729e-06
-6.79545e-08
2.52004e-06
-6.65656e-08
2.54232e-06
-6.50724e-08
2.56406e-06
-6.34019e-08
2.58516e-06
-6.14139e-08
2.60548e-06
-5.89229e-08
2.62478e-06
-5.56647e-08
2.64271e-06
-5.1178e-08
2.65875e-06
-4.46458e-08
2.67209e-06
-3.46822e-08
2.68196e-06
-1.85596e-08
2.6876e-06
8.29498e-09
2.69067e-06
5.66623e-08
1.44037e-07
2.69384e-06
3.41072e-08
-1.99802e-07
5.01356e-08
-1.88637e-07
6.00204e-08
-1.61773e-07
6.42796e-08
-1.33285e-07
6.27522e-08
-1.04475e-07
5.52585e-08
-7.55061e-08
4.17433e-08
-4.64269e-08
2.24173e-08
-1.72678e-08
-2.62246e-09
1.1889e-08
-3.33476e-08
4.09657e-08
-6.97925e-08
6.98736e-08
-1.1211e-07
9.84879e-08
-1.60593e-07
1.26685e-07
-2.15657e-07
1.54387e-07
-2.77781e-07
1.81622e-07
-3.47372e-07
2.08538e-07
-4.2441e-07
2.35349e-07
-5.08837e-07
2.62081e-07
-6.00056e-07
2.88691e-07
-6.96726e-07
3.14994e-07
-7.97016e-07
3.40542e-07
-8.99029e-07
3.64683e-07
-1.0011e-06
3.86564e-07
-1.10174e-06
4.05402e-07
-1.19978e-06
4.20608e-07
-1.29423e-06
4.31832e-07
-1.38446e-06
4.3896e-07
-1.47015e-06
4.42087e-07
-1.55134e-06
4.41476e-07
-1.62827e-06
4.37523e-07
-1.70138e-06
4.30713e-07
-1.77113e-06
4.21582e-07
-1.83802e-06
4.10684e-07
-1.90248e-06
3.98535e-07
-1.96491e-06
3.85604e-07
-2.02561e-06
3.72301e-07
-2.08485e-06
3.58973e-07
-2.14279e-06
3.459e-07
-2.19958e-06
3.333e-07
-2.25534e-06
3.21335e-07
-2.31013e-06
3.10116e-07
-2.36403e-06
2.99714e-07
-2.4171e-06
2.90163e-07
-2.46938e-06
2.81471e-07
-2.52093e-06
2.73622e-07
-2.5718e-06
2.66586e-07
-2.62202e-06
2.60319e-07
-2.67167e-06
2.54768e-07
-2.72078e-06
2.49876e-07
-2.76939e-06
2.4558e-07
-2.81756e-06
2.41816e-07
-2.86531e-06
2.38519e-07
-2.91269e-06
2.3562e-07
-2.95972e-06
2.33054e-07
-3.00641e-06
2.30755e-07
-3.0528e-06
2.28657e-07
-3.09887e-06
2.26694e-07
-3.14464e-06
2.24804e-07
-3.19007e-06
2.22922e-07
-3.23516e-06
2.20985e-07
-3.27987e-06
2.18931e-07
-3.32415e-06
2.167e-07
-3.36793e-06
2.14227e-07
-3.41118e-06
2.1145e-07
-3.45378e-06
2.08305e-07
-3.49567e-06
2.04727e-07
-3.53673e-06
2.00653e-07
-3.57685e-06
1.96018e-07
-3.61589e-06
1.90758e-07
-3.65373e-06
1.84809e-07
-3.6902e-06
1.78104e-07
-3.72515e-06
1.70579e-07
-3.7584e-06
1.62172e-07
-3.78977e-06
1.52821e-07
-3.81904e-06
1.42475e-07
-3.84599e-06
1.31084e-07
-3.87035e-06
1.18605e-07
-3.89186e-06
1.04993e-07
-3.91021e-06
9.02059e-08
-3.92507e-06
7.41995e-08
-3.93609e-06
5.69306e-08
-3.94289e-06
3.83525e-08
-3.94508e-06
1.84223e-08
-3.94226e-06
-2.88444e-09
-3.93407e-06
-2.55791e-08
-3.92015e-06
-4.96346e-08
-3.90013e-06
-7.4993e-08
-3.87367e-06
-1.01594e-07
-3.84033e-06
-1.2932e-07
-3.79992e-06
-1.58145e-07
-3.75225e-06
-1.87909e-07
-3.69714e-06
-2.18526e-07
-3.63441e-06
-2.49803e-07
-3.56393e-06
-2.81522e-07
-3.48564e-06
-3.13432e-07
-3.39955e-06
-3.45272e-07
-3.30574e-06
-3.76773e-07
-3.20434e-06
-4.07657e-07
-3.09559e-06
-4.37598e-07
-2.97981e-06
-4.66309e-07
-2.85738e-06
-4.93568e-07
-2.72873e-06
-5.19038e-07
-2.59439e-06
-5.42459e-07
-2.45494e-06
-5.63605e-07
-2.31101e-06
-5.82292e-07
-2.1633e-06
-5.98366e-07
-2.0125e-06
-6.11708e-07
-1.85934e-06
-6.22237e-07
-1.70457e-06
-6.2991e-07
-1.54889e-06
-6.34755e-07
-1.39301e-06
-6.36826e-07
-1.23761e-06
-6.36246e-07
-1.08329e-06
-6.33132e-07
-9.30651e-07
-6.27673e-07
-7.80193e-07
-6.20041e-07
-6.32385e-07
-6.10472e-07
-4.87622e-07
-5.99196e-07
-3.46246e-07
-5.8647e-07
-2.08489e-07
-5.72533e-07
-7.44675e-08
-5.57669e-07
5.56494e-08
-5.42017e-07