/*--------------------------------*- C++ -*----------------------------------*\
  =========                 |
  \\      /  F ield         | OpenFOAM: The Open Source CFD Toolbox
   \\    /   O peration     | Website:  https://openfoam.org
    \\  /    A nd           | Version:  8
     \\/     M anipulation  |
\*---------------------------------------------------------------------------*/
FoamFile
{
    version     2.0;
    format      ascii;
    class       volVectorField;
    location    "75";
    object      U;
}
// * * * * * * * * * * * * * * * * * * * * * * * * * * * * * * * * * * * * * //

dimensions      [0 1 -1 0 0 0 0];

internalField   nonuniform List<vector> 
12225
(
(9.85695 -0.886613 0)
(9.66603 -0.740648 0)
(9.45501 -0.429317 0)
(9.223 -0.221963 0)
(9.00392 -0.106152 0)
(8.81048 -0.0455149 0)
(8.64185 -0.0147733 0)
(8.49773 0.000946177 0)
(8.3736 0.00897076 0)
(8.26805 0.0129779 0)
(8.17604 0.0148484 0)
(8.09566 0.0161021 0)
(8.02336 0.0168506 0)
(7.95745 0.0176077 0)
(7.89393 0.0184732 0)
(7.83476 0.0206022 0)
(7.74997 0.023781 0)
(7.73825 0.0396495 0)
(10.0545 0.227736 0)
(10.1212 0.327046 0)
(10.1194 0.261809 0)
(10.0851 0.18684 0)
(10.0425 0.135046 0)
(9.9951 0.101595 0)
(9.94155 0.0799079 0)
(9.88163 0.065361 0)
(9.81893 0.0552657 0)
(9.75463 0.0479253 0)
(9.69108 0.0424861 0)
(9.62861 0.0383964 0)
(9.56821 0.035401 0)
(9.50998 0.0335736 0)
(9.45294 0.032635 0)
(9.40074 0.0353304 0)
(9.34158 0.0366746 0)
(9.31463 0.0659643 0)
(10.0035 0.0582052 0)
(10.0304 0.0560962 0)
(10.0557 0.0340423 0)
(10.0696 0.0332756 0)
(10.0757 0.0411726 0)
(10.0759 0.0472541 0)
(10.0698 0.0502774 0)
(10.0576 0.0514786 0)
(10.041 0.0516754 0)
(10.021 0.0513327 0)
(9.99852 0.0507822 0)
(9.9739 0.0503021 0)
(9.94782 0.0500531 0)
(9.92058 0.0504031 0)
(9.89188 0.0513671 0)
(9.8633 0.0550153 0)
(9.83238 0.0595658 0)
(9.80786 0.0771075 0)
(9.9977 0.0110155 0)
(10.0109 0.0268122 0)
(10.0346 0.0374518 0)
(10.0517 0.0485627 0)
(10.063 0.0561446 0)
(10.0713 0.0591156 0)
(10.0765 0.0595618 0)
(10.0783 0.0591551 0)
(10.0775 0.0585141 0)
(10.0744 0.0578324 0)
(10.0694 0.057234 0)
(10.0628 0.0569067 0)
(10.0547 0.0569336 0)
(10.0454 0.0576568 0)
(10.0347 0.0592021 0)
(10.0236 0.0630241 0)
(10.0119 0.0684033 0)
(10.0035 0.0803979 0)
(9.99933 0.00719139 0)
(10.0088 0.0319456 0)
(10.027 0.0443434 0)
(10.041 0.0505745 0)
(10.0514 0.0545194 0)
(10.0607 0.056432 0)
(10.0685 0.0570555 0)
(10.0742 0.0571847 0)
(10.0781 0.0571533 0)
(10.0804 0.0570885 0)
(10.0814 0.0570985 0)
(10.0812 0.0573561 0)
(10.0799 0.0579819 0)
(10.0777 0.0592738 0)
(10.0746 0.0614306 0)
(10.0713 0.0653335 0)
(10.0683 0.0707472 0)
(10.0679 0.0791555 0)
(10.0003 0.00926785 0)
(10.0081 0.0315285 0)
(10.0223 0.0414993 0)
(10.0341 0.0462112 0)
(10.0436 0.0501532 0)
(10.0526 0.052842 0)
(10.0607 0.0542438 0)
(10.0673 0.0549815 0)
(10.0725 0.0554599 0)
(10.0766 0.0558537 0)
(10.0797 0.056293 0)
(10.082 0.0569495 0)
(10.0833 0.0579662 0)
(10.0841 0.0595888 0)
(10.0843 0.0620103 0)
(10.0845 0.0657227 0)
(10.0852 0.0705927 0)
(10.0881 0.0767672 0)
(10.0004 0.00907043 0)
(10.0069 0.0274994 0)
(10.0187 0.0370857 0)
(10.0293 0.0423741 0)
(10.0382 0.0467569 0)
(10.0466 0.0498476 0)
(10.0543 0.0516114 0)
(10.0609 0.0526666 0)
(10.0665 0.0534483 0)
(10.0712 0.0541414 0)
(10.0751 0.0548773 0)
(10.0783 0.0558133 0)
(10.0809 0.0570928 0)
(10.083 0.0589053 0)
(10.0848 0.0614021 0)
(10.0868 0.0648261 0)
(10.0893 0.0690465 0)
(10.0935 0.0737488 0)
(10.0004 0.00807646 0)
(10.0058 0.0238462 0)
(10.0157 0.0335259 0)
(10.0255 0.0392639 0)
(10.0338 0.0436836 0)
(10.0416 0.0468561 0)
(10.0489 0.0488332 0)
(10.0553 0.0501357 0)
(10.0609 0.0511622 0)
(10.0658 0.0520967 0)
(10.07 0.0530684 0)
(10.0737 0.0542191 0)
(10.0769 0.05568 0)
(10.0798 0.0575904 0)
(10.0825 0.0600522 0)
(10.0854 0.0631582 0)
(10.0888 0.0667648 0)
(10.0934 0.0704491 0)
(10.0004 0.00715661 0)
(10.0049 0.020955 0)
(10.0133 0.0303664 0)
(10.0221 0.0362078 0)
(10.0299 0.0405454 0)
(10.0372 0.0437597 0)
(10.0441 0.0459335 0)
(10.0504 0.0474634 0)
(10.0559 0.0487014 0)
(10.0608 0.0498353 0)
(10.0652 0.0509949 0)
(10.0691 0.052307 0)
(10.0727 0.0538837 0)
(10.076 0.0558234 0)
(10.0793 0.0581842 0)
(10.0827 0.0609751 0)
(10.0866 0.0640515 0)
(10.0912 0.0670141 0)
(10.0004 0.00635988 0)
(10.0042 0.0184558 0)
(10.0113 0.0273114 0)
(10.0191 0.0331093 0)
(10.0264 0.0373847 0)
(10.0333 0.0406318 0)
(10.0399 0.0429609 0)
(10.0459 0.0446776 0)
(10.0513 0.04609 0)
(10.0563 0.0473862 0)
(10.0607 0.0486929 0)
(10.0648 0.0501214 0)
(10.0686 0.0517634 0)
(10.0722 0.0536854 0)
(10.0758 0.0559133 0)
(10.0796 0.058414 0)
(10.0836 0.0610554 0)
(10.0882 0.0635039 0)
(10.0003 0.00563255 0)
(10.0035 0.0162132 0)
(10.0096 0.0243912 0)
(10.0166 0.0300487 0)
(10.0234 0.0342468 0)
(10.0298 0.0374863 0)
(10.0361 0.0399108 0)
(10.0419 0.0417656 0)
(10.0472 0.0433163 0)
(10.0521 0.0447414 0)
(10.0566 0.0461596 0)
(10.0608 0.0476663 0)
(10.0648 0.0493332 0)
(10.0686 0.0512059 0)
(10.0725 0.0532882 0)
(10.0764 0.0555324 0)
(10.0805 0.0578301 0)
(10.085 0.0599146 0)
(10.0003 0.00499647 0)
(10.0031 0.0143429 0)
(10.0083 0.0218616 0)
(10.0146 0.0273075 0)
(10.0209 0.0313946 0)
(10.027 0.0345883 0)
(10.0329 0.037056 0)
(10.0386 0.038999 0)
(10.0438 0.0406446 0)
(10.0486 0.0421596 0)
(10.0532 0.0436534 0)
(10.0575 0.0452037 0)
(10.0616 0.0468687 0)
(10.0656 0.0486784 0)
(10.0695 0.0506296 0)
(10.0735 0.0526739 0)
(10.0776 0.0547271 0)
(10.082 0.0565773 0)
(10.0003 0.0044119 0)
(10.0027 0.0126294 0)
(10.0072 0.019463 0)
(10.0129 0.0246189 0)
(10.0188 0.0285549 0)
(10.0245 0.0316696 0)
(10.0302 0.0341421 0)
(10.0356 0.036138 0)
(10.0408 0.0378457 0)
(10.0456 0.0394183 0)
(10.0502 0.0409566 0)
(10.0545 0.0425277 0)
(10.0587 0.0441719 0)
(10.0628 0.0459093 0)
(10.0668 0.0477338 0)
(10.0709 0.0496057 0)
(10.075 0.0514634 0)
(10.0793 0.0531336 0)
(10.0002 0.00380957 0)
(10.0023 0.01085 0)
(10.0062 0.0168903 0)
(10.0113 0.0216351 0)
(10.0167 0.0253414 0)
(10.0221 0.0283181 0)
(10.0275 0.0307436 0)
(10.0327 0.0327553 0)
(10.0377 0.0344967 0)
(10.0425 0.0360975 0)
(10.0471 0.0376542 0)
(10.0515 0.0392241 0)
(10.0558 0.0408321 0)
(10.06 0.0424883 0)
(10.0641 0.0441845 0)
(10.0682 0.0458951 0)
(10.0723 0.0475838 0)
(10.0764 0.049104 0)
(10.0002 0.00318373 0)
(10.002 0.00899626 0)
(10.0053 0.014143 0)
(10.0098 0.0183431 0)
(10.0147 0.021717 0)
(10.0198 0.0244764 0)
(10.0249 0.0267792 0)
(10.0299 0.0287433 0)
(10.0348 0.0304722 0)
(10.0396 0.0320627 0)
(10.0441 0.0335982 0)
(10.0486 0.035128 0)
(10.0529 0.0366744 0)
(10.0572 0.0382358 0)
(10.0613 0.0398052 0)
(10.0655 0.0413659 0)
(10.0695 0.0429048 0)
(10.0736 0.044303 0)
(10.0002 0.00253002 0)
(10.0017 0.00706463 0)
(10.0046 0.0112182 0)
(10.0085 0.0147317 0)
(10.013 0.0176452 0)
(10.0177 0.0200864 0)
(10.0226 0.0221719 0)
(10.0274 0.0239998 0)
(10.0322 0.0256462 0)
(10.0369 0.0271741 0)
(10.0415 0.0286397 0)
(10.046 0.0300879 0)
(10.0503 0.0315376 0)
(10.0546 0.0329886 0)
(10.0588 0.0344319 0)
(10.063 0.0358575 0)
(10.067 0.0372655 0)
(10.071 0.0385594 0)
(10.0002 0.00183988 0)
(10.0015 0.00503237 0)
(10.004 0.00808143 0)
(10.0075 0.0107596 0)
(10.0117 0.013062 0)
(10.0161 0.0150565 0)
(10.0207 0.0168109 0)
(10.0254 0.0183949 0)
(10.0301 0.0198625 0)
(10.0347 0.0212501 0)
(10.0393 0.0225884 0)
(10.0438 0.0239064 0)
(10.0482 0.0252208 0)
(10.0526 0.0265345 0)
(10.0568 0.0278409 0)
(10.061 0.0291324 0)
(10.0651 0.0304146 0)
(10.069 0.0316061 0)
(10.0001 0.00108962 0)
(10.0013 0.00283304 0)
(10.0037 0.00463796 0)
(10.0069 0.00631226 0)
(10.0108 0.00782977 0)
(10.0151 0.00921837 0)
(10.0195 0.0105056 0)
(10.0241 0.011722 0)
(10.0288 0.0128973 0)
(10.0334 0.0140483 0)
(10.038 0.0151853 0)
(10.0426 0.0163174 0)
(10.047 0.0174535 0)
(10.0514 0.0185943 0)
(10.0557 0.0197375 0)
(10.0599 0.0208764 0)
(10.064 0.0220172 0)
(10.068 0.0230879 0)
(10.0001 0.000224078 0)
(10.0013 0.000322397 0)
(10.0036 0.000669366 0)
(10.0068 0.00112762 0)
(10.0107 0.00166662 0)
(10.0149 0.0022765 0)
(10.0194 0.00294646 0)
(10.024 0.00366482 0)
(10.0287 0.00443164 0)
(10.0334 0.00524176 0)
(10.0381 0.00609106 0)
(10.0427 0.00696895 0)
(10.0473 0.0078728 0)
(10.0517 0.00879533 0)
(10.0561 0.00973553 0)
(10.0604 0.0106851 0)
(10.0646 0.0116494 0)
(10.0686 0.0125624 0)
(10.0002 -0.0006276 0)
(10.0014 -0.00212264 0)
(10.0039 -0.00321849 0)
(10.0074 -0.00396157 0)
(10.0115 -0.00438046 0)
(10.016 -0.00453015 0)
(10.0207 -0.00446667 0)
(10.0255 -0.00422894 0)
(10.0304 -0.00385414 0)
(10.0352 -0.0033658 0)
(10.04 -0.00279248 0)
(10.0448 -0.00215346 0)
(10.0495 -0.00147083 0)
(10.0541 -0.000749735 0)
(10.0585 -1.34928e-06 0)
(10.0629 0.000773291 0)
(10.0672 0.00156659 0)
(10.0713 0.00232873 0)
(10.0002 -0.0013727 0)
(10.0016 -0.00427793 0)
(10.0043 -0.00665062 0)
(10.0082 -0.00839216 0)
(10.0128 -0.0095543 0)
(10.0176 -0.0102821 0)
(10.0226 -0.0106774 0)
(10.0277 -0.010797 0)
(10.0328 -0.0106986 0)
(10.0379 -0.0104314 0)
(10.0428 -0.0100426 0)
(10.0477 -0.00956735 0)
(10.0525 -0.00903632 0)
(10.0572 -0.00845924 0)
(10.0617 -0.00784833 0)
(10.0662 -0.00720741 0)
(10.0705 -0.00654562 0)
(10.0747 -0.00590816 0)
(10.0002 -0.00208396 0)
(10.0017 -0.00641193 0)
(10.005 -0.0100834 0)
(10.0095 -0.0127355 0)
(10.0146 -0.014492 0)
(10.0198 -0.0156589 0)
(10.0252 -0.0163919 0)
(10.0306 -0.0167731 0)
(10.036 -0.0168786 0)
(10.0412 -0.0167814 0)
(10.0464 -0.0165334 0)
(10.0514 -0.016186 0)
(10.0563 -0.0157659 0)
(10.061 -0.0152995 0)
(10.0656 -0.0147885 0)
(10.0701 -0.0142547 0)
(10.0746 -0.0136953 0)
(10.0787 -0.0131615 0)
(10.0002 -0.00275101 0)
(10.0019 -0.00856984 0)
(10.0057 -0.013535 0)
(10.0111 -0.0169939 0)
(10.0169 -0.0192931 0)
(10.0226 -0.0208457 0)
(10.0283 -0.0218035 0)
(10.034 -0.0223002 0)
(10.0396 -0.0224911 0)
(10.0451 -0.0224795 0)
(10.0504 -0.0223232 0)
(10.0555 -0.0220645 0)
(10.0605 -0.0217339 0)
(10.0653 -0.02135 0)
(10.07 -0.0209266 0)
(10.0746 -0.0204764 0)
(10.079 -0.0200093 0)
(10.0832 -0.019557 0)
(10.0001 -0.00334048 0)
(10.0019 -0.011122 0)
(10.0066 -0.0171438 0)
(10.0129 -0.0208879 0)
(10.0193 -0.0235883 0)
(10.0256 -0.0256196 0)
(10.0318 -0.026863 0)
(10.0378 -0.0274568 0)
(10.0437 -0.0276674 0)
(10.0493 -0.0276614 0)
(10.0547 -0.0275171 0)
(10.0599 -0.0272776 0)
(10.065 -0.0269788 0)
(10.0699 -0.0266349 0)
(10.0746 -0.0262647 0)
(10.0792 -0.0258739 0)
(10.0836 -0.0254769 0)
(10.0878 -0.0250853 0)
(9.99993 -0.0032263 0)
(10.0017 -0.0146431 0)
(10.0076 -0.0221459 0)
(10.0149 -0.0253803 0)
(10.0217 -0.027665 0)
(10.0284 -0.0297164 0)
(10.0353 -0.0311249 0)
(10.0419 -0.0318926 0)
(10.0481 -0.0322488 0)
(10.0539 -0.032344 0)
(10.0595 -0.032258 0)
(10.0648 -0.0320512 0)
(10.0699 -0.0317701 0)
(10.0747 -0.0314439 0)
(10.0793 -0.0310903 0)
(10.0838 -0.0307252 0)
(10.088 -0.0303544 0)
(10.092 -0.0299924 0)
(9.99861 -0.000270841 0)
(9.99916 -0.0155372 0)
(10.0079 -0.0269802 0)
(10.0173 -0.0318353 0)
(10.0249 -0.0339883 0)
(10.0322 -0.0350931 0)
(10.0398 -0.0355857 0)
(10.047 -0.035796 0)
(10.0535 -0.0358811 0)
(10.0595 -0.0358486 0)
(10.065 -0.0357007 0)
(10.0701 -0.0354629 0)
(10.0747 -0.0351705 0)
(10.079 -0.0348425 0)
(10.083 -0.0344937 0)
(10.0867 -0.0341401 0)
(10.0902 -0.0337856 0)
(10.0934 -0.0334467 0)
(9.9949 0.0014831 0)
(9.99299 -0.00794075 0)
(10.0064 -0.0200066 0)
(10.0209 -0.0317761 0)
(10.0317 -0.0398274 0)
(10.0408 -0.043334 0)
(10.0489 -0.0440547 0)
(10.0557 -0.043708 0)
(10.0614 -0.0430331 0)
(10.0661 -0.0422213 0)
(10.07 -0.0413526 0)
(10.0732 -0.0404865 0)
(10.0757 -0.0396594 0)
(10.0776 -0.0388747 0)
(10.0792 -0.0381371 0)
(10.0803 -0.0374496 0)
(10.0812 -0.0368171 0)
(10.0817 -0.0362233 0)
(9.99472 -0.0305278 0)
(9.99954 -0.0227129 0)
(10.0149 -0.00239714 0)
(10.031 -0.00154582 0)
(10.0444 -0.0111657 0)
(10.0547 -0.020314 0)
(10.0614 -0.0265511 0)
(10.0645 -0.0306453 0)
(10.0648 -0.0332744 0)
(10.0632 -0.0348128 0)
(10.0601 -0.0355773 0)
(10.0558 -0.0358486 0)
(10.0506 -0.0358142 0)
(10.0447 -0.035589 0)
(10.0383 -0.0352539 0)
(10.0317 -0.0348662 0)
(10.0249 -0.0344959 0)
(10.018 -0.0341231 0)
(10.0274 -0.182973 0)
(10.0766 -0.288251 0)
(10.0873 -0.247677 0)
(10.0781 -0.186362 0)
(10.067 -0.140034 0)
(10.0548 -0.107852 0)
(10.038 -0.0854162 0)
(10.0167 -0.069876 0)
(9.99221 -0.0590187 0)
(9.96599 -0.0511395 0)
(9.93892 -0.0452067 0)
(9.91157 -0.0406055 0)
(9.88446 -0.0369545 0)
(9.85792 -0.0339871 0)
(9.8322 -0.0315262 0)
(9.80736 -0.0295012 0)
(9.78368 -0.0278712 0)
(9.76108 -0.0269526 0)
(9.93579 0.689557 0)
(9.86848 0.609646 0)
(9.76515 0.380727 0)
(9.62773 0.21756 0)
(9.48771 0.119427 0)
(9.3599 0.0634069 0)
(9.24641 0.031846 0)
(9.14599 0.0139329 0)
(9.05765 0.0036181 0)
(8.98013 -0.00239309 0)
(8.91179 -0.00588978 0)
(8.85125 -0.00795462 0)
(8.79728 -0.00915408 0)
(8.74902 -0.00985808 0)
(8.70554 -0.0103023 0)
(8.66619 -0.0105269 0)
(8.63008 -0.0106803 0)
(8.59675 -0.0112691 0)
(0.0210973 -0.0146055 -3.92125e-19)
(0.070136 -0.0447397 1.69768e-19)
(0.115226 -0.0566446 0)
(0.171244 -0.0615231 0)
(0.22447 -0.0672743 0)
(0.266429 -0.0868885 -8.1589e-20)
(0.308577 -0.0954529 0)
(0.353013 -0.0723797 0)
(0.380074 -0.0609622 0)
(0.40078 -0.0477125 0)
(0.412826 -0.0283506 1.27761e-19)
(0.41333 -0.0107372 0)
(0.404151 0.00440377 0)
(0.388365 0.0185924 0)
(0.354754 0.0519159 0)
(0.3212 0.0533514 9.23728e-20)
(0.293633 0.032528 0)
(0.255656 0.0327739 0)
(0.224768 0.0277568 0)
(0.190366 0.026534 0)
(0.151031 0.0323082 0)
(0.104462 0.0437622 0)
(0.0514391 0.0562562 0)
(-0.00903078 0.0640372 2.29564e-19)
(-0.0772588 0.0679311 -2.0299e-19)
(-0.153166 0.0718568 1.68511e-19)
(-0.237668 0.0779563 1.41784e-19)
(-0.330759 0.0857488 0)
(-0.431959 0.0940202 0)
(-0.540145 0.101791 -9.12395e-20)
(-0.65386 0.108311 -8.08605e-20)
(-0.771474 0.113193 0)
(-0.891275 0.116094 0)
(-1.01168 0.117052 -6.03347e-20)
(-1.13131 0.116264 0)
(-1.24901 0.114079 0)
(-1.36389 0.110791 4.91493e-20)
(-1.47532 0.106754 0)
(-1.58292 0.102228 4.44272e-20)
(-1.68647 0.0974879 8.51634e-20)
(-1.78593 0.092703 0)
(-1.8814 0.088052 0)
(-1.97304 0.0836178 0)
(-2.0611 0.0794962 0)
(-2.14587 0.0757053 0)
(-2.22765 0.0722894 7.11522e-20)
(-2.30676 0.0692318 6.96249e-20)
(-2.38351 0.066544 6.82285e-20)
(-2.45819 0.0641915 0)
(-2.53108 0.0621723 -6.57646e-20)
(-2.60247 0.0604443 0)
(-2.67258 0.0590012 6.36317e-20)
(-2.74164 0.0578095 6.26628e-20)
(-2.80982 0.0568594 0)
(-2.87731 0.0561104 0)
(-2.94426 0.0555537 0)
(-3.01078 0.0551574 5.92601e-20)
(-3.07696 0.054908 0)
(-3.14287 0.0547642 0)
(-3.20858 0.0547117 0)
(-3.27409 0.0547167 0)
(-3.33941 0.0547535 0)
(-3.40451 0.0547781 0)
(-3.46937 0.0547558 0)
(-3.53393 0.0546437 0)
(-3.59812 0.0544028 -5.37303e-20)
(-3.66182 0.0539993 0)
(-3.72491 0.0533967 0)
(-3.78721 0.0525742 5.24618e-20)
(-3.84856 0.0515002 5.20914e-20)
(-3.90873 0.0501671 0)
(-3.96749 0.0485537 -5.14212e-20)
(-4.0246 0.0466716 5.11207e-20)
(-4.07978 0.0445223 0)
(-4.1327 0.0421408 -5.05985e-20)
(-4.18302 0.0395427 0)
(-4.23031 0.036771 0)
(-4.27413 0.0338306 5.00558e-20)
(-4.31396 0.0307431 0)
(-4.3493 0.0274792 -4.98785e-20)
(-4.37955 0.0240511 0)
(-4.40411 0.0204343 4.98325e-20)
(-4.42239 0.0166956 4.98399e-20)
(-4.43405 0.0129121 4.98377e-20)
(-4.43888 0.00931836 9.95522e-20)
(-4.43784 0.00585113 -9.93718e-20)
(-4.4306 0.00231527 0)
(-4.41689 -0.00141847 0)
(-4.39644 -0.00536598 0)
(-4.36895 -0.00951636 -9.74981e-20)
(-4.33438 -0.0139528 -9.65633e-20)
(-4.29265 -0.0186367 9.5371e-20)
(-4.24352 -0.0235262 0)
(-4.18682 -0.028729 -9.2069e-20)
(-4.12242 -0.0339903 -8.98515e-20)
(-4.05035 -0.0392596 -8.72201e-20)
(-3.97064 -0.0447492 0)
(-3.88336 -0.0502332 0)
(-3.78875 -0.0556929 0)
(-3.68701 -0.0610888 -7.13948e-20)
(-3.57844 -0.0663565 0)
(-3.46336 -0.0714509 0)
(-3.34216 -0.0763139 5.25786e-20)
(-3.21529 -0.0809042 0)
(-3.08323 -0.0851762 0)
(-2.94652 -0.0890953 2.65243e-20)
(-2.80572 -0.0926348 0)
(-2.66144 -0.0957791 0)
(-2.5143 -0.0985289 7.65809e-21)
(-2.36497 -0.100861 2.10266e-20)
(-2.21412 -0.10277 0)
(-2.06239 -0.10424 -5.10246e-20)
(-1.91044 -0.105305 0)
(-1.75888 -0.105967 8.58813e-20)
(-1.60826 -0.106277 0)
(-1.45912 -0.106249 1.26493e-19)
(-1.3119 -0.105914 1.49325e-19)
(-1.16712 -0.105302 0)
(-1.02506 -0.104541 0)
(-0.886 -0.103562 0)
(-0.750075 -0.102428 0)
(-0.617453 -0.101164 0)
(-0.488313 -0.0997953 0)
(-0.362913 -0.0982986 0)
(-0.241106 -0.0967595 4.43218e-19)
(-0.123887 -0.0951603 -5.06514e-19)
(-0.00859608 -0.0921239 0)
(0.105834 -0.0871138 0)
(0.215393 -0.0814651 0)
(0.320182 -0.0759338 0)
(0.420003 -0.0707166 -8.69152e-19)
(0.514884 -0.0658297 0)
(0.605009 -0.061311 8.11773e-19)
(0.690577 -0.0571174 -7.88266e-19)
(0.77182 -0.0532371 0)
(0.848963 -0.0496216 0)
(0.922244 -0.0462796 0)
(0.991864 -0.0431857 7.16465e-19)
(1.05804 -0.0403244 7.0245e-19)
(1.12093 -0.0376669 0)
(1.18079 -0.0352041 6.77962e-19)
(1.23783 -0.0329261 6.67132e-19)
(1.29226 -0.0308117 -6.57068e-19)
(1.3442 -0.0288379 0)
(1.39384 -0.0270056 0)
(1.4413 -0.0253237 -6.30668e-19)
(1.48672 -0.0237676 0)
(1.53024 -0.0223445 0)
(1.572 -0.0210164 0)
(1.6121 -0.0197549 0)
(1.65068 -0.0186018 5.96599e-19)
(1.68784 -0.0175716 5.90917e-19)
(1.7237 -0.0166493 0)
(1.75837 -0.0158077 5.80406e-19)
(1.79193 -0.0150019 0)
(1.82451 -0.0142493 0)
(1.8562 -0.013592 5.66479e-19)
(1.88705 -0.0129848 0)
(1.91715 -0.0124243 5.58187e-19)
(1.94659 -0.0119144 0)
(1.97542 -0.011458 0)
(2.0037 -0.0110457 5.469e-19)
(2.0315 -0.0106709 0)
(2.05885 -0.0103599 5.40005e-19)
(2.08577 -0.010034 0)
(2.11234 -0.00970776 0)
(2.13856 -0.00945535 0)
(2.16439 -0.00918407 -5.27481e-19)
(2.18985 -0.0088891 0)
(2.21491 -0.00864745 5.21896e-19)
(2.23939 -0.00834129 0)
(2.26322 -0.00789011 0)
(2.28618 -0.00744245 0)
(2.30781 -0.0069314 0)
(2.32758 -0.00616564 0)
(2.34378 -0.00504469 0)
(2.35623 -0.00236504 0)
(2.35111 0.00304819 -1.03483e-18)
(2.33447 0.0157355 0)
(2.21475 0.0327488 0)
(0.0337873 -0.138788 9.09093e-19)
(0.0949542 -0.186811 -4.05158e-19)
(0.145487 -0.178403 0)
(0.190739 -0.159831 1.28577e-19)
(0.227615 -0.138882 0)
(0.25362 -0.118359 5.11863e-20)
(0.269382 -0.0990695 -1.06223e-19)
(0.278892 -0.0762207 -1.07775e-19)
(0.28262 -0.0520123 0)
(0.279318 -0.0271933 -1.0548e-19)
(0.269764 -0.00183011 -5.32956e-20)
(0.255536 0.0227744 0)
(0.236257 0.0451662 0)
(0.211183 0.0642587 0)
(0.18193 0.0796854 0)
(0.152571 0.0914618 -5.59603e-20)
(0.110695 0.102958 0)
(0.0581253 0.109084 1.29794e-19)
(-0.00306584 0.114339 0)
(-0.0742473 0.12255 0)
(-0.151275 0.139223 -1.12371e-19)
(-0.233693 0.161281 0)
(-0.324375 0.183465 9.3898e-20)
(-0.42423 0.205026 -4.4329e-20)
(-0.532178 0.225523 4.16532e-20)
(-0.646318 0.245094 -3.91038e-20)
(-0.764946 0.263242 -3.66981e-20)
(-0.886219 0.27891 0)
(-1.00843 0.291106 0)
(-1.13 0.299251 3.05829e-20)
(-1.24961 0.303175 -2.84655e-20)
(-1.36612 0.30315 0)
(-1.47869 0.299585 0)
(-1.58682 0.293081 2.509e-20)
(-1.69024 0.284295 0)
(-1.78887 0.273918 0)
(-1.8828 0.262539 -2.2531e-20)
(-1.97226 0.250698 0)
(-2.05753 0.238798 2.10403e-20)
(-2.13897 0.227183 -4.16606e-20)
(-2.21693 0.216072 0)
(-2.2918 0.205645 0)
(-2.36392 0.195982 -7.81335e-20)
(-2.43363 0.187148 -7.69078e-20)
(-2.50124 0.179134 -7.5805e-20)
(-2.56702 0.171936 3.71375e-20)
(-2.63123 0.1655 -3.72165e-20)
(-2.69409 0.159789 -1.09872e-19)
(-2.75577 0.154728 7.23058e-20)
(-2.81644 0.150266 3.60736e-20)
(-2.87625 0.146323 0)
(-2.93531 0.142848 -3.54454e-20)
(-2.99371 0.139768 3.46068e-20)
(-3.05152 0.137037 0)
(-3.10881 0.134583 0)
(-3.16561 0.132364 0)
(-3.22193 0.130324 -3.41744e-20)
(-3.27778 0.128428 0)
(-3.33314 0.126622 6.69445e-20)
(-3.38799 0.124876 0)
(-3.44228 0.123152 6.61911e-20)
(-3.49594 0.121423 0)
(-3.54889 0.119651 -6.5531e-20)
(-3.60104 0.117801 0)
(-3.65228 0.115835 6.49673e-20)
(-3.70249 0.113714 -3.2048e-20)
(-3.75153 0.111403 0)
(-3.79926 0.108858 -6.42951e-20)
(-3.8455 0.106047 -3.23745e-20)
(-3.89006 0.102921 -3.22901e-20)
(-3.93278 0.0994465 0)
(-3.97344 0.0955686 -3.1538e-20)
(-4.01184 0.0912533 -3.20641e-20)
(-4.0478 0.0864523 0)
(-4.08111 0.0811497 3.19374e-20)
(-4.11157 0.0753125 -6.3315e-20)
(-4.13898 0.0689478 0)
(-4.16315 0.0620339 -3.18058e-20)
(-4.18395 0.0545853 0)
(-4.20127 0.0465901 9.49556e-20)
(-4.21508 0.0381049 0)
(-4.22538 0.0291829 -9.48682e-20)
(-4.23222 0.0199677 -3.17097e-20)
(-4.23549 0.0106003 3.13017e-20)
(-4.23487 0.00125753 6.23876e-20)
(-4.22892 -0.00814567 -6.21454e-20)
(-4.21721 -0.0176905 0)
(-4.19927 -0.0274704 0)
(-4.17471 -0.0374507 0)
(-4.14323 -0.0476427 1.81896e-19)
(-4.10474 -0.058057 5.98645e-20)
(-4.05909 -0.0686634 -5.88471e-20)
(-4.0061 -0.0794038 0)
(-3.94559 -0.0901651 -5.66859e-20)
(-3.87749 -0.100861 5.45945e-20)
(-3.8017 -0.111407 5.2716e-20)
(-3.71826 -0.121677 0)
(-3.62728 -0.131623 0)
(-3.52894 -0.14116 0)
(-3.42342 -0.150229 4.23523e-20)
(-3.31105 -0.158743 0)
(-3.19216 -0.166589 -7.31044e-20)
(-3.06717 -0.17371 -9.64605e-20)
(-2.93656 -0.180059 5.67472e-20)
(-2.80085 -0.185587 0)
(-2.66063 -0.19027 2.06746e-20)
(-2.51651 -0.194074 0)
(-2.36913 -0.196973 1.60522e-20)
(-2.21915 -0.19896 -4.32497e-21)
(-2.06727 -0.200064 1.72311e-21)
(-1.91418 -0.200322 0)
(-1.76055 -0.199755 5.32922e-20)
(-1.60701 -0.19842 -4.76658e-20)
(-1.45417 -0.19636 -3.33453e-20)
(-1.30257 -0.193655 0)
(-1.15274 -0.190361 -4.80917e-20)
(-1.00512 -0.186594 -1.62116e-19)
(-0.860154 -0.182443 0)
(-0.718163 -0.177989 -1.37749e-19)
(-0.579404 -0.173287 -1.53853e-19)
(-0.444051 -0.168409 -1.70251e-19)
(-0.312229 -0.163403 0)
(-0.184119 -0.15836 0)
(-0.0594273 -0.15353 0)
(0.0618639 -0.149129 1.10829e-19)
(0.179084 -0.144886 1.17742e-19)
(0.291272 -0.139658 0)
(0.397984 -0.133015 2.41709e-19)
(0.499797 -0.125832 2.46365e-19)
(0.597445 -0.118653 0)
(0.69107 -0.111711 2.57473e-19)
(0.780733 -0.105082 5.16187e-19)
(0.86651 -0.0988246 -2.63836e-19)
(0.948501 -0.0929286 -2.6174e-19)
(1.02683 -0.0874011 0)
(1.10165 -0.0822188 0)
(1.17309 -0.0773795 0)
(1.2413 -0.0728513 -2.74658e-19)
(1.30642 -0.0686207 2.72778e-19)
(1.36863 -0.0646668 5.51746e-19)
(1.4281 -0.0609793 -2.78573e-19)
(1.485 -0.0575485 2.76883e-19)
(1.53949 -0.0543537 2.80439e-19)
(1.59172 -0.0513793 0)
(1.64182 -0.0486147 0)
(1.6899 -0.0460529 -2.8029e-19)
(1.73611 -0.0436726 0)
(1.78054 -0.0414678 0)
(1.82334 -0.0394269 5.65439e-19)
(1.86462 -0.0375409 0)
(1.90448 -0.0358084 2.82744e-19)
(1.94303 -0.0342145 -2.84422e-19)
(1.98038 -0.0327428 0)
(2.01663 -0.0313904 2.83639e-19)
(2.05187 -0.0301483 0)
(2.08619 -0.0290139 0)
(2.11966 -0.0279905 -2.85252e-19)
(2.15237 -0.0270478 5.69795e-19)
(2.1844 -0.0261813 -2.85452e-19)
(2.21581 -0.0253896 0)
(2.24666 -0.0246662 0)
(2.27701 -0.024005 2.84839e-19)
(2.30691 -0.0233865 0)
(2.3364 -0.0228209 2.84909e-19)
(2.36553 -0.0222844 0)
(2.3943 -0.0217698 0)
(2.42275 -0.0212934 0)
(2.45087 -0.0208086 2.85469e-19)
(2.47862 -0.0202884 0)
(2.50597 -0.0197447 -2.85401e-19)
(2.53286 -0.0191248 0)
(2.5591 -0.0183583 0)
(2.5845 -0.0174135 5.70828e-19)
(2.60869 -0.0161475 -5.7148e-19)
(2.63117 -0.0142519 0)
(2.65089 -0.0113585 0)
(2.66674 -0.00600739 0)
(2.67695 0.00395775 1.7509e-18)
(2.68743 0.0246358 0)
(2.67037 0.0620868 -1.20801e-18)
(0.0326601 -0.270497 1.86117e-22)
(0.077345 -0.298907 3.96763e-19)
(0.10822 -0.265614 0)
(0.133119 -0.227559 -1.9749e-19)
(0.151057 -0.189776 0)
(0.161193 -0.152824 0)
(0.163565 -0.116087 9.37433e-23)
(0.159225 -0.0787844 6.89657e-20)
(0.149029 -0.0417692 6.77418e-20)
(0.133194 -0.00529409 6.77255e-20)
(0.11203 0.0303252 0)
(0.0857521 0.0645572 0)
(0.0542899 0.096895 -6.92215e-20)
(0.0173784 0.126868 -1.40358e-19)
(-0.0251233 0.154251 1.39594e-19)
(-0.0733555 0.178828 0)
(-0.129661 0.202404 1.32555e-19)
(-0.194516 0.225567 -6.45772e-20)
(-0.268621 0.249552 0)
(-0.351668 0.275889 1.17719e-19)
(-0.441776 0.304713 5.59432e-20)
(-0.537497 0.334948 -1.05959e-19)
(-0.638183 0.365214 -5.06509e-20)
(-0.742578 0.394116 0)
(-0.849365 0.420373 9.13021e-20)
(-0.956858 0.442887 8.68708e-20)
(-1.06333 0.460725 0)
(-1.16734 0.473178 7.8906e-20)
(-1.26782 0.479893 0)
(-1.36416 0.480933 7.22534e-20)
(-1.45613 0.476723 3.48398e-20)
(-1.54366 0.467986 0)
(-1.62696 0.4556 0)
(-1.70639 0.440462 0)
(-1.7823 0.423457 0)
(-1.85506 0.405386 0)
(-1.92503 0.386928 0)
(-1.99251 0.36863 5.61135e-20)
(-2.05779 0.350909 -8.25469e-20)
(-2.12111 0.334065 0)
(-2.1827 0.318292 0)
(-2.24273 0.303707 0)
(-2.30137 0.290353 2.66169e-22)
(-2.35877 0.27823 5.10488e-20)
(-2.41506 0.267297 1.00624e-19)
(-2.47035 0.257492 -9.95391e-20)
(-2.52475 0.248733 -4.91237e-20)
(-2.57836 0.240934 4.89807e-20)
(-2.63126 0.233999 -3.19559e-22)
(-2.68353 0.227836 4.78705e-20)
(-2.73523 0.222349 0)
(-2.78644 0.21745 4.71956e-20)
(-2.8372 0.213051 -3.41977e-22)
(-2.88753 0.209069 0)
(-2.93749 0.205424 0)
(-2.98708 0.202041 -4.61168e-20)
(-3.03631 0.198851 0)
(-3.08519 0.195788 0)
(-3.1337 0.192788 4.51382e-20)
(-3.18182 0.189793 9.06082e-20)
(-3.22952 0.186751 -4.54824e-20)
(-3.27674 0.183611 0)
(-3.32343 0.180325 4.51903e-20)
(-3.36952 0.176844 0)
(-3.41493 0.173123 4.42496e-20)
(-3.45958 0.169114 4.48626e-20)
(-3.50334 0.164777 -8.88295e-20)
(-3.54612 0.160065 -4.39689e-20)
(-3.58779 0.154943 0)
(-3.6282 0.149365 8.84234e-20)
(-3.66721 0.143297 0)
(-3.70468 0.136695 1.32738e-19)
(-3.74044 0.12953 8.81829e-20)
(-3.77433 0.121768 8.81369e-20)
(-3.80618 0.113395 -8.81076e-20)
(-3.8358 0.104396 1.32462e-19)
(-3.863 0.0947778 0)
(-3.88755 0.0845376 0)
(-3.90923 0.0736873 -8.81126e-20)
(-3.92781 0.0622284 -1.32416e-19)
(-3.94303 0.0501802 0)
(-3.95458 0.0375401 4.42289e-20)
(-3.96212 0.0243099 0)
(-3.96527 0.0104707 -1.3164e-19)
(-3.96358 -0.00398231 -2.73315e-22)
(-3.95659 -0.0190165 2.19299e-22)
(-3.94396 -0.0345477 8.6229e-20)
(-3.92526 -0.0505358 0)
(-3.90013 -0.0669185 -8.47098e-20)
(-3.86823 -0.0836515 9.04573e-23)
(-3.82942 -0.100703 0)
(-3.78355 -0.118011 0)
(-3.73042 -0.135455 0)
(-3.66986 -0.152901 7.69129e-20)
(-3.60178 -0.170186 0)
(-3.52611 -0.187182 0)
(-3.44286 -0.203729 0)
(-3.35216 -0.219651 0)
(-3.25414 -0.234821 0)
(-3.14903 -0.249129 5.90846e-20)
(-3.03716 -0.262465 0)
(-2.91887 -0.274645 4.80766e-20)
(-2.79459 -0.285566 4.27018e-20)
(-2.66483 -0.29514 -3.69261e-20)
(-2.53014 -0.303301 0)
(-2.39111 -0.310004 -2.42377e-20)
(-2.24839 -0.315214 0)
(-2.10263 -0.31892 -1.01991e-20)
(-1.95452 -0.321114 2.74349e-21)
(-1.80476 -0.321834 -9.35569e-21)
(-1.65403 -0.321136 0)
(-1.50299 -0.319101 -5.71922e-20)
(-1.35225 -0.315814 -2.34016e-20)
(-1.20241 -0.311383 0)
(-1.05401 -0.305916 -8.62529e-20)
(-0.907537 -0.299537 -1.03315e-19)
(-0.763438 -0.292383 1.83663e-19)
(-0.622095 -0.284611 0)
(-0.483821 -0.276345 8.03723e-20)
(-0.348845 -0.26769 8.89394e-20)
(-0.217327 -0.258755 2.86618e-19)
(-0.0892861 -0.249723 0)
(0.0352213 -0.24077 0)
(0.155743 -0.231815 0)
(0.271873 -0.222704 1.16234e-19)
(0.383483 -0.213469 0)
(0.490458 -0.204225 0)
(0.592815 -0.194881 -1.33658e-19)
(0.690843 -0.185391 -1.37341e-19)
(0.784844 -0.17596 0)
(0.874961 -0.166746 0)
(0.961296 -0.157843 -2.94143e-19)
(1.04395 -0.149311 0)
(1.12302 -0.141175 3.04977e-19)
(1.19864 -0.13345 3.07068e-19)
(1.27094 -0.126135 0)
(1.34006 -0.119231 0)
(1.40613 -0.112722 -3.20068e-19)
(1.4693 -0.106592 -2.07661e-21)
(1.52973 -0.10083 -1.93479e-21)
(1.58757 -0.0954267 0)
(1.64299 -0.0903673 -6.6809e-19)
(1.69614 -0.0856325 0)
(1.74715 -0.0812055 0)
(1.79614 -0.0770759 0)
(1.84325 -0.0732281 3.43842e-19)
(1.88858 -0.0696514 0)
(1.93227 -0.0663315 -6.92494e-19)
(1.97443 -0.0632512 -3.49013e-19)
(2.01516 -0.0604036 0)
(2.05459 -0.0577726 -3.51996e-19)
(2.0928 -0.0553435 0)
(2.12989 -0.0531033 0)
(2.16595 -0.0510409 -1.06588e-18)
(2.20107 -0.0491482 7.12445e-19)
(2.23534 -0.0474198 0)
(2.26882 -0.0458363 7.16918e-19)
(2.3016 -0.0443842 -3.60122e-19)
(2.33375 -0.0430497 0)
(2.36533 -0.0418267 0)
(2.3964 -0.0407056 0)
(2.427 -0.0396744 -1.08982e-18)
(2.45718 -0.0387248 0)
(2.48699 -0.0378377 -3.65083e-19)
(2.51646 -0.037006 0)
(2.5456 -0.0362233 0)
(2.57444 -0.0354584 0)
(2.60296 -0.0346876 0)
(2.63115 -0.0338892 0)
(2.65896 -0.0330172 0)
(2.68632 -0.0320178 -7.37399e-19)
(2.71307 -0.0308337 0)
(2.73906 -0.0293322 -3.70425e-19)
(2.76396 -0.0273088 1.11308e-18)
(2.78734 -0.0244283 0)
(2.80846 -0.0200671 0)
(2.82658 -0.0129476 -7.52247e-19)
(2.83978 -0.000979308 -7.60325e-19)
(2.85232 0.021381 7.64785e-19)
(2.85316 0.0634182 7.8497e-19)
(0.0166927 -0.360655 -9.82186e-19)
(0.040278 -0.351033 -4.75928e-19)
(0.0502083 -0.301787 -2.09637e-19)
(0.0560667 -0.250748 -8.11586e-20)
(0.0574919 -0.200235 0)
(0.0536172 -0.150468 1.24545e-19)
(0.0442969 -0.101415 -5.82692e-20)
(0.029708 -0.0529891 0)
(0.0100087 -0.00539229 -5.52751e-20)
(-0.0147552 0.0412087 0)
(-0.0446141 0.0866661 1.05474e-19)
(-0.0796591 0.130731 0)
(-0.120084 0.173159 5.10531e-20)
(-0.166201 0.21381 1.00232e-19)
(-0.218393 0.252804 -9.80304e-20)
(-0.277082 0.290616 0)
(-0.342682 0.327966 -9.25052e-20)
(-0.415177 0.365175 0)
(-0.494234 0.402522 0)
(-0.578891 0.43998 -8.23488e-20)
(-0.66754 0.477009 0)
(-0.758676 0.512617 1.50937e-22)
(-0.850749 0.545252 0)
(-0.942285 0.573451 0)
(-1.03207 0.596123 -4.35976e-23)
(-1.1191 0.6126 -6.28466e-20)
(-1.20264 0.622608 -6.01674e-20)
(-1.28227 0.626221 -5.7734e-20)
(-1.35785 0.623817 0)
(-1.42953 0.616018 -1.06921e-19)
(-1.49764 0.603617 0)
(-1.5626 0.587514 -4.99601e-20)
(-1.62483 0.568659 0)
(-1.68478 0.54793 0)
(-1.74281 0.52611 4.59083e-20)
(-1.79924 0.503879 0)
(-1.85431 0.481794 -4.38465e-20)
(-1.90821 0.460294 -5.16611e-23)
(-1.9611 0.439707 8.44341e-20)
(-2.01308 0.420261 -8.29567e-20)
(-2.06423 0.402102 0)
(-2.11461 0.385306 0)
(-2.16428 0.369894 -3.96348e-20)
(-2.21329 0.355847 0)
(-2.26168 0.343115 -3.89746e-20)
(-2.30951 0.331627 3.85915e-20)
(-2.3568 0.321296 3.8241e-20)
(-2.40362 0.312028 0)
(-2.44999 0.303723 -3.76234e-20)
(-2.49597 0.29628 -3.73512e-20)
(-2.54159 0.289598 7.38348e-20)
(-2.58689 0.283579 -3.68682e-20)
(-2.63191 0.278125 -3.66536e-20)
(-2.67667 0.273145 0)
(-2.72119 0.268548 0)
(-2.7655 0.264248 3.61e-20)
(-2.8096 0.260164 0)
(-2.85349 0.256217 0)
(-2.89717 0.252331 -7.13211e-20)
(-2.94062 0.248436 -7.10742e-20)
(-2.98381 0.244463 0)
(-3.02671 0.240349 0)
(-3.06927 0.236029 0)
(-3.11144 0.231441 0)
(-3.15314 0.226527 -7.01789e-20)
(-3.1943 0.221227 6.96491e-20)
(-3.23483 0.215487 6.99749e-20)
(-3.27463 0.209253 1.39392e-19)
(-3.31359 0.202475 0)
(-3.35157 0.195103 -4.07598e-22)
(-3.38844 0.187089 0)
(-3.42406 0.178386 -6.9792e-20)