/*--------------------------------*- C++ -*----------------------------------*\
  =========                 |
  \\      /  F ield         | OpenFOAM: The Open Source CFD Toolbox
   \\    /   O peration     | Website:  https://openfoam.org
    \\  /    A nd           | Version:  8
     \\/     M anipulation  |
\*---------------------------------------------------------------------------*/
FoamFile
{
    version     2.0;
    format      ascii;
    class       volScalarField;
    location    "200";
    object      p;
}
// * * * * * * * * * * * * * * * * * * * * * * * * * * * * * * * * * * * * * //

dimensions      [0 2 -2 0 0 0 0];

internalField   nonuniform List<scalar> 
404911
(
0.429958
0.428954
0.427446
0.420377
0.43054
0.428406
0.426576
0.423553
0.421694
0.420931
0.436194
0.435227
0.433495
0.431477
0.42941
0.427814
0.438281
0.437038
0.436038
0.434742
0.44006
0.439065
0.43781
0.441518
0.439987
0.438985
0.444141
0.442203
0.440402
0.44837
0.446901
0.445352
0.443617
0.442456
0.449343
0.448021
0.446767
0.45365
0.451842
0.450645
0.449525
0.456769
0.454974
0.453439
0.451843
0.450473
0.457495
0.456102
0.455017
0.453566
0.460725
0.45889
0.457101
0.455839
0.461315
0.460084
0.466867
0.429813
0.432733
0.430328
0.435267
0.433505
0.438081
0.437066
0.435893
0.440181
0.439096
0.438479
0.441644
0.440325
0.444043
0.442587
0.441098
0.446614
0.445323
0.445556
0.443967
0.448701
0.447812
0.451582
0.449939
0.454494
0.45348
0.452116
0.457498
0.455787
0.460062
0.458263
0.457929
0.460447
0.459381
0.465088
0.467919
0.466706
0.471896
0.469591
0.468919
0.475408
0.472818
0.470859
0.480483
0.477858
0.475533
0.480518
0.213182
0.209641
0.206291
0.224357
0.224276
0.218592
0.219128
0.215569
0.211958
0.207731
0.199801
0.234026
0.229802
0.223832
0.222103
0.219791
0.217475
0.214388
0.210697
0.199424
0.242301
0.239466
0.2374
0.234812
0.232223
0.230189
0.226762
0.223908
0.221525
0.218891
0.215948
0.21297
0.208623
0.199207
0.200364
0.196872
0.248756
0.24578
0.243154
0.240488
0.238093
0.235788
0.233453
0.231054
0.228556
0.22582
0.223262
0.220527
0.217591
0.214874
0.199955
0.256452
0.25307
0.250159
0.246897
0.243815
0.241171
0.239043
0.236805
0.234594
0.232273
0.229512
0.226561
0.22432
0.220789
0.217503
0.260711
0.258379
0.255364
0.252288
0.248731
0.24545
0.242113
0.239643
0.237666
0.235456
0.233355
0.231072
0.228272
0.225102
0.222196
0.219565
0.268141
0.264902
0.262257
0.25959
0.257563
0.254488
0.251255
0.248169
0.244388
0.240959
0.238979
0.236784
0.234482
0.23213
0.229314
0.226543
0.223586
0.277471
0.274461
0.272165
0.269028
0.266266
0.263304
0.260816
0.258046
0.255074
0.252016
0.249925
0.245666
0.242671
0.240564
0.238257
0.235789
0.233305
0.230637
0.281979
0.27976
0.276764
0.274032
0.270723
0.267565
0.264883
0.261926
0.259436
0.256064
0.253768
0.250349
0.246198
0.244201
0.242162
0.239784
0.237724
0.23459
0.289719
0.286517
0.284018
0.281533
0.278927
0.275554
0.272161
0.26914
0.266142
0.263452
0.260692
0.258027
0.255658
0.252736
0.248676
0.245771
0.243909
0.241749
0.294612
0.291497
0.288504
0.285902
0.283192
0.28069
0.277505
0.274735
0.271843
0.267857
0.265138
0.262615
0.260307
0.257804
0.255227
0.251514
0.246452
0.301283
0.298637
0.295894
0.293152
0.290111
0.28707
0.284541
0.282409
0.279614
0.277169
0.274303
0.270538
0.267095
0.264187
0.26175
0.25898
0.256893
0.307111
0.304483
0.302429
0.300139
0.297702
0.294481
0.291226
0.288787
0.286503
0.284426
0.281994
0.278663
0.275436
0.272232
0.26956
0.266351
0.263607
0.260598
0.311381
0.309527
0.308408
0.306255
0.303592
0.301613
0.298748
0.295581
0.293338
0.290147
0.288566
0.286603
0.283471
0.280431
0.276827
0.273303
0.27139
0.269445
0.317544
0.314747
0.312915
0.311468
0.309801
0.3072
0.304142
0.302408
0.299526
0.296703
0.294044
0.291882
0.290785
0.288897
0.286257
0.282397
0.279106
0.275861
0.321527
0.318647
0.316176
0.314087
0.312328
0.310234
0.307678
0.305276
0.302999
0.300569
0.297081
0.293969
0.291996
0.29119
0.289615
0.287388
0.283567
0.278322
0.326798
0.324615
0.322288
0.319747
0.317341
0.315016
0.312892
0.311045
0.308427
0.30619
0.304219
0.302252
0.299155
0.29569
0.292604
0.291014
0.289163
0.286614
0.3304
0.32786
0.32579
0.323609
0.320858
0.318128
0.316745
0.313873
0.311146
0.309121
0.307031
0.305299
0.303091
0.300674
0.297892
0.294692
0.293088
0.290733
0.334612
0.33392
0.332282
0.330001
0.327137
0.324903
0.322301
0.320217
0.317823
0.315494
0.312151
0.310066
0.307916
0.305741
0.303851
0.301596
0.298864
0.295294
0.338532
0.336235
0.335832
0.335279
0.332244
0.329114
0.326365
0.323813
0.321481
0.318791
0.317304
0.313586
0.311484
0.30919
0.307269
0.305227
0.302487
0.34148
0.340059
0.338864
0.337302
0.336685
0.336397
0.333508
0.330522
0.328156
0.325741
0.323098
0.320633
0.318355
0.31504
0.313192
0.311144
0.30899
0.306821
0.344922
0.342717
0.341417
0.339928
0.338206
0.337059
0.33641
0.334608
0.33176
0.329536
0.327049
0.324805
0.32223
0.319291
0.316812
0.314651
0.312488
0.310884
0.346798
0.345344
0.343964
0.342801
0.341048
0.338985
0.337959
0.337335
0.335308
0.333266
0.331508
0.328679
0.3265
0.32392
0.321064
0.319244
0.316501
0.314397
0.351135
0.348746
0.347635
0.346423
0.345421
0.344291
0.342132
0.340293
0.338746
0.337428
0.335582
0.333797
0.331734
0.329922
0.327457
0.325401
0.322737
0.3202
0.353989
0.352418
0.351285
0.349943
0.348658
0.347358
0.346971
0.345815
0.344056
0.342043
0.340594
0.338886
0.336683
0.334874
0.333007
0.331313
0.328747
0.327248
0.356898
0.35465
0.353507
0.352072
0.350608
0.349103
0.348083
0.348345
0.347677
0.345057
0.343608
0.342385
0.340502
0.338047
0.336248
0.33476
0.333204
0.330969
0.36013
0.358652
0.357389
0.356051
0.354463
0.353021
0.35147
0.349795
0.348577
0.348147
0.34944
0.34824
0.346346
0.344209
0.342306
0.339831
0.336574
0.33695
0.361075
0.361047
0.36001
0.358675
0.357141
0.355595
0.354102
0.352516
0.350812
0.349267
0.347997
0.347443
0.347643
0.346772
0.345191
0.343599
0.340958
0.339752
0.363035
0.362571
0.362049
0.361064
0.359771
0.358209
0.356638
0.355146
0.353632
0.351995
0.350277
0.348723
0.347519
0.346841
0.345932
0.345108
0.343787
0.34155
0.364941
0.363455
0.363235
0.362663
0.361897
0.360764
0.359344
0.357611
0.356062
0.354677
0.35315
0.351529
0.349973
0.348547
0.347326
0.346292
0.345588
0.344275
0.367478
0.367299
0.365663
0.363764
0.363339
0.363115
0.362477
0.361505
0.360312
0.358831
0.357165
0.355764
0.354341
0.352867
0.351372
0.35002
0.348667
0.346754
0.370501
0.368927
0.367781
0.366539
0.36526
0.364223
0.363457
0.362863
0.361944
0.360928
0.359719
0.358223
0.356863
0.355531
0.35411
0.35265
0.35141
0.350289
0.372794
0.371715
0.370495
0.369299
0.367818
0.366403
0.365108
0.364231
0.363524
0.362699
0.361635
0.36033
0.359078
0.35788
0.356618
0.355458
0.354632
0.353364
0.373507
0.373972
0.373152
0.371784
0.370621
0.369206
0.367732
0.366054
0.365084
0.364312
0.36342
0.362317
0.361095
0.359952
0.358819
0.357629
0.356695
0.376947
0.375249
0.375099
0.374811
0.374412
0.373124
0.371966
0.370556
0.369114
0.367146
0.366184
0.365264
0.364245
0.3631
0.361949
0.360816
0.35991
0.358124
0.380053
0.377901
0.37664
0.376044
0.375817
0.375538
0.373702
0.372613
0.371912
0.370447
0.368288
0.367229
0.366332
0.36527
0.364122
0.362952
0.361993
0.36133
0.380709
0.379974
0.378583
0.377466
0.376616
0.376753
0.376963
0.374727
0.373182
0.372579
0.371601
0.370216
0.368524
0.367486
0.36639
0.365346
0.364733
0.363461
0.384941
0.382863
0.381706
0.380859
0.379654
0.378368
0.377121
0.376318
0.377521
0.375715
0.374313
0.373444
0.372934
0.371283
0.369775
0.368577
0.367555
0.366535
0.386302
0.385113
0.384305
0.383003
0.382135
0.381096
0.379932
0.378439
0.376635
0.377404
0.376252
0.374846
0.373958
0.373531
0.37253
0.371227
0.369921
0.368061
0.388856
0.387487
0.386226
0.385243
0.384271
0.383445
0.382681
0.38193
0.380265
0.378488
0.378979
0.377247
0.37625
0.37511
0.374382
0.373483
0.372492
0.371071
0.389086
0.390026
0.388619
0.387519
0.386532
0.385542
0.384731
0.384101
0.383648
0.382169
0.38092
0.380527
0.378774
0.3775
0.376255
0.375385
0.374769
0.373423
0.392794
0.39203
0.390777
0.389883
0.388682
0.387674
0.386624
0.385659
0.384866
0.384566
0.384227
0.382802
0.381897
0.380149
0.378659
0.377582
0.376485
0.39705
0.394509
0.393949
0.392601
0.391637
0.390826
0.389888
0.388757
0.387502
0.386278
0.385171
0.384582
0.386039
0.386202
0.383963
0.381836
0.380259
0.378988
0.398185
0.396955
0.395865
0.394942
0.393716
0.39276
0.391864
0.391121
0.389816
0.38833
0.386962
0.385706
0.38476
0.385112
0.386218
0.384686
0.383308
0.381491
0.400853
0.399243
0.397907
0.396847
0.395721
0.394684
0.393832
0.392946
0.392647
0.390987
0.389402
0.388034
0.38672
0.385704
0.385064
0.38492
0.384368
0.383169
0.402688
0.401706
0.400456
0.399045
0.397996
0.396895
0.395877
0.394931
0.393944
0.393325
0.392261
0.390768
0.389423
0.388141
0.387038
0.386161
0.385454
0.384713
0.405197
0.404245
0.403139
0.401739
0.40043
0.399304
0.39818
0.397112
0.396104
0.395179
0.394187
0.39316
0.392046
0.390858
0.389642
0.388585
0.387766
0.386186
0.406435
0.406821
0.406072
0.404681
0.403169
0.401826
0.400581
0.399358
0.398219
0.397149
0.396138
0.395114
0.394104
0.393122
0.392138
0.390961
0.390133
0.389192
0.40826
0.407962
0.407956
0.407471
0.406096
0.404489
0.40309
0.401756
0.400471
0.399275
0.398163
0.397101
0.396019
0.395014
0.394124
0.393247
0.39226
0.390968
0.410039
0.40877
0.408708
0.408932
0.408749
0.407043
0.40547
0.404167
0.402804
0.40147
0.40025
0.399132
0.398103
0.397067
0.396094
0.395139
0.394377
0.394069
0.413199
0.411843
0.410415
0.409683
0.408816
0.408539
0.409507
0.407766
0.406082
0.405039
0.404084
0.402577
0.401385
0.40017
0.39919
0.398173
0.39717
0.396527
0.3958
0.415034
0.414427
0.41327
0.411783
0.410401
0.40918
0.408223
0.409683
0.40866
0.407109
0.405873
0.405118
0.403793
0.40249
0.401371
0.400339
0.399413
0.398767
0.416278
0.415209
0.414058
0.412799
0.411474
0.41035
0.409575
0.409713
0.409085
0.407686
0.406824
0.405783
0.404992
0.403902
0.402626
0.401512
0.400776
0.419328
0.418145
0.417243
0.416159
0.415121
0.413976
0.412756
0.411623
0.410929
0.410888
0.410051
0.40882
0.407807
0.40673
0.40584
0.404823
0.403781
0.402577
0.421773
0.420304
0.419351
0.418238
0.417259
0.416302
0.415128
0.413813
0.4128
0.412432
0.41215
0.411035
0.410146
0.409066
0.40792
0.406823
0.405798
0.404174
0.422984
0.422645
0.421477
0.420327
0.419273
0.418364
0.417425
0.416277
0.414723
0.413545
0.413468
0.413179
0.411967
0.411046
0.409867
0.408915
0.4078
0.40695
0.424448
0.423522
0.422366
0.421253
0.420231
0.419311
0.418436
0.417342
0.415648
0.414566
0.414116
0.413432
0.412518
0.411546
0.410535
0.409526
0.408584
0.426703
0.425708
0.42433
0.423279
0.422156
0.421118
0.420186
0.419352
0.418434
0.416599
0.415512
0.414767
0.413956
0.413174
0.412336
0.41156
0.410491
0.428036
0.427578
0.427599
0.426819
0.425416
0.424235
0.423095
0.421975
0.420903
0.419782
0.419124
0.417641
0.416265
0.415438
0.414683
0.413966
0.413359
0.41263
0.430313
0.429254
0.428308
0.428051
0.427337
0.426229
0.42514
0.424078
0.422904
0.421639
0.420254
0.419374
0.418306
0.41718
0.416319
0.415483
0.415344
0.432459
0.431518
0.430002
0.42913
0.428606
0.427877
0.4269
0.42587
0.425018
0.423926
0.422376
0.421095
0.419956
0.419075
0.41806
0.417139
0.416561
0.435722
0.434274
0.433495
0.432387
0.430997
0.429865
0.429119
0.42863
0.427402
0.426558
0.425602
0.424508
0.42326
0.422116
0.420961
0.419921
0.418957
0.418165
0.437132
0.436091
0.435062
0.434151
0.433027
0.431584
0.430259
0.429212
0.428668
0.427842
0.427416
0.426579
0.424972
0.423848
0.423038
0.422086
0.421272
0.420314
0.437648
0.437237
0.436476
0.435711
0.43457
0.433269
0.432004
0.430836
0.429511
0.428918
0.428467
0.427887
0.427323
0.426442
0.424771
0.423784
0.423201
0.422458
0.440354
0.438966
0.438033
0.437015
0.43612
0.434983
0.433501
0.432531
0.431525
0.430615
0.429898
0.429243
0.428805
0.428137
0.427282
0.425861
0.424611
0.42413
0.44287
0.441162
0.440416
0.440068
0.438695
0.437535
0.436546
0.435616
0.43453
0.433242
0.432321
0.431385
0.430469
0.429821
0.429006
0.428136
0.427157
0.426041
0.425024
0.444483
0.44343
0.442138
0.441401
0.440691
0.43938
0.438269
0.437317
0.436403
0.43544
0.434266
0.43306
0.431879
0.430948
0.43003
0.429318
0.428863
0.427427
0.42646
0.444135
0.44437
0.443043
0.442128
0.441255
0.440218
0.43931
0.438041
0.436968
0.436217
0.435145
0.433971
0.432823
0.431876
0.430896
0.430175
0.429823
0.428943
0.447709
0.446588
0.445586
0.444221
0.443136
0.442132
0.4412
0.440202
0.439117
0.437916
0.437105
0.436091
0.43506
0.434001
0.43299
0.432036
0.431149
0.450966
0.449241
0.448002
0.446598
0.445254
0.444154
0.443125
0.442181
0.441054
0.440116
0.43892
0.43823
0.437141
0.436191
0.435282
0.434439
0.432301
0.454267
0.452232
0.450499
0.448863
0.447578
0.446402
0.445376
0.444258
0.44335
0.442125
0.440955
0.440079
0.439272
0.438228
0.437421
0.436481
0.435709
0.457215
0.456971
0.455694
0.453471
0.451457
0.450051
0.448812
0.447741
0.4465
0.44558
0.444425
0.443345
0.442077
0.441261
0.440356
0.439413
0.43856
0.438142
0.460171
0.459525
0.458417
0.457036
0.454788
0.453129
0.451875
0.450739
0.449179
0.447803
0.446754
0.445965
0.444862
0.443579
0.442301
0.441225
0.440429
0.462315
0.461249
0.460092
0.459228
0.457904
0.455978
0.454611
0.453389
0.452286
0.450754
0.449196
0.447982
0.446949
0.445555
0.444451
0.443171
0.442084
0.464506
0.463481
0.462165
0.461027
0.459795
0.458615
0.457184
0.455976
0.4546
0.453381
0.452097
0.450709
0.449316
0.447868
0.446611
0.445491
0.444437
0.467562
0.465969
0.464466
0.462908
0.461798
0.460561
0.459589
0.458477
0.456843
0.4554
0.454397
0.453084
0.451851
0.450475
0.449252
0.448177
0.447058
0.469813
0.468451
0.467053
0.465583
0.464126
0.462532
0.461102
0.46031
0.459439
0.457879
0.456784
0.455605
0.454289
0.453074
0.45171
0.450506
0.449807
0.472382
0.470884
0.469581
0.468189
0.466885
0.465476
0.463714
0.461956
0.461295
0.46026
0.459227
0.458167
0.456972
0.455652
0.454407
0.453472
0.451784
0.473392
0.472092
0.470797
0.469295
0.468065
0.466871
0.46555
0.464072
0.462644
0.461487
0.460177
0.45908
0.457853
0.456668
0.456291
0.454209
0.47715
0.475581
0.473595
0.472287
0.470768
0.469478
0.468148
0.466998
0.465835
0.464222
0.46263
0.461189
0.46015
0.458866
0.457988
0.482062
0.480958
0.47943
0.477022
0.475378
0.47409
0.472574
0.471171
0.469767
0.468099
0.466588
0.46499
0.463862
0.462567
0.461386
0.460458
0.485949
0.484935
0.483253
0.481199
0.478699
0.47755
0.475971
0.474585
0.472666
0.471153
0.469598
0.467447
0.465478
0.464663
0.463909
0.46294
0.491738
0.489473
0.487307
0.484912
0.482707
0.480928
0.479481
0.477981
0.476349
0.474534
0.472892
0.471915
0.469277
0.466989
0.466198
0.465054
0.50079
0.497407
0.49427
0.492173
0.489932
0.487567
0.485112
0.48263
0.480423
0.478897
0.477883
0.476093
0.473822
0.473131
0.47077
0.468983
0.505877
0.502934
0.499917
0.496612
0.494065
0.49206
0.489197
0.486993
0.484992
0.482961
0.481944
0.481198
0.479039
0.476471
0.474
0.47331
0.51223
0.50821
0.504809
0.501893
0.498661
0.495941
0.493929
0.49052
0.488468
0.486006
0.484348
0.484531
0.484736
0.484642
0.48109
0.476727
0.518754
0.515306
0.51082
0.506626
0.503796
0.501375
0.498499
0.496211
0.493276
0.490167
0.487832
0.485566
0.484555
0.484353
0.484128
0.482616
0.524056
0.521379
0.517826
0.513796
0.510132
0.506626
0.503875
0.499981
0.498539
0.495228
0.492721
0.490079
0.488593
0.487016
0.485318
0.484449
0.528471
0.526288
0.523601
0.519998
0.5167
0.512858
0.509919
0.506757
0.503426
0.500512
0.497315
0.494832
0.492909
0.491227
0.489633
0.53291
0.53089
0.528414
0.525212
0.5228
0.518981
0.515987
0.512312
0.509245
0.506493
0.503558
0.499604
0.496652
0.495484
0.494061
0.492241
0.53679
0.534755
0.532743
0.530333
0.5274
0.524562
0.521946
0.519108
0.514982
0.512176
0.509622
0.507196
0.503386
0.500222
0.498047
0.496745
0.539994
0.538433
0.536448
0.534737
0.532209
0.528962
0.52562
0.523302
0.520544
0.517716
0.514319
0.511416
0.509213
0.506407
0.503252
0.541719
0.540133
0.537876
0.536435
0.533395
0.531376
0.527788
0.525723
0.522721
0.520109
0.516805
0.514144
0.511307
0.508904
0.546177
0.544702
0.542754
0.538793
0.536905
0.531953
0.533123
0.530022
0.526798
0.524425
0.522224
0.519269
0.51722
0.554382
0.55163
0.549582
0.547606
0.545562
0.541868
0.538434
0.537339
0.534164
0.531769
0.528921
0.526251
0.524445
0.520505
0.560045
0.556826
0.553931
0.551658
0.549705
0.547115
0.544774
0.542423
0.539099
0.536523
0.533944
0.531158
0.529197
0.527011
0.566329
0.562979
0.559677
0.55672
0.553917
0.552633
0.549659
0.545782
0.54367
0.541223
0.538597
0.535776
0.533542
0.532116
0.572221
0.568833
0.565558
0.561436
0.557141
0.55585
0.555402
0.551804
0.548896
0.546104
0.544171
0.540545
0.538157
0.535671
0.577354
0.573914
0.57093
0.567671
0.563512
0.554924
0.560046
0.558299
0.555405
0.551681
0.548963
0.546834
0.544467
0.539928
0.583211
0.579853
0.575342
0.572809
0.569759
0.565277
0.557261
0.56152
0.561869
0.558791
0.554034
0.551069
0.549481
0.574101
0.571159
0.565636
0.560785
0.55861
0.558667
0.557471
0.554358
0.550399
0.574866
0.571775
0.567529
0.562566
0.560212
0.558388
0.55762
0.553812
0.581581
0.576873
0.573588
0.571013
0.56574
0.561393
0.560806
0.587441
0.584133
0.580507
0.576496
0.573203
0.568135
0.563684
0.586564
0.584508
0.580497
0.576196
0.572296
0.594894
0.591126
0.587224
0.587237
0.583811
0.579144
0.607264
0.604265
0.598726
0.59556
0.585197
0.609987
0.609349
0.605599
0.60224
0.598914
0.580975
0.616067
0.604463
0.600583
0.597918
0.595139
0.620161
0.616682
0.606466
0.0512938
0.0479806
0.0452237
0.0911824
0.0799572
0.0748881
0.0721821
0.0658096
0.0569038
0.045037
0.0575642
0.011601
0.111349
0.106318
0.0985123
0.096299
0.0901196
0.0857349
0.0813398
0.075255
0.0691485
0.0635422
0.0502229
0.0482746
0.0381649
0.0236499
0.0196904
0.125859
0.120465
0.117746
0.112673
0.109208
0.102549
0.0976507
0.0941358
0.0886806
0.0837807
0.0777627
0.0700329
0.0628643
0.0566482
0.050974
0.045566
0.0350312
0.0228355
0.0221982
0.0141995
0.0134762
0.0167307
0.139836
0.136101
0.13287
0.128096
0.122718
0.1189
0.114215
0.109427
0.104737
0.100383
0.0957964
0.0918245
0.0870152
0.0806763
0.0719837
0.0692802
0.0603963
0.0562974
0.0499464
0.041985
0.0333067
0.0233354
0.0164894
0.154907
0.150089
0.146759
0.142125
0.139017
0.133498
0.128284
0.124112
0.119835
0.115686
0.111111
0.106547
0.101899
0.0980673
0.0934977
0.0891039
0.0827581
0.0780723
0.0685721
0.0617598
0.0576718
0.0523794
0.0453054
0.0374919
0.02979
0.160048
0.15773
0.155435
0.151593
0.147677
0.14321
0.139987
0.134594
0.128684
0.123594
0.120713
0.117339
0.113588
0.108219
0.103264
0.0995609
0.0958113
0.0913587
0.0850039
0.0778554
0.0682086
0.0636829
0.0594621
0.0543783
0.0474473
0.167227
0.163422
0.160598
0.158887
0.15597
0.152003
0.147807
0.145532
0.141942
0.136244
0.130037
0.123495
0.121351
0.119151
0.118088
0.112366
0.104821
0.100806
0.0974981
0.0931344
0.0871312
0.0819066
0.0726722
0.0661904
0.0606922
0.174894
0.172445
0.168996
0.165645
0.162394
0.160164
0.157108
0.153377
0.148023
0.145685
0.141878
0.136299
0.13085
0.125807
0.122206
0.121007
0.119161
0.115809
0.107962
0.102556
0.0991066
0.0946775
0.089536
0.0826933
0.0749658
0.18529
0.181178
0.177922
0.176417
0.1741
0.170667
0.166887
0.164109
0.161412
0.158505
0.154196
0.14887
0.145829
0.14266
0.136825
0.131527
0.12697
0.123299
0.121221
0.118729
0.116514
0.109995
0.10482
0.101624
0.097203
0.0906452
0.193856
0.191627
0.189118
0.185933
0.182933
0.180133
0.177995
0.174738
0.171733
0.168607
0.165866
0.162844
0.159333
0.155316
0.150792
0.146652
0.141957
0.136691
0.131693
0.126488
0.125074
0.123214
0.119867
0.11559
0.111861
0.107247
0.103889
0.19771
0.195052
0.192447
0.19001
0.18686
0.183714
0.180465
0.178631
0.175788
0.173167
0.170279
0.167292
0.164327
0.161449
0.156391
0.15259
0.148474
0.143522
0.138291
0.134037
0.131285
0.127801
0.126105
0.122957
0.118278
0.205744
0.204813
0.202737
0.20002
0.196354
0.193417
0.190865
0.187461
0.185023
0.182425
0.179766
0.176939
0.174198
0.171415
0.168743
0.165929
0.162922
0.157984
0.15437
0.150506
0.145677
0.141007
0.137274
0.134365
0.132642
0.209362
0.206531
0.205101
0.204362
0.201831
0.19721
0.19455
0.191706
0.188001
0.18533
0.183344
0.180851
0.177323
0.174605
0.171838
0.169751
0.167221
0.164044
0.159598
0.156165
0.152665
0.148271
0.144047
0.139869
0.21796
0.215987
0.212349
0.209477
0.206711
0.205012
0.205416
0.203681
0.199611
0.196024
0.192919
0.189589
0.186305
0.183349
0.181504
0.177933
0.175142
0.172852
0.170873
0.168303
0.164996
0.160915
0.158011
0.154765
0.150283
0.226192
0.222305
0.219416
0.217536
0.214199
0.21079
0.207288
0.20462
0.202726
0.202953
0.202926
0.198444
0.194447
0.190407
0.187484
0.185209
0.181989
0.179144
0.17648
0.174365
0.17231
0.169582
0.165117
0.162491
0.159425
0.232601
0.22974
0.226921
0.224212
0.221534
0.219202
0.2167
0.213059
0.209157
0.205134
0.201657
0.200894
0.205563
0.201644
0.195384
0.191757
0.188026
0.185483
0.182892
0.1803
0.177298
0.174636
0.172781
0.170821
0.167621
0.240413
0.237815
0.236574
0.234041
0.231437
0.228682
0.225315
0.22324
0.220719
0.218478
0.215175
0.21125
0.206865
0.201807
0.198327
0.200677
0.201905
0.197748
0.19339
0.188525
0.185079
0.183692
0.181279
0.177819
0.175068
0.172975
0.24701
0.246549
0.242818
0.240234
0.238031
0.235223
0.232703
0.230082
0.227154
0.225013
0.222653
0.21997
0.217056
0.213683
0.209893
0.204128
0.199378
0.197171
0.196077
0.195783
0.192713
0.189175
0.186016
0.184222
0.18201
0.178798
0.257218
0.252111
0.248553
0.246866
0.244307
0.241439
0.23887
0.236352
0.233896
0.231401
0.228726
0.2264
0.224113
0.22141
0.218771
0.215784
0.211957
0.207872
0.202788
0.199113
0.196415
0.19541
0.193129
0.190147
0.187057
0.183725
0.182144
0.261791
0.260518
0.257447
0.254315
0.251239
0.248246
0.245372
0.242419
0.239722
0.237291
0.234996
0.232685
0.230282
0.227592
0.225183
0.222642
0.220043
0.217144
0.213652
0.210855
0.205453
0.202137
0.199445
0.197079
0.194543
0.191112
0.188238
0.266953
0.264358
0.261443
0.258892
0.255944
0.252935
0.249743
0.246458
0.243252
0.240486
0.238213
0.236066
0.233874
0.231538
0.228987
0.226377
0.22371
0.220901
0.21784
0.214476
0.212288
0.208729
0.204943
0.201734
0.198564
0.19502
0.274245
0.270486
0.268354
0.265964
0.263236
0.26042
0.257631
0.254486
0.251256
0.247927
0.244639
0.241657
0.239277
0.237191
0.235003
0.23274
0.230269
0.227632
0.224851
0.221745
0.218411
0.21448
0.212915
0.210058
0.206536
0.20292
0.280499
0.277182
0.275465
0.272692
0.27016
0.267634
0.264723
0.26186
0.258942
0.256021
0.252876
0.249533
0.246291
0.24326
0.240664
0.238531
0.236309
0.233998
0.231544
0.228991
0.226195
0.223133
0.219358
0.21587
0.213718
0.210478
0.285007
0.282196
0.279546
0.276846
0.274546
0.272134
0.269155
0.266165
0.263292
0.260451
0.257598
0.254546
0.251281
0.247932
0.244884
0.242249
0.240074
0.23778
0.23536
0.232875
0.230378
0.227711
0.224856
0.221822
0.218613
0.292908
0.290398
0.287129
0.284327
0.281369
0.278896
0.276433
0.273649
0.270715
0.267818
0.264941
0.262131
0.259298
0.256301
0.25322
0.249853
0.246587
0.243992
0.241784
0.239453
0.236882
0.234319
0.231662
0.229291
0.226839
0.224507
0.299702
0.29777
0.294908
0.292125
0.289087
0.286152
0.283316
0.280758
0.278101
0.275294
0.272475
0.269602
0.266673
0.263796
0.260983
0.258141
0.255399
0.252293
0.248849
0.245902
0.243597
0.241209
0.238455
0.236073
0.233793
0.231788
0.305835
0.303384
0.301617
0.29949
0.296749
0.293871
0.290842
0.287844
0.28508
0.282551
0.279871
0.277201
0.274409
0.271553
0.268585
0.26563
0.26276
0.259913
0.257266
0.254638
0.251374
0.248168
0.245726
0.242989
0.240768
0.238341
0.235872
0.308716
0.307084
0.305471
0.303445
0.301228
0.298565
0.295579
0.292513
0.289492
0.286745
0.284283
0.281733
0.27911
0.276301
0.273403
0.270518
0.267627
0.264658
0.261698
0.258965
0.256526
0.253493
0.250505
0.248156
0.245544
0.243569
0.314217
0.312208
0.310276
0.308654
0.307112
0.305114
0.302725
0.300044
0.297076
0.294057
0.291046
0.288426
0.286129
0.283748
0.281005
0.278021
0.27506
0.272196
0.269567
0.266569
0.263646
0.260954
0.258242
0.255653
0.251712
0.250356
0.31736
0.315593
0.313549
0.311638
0.31017
0.308706
0.306256
0.303778
0.301233
0.298465
0.295322
0.292501
0.290098
0.288006
0.285603
0.282701
0.27972
0.276659
0.273628
0.271211
0.268516
0.265555
0.262772
0.260576
0.25779
0.323735
0.321665
0.319392
0.316755
0.314714
0.312923
0.31153
0.309731
0.307036
0.304681
0.302223
0.299552
0.296506
0.293832
0.291629
0.289895
0.287892
0.284842
0.281858
0.278934
0.275881
0.273275
0.270767
0.268332
0.264392
0.327506
0.325622
0.323309
0.320702
0.318081
0.315821
0.314064
0.312511
0.310453
0.307645
0.305394
0.303141
0.300619
0.297578
0.294462
0.29203
0.290294
0.288794
0.286652
0.283362
0.280471
0.277549
0.275124
0.27293
0.271385
0.331888
0.330604
0.329204
0.32691
0.324659
0.321881
0.319282
0.317009
0.315127
0.313316
0.311136
0.308572
0.306392
0.304335
0.301994
0.299055
0.295532
0.29303
0.290852
0.28854
0.286553
0.284006
0.281343
0.279399
0.276976
0.335409
0.333626
0.332385
0.330796
0.328443
0.325848
0.323243
0.320586
0.318181
0.316107
0.314016
0.311772
0.309502
0.307357
0.305399
0.303445
0.300707
0.297435
0.294737
0.292247
0.290055
0.287841
0.285787
0.28349
0.28102
0.33884
0.337696
0.3365
0.335095
0.334222
0.332751
0.329959
0.327211
0.324692
0.322151
0.319456
0.317223
0.314981
0.312627
0.31039
0.308147
0.306007
0.303955
0.301689
0.298989
0.29624
0.293956
0.291863
0.290047
0.287719
0.341632
0.340374
0.338917
0.337587
0.336573
0.335843
0.334719
0.331902
0.328965
0.326333
0.323888
0.321144
0.318526
0.316045
0.313719
0.311538
0.30941
0.30725
0.305094
0.302715
0.30035
0.29789
0.295878
0.292547
0.345722
0.343864
0.342716
0.341354
0.340019
0.33867
0.337529
0.336701
0.335928
0.333597
0.330889
0.328252
0.325649
0.322956
0.320119
0.317486
0.315034
0.312938
0.310933
0.308855
0.306725
0.304284
0.301862
0.299951
0.297747
0.348087
0.346608
0.345406
0.343982
0.342549
0.34122
0.339766
0.338403
0.337401
0.336685
0.334852
0.332552
0.330165
0.327491
0.324977
0.322009
0.319162
0.31666
0.314407
0.312463
0.310581
0.308405
0.306127
0.3031
0.351754
0.35035
0.349467
0.347867
0.346511
0.34516
0.343839
0.342529
0.340979
0.339435
0.338382
0.337448
0.335763
0.33379
0.331637
0.329183
0.326853
0.324064
0.321196
0.318598
0.316213
0.314132
0.312052
0.309892
0.307825
0.354183
0.35286
0.351665
0.350378
0.348936
0.347478
0.346226
0.34519
0.343899
0.34225
0.340676
0.339432
0.338171
0.336491
0.334627
0.33256
0.330323
0.328021
0.32557
0.322933
0.320418
0.318222
0.316374
0.314123
0.357729
0.356286
0.355249
0.353752
0.352551
0.351184
0.349744
0.34831
0.347191
0.346537
0.345267
0.34358
0.342048
0.340703
0.339236
0.33746
0.335622
0.33376
0.331817
0.329569
0.327145
0.324684
0.322215
0.320554
0.31892
0.35957
0.358854
0.35755
0.356223
0.354771
0.353307
0.351878
0.350423
0.348992
0.347964
0.347675
0.346685
0.345
0.343494
0.342066
0.34046
0.338657
0.336885
0.335214
0.333405
0.331312
0.329011
0.326787
0.324564
0.361515
0.360975
0.359919
0.358771
0.357258
0.3557
0.354185
0.352682
0.351167
0.349636
0.348463
0.347972
0.347815
0.346651
0.345212
0.343634
0.341939
0.340054
0.338188
0.336752
0.335171
0.333222
0.331205
0.329357
0.364305
0.363144
0.362456
0.361701
0.360941
0.359771
0.358282
0.356726
0.355207
0.353676
0.3521
0.350493
0.349034
0.34775
0.347026
0.34673
0.345974
0.344649
0.343071
0.341247
0.339543
0.338112
0.336558
0.334951
0.333057
0.366532
0.365317
0.364039
0.363131
0.362592
0.361904
0.360792
0.359348
0.357839
0.356351
0.354814
0.35324
0.351613
0.349996
0.348451
0.347204
0.346372
0.345586
0.344585
0.34335
0.341956
0.340628
0.33966
0.338095
0.369412
0.367208
0.366156
0.364829
0.363834
0.363301
0.362689
0.361671
0.360344
0.358964
0.357517
0.355994
0.354451
0.352872
0.351282
0.349745
0.348375
0.347207
0.346211
0.345122
0.344084
0.342847
0.341761
0.340496
0.370496
0.369849
0.368389
0.367047
0.365667
0.364542
0.363898
0.363259
0.362314
0.361135
0.359871
0.358519
0.357105
0.355633
0.354149
0.352696
0.351289
0.349954
0.348668
0.347435
0.346392
0.345323
0.344485
0.373087
0.372409
0.37163
0.370627
0.369472
0.368059
0.366693
0.36556
0.364633
0.363783
0.362829
0.361729
0.360596
0.35936
0.358086
0.356732
0.355374
0.354006
0.352704
0.351447
0.350208
0.34894
0.347711
0.346351
0.375228
0.374075
0.373343
0.372563
0.371731
0.370573
0.369238
0.367869
0.366643
0.36555
0.364526
0.363493
0.362384
0.361269
0.360156
0.358998
0.357755
0.356474
0.3552
0.353939
0.352875
0.351588
0.350574
0.348814
0.37682
0.376008
0.375103
0.374318
0.373683
0.372883
0.371762
0.370475
0.36912
0.367818
0.366625
0.365476
0.364346
0.363187
0.362048
0.360984
0.359913
0.358722
0.357505
0.356294
0.355041
0.35388
0.352476
0.379835
0.378545
0.378006
0.376887
0.375995
0.375296
0.374792
0.374126
0.372941
0.371663
0.370358
0.369051
0.367796
0.366572
0.365355
0.364135
0.362975
0.361936
0.360912
0.359784
0.358571
0.357465
0.356352
0.354121
0.383034
0.380981
0.379896
0.378975
0.377785
0.376814
0.376159
0.375861
0.375288
0.373939
0.372633
0.371468
0.370262
0.368978
0.367725
0.366482
0.365248
0.364088
0.363026
0.361982
0.361
0.359807
0.358638
0.358335
0.383476
0.383156
0.382206
0.381069
0.379905
0.378692
0.37763
0.376866
0.376656
0.376249
0.374828
0.373546
0.372463
0.371379
0.370163
0.368914
0.367668
0.366433
0.365279
0.364179
0.363137
0.362101
0.361193
0.359618
0.385951
0.385118
0.384201
0.383127
0.382028
0.380864
0.379684
0.378561
0.377578
0.377119
0.376914
0.375664
0.374478
0.373426
0.372417
0.371254
0.370035
0.368784
0.367566
0.366429
0.365284
0.364146
0.363389
0.3889
0.388474
0.387228
0.386226
0.385255
0.384192
0.383093
0.382009
0.380904
0.3798
0.378621
0.377709
0.3776
0.376518
0.375413
0.374385
0.373425
0.372363
0.371168
0.369888
0.368641
0.367566
0.366452
0.364756
0.392256
0.390303
0.389528
0.388567
0.387475
0.386351
0.385303
0.384278
0.383277
0.3823
0.381329
0.380098
0.379059
0.37866
0.377577
0.376511
0.375481
0.374507
0.373462
0.372263
0.371107
0.369795
0.368613
0.36793
0.393769
0.393085
0.39184
0.390624
0.389728
0.388649
0.387521
0.38647
0.385475
0.384524
0.383649
0.382842
0.381747
0.38072
0.379939
0.378787
0.377696
0.376647
0.375637
0.374587
0.373377
0.372136
0.37098
0.396625
0.39522
0.393979
0.39293
0.391864
0.390817
0.389775
0.388683
0.387621
0.386567
0.385578
0.384708
0.384096
0.383449
0.382401
0.381291
0.380049
0.378948
0.377931
0.376894
0.375778
0.374695
0.373502
0.398328
0.397363
0.39626
0.394989
0.393831
0.392818
0.391833
0.390857
0.389836
0.388722
0.387522
0.38634
0.385315
0.384836
0.384879
0.384252