/*--------------------------------*- C++ -*----------------------------------*\
  =========                 |
  \\      /  F ield         | OpenFOAM: The Open Source CFD Toolbox
   \\    /   O peration     | Website:  https://openfoam.org
    \\  /    A nd           | Version:  8
     \\/     M anipulation  |
\*---------------------------------------------------------------------------*/
FoamFile
{
    version     2.0;
    format      ascii;
    class       volScalarField;
    location    "110";
    object      p;
}
// * * * * * * * * * * * * * * * * * * * * * * * * * * * * * * * * * * * * * //

dimensions      [0 2 -2 0 0 0 0];

internalField   nonuniform List<scalar> 
404911
(
-0.879086
-0.878262
-0.872335
-0.853904
-0.886382
-0.882536
-0.872521
-0.860853
-0.85815
-0.855933
-0.906865
-0.902788
-0.899704
-0.895702
-0.893229
-0.879992
-0.915122
-0.912206
-0.907205
-0.903761
-0.926067
-0.922591
-0.918967
-0.93828
-0.934205
-0.933767
-0.950653
-0.947187
-0.94136
-0.967137
-0.96102
-0.958838
-0.955947
-0.945371
-0.97455
-0.972246
-0.97237
-0.99016
-0.988547
-0.988917
-0.986629
-0.999833
-0.997479
-0.996792
-0.997336
-0.997552
-1.00686
-1.00652
-1.00431
-1.0028
-1.01109
-1.01523
-1.01501
-1.01167
-1.01257
-1.0185
-1.05282
-0.879736
-0.885361
-0.882654
-0.900448
-0.898236
-0.916214
-0.912209
-0.907485
-0.925368
-0.92246
-0.916778
-0.93807
-0.933421
-0.951725
-0.947409
-0.942763
-0.961542
-0.960032
-0.952821
-0.948034
-0.976838
-0.971269
-0.990483
-0.988245
-1.00085
-0.998493
-0.998336
-1.00771
-1.00722
-1.01696
-1.01685
-1.0123
-1.02334
-1.02071
-1.0587
-1.06094
-1.05835
-1.07393
-1.07331
-1.06736
-1.08606
-1.08669
-1.08277
-1.0951
-1.09399
-1.09358
-1.09997
-0.217095
-0.211105
-0.204683
-0.230503
-0.213024
-0.232966
-0.221948
-0.221535
-0.218855
-0.219045
-0.200309
-0.244302
-0.245611
-0.232497
-0.232247
-0.23027
-0.228204
-0.234119
-0.224349
-0.187871
-0.265666
-0.262549
-0.254261
-0.251879
-0.250268
-0.251485
-0.240202
-0.238693
-0.238017
-0.241958
-0.237093
-0.227839
-0.232432
-0.241982
-0.217585
-0.201884
-0.285734
-0.27816
-0.273026
-0.269161
-0.264294
-0.258915
-0.256411
-0.258236
-0.264267
-0.23687
-0.241827
-0.254428
-0.245261
-0.256412
-0.220859
-0.299335
-0.295142
-0.286555
-0.281823
-0.276309
-0.274297
-0.27004
-0.263619
-0.260826
-0.259642
-0.262819
-0.258975
-0.248867
-0.260268
-0.25616
-0.306295
-0.304866
-0.301414
-0.294024
-0.288656
-0.281735
-0.275637
-0.273789
-0.272191
-0.26432
-0.264423
-0.260647
-0.261361
-0.260115
-0.260813
-0.248996
-0.318333
-0.316641
-0.311791
-0.3081
-0.304769
-0.29882
-0.293682
-0.286452
-0.28078
-0.278122
-0.279224
-0.272711
-0.271781
-0.270483
-0.269392
-0.26743
-0.260941
-0.3482
-0.341972
-0.338745
-0.329736
-0.323471
-0.316839
-0.309843
-0.309251
-0.305225
-0.30304
-0.29446
-0.291293
-0.286584
-0.285321
-0.279119
-0.280249
-0.276888
-0.272114
-0.365062
-0.353767
-0.352407
-0.345335
-0.336209
-0.331847
-0.324962
-0.320474
-0.315389
-0.311443
-0.305417
-0.301776
-0.29785
-0.295849
-0.291408
-0.288218
-0.282113
-0.284005
-0.385392
-0.382406
-0.377123
-0.371144
-0.362427
-0.356474
-0.349087
-0.339541
-0.332378
-0.327236
-0.322784
-0.320694
-0.316773
-0.314654
-0.310801
-0.301
-0.29865
-0.29652
-0.391996
-0.392718
-0.389362
-0.386696
-0.378937
-0.372312
-0.367122
-0.36068
-0.355523
-0.346839
-0.336243
-0.332617
-0.328398
-0.327043
-0.324559
-0.318531
-0.315926
-0.406741
-0.405931
-0.40561
-0.401761
-0.396917
-0.389829
-0.384231
-0.384137
-0.378842
-0.372335
-0.365427
-0.355742
-0.347897
-0.342992
-0.33824
-0.335171
-0.332342
-0.41302
-0.4155
-0.415415
-0.412658
-0.411099
-0.408309
-0.403953
-0.396456
-0.392925
-0.3937
-0.390305
-0.380406
-0.372653
-0.362111
-0.35672
-0.351826
-0.345175
-0.341164
-0.434073
-0.430155
-0.422566
-0.421044
-0.417928
-0.419923
-0.416734
-0.412803
-0.405151
-0.401324
-0.399284
-0.397331
-0.394153
-0.387923
-0.378242
-0.371
-0.365362
-0.360298
-0.447426
-0.445878
-0.441197
-0.434996
-0.427006
-0.424543
-0.421868
-0.426332
-0.425015
-0.419647
-0.411659
-0.40488
-0.4045
-0.400892
-0.397981
-0.395053
-0.386614
-0.380468
-0.459963
-0.45661
-0.455075
-0.44993
-0.447095
-0.434048
-0.429745
-0.427792
-0.428876
-0.430497
-0.423721
-0.414989
-0.412722
-0.410368
-0.404235
-0.398242
-0.395964
-0.395205
-0.479572
-0.475604
-0.471551
-0.464902
-0.460045
-0.455614
-0.451628
-0.447195
-0.439903
-0.436149
-0.434593
-0.43335
-0.431158
-0.421965
-0.417933
-0.420043
-0.420382
-0.41207
-0.481619
-0.481362
-0.479579
-0.476218
-0.467218
-0.462602
-0.459137
-0.452953
-0.450931
-0.450361
-0.449613
-0.443921
-0.437156
-0.435597
-0.431779
-0.4261
-0.423987
-0.424583
-0.500221
-0.495483
-0.491316
-0.487772
-0.48306
-0.481478
-0.476432
-0.467635
-0.462645
-0.458003
-0.456324
-0.457114
-0.455049
-0.450828
-0.440325
-0.439719
-0.438449
-0.439384
-0.504003
-0.5055
-0.502402
-0.495421
-0.492091
-0.491147
-0.488465
-0.484718
-0.477276
-0.473266
-0.466443
-0.464695
-0.465217
-0.462287
-0.456855
-0.450281
-0.447659
-0.521396
-0.521613
-0.518
-0.512888
-0.50997
-0.505517
-0.501706
-0.498356
-0.496368
-0.493321
-0.487296
-0.481123
-0.476541
-0.47342
-0.474675
-0.471856
-0.466593
-0.463926
-0.530526
-0.530946
-0.526083
-0.523752
-0.520608
-0.518724
-0.513084
-0.510931
-0.507163
-0.501723
-0.499288
-0.49606
-0.489669
-0.485269
-0.481621
-0.48252
-0.483258
-0.476661
-0.537722
-0.538339
-0.538322
-0.5345
-0.531134
-0.52651
-0.523901
-0.520126
-0.517509
-0.51595
-0.512347
-0.50467
-0.499984
-0.49866
-0.49317
-0.480788
-0.49104
-0.486696
-0.541054
-0.547403
-0.547704
-0.54585
-0.542601
-0.541731
-0.540134
-0.530587
-0.526603
-0.523246
-0.521108
-0.520937
-0.518248
-0.513309
-0.502836
-0.499977
-0.50035
-0.500609
-0.551744
-0.551447
-0.551103
-0.551312
-0.552724
-0.552403
-0.548025
-0.546583
-0.545486
-0.538862
-0.533915
-0.528429
-0.525392
-0.52586
-0.524781
-0.519374
-0.515349
-0.51112
-0.553862
-0.557791
-0.557523
-0.558589
-0.560245
-0.561891
-0.561138
-0.556618
-0.548816
-0.547994
-0.544928
-0.541518
-0.536702
-0.531991
-0.531483
-0.531578
-0.529016
-0.526111
-0.56752
-0.565311
-0.562908
-0.562347
-0.563456
-0.564369
-0.56588
-0.569308
-0.571386
-0.567891
-0.551079
-0.550743
-0.548104
-0.545633
-0.541995
-0.539906
-0.549017
-0.533136
-0.578145
-0.573169
-0.571214
-0.569062
-0.568298
-0.568205
-0.568316
-0.569627
-0.573341
-0.577992
-0.578992
-0.567425
-0.557118
-0.552611
-0.549415
-0.545102
-0.546872
-0.544906
-0.582541
-0.580457
-0.578579
-0.576443
-0.574328
-0.573324
-0.572096
-0.571385
-0.571806
-0.575186
-0.580362
-0.581711
-0.575656
-0.566801
-0.56043
-0.557118
-0.554562
-0.55493
-0.589806
-0.587209
-0.585039
-0.582542
-0.58085
-0.579551
-0.578004
-0.575045
-0.574507
-0.575062
-0.577731
-0.581639
-0.583937
-0.580865
-0.575617
-0.569711
-0.56436
-0.560053
-0.605313
-0.596864
-0.596942
-0.594868
-0.590396
-0.58751
-0.586357
-0.587867
-0.585528
-0.583373
-0.578727
-0.579778
-0.58143
-0.583814
-0.585916
-0.584176
-0.581232
-0.581241
-0.612201
-0.60909
-0.607069
-0.602857
-0.600916
-0.598071
-0.594453
-0.59321
-0.596476
-0.593553
-0.591555
-0.585945
-0.586231
-0.586743
-0.588181
-0.588797
-0.58991
-0.58512
-0.618131
-0.618838
-0.615254
-0.610865
-0.607932
-0.60422
-0.602
-0.599518
-0.597545
-0.598604
-0.600217
-0.59825
-0.595041
-0.593797
-0.591965
-0.59118
-0.589941
-0.591818
-0.63216
-0.626234
-0.623969
-0.621579
-0.618799
-0.615129
-0.609684
-0.605539
-0.604098
-0.602358
-0.602175
-0.60325
-0.602904
-0.600894
-0.600161
-0.599177
-0.595473
-0.63934
-0.641468
-0.636501
-0.632346
-0.629951
-0.627283
-0.625481
-0.623706
-0.617108
-0.611301
-0.609662
-0.608348
-0.607359
-0.608065
-0.607516
-0.606419
-0.604929
-0.607718
-0.6437
-0.648362
-0.64684
-0.641013
-0.637298
-0.63486
-0.632166
-0.62976
-0.628263
-0.623508
-0.618346
-0.615148
-0.614034
-0.613086
-0.613082
-0.612878
-0.613025
-0.606103
-0.656951
-0.654496
-0.65578
-0.654191
-0.649546
-0.643092
-0.639887
-0.638215
-0.633795
-0.634279
-0.631602
-0.626026
-0.621961
-0.620758
-0.619747
-0.617658
-0.614325
-0.616203
-0.660294
-0.664439
-0.662611
-0.661822
-0.662209
-0.662237
-0.65964
-0.652019
-0.646597
-0.643847
-0.639259
-0.639786
-0.637979
-0.634536
-0.629428
-0.62811
-0.627677
-0.624841
-0.671373
-0.670386
-0.668826
-0.668628
-0.668135
-0.669383
-0.670419
-0.669608
-0.661868
-0.653788
-0.651896
-0.645221
-0.644577
-0.644766
-0.640515
-0.637064
-0.635537
-0.63645
-0.678848
-0.678179
-0.676976
-0.674979
-0.674124
-0.674396
-0.675432
-0.676169
-0.676484
-0.674091
-0.667511
-0.661154
-0.654036
-0.650388
-0.650048
-0.647343
-0.644369
-0.641774
-0.694281
-0.683894
-0.683821
-0.682019
-0.680565
-0.680024
-0.680754
-0.681657
-0.681204
-0.67935
-0.67875
-0.673351
-0.668443
-0.662955
-0.658479
-0.656185
-0.651419
-0.652254
-0.694682
-0.693523
-0.693062
-0.690004
-0.688115
-0.686821
-0.68634
-0.687762
-0.688925
-0.687136
-0.681873
-0.678421
-0.676444
-0.674149
-0.669467
-0.665428
-0.664574
-0.702082
-0.706227
-0.701992
-0.70159
-0.699837
-0.697088
-0.694803
-0.693347
-0.692399
-0.694046
-0.695749
-0.695286
-0.687348
-0.681573
-0.681126
-0.680335
-0.676836
-0.671905
-0.715359
-0.712436
-0.71121
-0.708528
-0.708359
-0.707034
-0.704326
-0.699978
-0.697979
-0.697086
-0.698333
-0.701931
-0.702201
-0.694378
-0.687348
-0.686966
-0.685093
-0.682879
-0.722956
-0.720997
-0.719694
-0.717681
-0.716933
-0.716264
-0.715316
-0.71382
-0.706582
-0.704631
-0.701175
-0.70325
-0.706431
-0.706701
-0.702609
-0.697176
-0.694207
-0.692799
-0.735179
-0.729779
-0.727962
-0.72626
-0.723928
-0.723111
-0.722604
-0.722903
-0.7238
-0.716188
-0.712963
-0.708512
-0.708922
-0.710917
-0.711586
-0.709043
-0.70625
-0.703072
-0.740442
-0.741569
-0.737288
-0.734315
-0.732116
-0.729664
-0.727804
-0.726857
-0.727185
-0.727804
-0.726
-0.721965
-0.71824
-0.717088
-0.717121
-0.717792
-0.714908
-0.716189
-0.75278
-0.748531
-0.746883
-0.743711
-0.740887
-0.737829
-0.734579
-0.731722
-0.729851
-0.729032
-0.729539
-0.729095
-0.727266
-0.725613
-0.724389
-0.723012
-0.721762
-0.721235
-0.76318
-0.759082
-0.755957
-0.752355
-0.750286
-0.747041
-0.743272
-0.739359
-0.735617
-0.733257
-0.732028
-0.732073
-0.732525
-0.73216
-0.731262
-0.730017
-0.730066
-0.731097
-0.770803
-0.769567
-0.765109
-0.76112
-0.75715
-0.755102
-0.752563
-0.749115
-0.744282
-0.739532
-0.736085
-0.73584
-0.736234
-0.736817
-0.736737
-0.736949
-0.736504
-0.733297
-0.783783
-0.781525
-0.77987
-0.776122
-0.772272
-0.766363
-0.762723
-0.760284
-0.757316
-0.755427
-0.752079
-0.747177
-0.743055
-0.741459
-0.742369
-0.742394
-0.742072
-0.74144
-0.742085
-0.789411
-0.787569
-0.786368
-0.782978
-0.783724
-0.78127
-0.775806
-0.770329
-0.767437
-0.762868
-0.75967
-0.758338
-0.754912
-0.750254
-0.74809
-0.748914
-0.74872
-0.747996
-0.795719
-0.795423
-0.79461
-0.793741
-0.792393
-0.791039
-0.788492
-0.7837
-0.777394
-0.771527
-0.766025
-0.764028
-0.762435
-0.758564
-0.756086
-0.756106
-0.753233
-0.8072
-0.804907
-0.80338
-0.802353
-0.800865
-0.799799
-0.798741
-0.79816
-0.797673
-0.792405
-0.78506
-0.779442
-0.774109
-0.771256
-0.76889
-0.765978
-0.764012
-0.764791
-0.816743
-0.815051
-0.811349
-0.81086
-0.809462
-0.807462
-0.805231
-0.802335
-0.801344
-0.800767
-0.796938
-0.791414
-0.785926
-0.781189
-0.778309
-0.776424
-0.773575
-0.774467
-0.82919
-0.822452
-0.820286
-0.818616
-0.817908
-0.816298
-0.813836
-0.811257
-0.805482
-0.801952
-0.802715
-0.800987
-0.797606
-0.792291
-0.788258
-0.785532
-0.783038
-0.778532
-0.830152
-0.827232
-0.825267
-0.824506
-0.823924
-0.822351
-0.820583
-0.819365
-0.812515
-0.805269
-0.806279
-0.806157
-0.802967
-0.799228
-0.795649
-0.793056
-0.789868
-0.840252
-0.83618
-0.831121
-0.831083
-0.8302
-0.829131
-0.827435
-0.826163
-0.824911
-0.820028
-0.813103
-0.811894
-0.810711
-0.807967
-0.804724
-0.80232
-0.801095
-0.853328
-0.849104
-0.845084
-0.842872
-0.838136
-0.837585
-0.836191
-0.833707
-0.829625
-0.82975
-0.829203
-0.82571
-0.820551
-0.818337
-0.816844
-0.813809
-0.81015
-0.807017
-0.866068
-0.864831
-0.86061
-0.8543
-0.850832
-0.8469
-0.844563
-0.842803
-0.839734
-0.834393
-0.832075
-0.834339
-0.832525
-0.828113
-0.825116
-0.824224
-0.819394
-0.876393
-0.872016
-0.869628
-0.864804
-0.860519
-0.854797
-0.851722
-0.850593
-0.849667
-0.848151
-0.843366
-0.838497
-0.837931
-0.836766
-0.834625
-0.831542
-0.830497
-0.888425
-0.886257
-0.88228
-0.877718
-0.874641
-0.869868
-0.86567
-0.861431
-0.857075
-0.855475
-0.853603
-0.852535
-0.850573
-0.847141
-0.843885
-0.842313
-0.840739
-0.839198
-0.896207
-0.89482
-0.8913
-0.887508
-0.883437
-0.880195
-0.876412
-0.871648
-0.866782
-0.863028
-0.860385
-0.857702
-0.855528
-0.854139
-0.85245
-0.850205
-0.847915
-0.846785
-0.908792
-0.903131
-0.899619
-0.896583
-0.892021
-0.88861
-0.883866
-0.881593
-0.878652
-0.874454
-0.87004
-0.866999
-0.864171
-0.861793
-0.859434
-0.857566
-0.856486
-0.853603
-0.9117
-0.914335
-0.910886
-0.905322
-0.901812
-0.897929
-0.894848
-0.889174
-0.884998
-0.884078
-0.88116
-0.877296
-0.87325
-0.869845
-0.866408
-0.865631
-0.864807
-0.861774
-0.93083
-0.927455
-0.922913
-0.918723
-0.917047
-0.911215
-0.90692
-0.903885
-0.900857
-0.897086
-0.893084
-0.890919
-0.886053
-0.881594
-0.878788
-0.874907
-0.872433
-0.871183
-0.870169
-0.935007
-0.937697
-0.934576
-0.930448
-0.925494
-0.922338
-0.91748
-0.91317
-0.908948
-0.906249
-0.902875
-0.900402
-0.897927
-0.894234
-0.889885
-0.885718
-0.881259
-0.882173
-0.878763
-0.951723
-0.945918
-0.941718
-0.937297
-0.93279
-0.928109
-0.924835
-0.9189
-0.914069
-0.910547
-0.909038
-0.906968
-0.904822
-0.901389
-0.897717
-0.893558
-0.8885
-0.886196
-0.959163
-0.956377
-0.951775
-0.94836
-0.944951
-0.941928
-0.937226
-0.931927
-0.92722
-0.922065
-0.917332
-0.915281
-0.913941
-0.9117
-0.90895
-0.906299
-0.902913
-0.970305
-0.968299
-0.96298
-0.958768
-0.95503
-0.952176
-0.94894
-0.945906
-0.941541
-0.934372
-0.930669
-0.927124
-0.924402
-0.92134
-0.918678
-0.915168
-0.917463
-0.986719
-0.980612
-0.975942
-0.972225
-0.967156
-0.964712
-0.960886
-0.956059
-0.952495
-0.948087
-0.94238
-0.938686
-0.935333
-0.932932
-0.930446
-0.92658
-0.924357
-1.00245
-0.998408
-0.996893
-0.992277
-0.986154
-0.982349
-0.977251
-0.973815
-0.969163
-0.96448
-0.961257
-0.956274
-0.950647
-0.945572
-0.943445
-0.940479
-0.936637
-0.93061
-1.01196
-1.00862
-1.00653
-1.00433
-1.00115
-0.996209
-0.99304
-0.988719
-0.98441
-0.97868
-0.97271
-0.968877
-0.963137
-0.959021
-0.955087
-0.952452
-0.946726
-1.0252
-1.02152
-1.01879
-1.01491
-1.01188
-1.00857
-1.00456
-1.00021
-0.996206
-0.992315
-0.986143
-0.979704
-0.975769
-0.972521
-0.967051
-0.964939
-0.964225
-1.03596
-1.03273
-1.0309
-1.02674
-1.02147
-1.01735
-1.01473
-1.01062
-1.00689
-1.00163
-0.997575
-0.992816
-0.988779
-0.984761
-0.981022
-0.975678
-0.97324
-1.04829
-1.04463
-1.04175
-1.03797
-1.03436
-1.02904
-1.02701
-1.02276
-1.01819
-1.0145
-1.00917
-1.00484
-1.00144
-0.997418
-0.994223
-0.988276
-0.985477
-1.06471
-1.05744
-1.05417
-1.04977
-1.0459
-1.0428
-1.03977
-1.0342
-1.02976
-1.02687
-1.02401
-1.01834
-1.01455
-1.01126
-1.00722
-1.00439
-0.997872
-1.0704
-1.07198
-1.06905
-1.06124
-1.05689
-1.05473
-1.05265
-1.04943
-1.04379
-1.03881
-1.03548
-1.03308
-1.02898
-1.02463
-1.02056
-1.01761
-1.01299
-1.08176
-1.07719
-1.07642
-1.07099
-1.06563
-1.06168
-1.05842
-1.0573
-1.05349
-1.04708
-1.04434
-1.04124
-1.03694
-1.03326
-1.02561
-1.02774
-1.08983
-1.08715
-1.08469
-1.08288
-1.07963
-1.07487
-1.06934
-1.06644
-1.06365
-1.06204
-1.05703
-1.05226
-1.04993
-1.04684
-1.0434
-1.10875
-1.10893
-1.10234
-1.09872
-1.09331
-1.09164
-1.08784
-1.0843
-1.07806
-1.07381
-1.07031
-1.06984
-1.06695
-1.06229
-1.05738
-1.05581
-1.12598
-1.11778
-1.11321
-1.11309
-1.1119
-1.1046
-1.09971
-1.09632
-1.0944
-1.08994
-1.08518
-1.08011
-1.07735
-1.07578
-1.07256
-1.06956
-1.13813
-1.13564
-1.13129
-1.1246
-1.12116
-1.11844
-1.11216
-1.10867
-1.1051
-1.10309
-1.10176
-1.09948
-1.09342
-1.08823
-1.08207
-1.0816
-1.15385
-1.16001
-1.15579
-1.15045
-1.14594
-1.13806
-1.13157
-1.12658
-1.12243
-1.1214
-1.11835
-1.11225
-1.10876
-1.1076
-1.10566
-1.09777
-1.18148
-1.17571
-1.17394
-1.1701
-1.16427
-1.1585
-1.14958
-1.14339
-1.13665
-1.13298
-1.12928
-1.12629
-1.12364
-1.11816
-1.11779
-1.11662
-1.19495
-1.19044
-1.19069
-1.18745
-1.1823
-1.17604
-1.16922
-1.16042
-1.15479
-1.15031
-1.14744
-1.13675
-1.12711
-1.12727
-1.12793
-1.12788
-1.20727
-1.2042
-1.19879
-1.19322
-1.19184
-1.1896
-1.18506
-1.17499
-1.16738
-1.16468
-1.16469
-1.16139
-1.15147
-1.14015
-1.1312
-1.13264
-1.22468
-1.2227
-1.21483
-1.21084
-1.20413
-1.19675
-1.19587
-1.1945
-1.18416
-1.1768
-1.17488
-1.17444
-1.17056
-1.16518
-1.1574
-1.15257
-1.24704
-1.2381
-1.23283
-1.22778
-1.22414
-1.22009
-1.2091
-1.20364
-1.20191
-1.19535
-1.18518
-1.18187
-1.18078
-1.18404
-1.1797
-1.26839
-1.263
-1.25378
-1.24675
-1.24386
-1.23883
-1.23569
-1.22775
-1.21973
-1.21275
-1.20735
-1.19907
-1.19281
-1.19499
-1.19393
-1.19774
-1.28424
-1.27897
-1.27508
-1.27104
-1.25952
-1.25489
-1.24875
-1.24975
-1.24636
-1.23332
-1.22635
-1.21936
-1.21102
-1.20618
-1.20373
-1.19979
-1.29218
-1.2915
-1.28644
-1.28353
-1.28127
-1.27368
-1.26637
-1.25891
-1.25771
-1.25175
-1.24381
-1.23763
-1.23403
-1.22591
-1.22636
-1.30383
-1.29958
-1.29639
-1.29256
-1.28731
-1.28276
-1.27651
-1.2673
-1.26255
-1.25765
-1.2526
-1.24909
-1.24496
-1.2415
-1.32789
-1.31696
-1.31246
-1.30996
-1.30084
-1.30263
-1.29138
-1.28524
-1.28006
-1.27252
-1.27054
-1.26661
-1.25964
-1.35122
-1.34952
-1.34256
-1.33397
-1.32751
-1.32026
-1.31701
-1.30875
-1.30564
-1.30095
-1.29255
-1.28864
-1.2819
-1.28256
-1.36817
-1.36393
-1.35787
-1.35152
-1.34593
-1.34283
-1.33087
-1.32261
-1.32237
-1.31647
-1.31186
-1.30781
-1.3031
-1.29167
-1.38674
-1.38058
-1.37229
-1.36231
-1.36099
-1.35728
-1.3519
-1.34723
-1.33751
-1.33126
-1.32577
-1.32222
-1.32101
-1.3099
-1.40429
-1.39875
-1.39159
-1.38347
-1.37783
-1.37337
-1.36721
-1.36405
-1.35509
-1.34902
-1.34234
-1.34111
-1.33647
-1.32687
-1.41916
-1.41479
-1.40758
-1.4024
-1.39643
-1.40152
-1.3842
-1.37913
-1.37201
-1.36622
-1.36127
-1.35546
-1.34741
-1.34822
-1.43123
-1.4262
-1.42222
-1.41879
-1.40961
-1.40661
-1.41237
-1.40036
-1.38951
-1.37939
-1.37529
-1.37063
-1.3599
-1.42839
-1.42713
-1.41919
-1.4131
-1.40901
-1.39994
-1.38779
-1.38419
-1.38131
-1.43802
-1.44377
-1.43034
-1.42003
-1.41191
-1.41011
-1.40109
-1.39678
-1.45919
-1.44826
-1.45093
-1.44741
-1.43723
-1.42794
-1.41986
-1.46967
-1.47004
-1.46433
-1.45705
-1.4609
-1.45876
-1.4532
-1.47996
-1.47703
-1.47614
-1.47294
-1.46417
-1.4983
-1.49435
-1.48781
-1.48663
-1.49067
-1.48946
-1.53226
-1.52705
-1.50394
-1.49877
-1.50032
-1.52583
-1.5214
-1.52014
-1.52389
-1.52155
-1.51783
-1.53975
-1.53321
-1.54591
-1.53993
-1.52577
-1.5477
-1.54417
-1.54897
-0.0441134
-0.00570194
0.0491704
-0.064809
-0.0685687
-0.0716838
-0.0526212
-0.0450825
-0.0436391
-0.0510499
0.0380261
0.00972018
-0.0968536
-0.0824806
-0.09881
-0.075506
-0.0741959
-0.0765147
-0.0635701
-0.060221
-0.0492026
-0.0354524
-0.0586193
-0.0350511
-0.00883392
-0.0214613
0.00243948
-0.129701
-0.123501
-0.10627
-0.111602
-0.0883059
-0.0989086
-0.0899414
-0.0735073
-0.0727861
-0.0768907
-0.07573
-0.0806913
-0.0486921
-0.0419002
-0.0428658
-0.025879
-0.0196371
-0.0405903
0.0279755
0.00649076
-0.00693046
0.000741192
-0.133809
-0.112582
-0.122665
-0.120899
-0.129606
-0.126304
-0.119595
-0.117179
-0.104711
-0.0944579
-0.0834859
-0.0757229
-0.0802465
-0.0926849
-0.129325
-0.0416416
-0.0515461
-0.0389948
-0.0285685
-0.0197023
-0.0119325
-0.0159458
-0.013427
-0.110701
-0.132629
-0.11891
-0.12547
-0.116814
-0.128122
-0.126254
-0.128299
-0.127358
-0.129689
-0.128248
-0.11639
-0.102415
-0.0902682
-0.100702
-0.0910379
-0.107719
-0.0827935
-0.0709049
-0.0599576
-0.0519388
-0.037524
-0.0277435
-0.0180192
-0.014544
-0.133419
-0.140834
-0.126536
-0.126118
-0.128406
-0.138265
-0.131123
-0.131459
-0.128648
-0.129587
-0.134693
-0.13118
-0.131281
-0.124488
-0.106893
-0.099232
-0.100348
-0.104725
-0.115274
-0.105728
-0.0755451
-0.0665687
-0.0619364
-0.0487525
-0.0429317
-0.152576
-0.149232
-0.14009
-0.13874
-0.137896
-0.130754
-0.129709
-0.13217
-0.134109
-0.139381
-0.137093
-0.132372
-0.137022
-0.136415
-0.140189
-0.142018
-0.123873
-0.10828
-0.111518
-0.115914
-0.119547
-0.123399
-0.0829534
-0.0708263
-0.0734381
-0.151892
-0.158732
-0.159217
-0.154343
-0.144529
-0.144563
-0.14937
-0.135148
-0.127602
-0.135285
-0.13625
-0.140302
-0.139058
-0.139993
-0.14025
-0.140045
-0.155956
-0.139981
-0.133705
-0.119279
-0.118361
-0.125273
-0.119657
-0.115397
-0.110944
-0.151885
-0.171193
-0.163309
-0.158879
-0.162097
-0.161786
-0.157076
-0.153821
-0.150253
-0.155591
-0.148412
-0.131214
-0.136486
-0.144055
-0.136959
-0.130182
-0.135879
-0.144077
-0.155485
-0.155189
-0.156388
-0.138666
-0.134949
-0.123089
-0.129908
-0.142981
-0.166414
-0.160163
-0.158776
-0.166816
-0.167335
-0.168966
-0.167176
-0.166613
-0.165667
-0.164344
-0.163268
-0.155538
-0.155494
-0.149514
-0.141267
-0.139727
-0.144687
-0.146549
-0.137093
-0.143586
-0.15138
-0.156348
-0.156567
-0.148672
-0.13768
-0.140201
-0.121188
-0.175862
-0.173271
-0.167186
-0.1654
-0.172088
-0.172557
-0.170641
-0.172284
-0.170069
-0.171171
-0.168068
-0.167954
-0.164389
-0.16059
-0.151024
-0.149878
-0.145839
-0.147906
-0.150929
-0.142827
-0.15025
-0.171455
-0.15597
-0.164136
-0.152266
-0.186586
-0.185588
-0.185901
-0.177467
-0.179474
-0.172735
-0.171909
-0.170566
-0.172028
-0.171791
-0.175662
-0.173648
-0.172866
-0.17332
-0.173472
-0.171226
-0.168437
-0.155772
-0.156299
-0.153337
-0.154383
-0.155314
-0.159131
-0.178965
-0.179139
-0.189696
-0.189459
-0.190707
-0.190955
-0.190715
-0.195609
-0.181407
-0.178127
-0.175987
-0.172683
-0.173897
-0.177085
-0.17401
-0.173258
-0.176331
-0.176872
-0.176102
-0.171786
-0.162499
-0.162402
-0.160428
-0.159796
-0.161095
-0.172943
-0.205257
-0.20027
-0.209228
-0.199124
-0.194931
-0.191143
-0.192864
-0.193839
-0.192612
-0.186399
-0.182799
-0.180076
-0.176764
-0.176621
-0.17791
-0.177147
-0.175428
-0.178183
-0.179978
-0.17776
-0.174578
-0.171772
-0.169683
-0.164204
-0.173438
-0.209373
-0.216237
-0.218135
-0.210544
-0.2123
-0.209334
-0.20238
-0.19891
-0.197109
-0.191138
-0.192299
-0.190549
-0.186089
-0.183559
-0.182756
-0.182157
-0.18147
-0.181836
-0.183477
-0.186123
-0.187039
-0.185538
-0.178562
-0.178096
-0.179059
-0.22847
-0.226514
-0.221581
-0.219019
-0.218545
-0.21833
-0.21532
-0.215067
-0.212224
-0.211707
-0.201033
-0.190539
-0.193529
-0.193645
-0.188268
-0.187775
-0.184809
-0.184674
-0.185696
-0.186584
-0.186548
-0.187309
-0.189588
-0.190994
-0.18854
-0.25216
-0.248583
-0.242157
-0.237438
-0.234229
-0.228824
-0.227572
-0.220439
-0.223122
-0.223505
-0.221956
-0.221612
-0.224945
-0.213259
-0.193423
-0.193722
-0.193955
-0.19159
-0.192436
-0.189549
-0.187886
-0.188383
-0.189348
-0.189879
-0.189247
-0.190032
-0.266591
-0.251672
-0.255865
-0.252993
-0.249851
-0.248085
-0.243559
-0.240067
-0.236312
-0.230927
-0.231393
-0.230438
-0.230252
-0.230962
-0.236861
-0.231933
-0.216015
-0.205108
-0.198234
-0.195161
-0.19642
-0.197305
-0.19507
-0.193244
-0.194087
-0.195507
-0.273227
-0.28035
-0.276698
-0.268215
-0.264479
-0.263501
-0.259071
-0.255874
-0.252002
-0.249479
-0.249521
-0.24204
-0.239301
-0.2375
-0.240175
-0.238395
-0.237681
-0.236014
-0.22873
-0.217239
-0.203696
-0.196242
-0.197592
-0.200957
-0.204897
-0.200752
-0.202291
-0.298146
-0.288516
-0.288426
-0.287973
-0.285416
-0.281131
-0.275114
-0.270376
-0.265773
-0.262191
-0.258205
-0.255994
-0.256661
-0.253947
-0.247777
-0.246261
-0.249504
-0.247362
-0.236493
-0.229672
-0.224762
-0.217074
-0.210589
-0.203093
-0.203801
-0.206177
-0.217673
-0.305321
-0.305786
-0.302631
-0.299789
-0.297255
-0.292178
-0.286392
-0.280093
-0.274549
-0.27029
-0.267431
-0.264093
-0.261216
-0.261043
-0.259524
-0.256476
-0.255508
-0.258418
-0.256525
-0.242769
-0.23224
-0.231982
-0.226322
-0.223567
-0.218717
-0.218333
-0.317546
-0.327581
-0.320251
-0.316023
-0.313119
-0.307745
-0.303744
-0.297794
-0.291259
-0.284995
-0.278315
-0.272249
-0.271612
-0.270436
-0.267393
-0.265863
-0.264221
-0.262008
-0.260832
-0.261347
-0.257775
-0.25195
-0.24436
-0.2389
-0.23675
-0.235355
-0.340855
-0.344658
-0.336889
-0.333322
-0.328566
-0.323373
-0.318842
-0.313913
-0.308657
-0.302751
-0.29678
-0.291214
-0.285567
-0.279275
-0.276319
-0.276486
-0.273951
-0.271991
-0.269799
-0.267694
-0.266685
-0.264897
-0.263269
-0.257788
-0.251425
-0.253224
-0.358163
-0.353976
-0.351666
-0.348474
-0.341685
-0.337074
-0.331731
-0.326675
-0.320216
-0.314368
-0.308828
-0.303302
-0.297714
-0.292557
-0.287783
-0.284221
-0.28294
-0.280516
-0.278857
-0.277206
-0.275347
-0.27397
-0.272733
-0.270714
-0.267259
-0.374973
-0.372046
-0.367963
-0.365845
-0.362494
-0.357643
-0.351389
-0.345557
-0.339978
-0.333668
-0.327581
-0.321903
-0.316256
-0.310909
-0.30487
-0.299903
-0.295999
-0.293106
-0.290338
-0.287571
-0.286105
-0.284852
-0.284995
-0.28562
-0.280154
-0.277591
-0.391221
-0.386344
-0.385883
-0.382311
-0.38094
-0.377393
-0.373933
-0.368313
-0.361101
-0.354547
-0.348194
-0.341792
-0.335433
-0.329871
-0.324523
-0.319758
-0.315805
-0.311048
-0.305022
-0.300863
-0.298636
-0.295575
-0.296023
-0.295955
-0.292404
-0.287946
-0.400853
-0.407457
-0.403315
-0.396555
-0.394901
-0.392945
-0.391186
-0.387151
-0.382398
-0.377086
-0.37048
-0.364946
-0.358195
-0.351401
-0.34521
-0.339364
-0.333622
-0.32799
-0.324672
-0.320582
-0.313274
-0.309216
-0.306921
-0.305312
-0.302722
-0.298858
-0.299632
-0.41449
-0.414736
-0.412436
-0.411485
-0.407421
-0.404544
-0.402401
-0.400199
-0.395129
-0.388569
-0.384444
-0.379506
-0.374185
-0.368022
-0.361383
-0.35546
-0.349634
-0.343317
-0.337327
-0.332378
-0.327786
-0.321767
-0.316945
-0.313404
-0.310931
-0.307157
-0.430952
-0.426791
-0.420775
-0.419088
-0.417986
-0.41687
-0.414748
-0.412748
-0.411009
-0.407576
-0.40124
-0.396816
-0.393532
-0.389732
-0.383673
-0.376433
-0.36925
-0.362925
-0.358001
-0.352114
-0.346719
-0.341897
-0.336128
-0.33218
-0.332225
-0.319993
-0.445368
-0.439432
-0.43509
-0.430584
-0.426412
-0.424696
-0.421879
-0.419371
-0.420731
-0.418403
-0.412783
-0.406523
-0.402382
-0.401588
-0.397958
-0.3906
-0.384119
-0.377081
-0.37019
-0.36645
-0.361877
-0.358731
-0.357818
-0.343175
-0.33877
-0.459283
-0.454632
-0.4519
-0.449787
-0.445027
-0.440187
-0.43646
-0.432439
-0.426214
-0.423845
-0.426657
-0.425317
-0.418942
-0.411669
-0.406711
-0.406393
-0.403149
-0.396011
-0.390517
-0.385691
-0.378969
-0.374178
-0.371738
-0.370438
-0.37179
-0.472597
-0.470743
-0.465531
-0.46108
-0.457418
-0.453075
-0.448416
-0.445046
-0.440533
-0.433316
-0.430351
-0.43058
-0.429454
-0.423533
-0.416453
-0.412829
-0.411049
-0.407496
-0.401565
-0.396846
-0.393623
-0.389285
-0.385189
-0.381881
-0.372487
-0.487379
-0.483707
-0.481291
-0.480363
-0.474741
-0.470083
-0.464176
-0.458747
-0.454098
-0.450962
-0.446993
-0.442052
-0.438703
-0.437033
-0.434723
-0.429586
-0.423542
-0.419729
-0.418152
-0.413891
-0.409879
-0.405994
-0.405083
-0.399478
-0.399488
-0.493902
-0.492283
-0.487625
-0.486199
-0.484494
-0.481017
-0.476814
-0.46978
-0.463528
-0.458725
-0.455062
-0.451604
-0.449227
-0.447027
-0.445045
-0.441357
-0.435655
-0.430412
-0.427487
-0.427292
-0.4236
-0.420712
-0.416668
-0.408222
-0.406625
-0.512756
-0.506141
-0.502804
-0.498545
-0.494242
-0.49322
-0.490523
-0.486721
-0.484
-0.477177
-0.469183
-0.46403
-0.459995
-0.457202
-0.455767
-0.453976
-0.451597
-0.446507
-0.441097
-0.436439
-0.435571
-0.435362
-0.431152
-0.424044
-0.421548
-0.516139
-0.515628
-0.513485
-0.510152
-0.505288
-0.502887
-0.501471
-0.497527
-0.493282
-0.490181
-0.484547
-0.477698
-0.471554
-0.466133
-0.464874
-0.463793
-0.462101
-0.459037
-0.453044
-0.447973
-0.443642
-0.442298
-0.441776
-0.446283
-0.525571
-0.526748
-0.524949
-0.524217
-0.521986
-0.518387
-0.513971
-0.510953
-0.509305
-0.506069
-0.502446
-0.498191
-0.491708
-0.485465
-0.478953
-0.475066
-0.473026
-0.472064
-0.470049
-0.466183
-0.460877
-0.4573
-0.453946
-0.448683
-0.447848
-0.533284
-0.534161
-0.533275
-0.531489
-0.530164
-0.527932
-0.524705
-0.521211
-0.518039
-0.516154
-0.513888
-0.511601
-0.508662
-0.501988
-0.495727
-0.487721
-0.482778
-0.4803
-0.47967
-0.477945
-0.47384
-0.468771
-0.464632
-0.466737
-0.53983
-0.540272
-0.539526
-0.540256
-0.540022
-0.538846
-0.536633
-0.533882
-0.530758
-0.527302
-0.523686
-0.520858
-0.518554
-0.516796
-0.514406
-0.508911
-0.50322
-0.496371
-0.491637
-0.488401
-0.486981
-0.485438
-0.483487
-0.478841
-0.47454
-0.544523
-0.546042
-0.545847
-0.545676
-0.545874
-0.545906
-0.545112
-0.54254
-0.540233
-0.537245
-0.533288
-0.528436
-0.525302
-0.52267
-0.520676
-0.518661
-0.514686
-0.508732
-0.503348
-0.500245
-0.497355
-0.495929
-0.49212
-0.48987
-0.555139
-0.552825
-0.551581
-0.552275
-0.551262
-0.551646
-0.551623
-0.551614
-0.550769
-0.548139
-0.546068
-0.54363
-0.539859
-0.534859
-0.531597
-0.528588
-0.526597
-0.524785
-0.521388
-0.516048
-0.512074
-0.510029
-0.508737
-0.501229
-0.499477
-0.562012
-0.561527
-0.559709
-0.557831
-0.556966
-0.556955
-0.557226
-0.557474
-0.558143
-0.557537
-0.554172
-0.551357
-0.548681
-0.545464
-0.54134
-0.538158
-0.535019
-0.533677
-0.531695
-0.527913
-0.524788
-0.52308
-0.516213
-0.516545
-0.570452
-0.567319
-0.566817
-0.565313
-0.563823
-0.562564
-0.562251
-0.562451
-0.56329
-0.564811
-0.565441
-0.561829
-0.556871
-0.553228
-0.549544
-0.5458
-0.542518
-0.540217
-0.539664
-0.537333
-0.533401
-0.531735
-0.530223
-0.523437
-0.582382
-0.580701
-0.57748
-0.575943
-0.573428
-0.571343
-0.569294
-0.567916
-0.567254
-0.56716
-0.568226
-0.570337
-0.572471
-0.570249
-0.564169
-0.558452
-0.553699
-0.550207
-0.546871
-0.54573
-0.545647
-0.544271
-0.540021
-0.538001
-0.535765
-0.588357
-0.588577
-0.586802
-0.583701
-0.581625
-0.57921
-0.576643
-0.574556
-0.573029
-0.571899
-0.571417
-0.572254
-0.574321
-0.57672
-0.576465
-0.572114
-0.56628
-0.561262
-0.557264
-0.554825
-0.553499
-0.552989
-0.550234
-0.548155
-0.593881
-0.596957
-0.593338
-0.591554
-0.589007
-0.586758
-0.583907
-0.581668
-0.579985
-0.578401
-0.576714
-0.575875
-0.576376
-0.57793
-0.579851
-0.580362
-0.578013
-0.57342
-0.568796
-0.565726
-0.562831
-0.561658
-0.557016
-0.556951
-0.607653
-0.601985
-0.601209
-0.599805
-0.597047
-0.594336
-0.591327
-0.588702
-0.587013
-0.586154
-0.584458
-0.583144
-0.581258
-0.581107
-0.581858
-0.583212
-0.583698
-0.582134
-0.579293
-0.576016
-0.57314