# vtk DataFile Version 2.0
track0
ASCII
DATASET POLYDATA
POINTS 12085 float
-0.0205 0.001 1e-05
-0.02052 0.000999985 1e-05
-0.02054 0.000999974 1e-05
-0.02056 0.000999965 1e-05
-0.02058 0.000999959 1e-05
-0.0206 0.000999956 1e-05
-0.0205 0.00367778 1e-05
-0.02052 0.00367778 1e-05
-0.02054 0.00367777 1e-05
-0.02056 0.00367777 1e-05
-0.02058 0.00367777 1e-05
-0.0206 0.00367777 1e-05
-0.0205 0.00635556 1e-05
-0.02052 0.00635555 1e-05
-0.02054 0.00635555 1e-05
-0.02056 0.00635555 1e-05
-0.02058 0.00635555 1e-05
-0.0206 0.00635555 1e-05
-0.0205 0.00903333 1e-05
-0.02052 0.00903333 1e-05
-0.02054 0.00903333 1e-05
-0.02056 0.00903333 1e-05
-0.02058 0.00903333 1e-05
-0.0206 0.00903333 1e-05
-0.0205 0.0117111 1e-05
-0.02052 0.0117111 1e-05
-0.02054 0.0117111 1e-05
-0.02056 0.0117111 1e-05
-0.02058 0.0117111 1e-05
-0.0206 0.0117111 1e-05
-0.0205 0.0143889 1e-05
-0.02052 0.0143889 1e-05
-0.02054 0.0143889 1e-05
-0.02056 0.0143889 1e-05
-0.02058 0.0143889 1e-05
-0.0206 0.0143889 1e-05
-0.0205 0.0170667 1e-05
-0.02052 0.0170667 1e-05
-0.02054 0.0170667 1e-05
-0.02056 0.0170667 1e-05
-0.02058 0.0170667 1e-05
-0.0206 0.0170667 1e-05
-0.0205 0.0197444 1e-05
-0.02052 0.0197444 1e-05
-0.02054 0.0197444 1e-05
-0.02056 0.0197444 1e-05
-0.02058 0.0197444 1e-05
-0.0206 0.0197444 1e-05
-0.0205 0.0224222 1e-05
-0.02052 0.0224222 1e-05
-0.02054 0.0224222 1e-05
-0.02056 0.0224222 1e-05
-0.02058 0.0224222 1e-05
-0.0206 0.0224222 1e-05
-0.0205 0.0251 1e-05
-0.02052 0.0250998 1e-05
-0.02054 0.0250997 1e-05
-0.02056 0.0250995 1e-05
-0.02058 0.0250995 1e-05
-0.0206 0.0250994 1e-05
-0.0205 0.001 1e-05
-0.0202034 0.00100022 1e-05
-0.0199069 0.00100067 1e-05
-0.0196103 0.00100133 1e-05
-0.0193137 0.00100219 1e-05
-0.0190172 0.00100326 1e-05
-0.0187132 0.00100467 1e-05
-0.0184093 0.00100589 1e-05
-0.0181054 0.00100711 1e-05
-0.0178015 0.00100833 1e-05
-0.0174976 0.00100954 1e-05
-0.0172058 0.00101084 1e-05
-0.016914 0.00101194 1e-05
-0.0166222 0.00101305 1e-05
-0.0163305 0.00101415 1e-05
-0.0160387 0.00101525 1e-05
-0.0157586 0.00101639 1e-05
-0.0154784 0.00101747 1e-05
-0.0151983 0.0010186 1e-05
-0.0149182 0.00101975 1e-05
-0.0146381 0.00102095 1e-05
-0.0143776 0.00102212 1e-05
-0.0141171 0.0010233 1e-05
-0.0138566 0.00102451 1e-05
-0.0135961 0.00102575 1e-05
-0.0133762 0.00102682 1e-05
-0.0133596 0.0010269 1e-05
-0.0133431 0.00102698 1e-05
-0.0133265 0.00102706 1e-05
-0.01331 0.00102715 1e-05
-0.0132934 0.00102723 1e-05
-0.0130353 0.00102852 1e-05
-0.0127771 0.00102984 1e-05
-0.0125189 0.00103116 1e-05
-0.0122607 0.00103251 1e-05
-0.0120025 0.00103387 1e-05
-0.0117547 0.00103518 1e-05
-0.0115068 0.00103651 1e-05
-0.0112589 0.00103784 1e-05
-0.0110111 0.00103918 1e-05
-0.0107632 0.00104052 1e-05
-0.0105252 0.0010418 1e-05
-0.0102873 0.0010431 1e-05
-0.0100493 0.00104439 1e-05
-0.00981133 0.00104568 1e-05
-0.00957337 0.00104697 1e-05
-0.00934491 0.00104821 1e-05
-0.00911645 0.00104945 1e-05
-0.00888799 0.00105068 1e-05
-0.00865954 0.00105192 1e-05
-0.00843108 0.00105315 1e-05
-0.00821175 0.00105433 1e-05
-0.00799242 0.0010555 1e-05
-0.00777309 0.00105668 1e-05
-0.00755376 0.00105785 1e-05
-0.00733443 0.00105902 1e-05
-0.00712387 0.00106014 1e-05
-0.0069133 0.00106125 1e-05
-0.00670273 0.00106237 1e-05
-0.00649216 0.00106348 1e-05
-0.0062816 0.00106459 1e-05
-0.00607944 0.00106565 1e-05
-0.00587729 0.00106671 1e-05
-0.00567514 0.00106777 1e-05
-0.00547298 0.00106883 1e-05
-0.00527083 0.00106988 1e-05
-0.00507675 0.00107089 1e-05
-0.00488267 0.0010719 1e-05
-0.0046886 0.00107291 1e-05
-0.00449452 0.00107392 1e-05
-0.00430044 0.00107493 1e-05
-0.00411412 0.0010759 1e-05
-0.0039278 0.00107687 1e-05
-0.00374147 0.00107784 1e-05
-0.00355515 0.00107882 1e-05
-0.00336883 0.0010798 1e-05
-0.00318995 0.00108073 1e-05
-0.00301107 0.00108168 1e-05
-0.00283219 0.00108263 1e-05
-0.00265331 0.0010836 1e-05
-0.00247443 0.00108456 1e-05
-0.0023027 0.0010855 1e-05
-0.00213097 0.00108645 1e-05
-0.00195924 0.00108741 1e-05
-0.00178751 0.00108838 1e-05
-0.00161577 0.00108937 1e-05
-0.0014509 0.00109032 1e-05
-0.00128603 0.0010913 1e-05
-0.00112116 0.0010923 1e-05
-0.00095629 0.00109333 1e-05
-0.000791418 0.00109439 1e-05
-0.000633135 0.00109544 1e-05
-0.000474851 0.00109652 1e-05
-0.000316568 0.00109763 1e-05
-0.000158285 0.00109879 1e-05
0 0.00109998 1e-05
0.000105677 0.00110078 1e-05
0.000211355 0.00110161 1e-05
0.000317032 0.00110244 1e-05
0.000422709 0.00110328 1e-05
0.000528387 0.00110413 1e-05
0.000634886 0.00110499 1e-05
0.000741385 0.00110584 1e-05
0.000847885 0.00110668 1e-05
0.000954384 0.00110751 1e-05
0.00106088 0.00110834 1e-05
0.00116821 0.00110916 1e-05
0.00127554 0.00110997 1e-05
0.00138286 0.00111076 1e-05
0.00149019 0.00111154 1e-05
0.00159752 0.00111229 1e-05
0.00170568 0.00111304 1e-05
0.00181384 0.00111378 1e-05
0.001922 0.0011145 1e-05
0.00203016 0.0011152 1e-05
0.00213833 0.00111588 1e-05
0.00224733 0.00111655 1e-05
0.00235633 0.00111721 1e-05
0.00246533 0.00111785 1e-05
0.00257434 0.00111847 1e-05
0.00268334 0.00111908 1e-05
0.00279319 0.00111967 1e-05
0.00290304 0.00112026 1e-05
0.00301289 0.00112083 1e-05
0.00312274 0.00112139 1e-05
0.00323259 0.00112192 1e-05
0.00334329 0.00112245 1e-05
0.003454 0.00112296 1e-05
0.0035647 0.00112346 1e-05
0.0036754 0.00112395 1e-05
0.00378611 0.00112442 1e-05
0.00389767 0.00112487 1e-05
0.00400924 0.00112532 1e-05
0.0041208 0.00112576 1e-05
0.00423237 0.00112618 1e-05
0.00434393 0.00112659 1e-05
0.00445636 0.00112697 1e-05
0.00456879 0.00112736 1e-05
0.00468123 0.00112773 1e-05
0.00479366 0.00112809 1e-05
0.00490609 0.00112843 1e-05
0.0050194 0.00112875 1e-05
0.0051327 0.00112908 1e-05
0.00524601 0.00112938 1e-05
0.00535932 0.00112968 1e-05
0.00547262 0.00112996 1e-05
0.00558681 0.00113023 1e-05
0.005701 0.00113049 1e-05
0.00581518 0.00113074 1e-05
0.00592937 0.00113098 1e-05
0.00604356 0.0011312 1e-05
0.00615863 0.00113141 1e-05
0.00627371 0.00113161 1e-05
0.00638878 0.00113181 1e-05
0.00650386 0.00113199 1e-05
0.00661893 0.00113216 1e-05
0.0067349 0.00113232 1e-05
0.00685087 0.00113247 1e-05
0.00696684 0.00113261 1e-05
0.00708281 0.00113274 1e-05
0.00719878 0.00113287 1e-05
0.00731565 0.00113297 1e-05
0.00743252 0.00113307 1e-05
0.00754939 0.00113317 1e-05
0.00766626 0.00113325 1e-05
0.00778313 0.00113332 1e-05
0.00790091 0.00113338 1e-05
0.00801869 0.00113343 1e-05
0.00813647 0.00113348 1e-05
0.00825425 0.00113351 1e-05
0.00837203 0.00113354 1e-05
0.00849073 0.00113355 1e-05
0.00860942 0.00113356 1e-05
0.00872812 0.00113356 1e-05
0.00884682 0.00113355 1e-05
0.00896551 0.00113353 1e-05
0.00903387 0.00113351 1e-05
0.00910223 0.00113349 1e-05
0.0091706 0.00113347 1e-05
0.00923896 0.00113344 1e-05
0.00930524 0.00113341 1e-05
0.00935692 0.00113339 1e-05
0.00940859 0.00113337 1e-05
0.00946026 0.00113334 1e-05
0.00951193 0.00113331 1e-05
0.0095636 0.00113328 1e-05
0.00968415 0.00113321 1e-05
0.0098047 0.00113312 1e-05
0.00992525 0.00113303 1e-05
0.0100458 0.00113293 1e-05
0.0101663 0.00113282 1e-05
0.0102878 0.0011327 1e-05
0.0104093 0.00113257 1e-05
0.0105308 0.00113243 1e-05
0.0106523 0.00113229 1e-05
0.0107738 0.00113213 1e-05
0.0108962 0.00113197 1e-05
0.0110186 0.00113179 1e-05
0.0111411 0.00113161 1e-05
0.0112635 0.00113142 1e-05
0.0113859 0.00113122 1e-05
0.0115093 0.00113101 1e-05
0.0116327 0.00113079 1e-05
0.0117561 0.00113056 1e-05
0.0118795 0.00113033 1e-05
0.0120028 0.00113008 1e-05
0.0121272 0.00112983 1e-05
0.0122515 0.00112956 1e-05
0.0123759 0.00112929 1e-05
0.0125002 0.00112901 1e-05
0.0126245 0.00112872 1e-05
0.0127498 0.00112842 1e-05
0.0128752 0.00112811 1e-05
0.0130005 0.00112779 1e-05
0.0131258 0.00112746 1e-05
0.0132511 0.00112713 1e-05
0.0133774 0.00112678 1e-05
0.0135036 0.00112643 1e-05
0.0136299 0.00112606 1e-05
0.0137562 0.00112569 1e-05
0.0138825 0.0011253 1e-05
0.0140098 0.00112492 1e-05
0.014137 0.00112451 1e-05
0.0142643 0.0011241 1e-05
0.0143915 0.00112368 1e-05
0.0145188 0.00112324 1e-05
0.0146471 0.00112281 1e-05
0.0147753 0.00112236 1e-05
0.0149036 0.0011219 1e-05
0.0150318 0.00112142 1e-05
0.0151601 0.00112094 1e-05
0.0152893 0.00112046 1e-05
0.0154186 0.00111996 1e-05
0.0155478 0.00111945 1e-05
0.0156771 0.00111892 1e-05
0.0158063 0.00111839 1e-05
0.0159366 0.00111786 1e-05
0.0160668 0.00111731 1e-05
0.0161971 0.00111674 1e-05
0.0163273 0.00111617 1e-05
0.0164576 0.00111559 1e-05
0.0165889 0.00111501 1e-05
0.0167201 0.0011144 1e-05
0.0168514 0.00111379 1e-05
0.0169827 0.00111316 1e-05
0.0171139 0.00111252 1e-05
0.0172462 0.00111189 1e-05
0.0173785 0.00111123 1e-05
0.0175108 0.00111056 1e-05
0.0176431 0.00110987 1e-05
0.0177754 0.00110918 1e-05
0.0179087 0.0011085 1e-05
0.018042 0.00110778 1e-05
0.0181753 0.00110705 1e-05
0.0183087 0.0011063 1e-05
0.018442 0.00110555 1e-05
0.0185763 0.00110482 1e-05
0.0187107 0.00110404 1e-05
0.018845 0.00110325 1e-05
0.0189794 0.00110244 1e-05
0.0191137 0.00110163 1e-05
0.0192491 0.00110083 1e-05
0.0193845 0.0011 1e-05
0.0195199 0.00109914 1e-05
0.0196553 0.00109827 1e-05
0.0197907 0.0010974 1e-05
0.0199272 0.00109654 1e-05
0.0200636 0.00109564 1e-05
0.0202001 0.00109472 1e-05
0.0203365 0.00109378 1e-05
0.020473 0.00109285 1e-05
0.0206105 0.00109192 1e-05
0.020748 0.00109096 1e-05
0.0208855 0.00108997 1e-05
0.021023 0.00108896 1e-05
0.0211606 0.00108796 1e-05
0.0212991 0.00108697 1e-05
0.0214377 0.00108594 1e-05
0.0215763 0.00108487 1e-05
0.0217149 0.00108379 1e-05
0.0218535 0.00108272 1e-05
0.0219931 0.00108166 1e-05
0.0221328 0.00108056 1e-05
0.0222724 0.00107942 1e-05
0.0224121 0.00107827 1e-05
0.0225517 0.00107713 1e-05
0.0226925 0.00107599 1e-05
0.0228332 0.00107481 1e-05
0.022974 0.0010736 1e-05
0.0231147 0.00107237 1e-05
0.0232555 0.00107115 1e-05
0.0233973 0.00106994 1e-05
0.0235391 0.00106868 1e-05
0.023681 0.00106739 1e-05
0.0238228 0.00106608 1e-05
0.0239647 0.00106478 1e-05
0.0241076 0.00106348 1e-05
0.0242505 0.00106215 1e-05
0.0243935 0.00106078 1e-05
0.0245364 0.00105939 1e-05
0.0246794 0.00105801 1e-05
0.0248234 0.00105663 1e-05
0.0249675 0.00105522 1e-05
0.0251115 0.00105376 1e-05
0.0252556 0.0010523 1e-05
[...]
POINT_DATA 12085
 FIELD attributes 1
U 3 12085 float
10.0004 	0.00732028 	0 10.0004 	0.00585622 	0 10.0003 	0.00439217 	0 10.0002 	0.00292811 	0 10.0001 	0.00146405 	0 10 	0 	0
10 	0.000888634 	0 10 	0.000710907 	0 10 	0.000533181 	0 10 	0.000355454 	0 10 	0.000177727 	0 10 	0 	0
10.0001 	0.000478723 	0 10.0001 	0.000382812 	0 10.0001 	0.000286901 	0 10 	0.00019099 	0 10 	9.50781e-05 	0 10 	0 	0
10 	0.000285329 	0 10 	0.000228263 	0 10 	0.000171197 	0 10 	0.000114131 	0 10 	5.70657e-05 	0 10 	0 	0
10 	0.00010051 	0 10 	8.04084e-05 	0 10 	6.03063e-05 	0 10 	4.02042e-05 	0 10 	2.01021e-05 	0 10 	0 	0
10 	-7.42248e-06 	0 10 	-5.93798e-06 	0 10 	-4.45349e-06 	0 10 	-2.96899e-06 	0 10 	-1.4845e-06 	0 10 	0 	0
10 	-0.00020194 	0 10 	-0.000161552 	0 10 	-0.000121164 	0 10 	-8.07759e-05 	0 10 	-4.0388e-05 	0 10 	0 	0
10 	-0.000368052 	0 10 	-0.000294442 	0 10 	-0.000220831 	0 10 	-0.000147221 	0 10 	-7.36104e-05 	0 10 	0 	0
9.99999 	-0.000421536 	0 9.99999 	-0.000337229 	0 9.99999 	-0.000252922 	0 10 	-0.000168615 	0 10 	-8.43073e-05 	0 10 	0 	0
9.17387 	0.0870998 	0 9.1308 	0.0696798 	0 9.08741 	0.0522596 	0 9.04368 	0.0348391 	0 8.99962 	0.0174185 	0 8.95524 	0 	0
10.0004 	0.00732028 	0 10.0024 	0.015177 	0 10.0045 	0.0222023 	0 10.0065 	0.0291833 	0 10.0085 	0.0361204 	0 10.0135 	0.0463411 	0 10.0162 	0.0402479 	0 10.0207 	0.0402142 	0 10.0251 	0.0401806 	0 10.0295 	0.0401471 	0 10.0355 	0.0446131 	0 10.0383 	0.0379863 	0 10.0423 	0.0379525 	0 10.0463 	0.0379187 	0 10.0502 	0.0378848 	0 10.0543 	0.0409897 	0 10.0564 	0.0389312 	0 10.0589 	0.0402534 	0 10.0613 	0.0415772 	0 10.0637 	0.0429027 	0 10.0658 	0.0453654 	0 10.0672 	0.0454864 	0 10.0685 	0.0466908 	0 10.0698 	0.0478962 	0 10.0711 	0.0491028 	0 10.0721 	0.0501223 	0 10.0722 	0.0501995 	0 10.0723 	0.0502767 	0 10.0724 	0.0503539 	0 10.0725 	0.0504311 	0 10.0725 	0.0504968 	0 10.073 	0.0511449 	0 10.0735 	0.0517854 	0 10.0739 	0.0524266 	0 10.0744 	0.0530682 	0 10.0748 	0.0535437 	0 10.0746 	0.0538662 	0 10.0742 	0.0540815 	0 10.0738 	0.0542971 	0 10.0733 	0.0545127 	0 10.0727 	0.0544885 	0 10.0722 	0.0546677 	0 10.071 	0.0546769 	0 10.0698 	0.0546861 	0 10.0686 	0.0546953 	0 10.067 	0.054435 	0 10.0665 	0.0545605 	0 10.0647 	0.0544704 	0 10.063 	0.0543802 	0 10.0612 	0.05429 	0 10.0586 	0.0539146 	0 10.0584 	0.0540301 	0 10.0562 	0.053895 	0 10.0541 	0.0537599 	0 10.0519 	0.0536247 	0 10.0481 	0.0531943 	0 10.0486 	0.0533331 	0 10.0461 	0.0531966 	0 10.0436 	0.0530601 	0 10.0411 	0.0529235 	0 10.0362 	0.0524873 	0 10.0375 	0.0526827 	0 10.0348 	0.0525787 	0 10.032 	0.0524747 	0 10.0292 	0.0523707 	0 10.0232 	0.0519594 	0 10.0254 	0.0522403 	0 10.0225 	0.0522138 	0 10.0195 	0.0521874 	0 10.0166 	0.052161 	0 10.0093 	0.0518337 	0 10.0127 	0.052251 	0 10.0095 	0.0523404 	0 10.0064 	0.0524298 	0 10.0032 	0.0525192 	0 9.9946 	0.0523017 	0 9.99923 	0.0529279 	0 9.99602 	0.053304 	0 9.99282 	0.0536801 	0 9.98962 	0.0540563 	0 9.97974 	0.0541882 	0 9.9858 	0.0552154 	0 9.98255 	0.0559044 	0 9.97931 	0.0565936 	0 9.97607 	0.057283 	0 9.96483 	0.0576199 	0 9.97255 	0.0590758 	0 9.96971 	0.0607311 	0 9.96688 	0.0623866 	0 9.96406 	0.0640423 	0 9.95201 	0.0655513 	0 9.96219 	0.0680189 	7.63931e-22 9.96114 	0.0702794 	6.74526e-21 9.96012 	0.0725401 	1.27238e-20 9.9591 	0.0748012 	1.86995e-20 9.94754 	0.0760858 	1.51699e-20 9.96022 	0.0777159 	1.18017e-19 9.9603 	0.0785104 	1.10464e-19 9.96039 	0.0793048 	1.02923e-19 9.96048 	0.0800994 	9.53921e-20 9.94889 	0.0797964 	-1.91346e-20 9.9623 	0.079575 	-5.27166e-20 9.9624 	0.0787871 	-5.83643e-20 9.96251 	0.0779991 	-6.40071e-20 9.9626 	0.0772112 	-6.96449e-20 9.95045 	0.0761274 	-2.39312e-20 9.9635 	0.0750875 	-2.14635e-20 9.96253 	0.0735217 	-1.46485e-20 9.96154 	0.0719559 	-7.83505e-21 9.96054 	0.07039 	-1.023e-21 9.94716 	0.0688332 	1.00155e-20 9.95978 	0.0678237 	-3.60773e-21 9.95773 	0.066135 	-2.57291e-20 9.95567 	0.064446 	-4.78556e-20 9.9536 	0.0627568 	-6.99871e-20 9.93896 	0.06088 	-1.03456e-19 9.95135 	0.0601458 	-1.6124e-19 9.94841 	0.0586083 	-1.4675e-19 9.94546 	0.0570704 	-1.32244e-19 9.94251 	0.0555321 	-1.17721e-19 9.92669 	0.0535157 	-3.42043e-20 9.93891 	0.0529672 	6.08445e-20 9.93515 	0.051557 	7.71924e-20 9.93138 	0.0501463 	9.35191e-20 9.9276 	0.0487351 	1.09825e-19 9.91066 	0.0466891 	4.28018e-20 9.92269 	0.0462243 	-8.98803e-20 9.91811 	0.0448951 	-9.74811e-20 9.91353 	0.0435654 	-1.0505e-19 9.90893 	0.0422353 	-1.12586e-19 9.89091 	0.0402365 	-2.27988e-22 9.90263 	0.0398354 	1.08362e-19 9.89722 	0.0385692 	9.75633e-20 9.8918 	0.0373026 	8.67333e-20 9.88638 	0.0360354 	7.58723e-20 9.86733 	0.0341023 	-2.79572e-20 9.87858 	0.0337496 	-1.13554e-19 9.87235 	0.0325323 	-1.40202e-19 9.86611 	0.0313146 	-1.6684e-19 9.85986 	0.0300963 	-1.93466e-19 9.83997 	0.028234 	-1.50749e-19 9.85047 	0.0279479 	-1.97947e-19 9.84346 	0.026798 	-1.8317e-19 9.83643 	0.0256474 	-1.68385e-19 9.8294 	0.0244963 	-1.53591e-19 9.80893 	0.0227191 	-8.9607e-20 9.81832 	0.0225155 	-7.86796e-20 9.81059 	0.0214505 	-5.66317e-20 9.80285 	0.0203849 	-3.45871e-20 9.79509 	0.0193186 	-1.25458e-20 9.77446 	0.0176378 	5.23018e-21 9.78231 	0.0174994 	0 9.77392 	0.0165181 	0 9.76551 	0.0155361 	0 9.75709 	0.0145534 	0 9.73681 	0.0129783 	0 9.74257 	0.01286 	-1.46119e-20 9.73357 	0.0119503 	-3.70631e-20 9.72455 	0.01104 	-5.95172e-20 9.71552 	0.0101289 	-8.19741e-20 9.69617 	0.00867818 	-1.08487e-19 9.69925 	0.00852817 	-1.30539e-19 9.68969 	0.0076812 	-1.31183e-19 9.6801 	0.00683352 	-1.31818e-19 9.67051 	0.00598512 	-1.32446e-19 9.65271 	0.00469138 	-1.16568e-19 9.65252 	0.00446014 	-5.86012e-20 9.64243 	0.00367065 	-2.40629e-20 9.63232 	0.00288043 	1.0461e-20 9.62221 	0.00208946 	4.49707e-20 9.60661 	0.000991122 	6.22373e-20 9.60255 	0.000624433 	7.46473e-20 9.592 	-0.0001157 	7.48129e-20 9.58143 	-0.000856595 	7.49691e-20 9.57084 	-0.00159825 	7.51158e-20 9.5581 	-0.00246418 	7.05558e-20 9.55435 	-0.00271967 	6.24771e-20 9.54808 	-0.00312021 	5.44794e-20 9.54182 	-0.00352101 	4.64822e-20 9.53555 	-0.00392206 	3.84854e-20 9.52946 	-0.00431118 	3.07321e-20 9.52466 	-0.00461807 	2.44765e-20 9.51985 	-0.00492512 	1.82206e-20 9.51505 	-0.00523234 	1.19644e-20 9.51024 	-0.0055397 	5.70789e-21 9.50298 	-0.00593321 	-1.63685e-22 9.49372 	-0.00653892 	-1.32327e-20 9.48227 	-0.00721739 	-2.70031e-20 9.4708 	-0.00789673 	-4.0772e-20 9.45932 	-0.00857694 	-5.45393e-20 9.4403 	-0.00948384 	-6.83119e-20 9.43523 	-0.00995074 	-7.36225e-20 9.42346 	-0.0106049 	-8.18948e-20 9.41168 	-0.0112599 	-9.01633e-20 9.39988 	-0.0119158 	-9.84277e-20 9.37633 	-0.0128552 	-1.13068e-19 9.37475 	-0.0132624 	-1.37097e-19 9.36272 	-0.0138972 	-1.25777e-19 9.35066 	-0.0145329 	-1.14473e-19 9.33859 	-0.0151695 	-1.03185e-19 9.31144 	-0.0160657 	-4.56626e-20 9.31265 	-0.0164862 	-3.20849e-20 9.30038 	-0.0171046 	-2.31506e-20 9.2881 	-0.0177238 	-1.42155e-20 9.27579 	-0.018344 	-5.27943e-21 9.24592 	-0.0191262 	0 9.24927 	-0.0196262 	0 9.23681 	-0.0202342 	0 9.22433 	-0.020843 	0 9.21183 	-0.0214528 	0 9.18005 	-0.022066 	0 9.18494 	-0.0227056 	3.88883e-21 9.17232 	-0.0233079 	1.21144e-20 9.15969 	-0.0239112 	2.03391e-20 9.14703 	-0.0245154 	2.85629e-20 9.11407 	-0.0249096 	4.55764e-20 9.11999 	-0.0257323 	1.4427e-19 9.10725 	-0.0263345 	1.4762e-19 9.09449 	-0.0269376 	1.50987e-19 9.0817 	-0.0275418 	1.54371e-19 9.04819 	-0.0276872 	4.57782e-20 9.05471 	-0.0287359 	2.721e-20 9.04187 	-0.0293438 	1.95967e-20 9.02901 	-0.0299527 	1.19824e-20 9.01614 	-0.0305626 	4.36702e-21 8.9826 	-0.03043 	1.56301e-20 8.98936 	-0.0317261 	1.014e-19 8.97645 	-0.0323431 	1.03088e-19 8.96352 	-0.0329612 	1.04788e-19 8.95057 	-0.0335804 	1.06501e-19 8.91745 	-0.0331594 	3.54824e-21 8.92418 	-0.034725 	-1.10868e-19 8.91122 	-0.0353553 	-1.2196e-19 8.89825 	-0.0359866 	-1.33065e-19 8.88467 	-0.0365783 	-1.41431e-19 8.85287 	-0.0358979 	-6.37688e-20 8.85797 	-0.0376452 	-1.98258e-19 8.84638 	-0.0383749 	-2.11278e-19 8.83338 	-0.0390207 	-2.14176e-19 8.81808 	-0.0394611 	-1.9602e-19 8.78898 	-0.038656 	-5.06366e-20 8.79199 	-0.0405216 	-2.53848e-20 8.78211 	-0.0414203 	-1.40069e-20 8.76911 	-0.0420863 	-5.97863e-21 8.75259 	-0.042356 	0 8.72591 	-0.0414678 	0 8.72712 	-0.0434459 	0 8.7186 	-0.0445405 	0 8.70561 	-0.04523 	0 8.68831 	-0.0453095 	1.37684e-21 8.66373 	-0.0443526 	5.0887e-21 8.6634 	-0.0464063 	1.54838e-21 8.65596 	-0.0477055 	0 8.643 	-0.0484178 	0 8.62524 	-0.0483004 	1.81677e-21 8.6025 	-0.047314 	5.53359e-21 8.60085 	-0.0494271 	1.99306e-21 8.59426 	-0.0509394 	3.13565e-21 8.58135 	-0.051676 	1.03114e-20 8.56341 	-0.0513601 	2.57306e-20 8.54227 	-0.0503676 	4.64422e-20 8.53949 	-0.0525225 	1.88567e-19 8.53357 	-0.0542465 	2.88081e-19 8.52071 	-0.0550001 	2.92039e-19 8.50279 	-0.0544756 	1.89124e-19 8.48304 	-0.0534814 	4.70206e-20 8.47929 	-0.0556249 	2.66323e-20 8.47389 	-0.0575266 	8.53091e-21 8.46109 	-0.0582931 	1.06764e-21 8.44336 	-0.0575908 	3.03309e-21 8.42482 	-0.0566426 	6.57209e-21 8.42022 	-0.0587712 	3.21471e-21 8.4152 	-0.060846 	2.5282e-22 8.40248 	-0.0616432 	6.25507e-21 8.38506 	-0.0608103 	2.40665e-21 8.3676 	-0.0599515 	-1.59233e-21 8.36225 	-0.0621248 	-5.03127e-20 8.35683 	-0.0643007 	-9.90396e-20 8.34442 	-0.0650588 	-9.95772e-20 8.32787 	-0.064213 	-5.49852e-20 8.31133 	-0.0633663 	-1.03898e-20 8.30533 	-0.065489 	9.98651e-20 8.29925 	-0.0676141 	2.10111e-19 8.28743 	-0.0683543 	2.17776e-19 8.27169 	-0.067589 	1.2572e-19 8.25598 	-0.0668231 	3.36643e-20 8.24937 	-0.0689232 	2.08311e-20 8.24269 	-0.0710256 	7.99249e-21 8.23144 	-0.071768 	4.90561e-21 8.21645 	-0.0710911 	1.03184e-20 8.20148 	-0.0704135 	1.57332e-20 8.19434 	-0.0725289 	9.24882e-21 8.18713 	-0.0746466 	2.75651e-21 8.17644 	-0.0753707 	-2.69546e-20 8.16208 	-0.0746957 	-8.21138e-20 8.14773 	-0.0740201 	-1.37276e-19 8.14009 	-0.0760272 	-2.80622e-19 8.13238 	-0.0780365 	-4.23961e-19 8.12223 	-0.0787324 	-4.112e-19 8.10846 	-0.0781591 	-2.47175e-19 8.0947 	-0.0775853 	-8.31496e-20 8.08659 	-0.0795355 	5.27421e-20 8.07841 	-0.0814878 	1.88648e-19 8.06879 	-0.0822011 	1.96361e-19 8.05554 	-0.0817612 	9.84527e-20 8.0423 	-0.0813211 	5.42193e-22 8.03375 	-0.0833237 	-9.61782e-20 8.02513 	-0.0853285 	-1.92898e-19 8.01596 	-0.0860685 	-2.05471e-19 8.00317 	-0.0856598 	-1.21325e-19 7.99038 	-0.0852509 	-3.71754e-20 7.98145 	-0.0872504 	-2.53576e-20 7.97243 	-0.0891042 	-1.35538e-20 7.9632 	-0.0898126 	-1.82521e-21 7.95126 	-0.0895883 	1.88486e-20 7.93883 	-0.0891919 	4.11726e-20 7.92949 	-0.0911432 	1.73772e-20 7.92015 	-0.092759 	-1.6461e-21 7.9109 	-0.0934632 	-7.74451e-21 7.89974 	-0.0934373 	1.38271e-21 7.88769 	-0.0930642 	1.77486e-20 7.87812 	-0.094987 	-5.57101e-22 7.86866 	-0.0963877 	-1.38077e-20 7.85938 	-0.0970923 	-2.03245e-20 7.8488 	-0.0972621 	-3.50574e-20 7.83696 	-0.0969116 	-5.77755e-20 7.82718 	-0.0988043 	5.6402e-20 7.81766 	-0.0999988 	1.04402e-19 7.80834 	-0.100711 	1.06701e-19 7.79821 	-0.101084 	7.5778e-20 7.78651 	-0.100775 	-2.19157e-20 7.77651 	-0.102622 	7.3457e-20 7.76697 	-0.103621 	9.86755e-20 7.75756 	-0.104348 	1.01413e-19 7.7478 	-0.104926 	9.15942e-20 7.73615 	-0.104679 	1.23373e-20 7.72587 	-0.106482 	7.03893e-22 7.71631 	-0.107298 	-1.02468e-22 7.70678 	-0.108038 	-5.20008e-23 7.69722 	-0.108778 	-1.54295e-24 7.68571 	-0.108606 	1.97716e-20 7.6752 	-0.110264 	0 7.66556 	-0.111003 	0 7.6559 	-0.111742 	0 7.6462 	-0.112482 	0 7.6351 	-0.112504 	1.60582e-20 7.62448 	-0.113953 	0 7.6147 	-0.114682 	0 7.60489 	-0.115411 	0 7.59504 	-0.116141 	0 7.58428 	-0.116338 	0 7.57362 	-0.117586 	0 7.56369 	-0.118299 	0 7.55373 	-0.119014 	0 7.54374 	-0.119729 	0 7.53322 	-0.120093 	-7.5078e-21 7.52261 	-0.121136 	0 7.51253 	-0.121824 	0 7.50242 	-0.122513 	0 7.49228 	-0.123202 	0 7.48191 	-0.123721 	-7.24408e-21 7.47208 	-0.124501 	0 7.46253 	-0.125106 	0 7.45296 	-0.125712 	0 7.44337 	-0.126318 	0 7.43419 	-0.126898 	0 7.43342 	-0.126946 	0 7.43265 	-0.126994 	0 7.43188 	-0.127042 	0 7.43111 	-0.12709 	0 7.43041 	-0.127124 	0 7.41985 	-0.12775 	-8.68635e-21 7.40931 	-0.128362 	-1.75105e-20 7.39873 	-0.128975 	-2.63329e-20 7.38813 	-0.129589 	-3.51536e-20 7.37867 	-0.130001 	-4.39817e-20 7.36746 	-0.130778 	-4.11912e-20 7.35677 	-0.131352 	-4.04678e-20 7.34606 	-0.131927 	-3.97411e-20 7.33533 	-0.132503 	-3.90113e-20 7.32683 	-0.132691 	-4.23332e-20 7.31495 	-0.133622 	-3.26691e-20 7.30412 	-0.134158 	-2.29852e-20 7.29326 	-0.134694 	-1.32998e-20 7.28238 	-0.135231 	-3.61279e-21 7.27485 	-0.13519 	0 7.26229 	-0.136278 	-1.27601e-21 7.25131 	-0.136772 	-5.29152e-21 7.2403 	-0.137266 	-9.30634e-21 7.22927 	-0.137761 	-1.33205e-20 7.22272 	-0.137481 	-1.74164e-20 7.20948 	-0.138718 	-4.53904e-20 7.19836 	-0.139162 	-6.20147e-20 7.18721 	-0.139607 	-7.86403e-20 7.1763 	-0.140007 	-9.37891e-20 7.1705 	-0.139517 	-7.98634e-20 7.15693 	-0.140767 	-5.85023e-20 7.14535 	-0.141278 	-4.71516e-20 7.13409 	-0.141664 	-3.74873e-20 7.12422 	-0.141804 	-3.55165e-20 7.11833 	-0.14125 	-5.51935e-20 7.10466 	-0.142427 	-6.56997e-20 7.09242 	-0.143071 	-6.01823e-20 7.08107 	-0.14339 	-4.48463e-20 7.07229 	-0.143253 	-2.4129e-20 7.06634 	-0.14262 	2.46848e-21 7.05258 	-0.143705 	5.44336e-21 7.0397 	-0.144465 	5.63156e-21 7.02831 	-0.144701 	1.31595e-21 7.0207 	-0.144274 	0 7.01476 	-0.143554 	0 7.00094 	-0.14454 	0 6.98744 	-0.145408 	0 6.97605 	-0.145561 	0 6.96968 	-0.144847 	0 6.96381 	-0.14405 	0 6.94996 	-0.144955 	0 6.93608 	-0.145861 	0 6.9252 	-0.145897 	-1.15054e-20 6.9194 	-0.145018 	-2.4323e-20 6.91362 	-0.144139 	-3.71435e-20 6.8998 	-0.144968 	-2.31342e-20 6.88594 	-0.145798 	-9.12132e-21 6.87573 	-0.145743 	1.62788e-21 6.87005 	-0.144776 	4.15952e-21 6.86441 	-0.143808 	6.69171e-21 6.85065 	-0.144555 	2.92211e-20 6.83686 	-0.145303 	5.17499e-20 6.82737 	-0.145148 	5.71978e-20 6.82187 	-0.144093 	4.74262e-20 6.8164 	-0.143037 	3.76581e-20 6.80277 	-0.143701 	2.06654e-20 6.78911 	-0.144366 	3.66888e-21 6.78041 	-0.144091 	4.64838e-21 6.77512 	-0.142929 	1.03911e-20 6.76987 	-0.141767 	1.61323e-20 6.7564 	-0.142324 	5.66986e-20 6.74295 	-0.142876 	9.69916e-20 6.73521 	-0.142419 	9.55556e-20 6.73008 	-0.141196 	5.76224e-20 6.72513 	-0.139927 	1.75078e-20 6.71192 	-0.140373 	1.23287e-20 6.69998 	-0.140594 	8.28756e-21 6.69255 	-0.140028 	8.22163e-21 6.68712 	-0.138902 	1.19045e-20 6.68252 	-0.137547 	1.71216e-20 6.66961 	-0.137904 	5.41896e-20 6.65923 	-0.137816 	7.45534e-20 6.65216 	-0.13715 	7.32657e-20 6.64647 	-0.136111 	5.5042e-20 6.64228 	-0.134668 	1.83818e-20 6.62974 	-0.134934 	1.36737e-20 6.62099 	-0.134535 	8.76676e-21 6.61434 	-0.133771 	3.74983e-21 6.60843 	-0.132814 	0 6.60469 	-0.131287 	0 6.59258 	-0.131462 	0 6.5855 	-0.130762 	0 6.57933 	-0.129909 	0 6.57326 	-0.129032 	0 6.57002 	-0.12744 	0 6.55872 	-0.127482 	0 6.55304 	-0.126557 	0 6.54738 	-0.125632 	0 6.54174 	-0.124707 	0 6.53851 	-0.123199 	7.19435e-21 6.52893 	-0.12298 	1.11258e-21 6.52381 	-0.121997 	5.5986e-21 6.5187 	-0.121014 	1.00836e-20 6.51363 	-0.120031 	1.45676e-20 6.51036 	-0.118627 	2.04188e-20 6.50251 	-0.118163 	4.64638e-20 6.49797 	-0.117139 	4.92168e-20 6.49346 	-0.116115 	5.19793e-20 6.48898 	-0.115091 	5.47513e-20 6.48573 	-0.113798 	3.38232e-20 6.4796 	-0.11313 	5.10936e-20 6.47569 	-0.112096 	4.54412e-20 6.47181 	-0.111062 	3.9798e-20 6.46795 	-0.110028 	3.41642e-20 6.46475 	-0.108861 	2.04032e-20 6.46032 	-0.10804 	1.91892e-20 6.45705 	-0.107032 	1.9052e-20 6.45381 	-0.106025 	1.89128e-20 6.4506 	-0.105017 	1.87715e-20 6.4475 	-0.103992 	1.92486e-20 6.44687 	-0.103851 	1.94154e-20 6.44641 	-0.103684 	1.92604e-20 6.44595 	-0.103517 	1.91057e-20 6.44548 	-0.10335 	1.89511e-20 6.44502 	-0.103181 	1.87949e-20 6.44278 	-0.102398 	1.85042e-20 6.44055 	-0.101614 	1.82148e-20 6.43835 	-0.100831 	1.79267e-20 6.43615 	-0.100047 	1.76399e-20 6.43478 	-0.0991603 	1.8404e-20 6.43224 	-0.098357 	1.64659e-20 6.43018 	-0.0974931 	1.30126e-20 6.42814 	-0.0966293 	9.557e-21 6.42613 	-0.0957656 	6.09898e-21 6.42583 	-0.0946918 	-2.56703e-23 6.42342 	-0.0940646 	-4.43711e-22 6.42201 	-0.0933209 	-3.1833e-22 6.42061 	-0.0925772 	-1.92972e-22 6.41924 	-0.0918337 	-6.76383e-23 6.42038 	-0.090796 	0 6.41812 	-0.0903639 	-3.38295e-21 6.41734 	-0.0897794 	-1.00003e-20 6.41657 	-0.089195 	-1.66187e-20 6.41582 	-0.0886108 	-2.32382e-20 6.4183 	-0.0876713 	-2.88777e-20 6.41621 	-0.087455 	-2.28999e-20 6.41603 	-0.0870684 	-1.59979e-20 6.41586 	-0.086682 	-9.09669e-21 6.4157 	-0.0862957 	-2.19621e-21 6.41941 	-0.0855141 	1.8198e-21 6.4175 	-0.0855318 	7.94992e-22 6.41789 	-0.0853785 	7.52417e-21 6.41828 	-0.0852253 	1.42536e-20 6.41868 	-0.0850721 	2.09834e-20 6.42349 	-0.0845076 	3.04987e-20 6.42174 	-0.0847811 	2.06514e-20 6.42265 	-0.0849001 	1.38641e-20 6.42355 	-0.0850189 	7.07665e-21 6.42466 	-0.0851204 	5.344e-22 6.43023 	-0.0848591 	-8.73071e-22 6.42889 	-0.0854094 	-2.46386e-20 6.42994 	-0.0858689 	-2.76869e-20 6.43127 	-0.0863174 	-2.82662e-20 6.43343 	-0.0867119 	-2.51543e-20 6.43919 	-0.0868733 	-6.0403e-21 6.4383 	-0.0877742 	-2.54411e-20 6.43931 	-0.0886606 	-3.10582e-20 6.44098 	-0.0895416 	-3.18855e-20 6.44404 	-0.0903646 	-2.56004e-20 6.44993 	-0.0910714 	-4.95451e-21 6.44939 	-0.0924542 	-2.58946e-20 6.4503 	-0.0938723 	-3.51685e-20 6.45222 	-0.095315 	-3.62235e-20 6.45607 	-0.096719 	-2.53999e-20 6.46202 	-0.0980811 	-1.69052e-21 6.46176 	-0.100061 	-3.68527e-22 6.46249 	-0.102073 	3.00554e-22 6.46457 	-0.104127 	8.01786e-23 6.46909 	-0.106143 	0 6.475 	-0.108137 	0 6.47493 	-0.110696 	0 6.47538 	-0.113268 	0 6.47753 	-0.115882 	0 6.48265 	-0.118447 	0 6.48846 	-0.120998 	0 6.48851 	-0.124069 	0 6.48862 	-0.127142 	3.56626e-22 6.49076 	-0.130279 	7.03065e-21 6.49638 	-0.13339 	1.20627e-20 6.50198 	-0.136498 	1.70664e-20 6.50205 	-0.140084 	-1.44184e-20 6.50204 	-0.143667 	-4.59114e-20 6.50437 	-0.147338 	-4.64005e-20 6.50977 	-0.151046 	-1.55251e-20 6.5151 	-0.154751 	1.53452e-20 6.5151 	-0.158894 	9.55043e-21 6.51501 	-0.163032 	3.74584e-21 6.51738 	-0.167275 	-2.65028e-21 6.52244 	-0.171611 	-5.99554e-21 6.5274 	-0.175943 	-9.32921e-21 6.52725 	-0.180675 	2.15303e-20 6.52699 	-0.185403 	5.24028e-20 6.52932 	-0.190254 	5.42276e-20 6.53394 	-0.195247 	2.61182e-20 6.53846 	-0.200235 	-1.98016e-21 6.53805 	-0.205588 	9.9525e-22 6.53753 	-0.210936 	3.98861e-21 6.53971 	-0.216429 	3.12264e-21 6.54382 	-0.222098 	-8.7005e-23 6.5478 	-0.227762 	-3.28145e-21 6.54704 	-0.233758 	1.27955e-21 6.5468 	-0.239792 	3.70865e-21 6.54868 	-0.245973 	-1.29981e-21 6.5516 	-0.252272 	-4.06153e-21 6.55497 	-0.258629 	-5.71642e-21 6.55375 	-0.265288 	-3.22701e-20 6.55394 	-0.272067 	-4.40789e-20 6.55524 	-0.278939 	-4.4085e-20 6.55683 	-0.285857 	-3.56737e-20 6.55948 	-0.292914 	-4.48513e-21 6.55771 	-0.300246 	-9.53273e-21 6.55826 	-0.307805 	-6.97484e-21 6.55887 	-0.315375 	-3.78466e-21 6.55933 	-0.322939 	-6.01869e-22 6.56089 	-0.330661 	0 6.55929 	-0.338763 	0 6.55929 	-0.347041 	0 6.55912 	-0.35531 	0 6.55879 	-0.363571 	0 6.5587 	-0.371886 	0 6.55777 	-0.376297 	0 6.55738 	-0.380774 	0 6.55695 	-0.385248 	0 6.55648 	-0.389721 	0 6.55602 	-0.393678 	0 6.55517 	-0.398217 	0 6.55428 	-0.402754 	0 6.55333 	-0.407287 	0 6.55233 	-0.411818 	0 6.5516 	-0.416415 	0 6.54928 	-0.425918 	0 6.54688 	-0.435456 	0 6.54428 	-0.444981 	0 6.54147 	-0.454494 	0 6.53938 	-0.464211 	3.42889e-21 6.53572 	-0.474296 	3.13834e-22 6.53216 	-0.484471 	-1.49363e-21 6.52841 	-0.494644 	-3.14906e-21 6.52493 	-0.50491 	-2.96859e-21 6.52181 	-0.515304 	-5.4546e-22 6.51696 	-0.526035 	-1.67553e-20 6.51188 	-0.536755 	-3.25459e-20 6.50699 	-0.547572 	-3.31289e-20 6.50281 	-0.55857 	-2.37733e-20 6.49838 	-0.569569 	-1.44125e-20 6.49222 	-0.580918 	-8.94608e-21 6.4858 	-0.592251 	-3.48734e-21 6.48002 	-0.603732 	-3.10393e-23 6.47444 	-0.615283 	-3.35481e-21 6.46858 	-0.626838 	-6.66829e-21 6.46099 	-0.638756 	-1.81929e-21 6.45377 	-0.650756 	-2.75399e-21 6.44669 	-0.662804 	-7.4992e-21 6.43934 	-0.674836 	-1.22586e-20 6.43191 	-0.68689 	-1.98703e-20 6.42589 	-0.69524 	-1.58725e-20 6.42034 	-0.70365 	-2.01423e-20 6.41467 	-0.712052 	-2.44333e-20 6.40886 	-0.720446 	-2.87456e-20 6.40367 	-0.727771 	-3.25305e-20 6.40074 	-0.732083 	-3.75969e-20 6.39778 	-0.736393 	