# vtk DataFile Version 2.0
track0
ASCII
DATASET POLYDATA
POINTS 12085 float
-0.0205 0.001 1e-05
-0.02052 0.000999985 1e-05
-0.02054 0.000999974 1e-05
-0.02056 0.000999965 1e-05
-0.02058 0.000999959 1e-05
-0.0206 0.000999956 1e-05
-0.0205 0.00367778 1e-05
-0.02052 0.00367778 1e-05
-0.02054 0.00367777 1e-05
-0.02056 0.00367777 1e-05
-0.02058 0.00367777 1e-05
-0.0206 0.00367777 1e-05
-0.0205 0.00635556 1e-05
-0.02052 0.00635555 1e-05
-0.02054 0.00635555 1e-05
-0.02056 0.00635555 1e-05
-0.02058 0.00635555 1e-05
-0.0206 0.00635555 1e-05
-0.0205 0.00903333 1e-05
-0.02052 0.00903333 1e-05
-0.02054 0.00903333 1e-05
-0.02056 0.00903333 1e-05
-0.02058 0.00903333 1e-05
-0.0206 0.00903333 1e-05
-0.0205 0.0117111 1e-05
-0.02052 0.0117111 1e-05
-0.02054 0.0117111 1e-05
-0.02056 0.0117111 1e-05
-0.02058 0.0117111 1e-05
-0.0206 0.0117111 1e-05
-0.0205 0.0143889 1e-05
-0.02052 0.0143889 1e-05
-0.02054 0.0143889 1e-05
-0.02056 0.0143889 1e-05
-0.02058 0.0143889 1e-05
-0.0206 0.0143889 1e-05
-0.0205 0.0170667 1e-05
-0.02052 0.0170667 1e-05
-0.02054 0.0170667 1e-05
-0.02056 0.0170667 1e-05
-0.02058 0.0170667 1e-05
-0.0206 0.0170667 1e-05
-0.0205 0.0197444 1e-05
-0.02052 0.0197444 1e-05
-0.02054 0.0197444 1e-05
-0.02056 0.0197444 1e-05
-0.02058 0.0197444 1e-05
-0.0206 0.0197444 1e-05
-0.0205 0.0224222 1e-05
-0.02052 0.0224222 1e-05
-0.02054 0.0224222 1e-05
-0.02056 0.0224222 1e-05
-0.02058 0.0224222 1e-05
-0.0206 0.0224222 1e-05
-0.0205 0.0251 1e-05
-0.02052 0.0250998 1e-05
-0.02054 0.0250997 1e-05
-0.02056 0.0250995 1e-05
-0.02058 0.0250995 1e-05
-0.0206 0.0250994 1e-05
-0.0205 0.001 1e-05
-0.0202034 0.00100022 1e-05
-0.0199069 0.00100067 1e-05
-0.0196103 0.00100133 1e-05
-0.0193137 0.00100219 1e-05
-0.0190172 0.00100326 1e-05
-0.0187132 0.00100467 1e-05
-0.0184093 0.00100589 1e-05
-0.0181054 0.00100711 1e-05
-0.0178015 0.00100833 1e-05
-0.0174976 0.00100954 1e-05
-0.0172058 0.00101084 1e-05
-0.016914 0.00101194 1e-05
-0.0166222 0.00101305 1e-05
-0.0163305 0.00101415 1e-05
-0.0160387 0.00101525 1e-05
-0.0157586 0.00101639 1e-05
-0.0154784 0.00101747 1e-05
-0.0151983 0.0010186 1e-05
-0.0149182 0.00101975 1e-05
-0.0146381 0.00102095 1e-05
-0.0143776 0.00102212 1e-05
-0.0141171 0.0010233 1e-05
-0.0138566 0.00102451 1e-05
-0.0135961 0.00102575 1e-05
-0.0133762 0.00102682 1e-05
-0.0133596 0.0010269 1e-05
-0.0133431 0.00102698 1e-05
-0.0133265 0.00102706 1e-05
-0.01331 0.00102715 1e-05
-0.0132934 0.00102723 1e-05
-0.0130353 0.00102852 1e-05
-0.0127771 0.00102984 1e-05
-0.0125189 0.00103116 1e-05
-0.0122607 0.00103251 1e-05
-0.0120025 0.00103387 1e-05
-0.0117547 0.00103518 1e-05
-0.0115068 0.00103651 1e-05
-0.0112589 0.00103784 1e-05
-0.0110111 0.00103918 1e-05
-0.0107632 0.00104052 1e-05
-0.0105252 0.0010418 1e-05
-0.0102873 0.0010431 1e-05
-0.0100493 0.00104439 1e-05
-0.00981133 0.00104568 1e-05
-0.00957337 0.00104697 1e-05
-0.00934491 0.00104821 1e-05
-0.00911645 0.00104945 1e-05
-0.00888799 0.00105068 1e-05
-0.00865954 0.00105192 1e-05
-0.00843108 0.00105315 1e-05
-0.00821175 0.00105433 1e-05
-0.00799242 0.0010555 1e-05
-0.00777309 0.00105668 1e-05
-0.00755376 0.00105785 1e-05
-0.00733443 0.00105902 1e-05
-0.00712387 0.00106014 1e-05
-0.0069133 0.00106125 1e-05
-0.00670273 0.00106237 1e-05
-0.00649216 0.00106348 1e-05
-0.0062816 0.00106459 1e-05
-0.00607944 0.00106565 1e-05
-0.00587729 0.00106671 1e-05
-0.00567514 0.00106777 1e-05
-0.00547298 0.00106883 1e-05
-0.00527083 0.00106988 1e-05
-0.00507675 0.00107089 1e-05
-0.00488267 0.0010719 1e-05
-0.0046886 0.00107291 1e-05
-0.00449452 0.00107392 1e-05
-0.00430044 0.00107493 1e-05
-0.00411412 0.0010759 1e-05
-0.0039278 0.00107687 1e-05
-0.00374147 0.00107784 1e-05
-0.00355515 0.00107882 1e-05
-0.00336883 0.0010798 1e-05
-0.00318995 0.00108073 1e-05
-0.00301107 0.00108168 1e-05
-0.00283219 0.00108263 1e-05
-0.00265331 0.0010836 1e-05
-0.00247443 0.00108456 1e-05
-0.0023027 0.0010855 1e-05
-0.00213097 0.00108645 1e-05
-0.00195924 0.00108741 1e-05
-0.00178751 0.00108838 1e-05
-0.00161577 0.00108937 1e-05
-0.0014509 0.00109032 1e-05
-0.00128603 0.0010913 1e-05
-0.00112116 0.0010923 1e-05
-0.00095629 0.00109333 1e-05
-0.000791418 0.00109439 1e-05
-0.000633135 0.00109544 1e-05
-0.000474851 0.00109652 1e-05
-0.000316568 0.00109763 1e-05
-0.000158285 0.00109879 1e-05
0 0.00109998 1e-05
0.000105677 0.00110078 1e-05
0.000211355 0.00110161 1e-05
0.000317032 0.00110244 1e-05
0.000422709 0.00110328 1e-05
0.000528387 0.00110413 1e-05
0.000634886 0.00110499 1e-05
0.000741385 0.00110584 1e-05
0.000847885 0.00110668 1e-05
0.000954384 0.00110751 1e-05
0.00106088 0.00110834 1e-05
0.00116821 0.00110916 1e-05
0.00127554 0.00110997 1e-05
0.00138286 0.00111076 1e-05
0.00149019 0.00111154 1e-05
0.00159752 0.00111229 1e-05
0.00170568 0.00111304 1e-05
0.00181384 0.00111378 1e-05
0.001922 0.0011145 1e-05
0.00203016 0.0011152 1e-05
0.00213833 0.00111588 1e-05
0.00224733 0.00111655 1e-05
0.00235633 0.00111721 1e-05
0.00246533 0.00111785 1e-05
0.00257434 0.00111847 1e-05
0.00268334 0.00111908 1e-05
0.00279319 0.00111967 1e-05
0.00290304 0.00112026 1e-05
0.00301289 0.00112083 1e-05
0.00312274 0.00112139 1e-05
0.00323259 0.00112192 1e-05
0.00334329 0.00112245 1e-05
0.003454 0.00112296 1e-05
0.0035647 0.00112346 1e-05
0.0036754 0.00112395 1e-05
0.00378611 0.00112442 1e-05
0.00389767 0.00112487 1e-05
0.00400924 0.00112532 1e-05
0.0041208 0.00112576 1e-05
0.00423237 0.00112618 1e-05
0.00434393 0.00112659 1e-05
0.00445636 0.00112697 1e-05
0.00456879 0.00112736 1e-05
0.00468123 0.00112773 1e-05
0.00479366 0.00112809 1e-05
0.00490609 0.00112843 1e-05
0.0050194 0.00112875 1e-05
0.0051327 0.00112908 1e-05
0.00524601 0.00112938 1e-05
0.00535932 0.00112968 1e-05
0.00547262 0.00112996 1e-05
0.00558681 0.00113023 1e-05
0.005701 0.00113049 1e-05
0.00581518 0.00113074 1e-05
0.00592937 0.00113098 1e-05
0.00604356 0.0011312 1e-05
0.00615863 0.00113141 1e-05
0.00627371 0.00113161 1e-05
0.00638878 0.00113181 1e-05
0.00650386 0.00113199 1e-05
0.00661893 0.00113216 1e-05
0.0067349 0.00113232 1e-05
0.00685087 0.00113247 1e-05
0.00696684 0.00113261 1e-05
0.00708281 0.00113274 1e-05
0.00719878 0.00113287 1e-05
0.00731565 0.00113297 1e-05
0.00743252 0.00113307 1e-05
0.00754939 0.00113317 1e-05
0.00766626 0.00113325 1e-05
0.00778313 0.00113332 1e-05
0.00790091 0.00113338 1e-05
0.00801869 0.00113343 1e-05
0.00813647 0.00113348 1e-05
0.00825425 0.00113351 1e-05
0.00837203 0.00113354 1e-05
0.00849073 0.00113355 1e-05
0.00860942 0.00113356 1e-05
0.00872812 0.00113356 1e-05
0.00884682 0.00113355 1e-05
0.00896551 0.00113353 1e-05
0.00903387 0.00113351 1e-05
0.00910223 0.00113349 1e-05
0.0091706 0.00113347 1e-05
0.00923896 0.00113344 1e-05
0.00930524 0.00113341 1e-05
0.00935692 0.00113339 1e-05
0.00940859 0.00113337 1e-05
0.00946026 0.00113334 1e-05
0.00951193 0.00113331 1e-05
0.0095636 0.00113328 1e-05
0.00968415 0.00113321 1e-05
0.0098047 0.00113312 1e-05
0.00992525 0.00113303 1e-05
0.0100458 0.00113293 1e-05
0.0101663 0.00113282 1e-05
0.0102878 0.0011327 1e-05
0.0104093 0.00113257 1e-05
0.0105308 0.00113243 1e-05
0.0106523 0.00113229 1e-05
0.0107738 0.00113213 1e-05
0.0108962 0.00113197 1e-05
0.0110186 0.00113179 1e-05
0.0111411 0.00113161 1e-05
0.0112635 0.00113142 1e-05
0.0113859 0.00113122 1e-05
0.0115093 0.00113101 1e-05
0.0116327 0.00113079 1e-05
0.0117561 0.00113056 1e-05
0.0118795 0.00113033 1e-05
0.0120028 0.00113008 1e-05
0.0121272 0.00112983 1e-05
0.0122515 0.00112956 1e-05
0.0123759 0.00112929 1e-05
0.0125002 0.00112901 1e-05
0.0126245 0.00112872 1e-05
0.0127498 0.00112842 1e-05
0.0128752 0.00112811 1e-05
0.0130005 0.00112779 1e-05
0.0131258 0.00112746 1e-05
0.0132511 0.00112713 1e-05
0.0133774 0.00112678 1e-05
0.0135036 0.00112643 1e-05
0.0136299 0.00112606 1e-05
0.0137562 0.00112569 1e-05
0.0138825 0.0011253 1e-05
0.0140098 0.00112492 1e-05
0.014137 0.00112451 1e-05
0.0142643 0.0011241 1e-05
0.0143915 0.00112368 1e-05
0.0145188 0.00112324 1e-05
0.0146471 0.00112281 1e-05
0.0147753 0.00112236 1e-05
0.0149036 0.0011219 1e-05
0.0150318 0.00112142 1e-05
0.0151601 0.00112094 1e-05
0.0152893 0.00112046 1e-05
0.0154186 0.00111996 1e-05
0.0155478 0.00111945 1e-05
0.0156771 0.00111892 1e-05
0.0158063 0.00111839 1e-05
0.0159366 0.00111786 1e-05
0.0160668 0.00111731 1e-05
0.0161971 0.00111674 1e-05
0.0163273 0.00111617 1e-05
0.0164576 0.00111559 1e-05
0.0165889 0.00111501 1e-05
0.0167201 0.0011144 1e-05
0.0168514 0.00111379 1e-05
0.0169827 0.00111316 1e-05
0.0171139 0.00111252 1e-05
0.0172462 0.00111189 1e-05
0.0173785 0.00111123 1e-05
0.0175108 0.00111056 1e-05
0.0176431 0.00110987 1e-05
0.0177754 0.00110918 1e-05
0.0179087 0.0011085 1e-05
0.018042 0.00110778 1e-05
0.0181753 0.00110705 1e-05
0.0183087 0.0011063 1e-05
0.018442 0.00110555 1e-05
0.0185763 0.00110482 1e-05
0.0187107 0.00110404 1e-05
0.018845 0.00110325 1e-05
0.0189794 0.00110244 1e-05
0.0191137 0.00110163 1e-05
0.0192491 0.00110083 1e-05
0.0193845 0.0011 1e-05
0.0195199 0.00109914 1e-05
0.0196553 0.00109827 1e-05
0.0197907 0.0010974 1e-05
0.0199272 0.00109654 1e-05
0.0200636 0.00109564 1e-05
0.0202001 0.00109472 1e-05
0.0203365 0.00109378 1e-05
0.020473 0.00109285 1e-05
0.0206105 0.00109192 1e-05
0.020748 0.00109096 1e-05
0.0208855 0.00108997 1e-05
0.021023 0.00108896 1e-05
0.0211606 0.00108796 1e-05
0.0212991 0.00108697 1e-05
0.0214377 0.00108594 1e-05
0.0215763 0.00108487 1e-05
0.0217149 0.00108379 1e-05
0.0218535 0.00108272 1e-05
0.0219931 0.00108166 1e-05
0.0221328 0.00108056 1e-05
0.0222724 0.00107942 1e-05
0.0224121 0.00107827 1e-05
0.0225517 0.00107713 1e-05
0.0226925 0.00107599 1e-05
0.0228332 0.00107481 1e-05
0.022974 0.0010736 1e-05
0.0231147 0.00107237 1e-05
0.0232555 0.00107115 1e-05
0.0233973 0.00106994 1e-05
0.0235391 0.00106868 1e-05
0.023681 0.00106739 1e-05
0.0238228 0.00106608 1e-05
0.0239647 0.00106478 1e-05
0.0241076 0.00106348 1e-05
0.0242505 0.00106215 1e-05
0.0243935 0.00106078 1e-05
0.0245364 0.00105939 1e-05
0.0246794 0.00105801 1e-05
0.0248234 0.00105663 1e-05
0.0249675 0.00105522 1e-05
0.0251115 0.00105376 1e-05
0.0252556 0.0010523 1e-05
[...]
POINT_DATA 12085
 FIELD attributes 2
p 1 12085 float
-5.6934 -5.69008 -5.68677 -5.68345 -5.68014 -5.67683
-5.8472 -5.84718 -5.84715 -5.84713 -5.84711 -5.84709
-6.02431 -6.02419 -6.02406 -6.02394 -6.02382 -6.02372
-6.1217 -6.12165 -6.1216 -6.12154 -6.12149 -6.12144
-6.17126 -6.17115 -6.17104 -6.17093 -6.17081 -6.1707
-6.18211 -6.18195 -6.18178 -6.18162 -6.18146 -6.18129
-6.15903 -6.15896 -6.15888 -6.15881 -6.15874 -6.15866
-6.09243 -6.09239 -6.09235 -6.0923 -6.09226 -6.09222
-5.97303 -5.97303 -5.97304 -5.97305 -5.97305 -5.97306
-3.76112 -3.78045 -3.79965 -3.81872 -3.83766 -3.85646
-5.6934 -5.69264 -5.68898 -5.68524 -5.68141 -5.67297 -5.68666 -5.70145 -5.71623 -5.73102 -5.75522 -5.77668 -5.80629 -5.8359 -5.8655 -5.8979 -5.91314 -5.93441 -5.95569 -5.97696 -5.99984 -6.01797 -6.0381 -6.05823 -6.07836 -6.09536 -6.09663 -6.09791 -6.09918 -6.10046 -6.10173 -6.12268 -6.14362 -6.16457 -6.18552 -6.20618 -6.22407 -6.24176 -6.25945 -6.27714 -6.29424 -6.3088 -6.32307 -6.33733 -6.3516 -6.36528 -6.37775 -6.38993 -6.40211 -6.41429 -6.42598 -6.4371 -6.44788 -6.45866 -6.46944 -6.47975 -6.4896 -6.49904 -6.50849 -6.51793 -6.52688 -6.53544 -6.54354 -6.55165 -6.55976 -6.56742 -6.57471 -6.58143 -6.58814 -6.59486 -6.60116 -6.60712 -6.61247 -6.61782 -6.62318 -6.62836 -6.63312 -6.63684 -6.64055 -6.64427 -6.64797 -6.65179 -6.65536 -6.65893 -6.66251 -6.66757 -6.67327 -6.67741 -6.68155 -6.6857 -6.69155 -6.70143 -6.71728 -6.73313 -6.74898 -6.77121 -6.79561 -6.82822 -6.86082 -6.89343 -6.92613 -6.95783 -6.99151 -7.0252 -7.05888 -7.08738 -7.10985 -7.13136 -7.15287 -7.17438 -7.19342 -7.20764 -7.22089 -7.23414 -7.2474 -7.2602 -7.27087 -7.28015 -7.28943 -7.29872 -7.30743 -7.31604 -7.32298 -7.32992 -7.33686 -7.34278 -7.34953 -7.3546 -7.35966 -7.36473 -7.36851 -7.37321 -7.37643 -7.37966 -7.38288 -7.38495 -7.38764 -7.38908 -7.39052 -7.39196 -7.39266 -7.39368 -7.39373 -7.39377 -7.39382 -7.39358 -7.39381 -7.39332 -7.39283 -7.39234 -7.39177 -7.39197 -7.39162 -7.39127 -7.39092 -7.39048 -7.39082 -7.3907 -7.39058 -7.39046 -7.39016 -7.3904 -7.39025 -7.3901 -7.38995 -7.38963 -7.38969 -7.38949 -7.38929 -7.3891 -7.3888 -7.38895 -7.389 -7.38905 -7.38909 -7.38911 -7.38944 -7.38975 -7.39006 -7.39037 -7.39067 -7.3909 -7.39113 -7.39135 -7.39158 -7.392 -7.39292 -7.39402 -7.39511 -7.39621 -7.3979 -7.399 -7.40064 -7.40228 -7.40392 -7.40654 -7.40782 -7.40996 -7.41211 -7.41425 -7.41768 -7.41916 -7.42176 -7.42435 -7.42695 -7.43105 -7.43281 -7.43584 -7.43888 -7.44191 -7.44662 -7.44875 -7.45226 -7.45577 -7.45928 -7.46457 -7.46719 -7.47121 -7.47523 -7.47926 -7.48509 -7.48828 -7.49283 -7.49738 -7.50193 -7.50823 -7.51203 -7.51706 -7.5221 -7.52713 -7.5338 -7.53818 -7.54362 -7.54906 -7.55454 -7.5614 -7.56638 -7.57207 -7.57783 -7.58374 -7.59062 -7.59609 -7.60199 -7.608 -7.61423 -7.6211 -7.62693 -7.63302 -7.63924 -7.64571 -7.6526 -7.65869 -7.66495 -7.67133 -7.67797 -7.68487 -7.69112 -7.69747 -7.70394 -7.71067 -7.71757 -7.72386 -7.73021 -7.73671 -7.74349 -7.75037 -7.75662 -7.76291 -7.76938 -7.77617 -7.78301 -7.78917 -7.79534 -7.80173 -7.80848 -7.81523 -7.82124 -7.82725 -7.83349 -7.84006 -7.84663 -7.85237 -7.85812 -7.86413 -7.87046 -7.87679 -7.8822 -7.88762 -7.89335 -7.8994 -7.90545 -7.91051 -7.91558 -7.92098 -7.92669 -7.93241 -7.93709 -7.94179 -7.94679 -7.9521 -7.9574 -7.96165 -7.9659 -7.97046 -7.97533 -7.98019 -7.98401 -7.98782 -7.99195 -7.99637 -8.0008 -8.00428 -8.00779 -8.01151 -8.01534 -8.01919 -8.0223 -8.02544 -8.02866 -8.03186 -8.03504 -8.03762 -8.04024 -8.0429 -8.04553 -8.04813 -8.05015 -8.05221 -8.05431 -8.05638 -8.0584 -8.05979 -8.06126 -8.06275 -8.06424 -8.06573 -8.06641 -8.06731 -8.06823 -8.06915 -8.07026 -8.07034 -8.07078 -8.07121 -8.07165 -8.07237 -8.07202 -8.07206 -8.0721 -8.07215 -8.07249 -8.07186 -8.07157 -8.07128 -8.071 -8.07092 -8.07009 -8.0695 -8.06891 -8.06832 -8.06782 -8.0669 -8.0661 -8.06531 -8.06452 -8.06376 -8.0637 -8.06364 -8.06358 -8.06352 -8.06347 -8.06244 -8.06143 -8.06041 -8.0594 -8.05849 -8.05724 -8.05608 -8.05492 -8.05377 -8.05285 -8.05139 -8.05014 -8.04889 -8.04764 -8.04678 -8.04516 -8.0439 -8.04264 -8.04139 -8.04073 -8.039 -8.03788 -8.03676 -8.03568 -8.0354 -8.03378 -8.03284 -8.03201 -8.03145 -8.03161 -8.0303 -8.02959 -8.02924 -8.02943 -8.03022 -8.02943 -8.02906 -8.02936 -8.03054 -8.03211 -8.03202 -8.03208 -8.03314 -8.03543 -8.03783 -8.03851 -8.03919 -8.04113 -8.04442 -8.04772 -8.04926 -8.05081 -8.05368 -8.05795 -8.06222 -8.06466 -8.0671 -8.07105 -8.07648 -8.0819 -8.0854 -8.08891 -8.09409 -8.10091 -8.10772 -8.11253 -8.11735 -8.12406 -8.1323 -8.14063 -8.14691 -8.15363 -8.16185 -8.17125 -8.18113 -8.18894 -8.19762 -8.20744 -8.21808 -8.22961 -8.23907 -8.24985 -8.26135 -8.27328 -8.28653 -8.29773 -8.31067 -8.32391 -8.33721 -8.35222 -8.36532 -8.38036 -8.3954 -8.41044 -8.42693 -8.44228 -8.45915 -8.47601 -8.49287 -8.51079 -8.52838 -8.54706 -8.56574 -8.58441 -8.60377 -8.62352 -8.64397 -8.66441 -8.68485 -8.70563 -8.72743 -8.74957 -8.7717 -8.79383 -8.81601 -8.82014 -8.82432 -8.8285 -8.83268 -8.83691 -8.85642 -8.87594 -8.89545 -8.91495 -8.93462 -8.95966 -8.98486 -9.01005 -9.03524 -9.06072 -9.087 -9.11357 -9.14014 -9.16671 -9.1936 -9.221 -9.24877 -9.27654 -9.3043 -9.33234 -9.36075 -9.38951 -9.41826 -9.44701 -9.47587 -9.50514 -9.53461 -9.56407 -9.59353 -9.62281 -9.65273 -9.68256 -9.71239 -9.74219 -9.77142 -9.80168 -9.83147 -9.86121 -9.89075 -9.91941 -9.94948 -9.97882 -10.0079 -10.0365 -10.064 -10.0932 -10.1216 -10.1495 -10.1765 -10.2024 -10.2304 -10.2577 -10.284 -10.3089 -10.3329 -10.3593 -10.3853 -10.4097 -10.4322 -10.4541 -10.4787 -10.5033 -10.5257 -10.5453 -10.5648 -10.5874 -10.6099 -10.6298 -10.6466 -10.6634 -10.6836 -10.7038 -10.7207 -10.7343 -10.7479 -10.7652 -10.7825 -10.796 -10.806 -10.816 -10.8299 -10.8438 -10.8535 -10.8592 -10.8649 -10.8749 -10.8838 -10.8888 -10.8911 -10.8921 -10.8976 -10.9001 -10.9002 -10.8991 -10.8948 -10.8952 -10.8903 -10.8848 -10.8794 -10.8702 -10.863 -10.8515 -10.84 -10.8285 -10.8155 -10.808 -10.799 -10.7899 -10.7809 -10.7729 -10.764 -10.7551 -10.7463 -10.7375 -10.727 -10.7043 -10.6799 -10.6556 -10.6313 -10.6016 -10.5747 -10.5433 -10.5114 -10.4764 -10.4377 -10.403 -10.3681 -10.3274 -10.2802 -10.2329 -10.1899 -10.1468 -10.0973 -10.0412 -9.98505 -9.93324 -9.87657 -9.81672 -9.75687 -9.69214 -9.65041 -9.60385 -9.5573 -9.51075 -9.47011 -9.44673 -9.42336 -9.4 -9.37664 -9.35119 -9.27616 -9.19903 -9.12196 -9.04348 -8.9592 -8.87683 -8.79433 -8.70624 -8.6121 -8.51772 -8.42539 -8.33169 -8.23197 -8.13092 -8.02644 -7.95794 -7.88486 -7.81131 -7.73777 -7.67228 -7.63527 -7.59828 -7.5613 -7.52403 -7.48452 -7.37028 -7.25332 -7.13646 -7.01586 -6.89146 -6.76866 -6.64593 -6.51804 -6.38477 -6.25094 -6.14791 -6.04113 -5.93294 -5.82478 -5.72888 -5.69644 -5.66401 -5.63158 -5.59868 -5.5646 -5.42203 -5.27759 -5.13328 -4.98505 -4.83369 -4.68404 -4.53439 -4.3792 -4.22335 -4.06476 -4.00592 -3.94608 -3.88539 -3.82471 -3.76699 -3.66657 -3.56621 -3.4659 -3.36417 -3.26018 -3.09647 -2.93289 -2.76641 -2.59701 -2.42639 -2.31188 -2.19641 -2.07973 -1.96311 -1.85578 -1.79886 -1.74195 -1.68506 -1.62753 -1.56932 -1.39602 -1.22235 -1.04821 -0.872016 -0.694345 -0.560251 -0.425901 -0.290998 -0.156189 -0.0322464 0.0121268 0.0564889 0.10084 0.145421 0.19024 0.367779 0.545254 0.722617 0.900109 1.07927 1.20181 1.32412 1.4459 1.5676 1.68141 1.73808 1.79473 1.85136 1.90781 1.96438 2.14068 2.3167 2.49161 2.66505 2.84021 2.92888 3.0172 3.10432 3.19139 3.27485 3.36038 3.44588 3.53133 3.61574 3.70028 3.87028 4.04012 4.20737 4.37256 4.53924 4.58222 4.62503 4.66688 4.70871 4.74981 4.87164 4.9934 5.11508 5.23426 5.35369 5.51064 5.66675 5.81886 5.97086 6.11454 6.1194 6.12425 6.12911 6.13385 6.13858 6.29154 6.44415 6.59667 6.74482 6.89354 6.99139 7.08876 7.18309 7.27739 7.36927 7.41891 7.46855 7.51818 7.56631 7.61421 7.75481 7.89534 8.0323 8.16569 8.2997 8.34832 8.39665 8.44311 8.48956 8.53571 8.61985 8.70399 8.78812 8.86858 8.94876 9.0716 9.19392 9.31045 9.427 9.54326 9.54666 9.55006 9.55345 9.5567 9.55993 9.67731 9.79441 9.91153 10.0226 10.1333 10.1962 10.2589 10.3184 10.3779 10.4382 10.4853 10.5324 10.5795 10.6242 10.6687 10.7719 10.8752 10.9743 11.0713 11.167 11.1856 11.204 11.2215 11.239 11.2566 11.333 11.4094 11.4858 11.5585 11.63 11.7074 11.7843 11.8573 11.9305 12.0083 12.0185 12.0286 12.0388 12.0485 12.0581 12.1399 12.2209 12.3019 12.3784 12.4539 12.5057 12.5567 12.6056 12.6545 12.7069 12.7296 12.7522 12.7749 12.7966 12.8179 12.8874 12.9565 13.0242 13.0889 13.1527 13.197 13.2404 13.2823 13.3242 13.3702 13.3882 13.4063 13.4244 13.442 13.459 13.5172 13.5747 13.6319 13.6861 13.7396 13.7927 13.8444 13.8947 13.945 13.9946 13.9974 14.0002 14.0029 14.0056 14.0083 14.0529 14.0974 14.142 14.1857 14.2277 14.2714 14.3151 14.3573 14.3981 14.4385 14.4759 14.5119 14.5475 14.5831 14.6254 14.6261 14.6268 14.6275 14.6282 14.6288 14.6639 14.699 14.734 14.7687 14.802 14.8341 14.8661 14.8974 14.9276 14.9576 14.9865 15.0151 15.0428 15.0702 15.0973 15.1222 15.1462 15.1702 15.1941 15.2225 15.2226 15.2227 15.2228 15.2229 15.2229 15.2457 15.2685 15.2912 15.3139 15.3359 15.3565 15.377 15.3975 15.4176 15.4373 15.4557 15.4741 15.4923 15.5101 15.5278 15.5443 15.5608 15.5768 15.5927 15.6086 15.6234 15.6379 15.6521 15.6664 15.6807 15.6938 15.7066 15.7194 15.7322 15.745 15.7513 15.7575 15.7637 15.77 15.7768 15.782 15.7872 15.7923 15.7975 15.8026 15.8129 15.8233 15.8336 15.844 15.8542 15.8633 15.8725 15.8818 15.891 15.9002 15.9082 15.9164 15.9246 15.9329 15.9411 15.9482 15.9554 15.9628 15.9702 15.9775 15.9839 15.9902 15.9967 16.0033 16.01 16.0156 16.0212 16.027 16.0329 16.0388 16.0439 16.0489 16.054 16.0593 16.0646 16.0691 16.0736 16.0781 16.0828 16.0876 16.0916 16.0956 16.0997 16.1038 16.1081 16.1117 16.1153 16.119 16.1227 16.1265 16.1297 16.133 16.1363 16.1396 16.1431 16.146 16.1489 16.1519 16.1548 16.158 16.1606 16.1633 16.166 16.1687 16.1715 16.174 16.1765 16.179 16.1815 16.184 16.1863 16.1887 16.1911 16.1934 16.1958 16.1969 16.1979 16.199 16.2001 16.2013 16.2025 16.2037 16.2049 16.2061 16.2073 16.2096 16.212 16.2143 16.2167 16.2191 16.2215 16.2241 16.2266 16.2291 16.2318 16.2346 16.2375 16.2404 16.2434 16.2465 16.2499 16.2535 16.257 16.2606 16.2645 16.2689 16.2735 16.2781 16.2827 16.288 16.2938 16.2997 16.3055 16.3114 16.3181 16.3257 16.3337 16.3417 16.3497 16.3597 16.3698 16.3772 16.3846 16.3919 16.3996 16.4078 16.4168 16.4257 16.4345 16.4462 16.4498 16.4441 16.4382 16.4319 16.4025 16.3656 16.3278 16.29 16.2499 16.2052 16.1584 16.1143 16.0742 16.0374 16.0018 15.9645 15.9272 15.8903 15.8537 15.817 15.7782 15.7394 15.6983 15.6551 15.6119 15.5661 15.5203 15.4733 15.4254 15.3774 15.3267 15.276 15.2246 15.1727 15.1208 15.0661 15.011 14.9551 14.8985 14.8416 14.7817 14.7209 14.6595 14.5976 14.5346 14.4686 14.401 14.3331 14.2652 14.1955 14.1224 14.0473 13.9722 13.897 13.8202 13.7385 13.6551 13.5717 13.4883 13.4037 13.3122 13.2194 13.1266 13.0338 12.9403 12.8582 12.7753 12.6925 12.6096 12.5133 12.4954 12.4776 12.4597 12.4419 12.4239 12.309 12.194 12.0789 11.9638 11.8475 11.7205 11.5919 11.4634 11.3349 11.2038 11.063 10.9191 10.7753 10.6314 10.4832 10.3268 10.1659 10.0049 9.84396 9.67723 9.50424 9.32302 9.14178 8.95978 8.76964 8.57347 8.37228 8.16999 7.96598 7.75729 7.54193 7.31513 7.08148 6.83931 6.58676 6.32594 6.06789 5.81337 5.56261 5.31419 5.0575 4.78368 4.46215 4.08624 3.69674 3.29364 2.90037 2.61542 2.43981 2.27086 2.09583 1.92089 1.46257 0.730812 0