# vtk DataFile Version 2.0
track0
ASCII
DATASET POLYDATA
POINTS 12040 float
-0.0205 0.001 1e-05
-0.02052 0.000999985 1e-05
-0.02054 0.000999974 1e-05
-0.02056 0.000999965 1e-05
-0.02058 0.000999959 1e-05
-0.0206 0.000999956 1e-05
-0.0205 0.00367778 1e-05
-0.02052 0.00367778 1e-05
-0.02054 0.00367777 1e-05
-0.02056 0.00367777 1e-05
-0.02058 0.00367777 1e-05
-0.0206 0.00367777 1e-05
-0.0205 0.00635556 1e-05
-0.02052 0.00635555 1e-05
-0.02054 0.00635555 1e-05
-0.02056 0.00635555 1e-05
-0.02058 0.00635555 1e-05
-0.0206 0.00635555 1e-05
-0.0205 0.00903333 1e-05
-0.02052 0.00903333 1e-05
-0.02054 0.00903333 1e-05
-0.02056 0.00903333 1e-05
-0.02058 0.00903333 1e-05
-0.0206 0.00903333 1e-05
-0.0205 0.0117111 1e-05
-0.02052 0.0117111 1e-05
-0.02054 0.0117111 1e-05
-0.02056 0.0117111 1e-05
-0.02058 0.0117111 1e-05
-0.0206 0.0117111 1e-05
-0.0205 0.0143889 1e-05
-0.02052 0.0143889 1e-05
-0.02054 0.0143889 1e-05
-0.02056 0.0143889 1e-05
-0.02058 0.0143889 1e-05
-0.0206 0.0143889 1e-05
-0.0205 0.0170667 1e-05
-0.02052 0.0170667 1e-05
-0.02054 0.0170667 1e-05
-0.02056 0.0170667 1e-05
-0.02058 0.0170667 1e-05
-0.0206 0.0170667 1e-05
-0.0205 0.0197444 1e-05
-0.02052 0.0197444 1e-05
-0.02054 0.0197444 1e-05
-0.02056 0.0197444 1e-05
-0.02058 0.0197444 1e-05
-0.0206 0.0197444 1e-05
-0.0205 0.0224222 1e-05
-0.02052 0.0224222 1e-05
-0.02054 0.0224222 1e-05
-0.02056 0.0224222 1e-05
-0.02058 0.0224222 1e-05
-0.0206 0.0224222 1e-05
-0.0205 0.0251 1e-05
-0.02052 0.0250998 1e-05
-0.02054 0.0250997 1e-05
-0.02056 0.0250995 1e-05
-0.02058 0.0250995 1e-05
-0.0206 0.0250994 1e-05
-0.0205 0.001 1e-05
-0.0202034 0.00100022 1e-05
-0.0199069 0.00100067 1e-05
-0.0196103 0.00100132 1e-05
-0.0193137 0.00100219 1e-05
-0.0190172 0.00100326 1e-05
-0.0187132 0.00100466 1e-05
-0.0184093 0.00100588 1e-05
-0.0181054 0.0010071 1e-05
-0.0178015 0.00100832 1e-05
-0.0174976 0.00100953 1e-05
-0.0172058 0.00101083 1e-05
-0.016914 0.00101193 1e-05
-0.0166222 0.00101303 1e-05
-0.0163305 0.00101413 1e-05
-0.0160387 0.00101522 1e-05
-0.0157586 0.00101636 1e-05
-0.0154784 0.00101744 1e-05
-0.0151983 0.00101856 1e-05
-0.0149182 0.00101971 1e-05
-0.0146381 0.0010209 1e-05
-0.0143745 0.00102208 1e-05
-0.0141109 0.00102327 1e-05
-0.0138473 0.00102449 1e-05
-0.0135837 0.00102574 1e-05
-0.0133611 0.00102682 1e-05
-0.0133475 0.00102688 1e-05
-0.013334 0.00102695 1e-05
-0.0133205 0.00102702 1e-05
-0.013307 0.00102709 1e-05
-0.0132934 0.00102715 1e-05
-0.0130353 0.00102844 1e-05
-0.0127771 0.00102974 1e-05
-0.0125189 0.00103106 1e-05
-0.0122607 0.0010324 1e-05
-0.0120025 0.00103375 1e-05
-0.0117547 0.00103506 1e-05
-0.0115068 0.00103637 1e-05
-0.0112589 0.00103769 1e-05
-0.0110111 0.00103902 1e-05
-0.0107632 0.00104035 1e-05
-0.0105252 0.00104162 1e-05
-0.0102873 0.0010429 1e-05
-0.0100493 0.00104418 1e-05
-0.00981133 0.00104546 1e-05
-0.00957337 0.00104673 1e-05
-0.00934491 0.00104795 1e-05
-0.00911645 0.00104918 1e-05
-0.00888799 0.00105039 1e-05
-0.00865954 0.00105161 1e-05
-0.00843108 0.00105282 1e-05
-0.00821175 0.00105398 1e-05
-0.00799242 0.00105514 1e-05
-0.00777309 0.00105629 1e-05
-0.00755376 0.00105744 1e-05
-0.00733443 0.00105858 1e-05
-0.00712387 0.00105967 1e-05
-0.0069133 0.00106076 1e-05
-0.00670273 0.00106185 1e-05
-0.00649216 0.00106293 1e-05
-0.0062816 0.00106401 1e-05
-0.00607944 0.00106503 1e-05
-0.00587729 0.00106606 1e-05
-0.00567514 0.00106708 1e-05
-0.00547298 0.0010681 1e-05
-0.00527083 0.00106911 1e-05
-0.00507675 0.00107007 1e-05
-0.00488267 0.00107104 1e-05
-0.0046886 0.001072 1e-05
-0.00449452 0.00107295 1e-05
-0.00430044 0.00107391 1e-05
-0.00411412 0.00107481 1e-05
-0.0039278 0.00107572 1e-05
-0.00374147 0.00107662 1e-05
-0.00355515 0.00107752 1e-05
-0.00336883 0.00107842 1e-05
-0.00318995 0.00107927 1e-05
-0.00301107 0.00108013 1e-05
-0.00283219 0.00108098 1e-05
-0.00265331 0.00108183 1e-05
-0.00247443 0.00108268 1e-05
-0.0023027 0.00108348 1e-05
-0.00213097 0.00108429 1e-05
-0.00195924 0.0010851 1e-05
-0.0017875 0.00108591 1e-05
-0.00161577 0.00108671 1e-05
-0.0014509 0.00108748 1e-05
-0.00128603 0.00108824 1e-05
-0.00112116 0.00108901 1e-05
-0.000956289 0.00108978 1e-05
-0.000791418 0.00109055 1e-05
-0.000633135 0.00109128 1e-05
-0.000474851 0.00109202 1e-05
-0.000316567 0.00109276 1e-05
-0.000158284 0.0010935 1e-05
0 0.00109424 1e-05
0.000105677 0.00109472 1e-05
0.000211355 0.00109521 1e-05
0.000317032 0.0010957 1e-05
0.00042271 0.00109618 1e-05
0.000528387 0.00109666 1e-05
0.000634886 0.00109714 1e-05
0.000741385 0.00109761 1e-05
0.000847885 0.00109808 1e-05
0.000954384 0.00109855 1e-05
0.00106088 0.00109902 1e-05
0.00116821 0.00109948 1e-05
0.00127554 0.00109994 1e-05
0.00138286 0.0011004 1e-05
0.00149019 0.00110085 1e-05
0.00159752 0.00110129 1e-05
0.00170568 0.00110172 1e-05
0.00181384 0.00110216 1e-05
0.001922 0.00110258 1e-05
0.00203016 0.001103 1e-05
0.00213833 0.0011034 1e-05
0.00224733 0.0011038 1e-05
0.00235633 0.00110419 1e-05
0.00246533 0.00110458 1e-05
0.00257434 0.00110496 1e-05
0.00268334 0.00110532 1e-05
0.00279319 0.00110568 1e-05
0.00290304 0.00110604 1e-05
0.00301289 0.00110639 1e-05
0.00312274 0.00110673 1e-05
0.00323259 0.00110706 1e-05
0.00334329 0.00110738 1e-05
0.003454 0.0011077 1e-05
0.0035647 0.00110801 1e-05
0.0036754 0.00110831 1e-05
0.00378611 0.00110861 1e-05
0.00389767 0.00110889 1e-05
0.00400924 0.00110918 1e-05
0.0041208 0.00110945 1e-05
0.00423237 0.00110972 1e-05
0.00434393 0.00110998 1e-05
0.00445636 0.00111023 1e-05
0.00456879 0.00111047 1e-05
0.00468123 0.00111071 1e-05
0.00479366 0.00111094 1e-05
0.00490609 0.00111116 1e-05
0.0050194 0.00111138 1e-05
0.0051327 0.00111158 1e-05
0.00524601 0.00111179 1e-05
0.00535932 0.00111198 1e-05
0.00547262 0.00111216 1e-05
0.00558681 0.00111234 1e-05
0.005701 0.00111251 1e-05
0.00581518 0.00111268 1e-05
0.00592937 0.00111283 1e-05
0.00604356 0.00111298 1e-05
0.00615863 0.00111312 1e-05
0.00627371 0.00111326 1e-05
0.00638878 0.00111338 1e-05
0.00650386 0.0011135 1e-05
0.00661893 0.00111361 1e-05
0.0067349 0.00111372 1e-05
0.00685087 0.00111382 1e-05
0.00696684 0.00111391 1e-05
0.00708281 0.00111399 1e-05
0.00719878 0.00111406 1e-05
0.00728659 0.00111411 1e-05
0.00737441 0.00111416 1e-05
0.00746223 0.0011142 1e-05
0.00755004 0.00111424 1e-05
0.00763421 0.00111427 1e-05
0.007664 0.00111428 1e-05
0.00769378 0.00111429 1e-05
0.00772357 0.0011143 1e-05
0.00775335 0.00111431 1e-05
0.00778313 0.00111432 1e-05
0.00790091 0.00111434 1e-05
0.00801869 0.00111437 1e-05
0.00813647 0.00111438 1e-05
0.00825425 0.00111438 1e-05
0.00837203 0.00111438 1e-05
0.00849073 0.00111437 1e-05
0.00860942 0.00111435 1e-05
0.00872812 0.00111432 1e-05
0.00884682 0.00111429 1e-05
0.00896551 0.00111425 1e-05
0.00908513 0.00111419 1e-05
0.00920475 0.00111413 1e-05
0.00932437 0.00111406 1e-05
0.00944398 0.00111399 1e-05
0.0095636 0.00111391 1e-05
0.00968415 0.0011138 1e-05
0.0098047 0.0011137 1e-05
0.00992525 0.00111359 1e-05
0.0100458 0.00111348 1e-05
0.0101663 0.00111335 1e-05
0.0102878 0.00111321 1e-05
0.0104093 0.00111306 1e-05
0.0105308 0.00111291 1e-05
0.0106523 0.00111275 1e-05
0.0107738 0.00111258 1e-05
0.0108962 0.00111239 1e-05
0.0110186 0.0011122 1e-05
0.0111411 0.00111201 1e-05
0.0112635 0.0011118 1e-05
0.0113859 0.00111159 1e-05
0.0115093 0.00111135 1e-05
0.0116327 0.00111112 1e-05
0.0117561 0.00111088 1e-05
0.0118795 0.00111063 1e-05
0.0120028 0.00111037 1e-05
0.0121272 0.00111009 1e-05
0.0122515 0.00110981 1e-05
0.0123759 0.00110952 1e-05
0.0125002 0.00110922 1e-05
0.0126245 0.00110892 1e-05
0.0127498 0.00110859 1e-05
0.0128752 0.00110826 1e-05
0.0130005 0.00110792 1e-05
0.0131258 0.00110758 1e-05
0.0132511 0.00110723 1e-05
0.0133774 0.00110685 1e-05
0.0135036 0.00110647 1e-05
0.0136299 0.00110609 1e-05
0.0137562 0.0011057 1e-05
0.0138825 0.0011053 1e-05
0.0140098 0.00110487 1e-05
0.014137 0.00110444 1e-05
0.0142643 0.00110401 1e-05
0.0143915 0.00110357 1e-05
0.0145188 0.00110311 1e-05
0.0146471 0.00110264 1e-05
0.0147753 0.00110216 1e-05
0.0149036 0.00110168 1e-05
0.0150318 0.00110119 1e-05
0.0151601 0.00110068 1e-05
0.0152893 0.00110016 1e-05
0.0154186 0.00109963 1e-05
0.0155478 0.0010991 1e-05
0.0156771 0.00109855 1e-05
0.0158063 0.00109799 1e-05
0.0159366 0.00109742 1e-05
0.0160668 0.00109684 1e-05
0.0161971 0.00109626 1e-05
0.0163274 0.00109566 1e-05
0.0164576 0.00109505 1e-05
0.0165889 0.00109443 1e-05
0.0167201 0.0010938 1e-05
0.0168514 0.00109316 1e-05
0.0169827 0.00109251 1e-05
0.0171139 0.00109185 1e-05
0.0172462 0.00109118 1e-05
0.0173785 0.0010905 1e-05
0.0175108 0.0010898 1e-05
0.0176431 0.0010891 1e-05
0.0177754 0.00108839 1e-05
0.0179087 0.00108767 1e-05
0.018042 0.00108693 1e-05
0.0181753 0.00108619 1e-05
0.0183087 0.00108543 1e-05
0.018442 0.00108467 1e-05
0.0185763 0.0010839 1e-05
0.0187107 0.00108311 1e-05
0.018845 0.00108231 1e-05
0.0189794 0.0010815 1e-05
0.0191137 0.00108068 1e-05
0.0192491 0.00107986 1e-05
0.0193845 0.00107903 1e-05
0.0195199 0.00107817 1e-05
0.0196553 0.0010773 1e-05
0.0197907 0.00107644 1e-05
0.0199272 0.00107557 1e-05
0.0200636 0.00107468 1e-05
0.0202001 0.00107377 1e-05
0.0203365 0.00107284 1e-05
0.020473 0.00107193 1e-05
0.0206105 0.00107101 1e-05
0.020748 0.00107007 1e-05
0.0208855 0.0010691 1e-05
0.021023 0.00106813 1e-05
0.0211606 0.00106716 1e-05
0.0212991 0.00106619 1e-05
0.0214377 0.00106519 1e-05
0.0215763 0.00106417 1e-05
0.0217149 0.00106315 1e-05
0.0218535 0.00106212 1e-05
0.0219931 0.0010611 1e-05
0.0221328 0.00106006 1e-05
0.0222724 0.00105898 1e-05
0.0224121 0.0010579 1e-05
0.0225517 0.00105683 1e-05
0.0226925 0.00105575 1e-05
0.0228332 0.00105465 1e-05
0.022974 0.00105353 1e-05
0.0231147 0.00105239 1e-05
0.0232555 0.00105126 1e-05
0.0233973 0.00105014 1e-05
0.0235391 0.00104898 1e-05
0.023681 0.0010478 1e-05
0.0238228 0.00104661 1e-05
0.0239647 0.00104543 1e-05
0.0241076 0.00104425 1e-05
0.0242505 0.00104304 1e-05
0.0243935 0.0010418 1e-05
0.0245364 0.00104056 1e-05
0.0246794 0.00103932 1e-05
0.0248234 0.00103809 1e-05
0.0249675 0.00103682 1e-05
0.0251115 0.00103553 1e-05
0.0252556 0.00103423 1e-05
[...]
POINT_DATA 12040
 FIELD attributes 2
p 1 12040 float
-4.52677 -4.52346 -4.52014 -4.51683 -4.51351 -4.5102
-4.67903 -4.67901 -4.67899 -4.67896 -4.67894 -4.67892
-4.85295 -4.85282 -4.8527 -4.85258 -4.85245 -4.85235
-4.94602 -4.94597 -4.94592 -4.94586 -4.94581 -4.94575
-4.99088 -4.99077 -4.99066 -4.99054 -4.99043 -4.99032
-4.99725 -4.99709 -4.99693 -4.99677 -4.99661 -4.99645
-4.9702 -4.97013 -4.97006 -4.96999 -4.96991 -4.96984
-4.90056 -4.90052 -4.90048 -4.90044 -4.9004 -4.90036
-4.77923 -4.77924 -4.77925 -4.77925 -4.77926 -4.77927
-2.56662 -2.58595 -2.60515 -2.62422 -2.64316 -2.66196
-4.52677 -4.52606 -4.52245 -4.51876 -4.51498 -4.50661 -4.52046 -4.53544 -4.55042 -4.5654 -4.58983 -4.6116 -4.64155 -4.67149 -4.70144 -4.73419 -4.74986 -4.77157 -4.79329 -4.815 -4.83834 -4.85725 -4.87817 -4.8991 -4.92002 -4.9377 -4.93877 -4.93984 -4.94092 -4.94199 -4.94305 -4.96473 -4.98641 -5.00809 -5.02977 -5.05117 -5.06996 -5.08855 -5.10714 -5.12573 -5.14375 -5.15939 -5.17476 -5.19013 -5.2055 -5.22031 -5.23411 -5.24767 -5.26122 -5.27477 -5.28787 -5.30061 -5.31308 -5.32555 -5.33803 -5.35008 -5.3619 -5.37342 -5.38494 -5.39647 -5.40756 -5.41856 -5.42927 -5.43998 -5.45069 -5.46105 -5.4714 -5.48148 -5.49156 -5.50164 -5.51139 -5.52123 -5.53086 -5.54049 -5.55013 -5.55955 -5.56904 -5.57824 -5.58744 -5.59664 -5.60563 -5.61489 -5.62428 -5.63366 -5.64304 -5.65261 -5.66241 -5.6719 -5.6814 -5.6909 -5.70028 -5.7103 -5.72131 -5.73232 -5.74332 -5.7547 -5.76515 -5.77663 -5.7881 -5.79957 -5.81061 -5.82065 -5.83027 -5.8399 -5.84952 -5.85823 -5.86579 -5.87425 -5.88272 -5.89118 -5.9003 -5.90859 -5.91725 -5.92591 -5.93457 -5.94332 -5.95158 -5.95881 -5.96605 -5.97328 -5.97962 -5.98647 -5.99201 -5.99755 -6.0031 -6.00755 -6.01329 -6.01797 -6.02265 -6.02733 -6.03105 -6.03598 -6.04001 -6.04404 -6.04808 -6.0513 -6.05526 -6.05848 -6.06171 -6.06493 -6.06755 -6.07053 -6.07296 -6.07539 -6.07783 -6.07989 -6.08216 -6.08407 -6.08599 -6.0879 -6.08963 -6.09155 -6.09326 -6.09497 -6.09668 -6.0983 -6.10004 -6.10165 -6.10326 -6.10487 -6.10645 -6.10765 -6.10879 -6.10994 -6.11108 -6.11218 -6.11257 -6.11296 -6.11335 -6.11374 -6.11416 -6.1156 -6.11708 -6.11855 -6.12003 -6.12169 -6.12296 -6.12444 -6.12592 -6.1274 -6.1293 -6.13037 -6.1319 -6.13343 -6.13495 -6.1372 -6.13807 -6.13971 -6.14135 -6.143 -6.14571 -6.1464 -6.14817 -6.14994 -6.1517 -6.15489 -6.15536 -6.15722 -6.15908 -6.16094 -6.16457 -6.16484 -6.1668 -6.16877 -6.17074 -6.17481 -6.17495 -6.17705 -6.17915 -6.18125 -6.18574 -6.18578 -6.18802 -6.19025 -6.19249 -6.19734 -6.19733 -6.1997 -6.20207 -6.20444 -6.20959 -6.20958 -6.21208 -6.21458 -6.21723 -6.2225 -6.22277 -6.22518 -6.22782 -6.23087 -6.23608 -6.23669 -6.23902 -6.2418 -6.2452 -6.25034 -6.2513 -6.25358 -6.25651 -6.26023 -6.26527 -6.26658 -6.26887 -6.27193 -6.27592 -6.28087 -6.28252 -6.28485 -6.28805 -6.29225 -6.29712 -6.2991 -6.30151 -6.30484 -6.30923 -6.31402 -6.31631 -6.31882 -6.32228 -6.32681 -6.33154 -6.33412 -6.33677 -6.34036 -6.34499 -6.34967 -6.35252 -6.35538 -6.35911 -6.36375 -6.36839 -6.3715 -6.3746 -6.37846 -6.38309 -6.38772 -6.39107 -6.39442 -6.3984 -6.40302 -6.40764 -6.41122 -6.41481 -6.4189 -6.42349 -6.42809 -6.43188 -6.43568 -6.43985 -6.44441 -6.44897 -6.45294 -6.4569 -6.46115 -6.46569 -6.47023 -6.47432 -6.47841 -6.48274 -6.48729 -6.49184 -6.49604 -6.50024 -6.50464 -6.50922 -6.5138 -6.51808 -6.5224 -6.52687 -6.53145 -6.53607 -6.54043 -6.54483 -6.54935 -6.55395 -6.5586 -6.56301 -6.56749 -6.57205 -6.57667 -6.58135 -6.5858 -6.59034 -6.59494 -6.59957 -6.60428 -6.60876 -6.61335 -6.61797 -6.62261 -6.62734 -6.63184 -6.63646 -6.6411 -6.64574 -6.65047 -6.65498 -6.65962 -6.66426 -6.6689 -6.67362 -6.67814 -6.68277 -6.6874 -6.69203 -6.69672 -6.70124 -6.70585 -6.71046 -6.71507 -6.71972 -6.72423 -6.7288 -6.73338 -6.73796 -6.74256 -6.74704 -6.75156 -6.75609 -6.76062 -6.76516 -6.76959 -6.77405 -6.77851 -6.78297 -6.78744 -6.78866 -6.78988 -6.7911 -6.79233 -6.79354 -6.7967 -6.79987 -6.80303 -6.8062 -6.80937 -6.81366 -6.81796 -6.82225 -6.82654 -6.83086 -6.83504 -6.83923 -6.84341 -6.8476 -6.85181 -6.85588 -6.85995 -6.86401 -6.86808 -6.87216 -6.87611 -6.88003 -6.88395 -6.88787 -6.89179 -6.8956 -6.89935 -6.90309 -6.90684 -6.91057 -6.91422 -6.91778 -6.92133 -6.92488 -6.92842 -6.93187 -6.93525 -6.9386 -6.94193 -6.94524 -6.94848 -6.95166 -6.95478 -6.95786 -6.96091 -6.96391 -6.96688 -6.96973 -6.97252 -6.97529 -6.97804 -6.98077 -6.98334 -6.9858 -6.98827 -6.99072 -6.99317 -6.99543 -6.99756 -6.99969 -7.00182 -7.00395 -7.00589 -7.00766 -7.00942 -7.0112 -7.01299 -7.01458 -7.01595 -7.01733 -7.01873 -7.02014 -7.02135 -7.02231 -7.02326 -7.02425 -7.02525 -7.02604 -7.02657 -7.02707 -7.02762 -7.02812 -7.02845 -7.02858 -7.0286 -7.02868 -7.02865 -7.02848 -7.02818 -7.02769 -7.02727 -7.02665 -7.02596 -7.02522 -7.02417 -7.02322 -7.02197 -7.02072 -7.01946 -7.01789 -7.01629 -7.01444 -7.01259 -7.01074 -7.00866 -7.00637 -7.00388 -7.00141 -6.99893 -6.99633 -6.99329 -6.99014 -6.987 -6.98386 -6.98072 -6.98049 -6.98026 -6.98003 -6.9798 -6.97957 -6.97601 -6.97245 -6.9689 -6.96535 -6.96168 -6.95731 -6.95279 -6.94828 -6.94378 -6.93901 -6.93405 -6.92878 -6.92351 -6.91824 -6.91255 -6.90699 -6.90092 -6.89486 -6.88873 -6.88214 -6.8758 -6.86906 -6.86218 -6.85505 -6.84761 -6.84042 -6.83304 -6.82529 -6.81711 -6.80879 -6.80073 -6.79268 -6.78401 -6.77477 -6.76553 -6.75657 -6.74761 -6.73804 -6.72786 -6.71769 -6.70779 -6.6979 -6.6874 -6.67625 -6.6651 -6.65425 -6.64335 -6.63182 -6.61978 -6.60765 -6.5958 -6.58367 -6.57113 -6.55833 -6.54517 -6.53231 -6.51889 -6.50532 -6.49174 -6.47754 -6.46354 -6.4489 -6.43426 -6.41963 -6.40464 -6.38928 -6.37356 -6.35784 -6.34213 -6.32635 -6.3224 -6.31839 -6.31438 -6.31036 -6.30642 -6.2937 -6.28099 -6.26829 -6.25559 -6.24268 -6.22509 -6.2073 -6.18951 -6.17174 -6.15346 -6.13502 -6.11611 -6.0972 -6.07817 -6.05858 -6.03905 -6.01924 -5.9992 -5.97871 -5.95796 -5.93729 -5.91663 -5.89537 -5.87345 -5.85154 -5.82971 -5.80789 -5.78544 -5.76235 -5.73927 -5.71627 -5.69324 -5.66951 -5.64536 -5.6211 -5.59693 -5.57234 -5.54743 -5.52243 -5.49699 -5.47159 -5.44549 -5.41939 -5.39329 -5.36693 -5.34608 -5.32492 -5.30376 -5.2826 -5.26253 -5.25621 -5.2499 -5.24358 -5.23726 -5.23088 -5.20253 -5.17415 -5.14578 -5.11741 -5.0887 -5.05939 -5.02984 -5.0003 -4.97066 -4.94059 -4.91015 -4.87959 -4.84889 -4.81779 -4.78656 -4.75496 -4.72337 -4.69142 -4.65904 -4.62665 -4.5939 -4.56116 -4.52795 -4.49444 -4.46091 -4.42703 -4.39291 -4.35851 -4.32407 -4.28943 -4.2544 -4.21888 -4.18338 -4.14788 -4.11229 -4.09405 -4.07565 -4.05725 -4.03886 -4.02102 -4.00275 -3.98448 -3.96622 -3.94796 -3.92951 -3.89202 -3.85444 -3.81686 -3.7793 -3.74119 -3.70279 -3.66422 -3.62561 -3.58669 -3.54751 -3.50807 -3.46864 -3.42892 -3.38875 -3.34857 -3.30813 -3.2677 -3.22681 -3.18567 -3.14451 -3.1031 -3.06141 -3.01949 -2.97756 -2.93547 -2.893 -2.85013 -2.80727 -2.76443 -2.72156 -2.71707 -2.71254 -2.70802 -2.7035 -2.699 -2.65981 -2.62062 -2.58144 -2.54227 -2.50273 -2.45829 -2.41371 -2.36915 -2.32441 -2.27928 -2.234 -2.18871 -2.14328 -2.09733 -2.05137 -2.00525 -1.95914 -1.91263 -1.86588 -1.81912 -1.7722 -1.72503 -1.67762 -1.63022 -1.58268 -1.53776 -1.4925 -1.44724 -1.40199 -1.35896 -1.35562 -1.35227 -1.34892 -1.34558 -1.3422 -1.29336 -1.24452 -1.19569 -1.14687 -1.09759 -1.04815 -0.998643 -0.949123 -0.89931 -0.849269 -0.799156 -0.749054 -0.698716 -0.648056 -0.597372 -0.546609 -0.495767 -0.444561 -0.393334 -0.342048 -0.290666 -0.238865 -0.187072 -0.135289 -0.0834711 -0.0741255 -0.0647183 -0.0553114 -0.0459047 -0.0365828 0.00636252 0.0493018 0.092235 0.135162 0.178416 0.23123 0.284067 0.336896 0.389938 0.443217 0.496522 0.549816 0.603265 0.656969 0.710705 0.764468 0.818314 0.872441 0.926562 0.98072 1.03391 1.08741 1.14091 1.19439 1.24537 1.24691 1.24846 1.25001 1.25155 1.25311 1.30804 1.36296 1.41787 1.47277 1.52804 1.58333 1.63859 1.69384 1.74936 1.80498 1.86058 1.91618 1.97198 2.02784 2.08373 2.13962 2.19569 2.25184 2.30798 2.36413 2.38573 2.40741 2.42909 2.45077 2.47205 2.50686 2.54166 2.57646 2.61126 2.64624 2.7029 2.75951 2.81612 2.87285 2.92975 2.98658 3.04341 3.10031 3.15728 3.2143 3.27127 3.32833 3.38546 3.44258 3.4997 3.52669 3.55375 3.5808 3.60785 3.63432 3.66463 3.69494 3.72525 3.75556 3.78597 3.84336 3.90067 3.95798 4.01535 4.07283 4.13024 4.18764 4.24505 4.30244 4.35988 4.41726 4.47466 4.53208 4.58948 4.6469 4.66293 4.67898 4.69502 4.71106 4.7269 4.76831 4.80971 4.8511 4.8925 4.93394 4.99136 5.04869 5.10598 5.16326 5.22059 5.27784 5.33508 5.39227 5.44936 5.50648 5.5552 5.60385 5.65248 5.7011 5.74811 5.75678 5.76545 5.77413 5.7828 5.79146 5.84834 5.90518 5.96201 6.01881 6.0756 6.13226 6.18892 6.24543 6.30182 6.35827 6.41459 6.47081 6.52695 6.58309 6.63923 6.65134 6.66342 6.6755 6.68757 6.69955 6.7434 6.78724 6.83109 6.87491 6.91868 6.9743 7.02989 7.08536 7.14068 7.19605 7.2512 7.30628 7.36122 7.41614 7.47098 7.49424 7.51741 7.54055 7.5637 7.5866 7.61804 7.64949 7.68093 7.71233 7.74364 7.79787 7.85201 7.90607 7.95984 8.01365 8.06726 8.12078 8.17404 8.2273 8.28043 8.30031 8.32009 8.33983 8.35957 8.3792 8.41225 8.4453 8.47836 8.51134 8.54417 8.59651 8.64878 8.70089 8.75263 8.80438 8.85594 8.9073 8.95839 9.00949 9.06048 9.07078 9.081 9.09119 9.10138 9.11158 9.15192 9.19226 9.23261 9.27283 9.31277 9.36268 9.41259 9.46213 9.51129 9.56043 9.60802 9.65524 9.70227 9.74931 9.79711 9.79829 9.79946 9.80063 9.8018 9.80296 9.85072 9.89846 9.9462 9.99373 10.0408 10.0877 10.1346 10.181 10.2269 10.2729 10.3076 10.3421 10.3763 10.4106 10.4459 10.4565 10.4672 10.4778 10.4884 10.4989 10.5433 10.5876 10.6318 10.6757 10.7192 10.7624 10.8056 10.8482 10.8905 10.9326 10.9602 10.9874 11.0144 11.0415 11.0697 11.0837 11.0977 11.1116 11.1256 11.1393 11.1798 11.22 11.2602 11.2999 11.3393 11.3784 11.4174 11.4558 11.4939 11.5318 11.5611 11.5899 11.6186 11.6473 11.678 11.6858 11.6936 11.7014 11.7091 11.7168 11.7527 11.7884 11.8242 11.8597 11.8947 11.9292 11.9637 11.9977 12.0313 12.0647 12.0977 12.1302 12.1625 12.1948 12.2268 12.2376 12.2481 12.2586 12.2691 12.28 12.3005 12.3209 12.3414 12.3618 12.3819 12.4119 12.4415 12.4712 12.5005 12.5295 12.558 12.5865 12.6146 12.6424 12.67 12.6972 12.724 12.7504 12.7768 12.8023 12.8224 12.843 12.8636 12.8842 12.909 12.9133 12.9177 12.9221 12.9265 12.931 12.9534 12.9749 12.9963 13.0177 13.0349 13.0506 13.0716 13.0936 13.1201 13.1515 13.1823 13.2131 13.2294 13.2315 13.2335 13.2341 13.2368 13.2413 13.2457 13.2515 13.2535 13.2552 13.2568 13.2584 13.2602 13.2632 13.2663 13.2693 13.2722 13.275 13.2779 13.2794 13.2808 13.2808 13.28 13.2775 13.275 13.2709 13.2651 13.2593 13.2517 13.2429 13.2333 13.2236 13.2127 13.204 13.1942 13.1844 13.1745 13.163 13.1583 13.1535 13.1487 13.144 13.1387 13.1191 13.0988 13.0783 13.0577 13.0351 13.0097 12.9836 12.9562 12.9266 12.8968 12.8639 12.8309 12.7955 12.7576 12.7196 12.6783 12.6358 12.5914 12.5462 12.4992 12.4484 12.3943 12.3402 12.286 12.2308 12.2057 12.1797 12.1536 12.1275 12.0985 12.0611 12.0236 11.9861 11.9486 11.9097 11.8359 11.7605 11.6849 11.6093 11.5296 11.4449 11.3571 11.2682 11.1766 11.0828 10.9836 10.8842 10.7801 10.6714 10.5625 10.4479 10.3333 10.2124 10.0854 9.95832 9.8249 9.69099 9.55199 9.40928 9.26549 9.11483 8.95813 8.79616 8.63187 8.46021 8.28071 8.10021 7.91964 7.73904 7.55756 7.35668 7.13697 6.91732 6.69771 6.47071 6.31627 6.16952 6.02276 5.87599 5.7129 5.63694 5.56097 5.48501 5.40905 5.33638 5.03983 4.72832 4.41637 4.104 3.73576 3.37243 3.11274 2.8522 2.59085 2.49583 2.43174 1.98927 1.55184 0.942413 0