# vtk DataFile Version 2.0
track0
ASCII
DATASET POLYDATA
POINTS 12040 float
-0.0205 0.001 1e-05
-0.02052 0.000999985 1e-05
-0.02054 0.000999974 1e-05
-0.02056 0.000999965 1e-05
-0.02058 0.000999959 1e-05
-0.0206 0.000999956 1e-05
-0.0205 0.00367778 1e-05
-0.02052 0.00367778 1e-05
-0.02054 0.00367777 1e-05
-0.02056 0.00367777 1e-05
-0.02058 0.00367777 1e-05
-0.0206 0.00367777 1e-05
-0.0205 0.00635556 1e-05
-0.02052 0.00635555 1e-05
-0.02054 0.00635555 1e-05
-0.02056 0.00635555 1e-05
-0.02058 0.00635555 1e-05
-0.0206 0.00635555 1e-05
-0.0205 0.00903333 1e-05
-0.02052 0.00903333 1e-05
-0.02054 0.00903333 1e-05
-0.02056 0.00903333 1e-05
-0.02058 0.00903333 1e-05
-0.0206 0.00903333 1e-05
-0.0205 0.0117111 1e-05
-0.02052 0.0117111 1e-05
-0.02054 0.0117111 1e-05
-0.02056 0.0117111 1e-05
-0.02058 0.0117111 1e-05
-0.0206 0.0117111 1e-05
-0.0205 0.0143889 1e-05
-0.02052 0.0143889 1e-05
-0.02054 0.0143889 1e-05
-0.02056 0.0143889 1e-05
-0.02058 0.0143889 1e-05
-0.0206 0.0143889 1e-05
-0.0205 0.0170667 1e-05
-0.02052 0.0170667 1e-05
-0.02054 0.0170667 1e-05
-0.02056 0.0170667 1e-05
-0.02058 0.0170667 1e-05
-0.0206 0.0170667 1e-05
-0.0205 0.0197444 1e-05
-0.02052 0.0197444 1e-05
-0.02054 0.0197444 1e-05
-0.02056 0.0197444 1e-05
-0.02058 0.0197444 1e-05
-0.0206 0.0197444 1e-05
-0.0205 0.0224222 1e-05
-0.02052 0.0224222 1e-05
-0.02054 0.0224222 1e-05
-0.02056 0.0224222 1e-05
-0.02058 0.0224222 1e-05
-0.0206 0.0224222 1e-05
-0.0205 0.0251 1e-05
-0.02052 0.0250998 1e-05
-0.02054 0.0250997 1e-05
-0.02056 0.0250995 1e-05
-0.02058 0.0250995 1e-05
-0.0206 0.0250994 1e-05
-0.0205 0.001 1e-05
-0.0202034 0.00100022 1e-05
-0.0199069 0.00100067 1e-05
-0.0196103 0.00100132 1e-05
-0.0193137 0.00100219 1e-05
-0.0190172 0.00100326 1e-05
-0.0187132 0.00100466 1e-05
-0.0184093 0.00100588 1e-05
-0.0181054 0.0010071 1e-05
-0.0178015 0.00100832 1e-05
-0.0174976 0.00100953 1e-05
-0.0172058 0.00101083 1e-05
-0.016914 0.00101193 1e-05
-0.0166222 0.00101303 1e-05
-0.0163305 0.00101413 1e-05
-0.0160387 0.00101522 1e-05
-0.0157586 0.00101636 1e-05
-0.0154784 0.00101744 1e-05
-0.0151983 0.00101856 1e-05
-0.0149182 0.00101971 1e-05
-0.0146381 0.0010209 1e-05
-0.0143745 0.00102208 1e-05
-0.0141109 0.00102327 1e-05
-0.0138473 0.00102449 1e-05
-0.0135837 0.00102574 1e-05
-0.0133611 0.00102682 1e-05
-0.0133475 0.00102688 1e-05
-0.013334 0.00102695 1e-05
-0.0133205 0.00102702 1e-05
-0.013307 0.00102709 1e-05
-0.0132934 0.00102715 1e-05
-0.0130353 0.00102844 1e-05
-0.0127771 0.00102974 1e-05
-0.0125189 0.00103106 1e-05
-0.0122607 0.0010324 1e-05
-0.0120025 0.00103375 1e-05
-0.0117547 0.00103506 1e-05
-0.0115068 0.00103637 1e-05
-0.0112589 0.00103769 1e-05
-0.0110111 0.00103902 1e-05
-0.0107632 0.00104035 1e-05
-0.0105252 0.00104162 1e-05
-0.0102873 0.0010429 1e-05
-0.0100493 0.00104418 1e-05
-0.00981133 0.00104546 1e-05
-0.00957337 0.00104673 1e-05
-0.00934491 0.00104795 1e-05
-0.00911645 0.00104918 1e-05
-0.00888799 0.00105039 1e-05
-0.00865954 0.00105161 1e-05
-0.00843108 0.00105282 1e-05
-0.00821175 0.00105398 1e-05
-0.00799242 0.00105514 1e-05
-0.00777309 0.00105629 1e-05
-0.00755376 0.00105744 1e-05
-0.00733443 0.00105858 1e-05
-0.00712387 0.00105967 1e-05
-0.0069133 0.00106076 1e-05
-0.00670273 0.00106185 1e-05
-0.00649216 0.00106293 1e-05
-0.0062816 0.00106401 1e-05
-0.00607944 0.00106503 1e-05
-0.00587729 0.00106606 1e-05
-0.00567514 0.00106708 1e-05
-0.00547298 0.0010681 1e-05
-0.00527083 0.00106911 1e-05
-0.00507675 0.00107007 1e-05
-0.00488267 0.00107104 1e-05
-0.0046886 0.001072 1e-05
-0.00449452 0.00107295 1e-05
-0.00430044 0.00107391 1e-05
-0.00411412 0.00107481 1e-05
-0.0039278 0.00107572 1e-05
-0.00374147 0.00107662 1e-05
-0.00355515 0.00107752 1e-05
-0.00336883 0.00107842 1e-05
-0.00318995 0.00107927 1e-05
-0.00301107 0.00108013 1e-05
-0.00283219 0.00108098 1e-05
-0.00265331 0.00108183 1e-05
-0.00247443 0.00108268 1e-05
-0.0023027 0.00108348 1e-05
-0.00213097 0.00108429 1e-05
-0.00195924 0.0010851 1e-05
-0.0017875 0.00108591 1e-05
-0.00161577 0.00108671 1e-05
-0.0014509 0.00108748 1e-05
-0.00128603 0.00108824 1e-05
-0.00112116 0.00108901 1e-05
-0.000956289 0.00108978 1e-05
-0.000791418 0.00109055 1e-05
-0.000633135 0.00109128 1e-05
-0.000474851 0.00109202 1e-05
-0.000316567 0.00109276 1e-05
-0.000158284 0.0010935 1e-05
0 0.00109424 1e-05
0.000105677 0.00109472 1e-05
0.000211355 0.00109521 1e-05
0.000317032 0.0010957 1e-05
0.00042271 0.00109618 1e-05
0.000528387 0.00109666 1e-05
0.000634886 0.00109714 1e-05
0.000741385 0.00109761 1e-05
0.000847885 0.00109808 1e-05
0.000954384 0.00109855 1e-05
0.00106088 0.00109902 1e-05
0.00116821 0.00109948 1e-05
0.00127554 0.00109994 1e-05
0.00138286 0.0011004 1e-05
0.00149019 0.00110085 1e-05
0.00159752 0.00110129 1e-05
0.00170568 0.00110172 1e-05
0.00181384 0.00110216 1e-05
0.001922 0.00110258 1e-05
0.00203016 0.001103 1e-05
0.00213833 0.0011034 1e-05
0.00224733 0.0011038 1e-05
0.00235633 0.00110419 1e-05
0.00246533 0.00110458 1e-05
0.00257434 0.00110496 1e-05
0.00268334 0.00110532 1e-05
0.00279319 0.00110568 1e-05
0.00290304 0.00110604 1e-05
0.00301289 0.00110639 1e-05
0.00312274 0.00110673 1e-05
0.00323259 0.00110706 1e-05
0.00334329 0.00110738 1e-05
0.003454 0.0011077 1e-05
0.0035647 0.00110801 1e-05
0.0036754 0.00110831 1e-05
0.00378611 0.00110861 1e-05
0.00389767 0.00110889 1e-05
0.00400924 0.00110918 1e-05
0.0041208 0.00110945 1e-05
0.00423237 0.00110972 1e-05
0.00434393 0.00110998 1e-05
0.00445636 0.00111023 1e-05
0.00456879 0.00111047 1e-05
0.00468123 0.00111071 1e-05
0.00479366 0.00111094 1e-05
0.00490609 0.00111116 1e-05
0.0050194 0.00111138 1e-05
0.0051327 0.00111158 1e-05
0.00524601 0.00111179 1e-05
0.00535932 0.00111198 1e-05
0.00547262 0.00111216 1e-05
0.00558681 0.00111234 1e-05
0.005701 0.00111251 1e-05
0.00581518 0.00111268 1e-05
0.00592937 0.00111283 1e-05
0.00604356 0.00111298 1e-05
0.00615863 0.00111312 1e-05
0.00627371 0.00111326 1e-05
0.00638878 0.00111338 1e-05
0.00650386 0.0011135 1e-05
0.00661893 0.00111361 1e-05
0.0067349 0.00111372 1e-05
0.00685087 0.00111382 1e-05
0.00696684 0.00111391 1e-05
0.00708281 0.00111399 1e-05
0.00719878 0.00111406 1e-05
0.00728659 0.00111411 1e-05
0.00737441 0.00111416 1e-05
0.00746223 0.0011142 1e-05
0.00755004 0.00111424 1e-05
0.00763421 0.00111427 1e-05
0.007664 0.00111428 1e-05
0.00769378 0.00111429 1e-05
0.00772357 0.0011143 1e-05
0.00775335 0.00111431 1e-05
0.00778313 0.00111432 1e-05
0.00790091 0.00111434 1e-05
0.00801869 0.00111437 1e-05
0.00813647 0.00111438 1e-05
0.00825425 0.00111438 1e-05
0.00837203 0.00111438 1e-05
0.00849073 0.00111437 1e-05
0.00860942 0.00111435 1e-05
0.00872812 0.00111432 1e-05
0.00884682 0.00111429 1e-05
0.00896551 0.00111425 1e-05
0.00908513 0.00111419 1e-05
0.00920475 0.00111413 1e-05
0.00932437 0.00111406 1e-05
0.00944398 0.00111399 1e-05
0.0095636 0.00111391 1e-05
0.00968415 0.0011138 1e-05
0.0098047 0.0011137 1e-05
0.00992525 0.00111359 1e-05
0.0100458 0.00111348 1e-05
0.0101663 0.00111335 1e-05
0.0102878 0.00111321 1e-05
0.0104093 0.00111306 1e-05
0.0105308 0.00111291 1e-05
0.0106523 0.00111275 1e-05
0.0107738 0.00111258 1e-05
0.0108962 0.00111239 1e-05
0.0110186 0.0011122 1e-05
0.0111411 0.00111201 1e-05
0.0112635 0.0011118 1e-05
0.0113859 0.00111159 1e-05
0.0115093 0.00111135 1e-05
0.0116327 0.00111112 1e-05
0.0117561 0.00111088 1e-05
0.0118795 0.00111063 1e-05
0.0120028 0.00111037 1e-05
0.0121272 0.00111009 1e-05
0.0122515 0.00110981 1e-05
0.0123759 0.00110952 1e-05
0.0125002 0.00110922 1e-05
0.0126245 0.00110892 1e-05
0.0127498 0.00110859 1e-05
0.0128752 0.00110826 1e-05
0.0130005 0.00110792 1e-05
0.0131258 0.00110758 1e-05
0.0132511 0.00110723 1e-05
0.0133774 0.00110685 1e-05
0.0135036 0.00110647 1e-05
0.0136299 0.00110609 1e-05
0.0137562 0.0011057 1e-05
0.0138825 0.0011053 1e-05
0.0140098 0.00110487 1e-05
0.014137 0.00110444 1e-05
0.0142643 0.00110401 1e-05
0.0143915 0.00110357 1e-05
0.0145188 0.00110311 1e-05
0.0146471 0.00110264 1e-05
0.0147753 0.00110216 1e-05
0.0149036 0.00110168 1e-05
0.0150318 0.00110119 1e-05
0.0151601 0.00110068 1e-05
0.0152893 0.00110016 1e-05
0.0154186 0.00109963 1e-05
0.0155478 0.0010991 1e-05
0.0156771 0.00109855 1e-05
0.0158063 0.00109799 1e-05
0.0159366 0.00109742 1e-05
0.0160668 0.00109684 1e-05
0.0161971 0.00109626 1e-05
0.0163274 0.00109566 1e-05
0.0164576 0.00109505 1e-05
0.0165889 0.00109443 1e-05
0.0167201 0.0010938 1e-05
0.0168514 0.00109316 1e-05
0.0169827 0.00109251 1e-05
0.0171139 0.00109185 1e-05
0.0172462 0.00109118 1e-05
0.0173785 0.0010905 1e-05
0.0175108 0.0010898 1e-05
0.0176431 0.0010891 1e-05
0.0177754 0.00108839 1e-05
0.0179087 0.00108767 1e-05
0.018042 0.00108693 1e-05
0.0181753 0.00108619 1e-05
0.0183087 0.00108543 1e-05
0.018442 0.00108467 1e-05
0.0185763 0.0010839 1e-05
0.0187107 0.00108311 1e-05
0.018845 0.00108231 1e-05
0.0189794 0.0010815 1e-05
0.0191137 0.00108068 1e-05
0.0192491 0.00107986 1e-05
0.0193845 0.00107903 1e-05
0.0195199 0.00107817 1e-05
0.0196553 0.0010773 1e-05
0.0197907 0.00107644 1e-05
0.0199272 0.00107557 1e-05
0.0200636 0.00107468 1e-05
0.0202001 0.00107377 1e-05
0.0203365 0.00107284 1e-05
0.020473 0.00107193 1e-05
0.0206105 0.00107101 1e-05
0.020748 0.00107007 1e-05
0.0208855 0.0010691 1e-05
0.021023 0.00106813 1e-05
0.0211606 0.00106716 1e-05
0.0212991 0.00106619 1e-05
0.0214377 0.00106519 1e-05
0.0215763 0.00106417 1e-05
0.0217149 0.00106315 1e-05
0.0218535 0.00106212 1e-05
0.0219931 0.0010611 1e-05
0.0221328 0.00106006 1e-05
0.0222724 0.00105898 1e-05
0.0224121 0.0010579 1e-05
0.0225517 0.00105683 1e-05
0.0226925 0.00105575 1e-05
0.0228332 0.00105465 1e-05
0.022974 0.00105353 1e-05
0.0231147 0.00105239 1e-05
0.0232555 0.00105126 1e-05
0.0233973 0.00105014 1e-05
0.0235391 0.00104898 1e-05
0.023681 0.0010478 1e-05
0.0238228 0.00104661 1e-05
0.0239647 0.00104543 1e-05
0.0241076 0.00104425 1e-05
0.0242505 0.00104304 1e-05
0.0243935 0.0010418 1e-05
0.0245364 0.00104056 1e-05
0.0246794 0.00103932 1e-05
0.0248234 0.00103809 1e-05
0.0249675 0.00103682 1e-05
0.0251115 0.00103553 1e-05
0.0252556 0.00103423 1e-05
[...]
POINT_DATA 12040
 FIELD attributes 1
U 3 12040 float
10.0004 	0.00731831 	0 10.0004 	0.00585465 	0 10.0003 	0.00439099 	0 10.0002 	0.00292733 	0 10.0001 	0.00146366 	0 10 	0 	0
10.0001 	0.000879393 	0 10 	0.000703514 	0 10 	0.000527636 	0 10 	0.000351757 	0 10 	0.000175879 	0 10 	0 	0
10.0001 	0.000466347 	0 10.0001 	0.000372887 	0 10.0001 	0.000279428 	0 10 	0.000185968 	0 10 	9.25085e-05 	0 10 	0 	0
10 	0.000266453 	0 10 	0.000213162 	0 10 	0.000159872 	0 10 	0.000106581 	0 10 	5.32905e-05 	0 10 	0 	0
10 	8.07936e-05 	0 10 	6.46349e-05 	0 10 	4.84762e-05 	0 10 	3.23174e-05 	0 10 	1.61587e-05 	0 10 	0 	0
10 	-2.58795e-05 	0 10 	-2.07036e-05 	0 10 	-1.55277e-05 	0 10 	-1.03518e-05 	0 10 	-5.17589e-06 	0 10 	0 	0
10 	-0.000215908 	0 10 	-0.000172727 	0 10 	-0.000129545 	0 10 	-8.63633e-05 	0 10 	-4.31817e-05 	0 10 	0 	0
10 	-0.000377693 	0 10 	-0.000302155 	0 10 	-0.000226616 	0 10 	-0.000151077 	0 10 	-7.55386e-05 	0 10 	0 	0
9.99999 	-0.000427478 	0 9.99999 	-0.000341982 	0 9.99999 	-0.000256487 	0 10 	-0.000170991 	0 10 	-8.54955e-05 	0 10 	0 	0
9.17387 	0.0870992 	0 9.1308 	0.0696794 	0 9.08741 	0.0522592 	0 9.04368 	0.0348389 	0 8.99962 	0.0174184 	0 8.95524 	0 	0
10.0004 	0.00731831 	0 10.0024 	0.0151685 	0 10.0045 	0.0221871 	0 10.0065 	0.0291616 	0 10.0085 	0.0360921 	0 10.0135 	0.0463071 	0 10.0163 	0.040206 	0 10.0207 	0.0401642 	0 10.0252 	0.0401226 	0 10.0296 	0.0400811 	0 10.0356 	0.0445415 	0 10.0384 	0.0379008 	0 10.0424 	0.0378566 	0 10.0464 	0.0378123 	0 10.0504 	0.037768 	0 10.0545 	0.0408693 	0 10.0567 	0.038791 	0 10.0592 	0.0400999 	0 10.0616 	0.0414105 	0 10.064 	0.0427227 	0 10.0662 	0.0451808 	0 10.0677 	0.0452917 	0 10.0691 	0.046494 	0 10.0704 	0.0476974 	0 10.0717 	0.0489019 	0 10.0729 	0.0499202 	0 10.0729 	0.0499825 	0 10.073 	0.0500448 	0 10.0731 	0.0501071 	0 10.0731 	0.0501694 	0 10.0732 	0.0502223 	0 10.0737 	0.0508488 	0 10.0743 	0.0514694 	0 10.0748 	0.0520904 	0 10.0753 	0.052712 	0 10.0758 	0.0531695 	0 10.0757 	0.0534651 	0 10.0753 	0.0536552 	0 10.075 	0.0538454 	0 10.0746 	0.0540358 	0 10.0741 	0.0539877 	0 10.0737 	0.0541326 	0 10.0726 	0.0541091 	0 10.0715 	0.0540857 	0 10.0704 	0.0540622 	0 10.0689 	0.0537695 	0 10.0685 	0.0538499 	0 10.0668 	0.0537164 	0 10.0652 	0.053583 	0 10.0636 	0.0534494 	0 10.0611 	0.0530295 	0 10.0611 	0.0530838 	0 10.059 	0.0528895 	0 10.057 	0.0526951 	0 10.055 	0.0525006 	0 10.0514 	0.0520072 	0 10.0521 	0.0520607 	0 10.0498 	0.0518403 	0 10.0474 	0.0516199 	0 10.0451 	0.0513994 	0 10.0405 	0.0508718 	0 10.042 	0.0509454 	0 10.0395 	0.0507205 	0 10.0369 	0.0504955 	0 10.0344 	0.0502704 	0 10.0287 	0.0497251 	0 10.0311 	0.0498255 	0 10.0285 	0.049613 	0 10.0258 	0.0494005 	0 10.0232 	0.0491879 	0 10.0163 	0.048648 	0 10.0199 	0.0487859 	0 10.0172 	0.0485878 	0 10.0145 	0.0483898 	0 10.0117 	0.0481916 	0 10.0036 	0.0476484 	0 10.0085 	0.0478247 	0 10.0057 	0.0476833 	0 10.003 	0.0475419 	0 10.0003 	0.0474004 	0 9.99103 	0.0469247 	0 9.99722 	0.0471726 	0 9.99452 	0.0470402 	0 9.99183 	0.0469078 	0 9.98913 	0.0467754 	0 9.97869 	0.0462476 	0 9.98624 	0.0464972 	0 9.98363 	0.0465157 	0 9.98101 	0.0465343 	0 9.9784 	0.0465529 	0 9.96678 	0.0462503 	0 9.97582 	0.046606 	8.88546e-22 9.97385 	0.0465418 	5.81013e-21 9.97188 	0.0464776 	1.07318e-20 9.9699 	0.0464134 	1.56535e-20 9.95785 	0.0458878 	1.32726e-20 9.96816 	0.0460496 	9.16698e-20 9.96642 	0.0457716 	8.51065e-20 9.96468 	0.0454934 	7.85402e-20 9.96294 	0.0452153 	7.19707e-20 9.95069 	0.0445439 	-1.46038e-20 9.96088 	0.0444926 	-3.95907e-20 9.95918 	0.0441719 	-4.4035e-20 9.95748 	0.043851 	-4.84777e-20 9.95577 	0.0435302 	-5.29187e-20 9.9437 	0.0429339 	-2.07608e-20 9.95343 	0.0427082 	-1.82762e-20 9.95155 	0.0421145 	-1.27149e-20 9.94966 	0.0415208 	-7.15395e-21 9.94777 	0.040927 	-1.59348e-21 9.93586 	0.0401151 	6.87675e-21 9.94518 	0.0397989 	-5.47606e-21 9.94307 	0.0389726 	-2.35528e-20 9.94095 	0.0381462 	-4.16315e-20 9.93884 	0.0373196 	-5.97122e-20 9.92698 	0.0362187 	-8.52564e-20 9.93574 	0.0359808 	-1.20712e-19 9.93327 	0.0351543 	-1.08704e-19 9.9308 	0.0343277 	-9.66884e-20 9.92832 	0.0335008 	-8.46654e-20 9.91643 	0.0322712 	-2.90235e-20 9.92447 	0.0321569 	3.37674e-20 9.9216 	0.0314112 	4.68729e-20 9.91872 	0.0306653 	5.99694e-20 9.91584 	0.0299192 	7.30566e-20 9.90399 	0.0286681 	3.57265e-20 9.91123 	0.0285912 	-4.57677e-20 9.90796 	0.0278814 	-5.16748e-20 9.90469 	0.0271714 	-5.75679e-20 9.90141 	0.0264612 	-6.3447e-20 9.88969 	0.025224 	-3.22944e-22 9.89601 	0.0251072 	5.92583e-20 9.89232 	0.0244047 	5.01373e-20 9.88863 	0.0237019 	4.10023e-20 9.88493 	0.0229988 	3.18533e-20 9.87341 	0.0218122 	-2.77113e-20 9.87862 	0.0216303 	-8.12346e-20 9.87447 	0.0209344 	-1.02784e-19 9.87031 	0.0202382 	-1.24328e-19 9.86615 	0.0195418 	-1.45867e-19 9.85493 	0.0184356 	-1.32498e-19 9.8588 	0.0181852 	-1.51638e-19 9.85416 	0.0175002 	-1.39568e-19 9.84952 	0.016815 	-1.27494e-19 9.84487 	0.0161295 	-1.15416e-19 9.83412 	0.0151183 	-8.09558e-20 9.83639 	0.0148069 	-6.8066e-20 9.83127 	0.0141378 	-5.01153e-20 9.82614 	0.0134683 	-3.21662e-20 9.82101 	0.0127985 	-1.42189e-20 9.81096 	0.0118846 	2.04776e-21 9.81133 	0.0115059 	0 9.80573 	0.0108475 	0 9.80013 	0.0101888 	0 9.79453 	0.00952981 	0 9.78548 	0.0087079 	0 9.78358 	0.00824796 	-1.60104e-20 9.77753 	0.00759518 	-3.44083e-20 9.77146 	0.00694208 	-5.28078e-20 9.76539 	0.00628867 	-7.1209e-20 9.75769 	0.00556049 	-9.02821e-20 9.75475 	0.0051644 	-9.43424e-20 9.74985 	0.00467815 	-9.4882e-20 9.74496 	0.00419171 	-9.54187e-20 9.74005 	0.00370507 	-9.59526e-20 9.73535 	0.00323844 	-9.64615e-20 9.73367 	0.00307237 	-9.69202e-20 9.73198 	0.00290627 	-9.73789e-20 9.73029 	0.00274015 	-9.78377e-20 9.72861 	0.002574 	-9.82966e-20 9.7253 	0.00233457 	-9.82903e-20 9.71976 	0.00175686 	-7.21718e-20 9.71273 	0.00111191 	-4.3919e-20 9.70568 	0.000466556 	-1.56755e-20 9.69862 	-0.000179195 	1.25586e-20 9.68358 	-0.00117745 	4.86953e-20 9.68344 	-0.0014994 	4.957e-20 9.67597 	-0.00213964 	5.0674e-20 9.66849 	-0.00278031 	5.17758e-20 9.66099 	-0.00342141 	5.28755e-20 9.6393 	-0.00466528 	5.59313e-20 9.64444 	-0.00476261 	4.40965e-20 9.63655 	-0.00539785 	3.22594e-20 9.62865 	-0.00603356 	2.04212e-20 9.62075 	-0.00666974 	8.58179e-21 9.59275 	-0.00811389 	-1.00902e-21 9.60285 	-0.00803088 	-8.08629e-21 9.59457 	-0.00866202 	-1.93868e-20 9.58628 	-0.00929367 	-3.06861e-20 9.57798 	-0.00992582 	-4.19842e-20 9.54417 	-0.0115183 	-5.3297e-20 9.55882 	-0.0113056 	-5.33463e-20 9.55018 	-0.0119348 	-6.04986e-20 9.54153 	-0.0125645 	-6.76478e-20 9.53287 	-0.0131948 	-7.47939e-20 9.49385 	-0.0148804 	-9.28803e-20 9.51256 	-0.014589 	-1.45222e-19 9.50358 	-0.015216 	-1.35997e-19 9.49459 	-0.0158435 	-1.26785e-19 9.48559 	-0.0164717 	-1.17585e-19 9.44206 	-0.0181895 	-4.03611e-20 9.46424 	-0.0178704 	-2.58948e-20 9.45496 	-0.0184951 	-1.81778e-20 9.44566 	-0.0191203 	-1.046e-20 9.43634 	-0.0197462 	-2.74143e-21 9.38902 	-0.0214395 	0 9.41409 	-0.0211421 	0 9.40452 	-0.0217657 	0 9.39494 	-0.02239 	0 9.38533 	-0.023015 	0 9.33499 	-0.0246327 	0 9.36234 	-0.0244052 	1.63656e-21 9.35252 	-0.0250293 	8.81474e-21 9.34267 	-0.025654 	1.59921e-20 9.33281 	-0.0262794 	2.31688e-20 9.28018 	-0.0277715 	4.05223e-20 9.30924 	-0.027663 	1.54855e-19 9.29918 	-0.0282873 	1.57704e-19 9.28911 	-0.0289123 	1.60567e-19 9.27901 	-0.029538 	1.63444e-19 9.2248 	-0.0308521 	4.07077e-20 9.25503 	-0.0309046 	2.18554e-20 9.24477 	-0.0315277 	1.54286e-20 9.23448 	-0.0321515 	9.00097e-21 9.22206 	-0.0327982 	3.56044e-21 9.16904 	-0.0338667 	1.69759e-20 9.19636 	-0.0341479 	1.01971e-19 9.1895 	-0.0347367 	1.11124e-19 9.17904 	-0.0353585 	1.12329e-19 9.16246 	-0.0360091 	9.85292e-20 9.11307 	-0.0368112 	3.86802e-21 9.13704 	-0.0373102 	-9.67185e-20 9.13362 	-0.037904 	-1.25497e-19 9.123 	-0.0385233 	-1.35448e-19 9.10299 	-0.0391267 	-1.25362e-19 9.05706 	-0.0396847 	-5.98581e-20 9.07789 	-0.0403803 	-1.73734e-19 9.07734 	-0.0410221 	-2.12037e-19 9.06659 	-0.0416387 	-2.14262e-19 9.04381 	-0.0421502 	-1.69181e-19 9.00116 	-0.0424873 	-4.58501e-20 9.01906 	-0.043358 	-2.42001e-20 9.02088 	-0.044085 	-1.0692e-20 9.01001 	-0.0446988 	-3.61053e-21 8.98507 	-0.0450805 	0 8.9455 	-0.0452206 	0 8.9607 	-0.0462452 	0 8.96443 	-0.0470887 	0 8.95347 	-0.0476996 	0 8.92691 	-0.0479203 	1.95368e-21 8.89021 	-0.0478868 	5.17955e-21 8.90293 	-0.0490448 	2.10476e-21 8.90815 	-0.0500298 	0 8.89712 	-0.0506379 	0 8.86944 	-0.0506732 	2.33586e-21 8.83539 	-0.0504892 	5.56584e-21 8.84586 	-0.0517612 	2.49062e-21 8.85221 	-0.0529074 	1.21946e-21 8.84113 	-0.0535128 	7.63904e-21 8.81275 	-0.0533444 	2.38111e-20 8.78114 	-0.0530315 	4.18027e-20 8.78957 	-0.0543989 	1.64058e-19 8.79676 	-0.0557202 	2.78935e-19 8.78564 	-0.056323 	2.82328e-19 8.75691 	-0.0559389 	1.64557e-19 8.72754 	-0.0555181 	4.23065e-20 8.73414 	-0.0569644 	2.45765e-20 8.74069 	-0.0584123 	6.84775e-21 8.72935 	-0.0589733 	2.72908e-22 8.70201 	-0.058464 	3.37846e-21 8.67469 	-0.0579542 	6.48387e-21 8.67964 	-0.0594637 	3.53716e-21 8.68454 	-0.0609748 	5.91261e-22 8.67357 	-0.0615052 	2.10576e-21 8.6481 	-0.0609242 	-1.70481e-21 8.62264 	-0.0603426 	-5.51443e-21 8.62612 	-0.0619005 	-4.78042e-20 8.62954 	-0.06346 	-9.00976e-20 8.61899 	-0.0639606 	-9.14092e-20 8.59522 	-0.0633252 	-5.27201e-20 8.57146 	-0.0626893 	-1.4029e-20 8.57363 	-0.0642882 	8.25863e-20 8.57574 	-0.0658887 	1.79196e-19 8.56564 	-0.0663618 	1.87498e-19 8.54342 	-0.0656839 	1.07014e-19 8.52121 	-0.0650056 	2.65305e-20 8.52222 	-0.0666394 	1.54326e-20 8.52317 	-0.0682748 	4.33131e-21 8.51356 	-0.0687214 	4.84426e-22 8.49272 	-0.0680087 	4.98992e-21 8.47191 	-0.0672956 	9.49713e-21 8.47191 	-0.0689496 	4.08835e-21 8.47184 	-0.0706051 	-1.32551e-21 8.46273 	-0.0710254 	-2.0284e-20 8.44315 	-0.0702927 	-6.90463e-20 8.42359 	-0.0695595 	-1.17811e-19 8.4227 	-0.0712178 	-2.45406e-19 8.42175 	-0.0728776 	-3.72995e-19 8.41316 	-0.0732736 	-3.58187e-19 8.39471 	-0.07254 	-2.1193e-19 8.37628 	-0.0718058 	-6.56733e-20 8.3746 	-0.0734605 	5.51417e-20 8.37282 	-0.0751065 	1.75012e-19 8.36445 	-0.0754501 	1.72655e-19 8.34737 	-0.0747699 	8.81731e-20 8.32997 	-0.0740475 	3.51334e-22 8.3276 	-0.0756942 	-8.68005e-20 8.32433 	-0.0771521 	-1.6249e-19 8.31611 	-0.0775038 	-1.71501e-19 8.30115 	-0.0769979 	-1.11582e-19 8.28467 	-0.0762957 	-3.59194e-20 8.28169 	-0.0779321 	-2.49887e-20 8.27722 	-0.0792029 	-1.41538e-20 8.26913 	-0.0795644 	-3.55082e-21 8.25601 	-0.0792354 	1.33394e-20 8.24037 	-0.0785584 	3.33971e-20 8.23685 	-0.0801823 	1.21306e-20 8.23141 	-0.0812688 	-2.42604e-21 8.22345 	-0.0816408 	-8.07229e-21 8.21194 	-0.0814888 	-3.34105e-21 8.19707 	-0.0808408 	1.12042e-20 8.19306 	-0.0824511 	-4.93291e-21 8.18686 	-0.0833581 	-1.53814e-20 8.17903 	-0.0837424 	-2.16025e-20 8.1689 	-0.0837664 	-3.31834e-20 8.15473 	-0.0831514 	-5.42619e-20 8.1503 	-0.0847485 	5.14055e-20 8.14351 	-0.085483 	8.27101e-20 8.13579 	-0.0858813 	8.50356e-20 8.12687 	-0.0860793 	6.83124e-20 8.11335 	-0.0855002 	-2.21562e-20 8.10853 	-0.0870849 	6.70413e-20 8.10131 	-0.0876539 	8.15612e-20 8.0937 	-0.0880678 	8.4645e-20 8.08582 	-0.0884366 	8.4054e-20 8.07288 	-0.0878954 	9.82651e-21 8.06769 	-0.0894493 	-6.58771e-22 8.06019 	-0.0898795 	-4.47108e-22 8.05269 	-0.09031 	-2.35467e-22 8.04516 	-0.0907408 	-2.38486e-23 8.0333 	-0.0903441 	1.71937e-20 8.02752 	-0.0917192 	0 8.02013 	-0.0921673 	0 8.01271 	-0.0926156 	0 8.00527 	-0.0930643 	0 7.99458 	-0.0928535 	1.41571e-20 7.98836 	-0.0940577 	0 7.98105 	-0.0945248 	0 7.97371 	-0.0949922 	0 7.96636 	-0.0954598 	0 7.95669 	-0.0954308 	0 7.95014 	-0.0964722 	0 7.9429 	-0.0969594 	0 7.93564 	-0.097447 	0 7.92837 	-0.0979349 	0 7.91959 	-0.0980835 	-7.433e-21 7.91281 	-0.0989698 	0 7.90564 	-0.0994783 	0 7.89845 	-0.0999872 	0 7.89124 	-0.100496 	0 7.88324 	-0.100818 	-8.41625e-21 7.87631 	-0.101557 	0 7.8692 	-0.102088 	0 7.86207 	-0.102619 	0 7.85492 	-0.103151 	0 7.84759 	-0.103642 	-1.84262e-21 7.84565 	-0.103842 	-2.35347e-21 7.84368 	-0.103997 	-5.16594e-21 7.84171 	-0.104152 	-7.97852e-21 7.83974 	-0.104307 	-1.07912e-20 7.83779 	-0.10446 	-1.35701e-20 7.83255 	-0.104861 	-2.03376e-20 7.8273 	-0.105262 	-2.71043e-20 7.82203 	-0.105664 	-3.38704e-20 7.81676 	-0.106066 	-4.06357e-20 7.81206 	-0.106352 	-4.74056e-20 7.80464 	-0.107037 	-4.55327e-20 7.79742 	-0.107618 	-4.49009e-20 7.79018 	-0.108199 	-4.42661e-20 7.78292 	-0.10878 	-4.36285e-20 7.77704 	-0.109092 	-4.59973e-20 7.76934 	-0.109943 	-3.58498e-20 7.76216 	-0.11055 	-2.56873e-20 7.75495 	-0.111157 	-1.55234e-20 7.74772 	-0.111764 	-5.35792e-21 7.74266 	-0.111952 	0 7.73469 	-0.112966 	-2.29159e-21 7.72753 	-0.1136 	-6.94371e-21 7.72035 	-0.114234 	-1.15951e-20 7.71314 	-0.114869 	-1.62456e-20 7.70889 	-0.11494 	-2.08643e-20 7.70063 	-0.116113 	-5.01461e-20 7.69349 	-0.116775 	-6.93076e-20 7.68633 	-0.117438 	-8.84708e-20 7.67914 	-0.118101 	-1.07636e-19 7.67566 	-0.118061 	-9.7613e-20 7.6671 	-0.11939 	-7.46415e-20 7.65998 	-0.120082 	-6.38028e-20 7.65282 	-0.120775 	-5.29574e-20 7.64572 	-0.121455 	-4.26596e-20 7.64292 	-0.121326 	-6.61673e-20 7.63423 	-0.122741 	-7.97345e-20 7.62695 	-0.123532 	-6.48959e-20 7.6198 	-0.124256 	-4.70483e-20 7.6135 	-0.124819 	-2.62941e-20 7.61064 	-0.124743 	5.90739e-21 7.60196 	-0.126173 	1.00915e-20 7.59436 	-0.127131 	7.9024e-21 7.5872 	-0.127888 	2.98722e-21 7.58169 	-0.12834 	0 7.57875 	-0.128316 	0 7.57009 	-0.129762 	0 7.56215 	-0.130885 	0 7.55498 	-0.131676 	0 7.55024 	-0.132022 	0 7.54722 	-0.132052 	0 7.53856 	-0.133515 	0 7.53028 	-0.134799 	-4.79192e-21 7.52309 	-0.135625 	-2.18767e-20 7.51909 	-0.135872 	-3.90203e-20 7.51597 	-0.135956 	-5.61808e-20 7.50731 	-0.137438 	-3.76084e-20 7.49869 	-0.138881 	-1.87725e-20 7.49147 	-0.139743 	3.8475e-21 7.48819 	-0.139896 	8.17693e-21 7.48497 	-0.140035 	1.2141e-20 7.4763 	-0.141538 	4.35384e-20 7.46757 	-0.143042 	7.4934e-20 7.4608 	-0.143907 	8.94866e-20 7.45749 	-0.144101 	7.50829e-20 7.45417 	-0.144295 	6.06774e-20 7.44547 	-0.14582 	3.74429e-20 7.43673 	-0.147347 	1.41999e-20 7.43037 	-0.148242 	3.51551e-21 7.42694 	-0.148491 	1.25286e-20 7.4235 	-0.14874 	2.15427e-20 7.41478 	-0.15029 	8.2631e-20 7.40601 	-0.151841 	1.43722e-19 7.40005 	-0.152768 	1.44382e-19 7.39649 	-0.153072 	8.39324e-20 7.39292 	-0.153375 	2.34816e-20 7.38417 	-0.154952 	1.52685e-20 7.37536 	-0.156528 	7.05911e-21 7.36978 	-0.157489 	7.17981e-21 7.36608 	-0.157847 	1.5968e-20 7.36237 	-0.158206 	2.47574e-20 7.35358 	-0.15981 	8.43553e-20 7.34487 	-0.161388 	1.41544e-19 7.33963 	-0.162357 	1.39351e-19 7.33566 	-0.162823 	8.57212e-20 7.3318 	-0.163237 	2.67908e-20 7.32295 	-0.164868 	1.88291e-20 7.315 	-0.166336 	1.0838e-20 7.30965 	-0.167347 	2.75822e-21 7.30518 	-0.168001 	0 7.30116 	-0.16847 	0 7.29225 	-0.170131 	0 7.28503 	-0.171492 	0 7.27955 	-0.172547 	0 7.27458 	-0.173386 	0 7.2704 	-0.17391 	0 7.26141 	-0.175601 	0 7.2549 	-0.176859 	0 7.24928 	-0.177956 	0 7.24381 	-0.17898 	2.16745e-21 7.23944 	-0.179557 	1.7399e-20 7.23038 	-0.181279 	5.17005e-22 7.22455 	-0.182437 	8.02226e-21 7.21878 	-0.183577 	1.63002e-20 7.21297 	-0.184717 	2.45806e-20 7.20826 	-0.185413 	3.64175e-20 7.19981 	-0.187044 	1.02324e-19 7.19393 	-0.188227 	1.06498e-19 7.188 	-0.18941 	1.10649e-19 7.18204 	-0.190593 	1.14776e-19 7.17678 	-0.191478 	5.62534e-20 7.16904 	-0.193003 	1.06283e-19 7.16299 	-0.194228 	9.46907e-20 7.1569 	-0.195454 	8.30756e-20 7.15077 	-0.19668 	7.14373e-20 7.14497 	-0.197753 	3.78765e-20 7.1379 	-0.199174 	3.51635e-20 7.13168 	-0.200442 	3.56459e-20 7.12541 	-0.20171 	3.61337e-20 7.1191 	-0.202978 	3.66267e-20 7.11277 	-0.204237 	3.77781e-20 7.11233 	-0.204325 	3.79976e-20 7.11195 	-0.204403 	3.7844e-20 7.11157 	-0.204482 	3.76903e-20 7.11118 	-0.204561 	3.75366e-20 7.1108 	-0.204639 	3.73834e-20 7.10463 	-0.205869 	3.65574e-20 7.09842 	-0.207098 	3.57264e-20 7.09216 	-0.208327 	3.48905e-20 7.08587 	-0.209557 	3.40496e-20 7.08066 	-0.210666 	3.73138e-20 7.07326 	-0.212137 	3.7077e-20 7.06646 	-0.213486 	3.08471e-20 7.05962 	-0.214835 	2.46258e-20 7.05272 	-0.216185 	1.84131e-20 7.04813 	-0.217286 	1.77154e-21 7.03981 	-0.218928 	-2.49433e-22 7.03281 	-0.220317 	-1.70659e-22 7.02575 	-0.221707 	-9.18562e-23 7.01864 	-0.223096 	-1.30235e-23 7.01507 	-0.224113 	0 7.0058 	-0.225923 	-7.25221e-22 6.99858 	-0.227352 	-1.37503e-20 6.9913 	-0.228781 	-2.67694e-20 6.98453 	-0.230152 	-3.93091e-20 6.98143 	-0.23114 	-4.87213e-20 6.97182 	-0.233005 	-3.71647e-20 6.96373 	-0.234586 	-2.3496e-20 6.95622 	-0.236053 	-8.97973e-21 6.95051 	-0.237331 	2.24161e-21 6.94716 	-0.238364 	9.18478e-21 6.93732 	-0.240261 	3.18851e-21 6.92822 	-0.242015 	4.1451e-21 6.92046 	-0.243519 	1.73352e-20 6.91581 	-0.244703 	3.56071e-20 6.9122 	-0.245778 	5.56109e-20 6.90213 	-0.247705 	3.47118e-20 6.89199 	-0.249632 	1.38087e-20 6.88424 	-0.251145 	-5.73204e-23 6.8804 	-0.252261 	-3.1999e-21 6.87652 	-0.253376 	-6.34386e-21 6.8662 	-0.255333 	-5.51005e-20 6.85581 	-0.257289 	-1.03859e-19 6.84835 	-0.258843 	-1.08212e-19 6.84423 	-0.259997 	-6.99149e-20 6.84008 	-0.261151 	-3.16179e-20 6.8295 	-0.263135 	-7.05239e-20 6.81884 	-0.265119 	-1.09438e-19 6.81166 	-0.266715 	-1.07933e-19 6.80726 	-0.267905 	-6.72032e-20 6.80282 	-0.269095 	-2.64724e-20 6.79197 	-0.271105 	-6.73601e-20 6.78132 	-0.273087 	-1.04904e-19 6.77448 	-0.27469 	-9.59797e-20 6.76944 	-0.275974 	-5.58222e-20 6.7647 	-0.277198 	-9.70026e-21 6.75357 	-0.279232 	-7.11035e-21 6.74411 	-0.281097 	-4.42563e-21 6.73698 	-0.282727 	-1.60812e-21 6.73073 	-0.284197 	0 6.7257 	-0.285452 	0 6.71428 	-0.287508 	0 6.70601 	-0.289253 	0 6.69858 	-0.290909 	0 6.69111 	-0.292562 	0 6.68576 	-0.293847 	0 6.67465 	-0.295866 	-4.30334e-22 6.66699 	-0.297545 	-3.37815e-21 6.65926 	-0.299223 	-6.32741e-21 6.65148 	-0.300902 	-9.27812e-21 6.64486 	-0.302373 	-6.2532e-21 6.635 	-0.304262 	-3.05391e-20 6.62702 	-0.305962 	-2.73564e-20 6.61899 	-0.307662 	-2.4152e-20 6.61089 	-0.309362 	-2.09259e-20 6.60298 	-0.311021 	-1.227e-20 6.60063 	-0.311468 	-1.2035e-20 6.59866 	-0.311878 	-1.00926e-20 6.59669 	-0.312288 	-8.15023e-21 6.59472 	-0.312698 	-6.20776e-21 6.59278 	-0.313101 	-4.2977e-21 6.58607 	-0.314409 	1.58237e-21 6.57933 	-0.315717 	7.46149e-21 6.57255 	-0.317025 	1.33397e-20 6.56573 	-0.318333 	1.92169e-20 6.55971 	-0.319536 	2.40749e-20 6.55023 	-0.321387 	2.28009e-20 6.5411 	-0.32312 	2.41455e-20 6.53189 	-0.324852 	2.54819e-20 6.52262 	-0.326585 	2.68099e-20 6.51526 	-0.328073 	3.66422e-20 6.50485 	-0.330095 	4.2848e-20 6.49535 	-0.331841 	4.08259e-20 6.48579 	-0.333587 	3.88087e-20 6.47665 	-0.335272 	3.32962e-20 6.4696 	-0.336695 	1.26961e-20 6.45871 	-0.338753 	3.07844e-20 6.44836 	-0.340644 	3.58067e-20 6.43842 	-0.342401 	3.02713e-20 6.43012 	-0.343952 	1.12195e-20 6.42272 	-0.345387 	-1.54813e-20 6.41144 	-0.34745 	-8.87942e-21 6.40009 	-0.349513 	-2.27955e-21 6.39003 	-0.351249 	-3.71332e-21 6.38233 	-0.352694 	-3.1411e-21 6.37458 	-0.354139 	-2.56364e-21 6.36291 	-0.356204 	-1.23876e-21 6.35116 	-0.358269 	9.36214e-23 6.34134 	-0.360032 	2.79434e-21 6.33328 	-0.361483 	7.67203e-21 6.32516 	-0.362935 	1.25533e-20 6.31309 	-0.365 	8.63303e-21 6.3011 	-0.367045 	4.71551e-21 6.29159 	-0.368793 	7.85097e-22 6.28293 	-0.370307 	0 6.27443 	-0.371762 	0 6.26196 	-0.373824 	0 6.25093 	-0.375709 	0 6.24103 	-0.377455 	0 6.23126 	-0.379151 	0 6.22239 	-0.380606 	0 6.2097 	-0.38264 	2.89607e-22 6.19948 	-0.384382 	4.46326e-21 6.18919 	-0.386122 	8.63961e-21 6.17884 	-0.387863 	1.28187e-20 6.16901 	-0.389453 	1.70078e-20 6.15971 	-0.390926 	1.59534e-20 6.1515 	-0.39227 	1.65708e-20 6.14324 	-0.393614 	1.71916e-20 6.13494 	-0.394957 	1.78157e-20 6.12702 	-0.396231 	1.84112e-20 6.12461 	-0.396635 	1.90037e-20 6.12219 	-0.397039 	1.9597e-20 6.11977 	-0.397442 	2.01913e-20 6.11734 	-0.397846 	2.07865e-20 6.11495 	-0.398211 	1.90757e-20 6.10456 	-0.399983 	1.46782e-20 6.09399 	-0.40171 	9.14925e-21 6.08334 	-0.403436 	3.63097e-21 6.07263 	-0.405162 	-1.87656e-21 6.06204 	-0.406679 	-1.39025e-20 6.05173 	-0.408635 	-3.44596e-20 6.04076 	-0.410347 	-3.40166e-20 6.02973 	-0.412059 	-3.35919e-20 6.01867 	-0.413711 	-2.94754e-20 6.00779 	-