/*--------------------------------*- C++ -*----------------------------------*\
| =========                 |                                                 |
| \\      /  F ield         | OpenFOAM: The Open Source CFD Toolbox           |
|  \\    /   O peration     | Version:  2312                                  |
|   \\  /    A nd           | Website:  www.openfoam.com                      |
|    \\/     M anipulation  |                                                 |
\*---------------------------------------------------------------------------*/
FoamFile
{
    version     2.0;
    format      ascii;
    arch        "LSB;label=64;scalar=64";
    class       volScalarField;
    location    "80";
    object      omega;
}
// * * * * * * * * * * * * * * * * * * * * * * * * * * * * * * * * * * * * * //

dimensions      [0 0 -1 0 0 0 0];

internalField   nonuniform List<scalar> 
404911
(
279.952
226.506
3449.47
1537.23
224.248
252.689
200.909
612.329
349.629
286.1
259.552
342.886
226.368
300.244
463.719
1121.55
298.105
235.794
260.827
407.251
614.731
281.865
742.408
519.344
236.132
997.956
294.134
220.725
285.733
1048.16
268.751
232.672
372.253
594.024
274.177
237.09
406.485
478.506
272.019
190.449
333.24
1045.74
258.645
180.151
212.261
422.676
370.675
186.041
215.419
974.32
403.652
304.226
259.598
1378.16
368.651
601.601
9404.85
186.755
340.515
241.326
281.395
179.566
173.556
95.7978
89.5536
245.494
133.933
329.929
131.721
126.87
185.544
53.976
193.341
119.533
63.7251
604.843
2271.77
254.699
93.1621
202.584
92.1936
222.538
44.663
142.039
207.176
81.0542
380.234
108.008
1155.54
355.555
271.845
2976.74
132.009
262.264
187.105
136.041
170.669
243.035
109.779
250.862
689.492
204.735
149.868
544.022
1321.93
554.722
293.758
741.365
386.074
311.798
243.694
244.64
235.167
254.786
2366.81
574.943
258.237
4629.79
656.243
220.632
220.332
218.403
224.902
304.264
1412.74
377.259
254.04
235.573
212.777
573.696
523.46
580.193
224.014
208.908
217.766
212.88
272.376
280.987
210.503
319.065
1282.31
373.546
244.065
220.578
216.295
209.955
210.396
198.96
562.69
508.784
210.798
201.591
224.511
1873.09
312.5
1071.23
310.971
220.769
203.462
210.651
206.913
207.866
207.13
204.704
198.559
193.608
195.491
197.732
217.29
301.215
458.417
652.571
496.149
460.744
455.094
469.619
554.211
202.645
203.533
194.157
192.49
191.156
206.571
226.775
240.662
243.164
339.098
766.243
511.564
431.572
438.295
327.786
382.695
579.367
489.101
190.613
194.025
189.799
199.558
212.48
227.32
268.064
1252.18
1073.85
308.775
647.35
334.083
292.551
269.367
550.628
450.1
341.565
380.574
474.672
487.319
180.907
197.55
205.737
209.593
243.299
556.758
935.686
660.969
309.49
311.965
239.557
244.312
300.003
288.506
459.314
486.461
444.823
337.523
164.017
205.224
211.404
236.291
343.132
1286.26
1310.82
333.76
160.844
225.803
226.859
219.434
182.527
217.734
481.716
355.991
253.572
266.02
289.788
325.154
518.223
206.118
253.812
1183.56
526.54
207.099
142.65
294.927
238.91
227.433
214.186
225.298
232.497
222.293
204.602
262.699
283.346
394.429
485.432
581.562
479.401
527.275
246.764
196.42
490.027
281.903
228.818
237.939
232.465
214.183
224.539
196.175
178.664
387.226
385.208
451.594
517.3
1776.83
412.81
215.181
185.082
178.287
194.775
223.463
231.042
198
225.501
232.129
218.23
211.56
225.514
488.757
418.992
476.833
294.249
1110.69
1047.02
946.905
333.333
312.732
181.558
149.849
224.176
206.474
222.479
222.553
221.545
218.888
229.782
245.573
299.436
382.312
229.229
608.232
1187.09
296.502
179.744
177.022
199.803
230.912
240.67
146.955
226.787
203.554
252.116
183.976
164.273
194.705
237.243
293.618
657.053
307.001
523.628
197.23
146.476
161.167
170.931
287.291
207.595
235.837
151.787
171.377
143.549
150.287
183.825
137.026
173.302
276.059
220.558
1063.71
1212.5
302.941
176.227
148.064
145.687
152.245
173.169
168.007
149.264
139.708
116.419
194.125
206.565
221.575
140.864
159.345
427.401
954.454
402.001
175.832
141.078
225.997
243.193
173.358
182.722
169.521
118.353
110.939
115.206
137.999
176.576
211.675
240.303
171.062
332.821
788.391
1168.75
952.58
348.825
254.464
240.881
212.776
180.201
152.327
192.304
157.981
133.292
130.424
140.684
156.049
201.997
187.243
183.474
509.139
483.336
199.159
175.57
171.813
197.154
154.634
155.276
222.721
171.097
224.934
162.52
161.117
155.602
172.696
151.78
168.029
324.35
1042.44
223.407
152.072
189.878
153.376
155.077
162.425
122.769
164.758
200.219
203.294
229.014
235.669
188.749
174.437
205.267
188.984
364.51
482.493
170.431
206.065
183.925
152.935
140.266
162.073
117.815
105.677
142.422
239.181
219.866
218.563
234.458
195.162
226.505
216.283
1067.69
291.087
144.963
147.66
139.396
139.075
130.132
134.966
164.565
92.1358
93.0365
121.221
158.685
192.393
233.838
279.822
205.462
342.245
1276.34
511.566
206.454
154.04
147.478
138.071
124.959
139.103
139.139
107.397
97.2501
90.3335
113.304
135.414
148.942
233.66
144.634
227.902
1102.14
1191.7
272.211
146.568
200.814
159.832
140.551
122.084
110.893
108.648
137.182
95.0144
116.413
150.149
155.454
164.118
159.762
188.638
349.332
474.937
182.833
153.231
148.639
145.888
137.438
124.611
116.978
135.429
97.6881
97.4506
103.428
151.426
187.544
207.552
184.814
218.831
1078.6
1182.7
260.929
144.271
143.809
142.107
138.501
132.622
126.859
120.386
116.021
131.28
124.553
139.551
147.358
170.037
180.774
220.731
325.144
939.54
174.154
145.346
137.392
132.276
129.083
124.827
123.513
123.285
119.109
110.057
113.911
123.122
140.611
156.908
176.869
235.707
376.655
298.075
140.568
167.567
143.131
126.43
116.328
115.765
116.451
116.519
117.343
117.011
120.567
131.459
144.043
174.166
185.942
199.476
568.123
276.265
160.388
171.768
142.059
123.776
112.483
115.85
104.686
109.892
114.535
118.38
126.425
137.506
159.291
156.19
155.913
290.701
1193.03
1227.82
213.649
143.595
153.624
147.788
130.843
118.126
113.96
131.364
101.434
105.794
118.099
131.643
143.832
153.748
198.931
197.491
516.822
992.778
195.825
145.891
137.336
135.741
128.239
117.515
108.575
107.801
114.24
105.631
105.477
126.783
147.612
151.856
172.777
204.025
1129.87
332.671
169.857
152.413
145.303
140.019
131.938
122.806
111.341
105.766
101.042
99.5627
106.674
127.125
143.83
174.9
143.898
213.827
1167.38
316.791
152.441
137.199
141.513
136.987
140.754
141.165
99.9325
105.262
106.799
109.44
115.86
133.251
149.656
154.576
158.034
313.914
1094.64
233.617
149.402
143.224
140.525
134.065
123.448
133.808
119.827
98.994
102.007
112.84
123.874
137.443
151.367
173.207
183.201
503.862
477.484
177.531
185.969
181.934
146.147
130.066
119.2
100.177
130.665
104.754
76.8069
105.374
130.229
141.999
152.265
168.608
201.623
1072.45
317.814
150.902
137.226
138.828
130.087
124.801
137.419
101.725
113.379
75.9706
109.82
87.1309
118.42
139.772
145.275
174.859
253.021
1205.67
1112.46
214.478
142.111
144.041
139.116
131.37
115.606
126.7
105.149
94.8721
86.4176
70.7095
126.664
136.35
139.63
151.043
148.008
287.67
1105.22
203.406
143.302
137.882
134.383
127.83
120.278
108.854
117.841
112.977
112.133
87.8969
94.0953
120.456
136.999
141.554
165.627
477.295
1087.75
200.778
144.588
135.888
134.635
126.309
117.634
110.26
104.332
100.97
86.0437
87.8747
76.5174
118.997
145.327
152.903
182.984
972.266
1079.93
195.222
143.37
134.808
130.96
124.845
117.75
111.463
102.748
100.926
90.8872
84.593
103.54
114.165
152.653
176.668
252.542
1206.53
311.839
172.095
148.901
137.134
129.301
120.446
113.745
113.22
105.512
94.7729
84.944
86.4758
90.6806
132.477
150.079
175.279
277.689
1208.51
285.687
147.092
136.81
135.747
123.101
111.979
108.005
107.395
112.04
101.112
89.0869
75.4619
84.8489
132.361
139.31
173.558
269.834
1159.69
199.812
154.744
160.515
135.099
121.52
103.527
95.2806
95.5787
100.58
107.253
103.526
97.6005
112.003
138.537
152.466
155.194
284.895
1037.48
196.822
141.331
129.113
125.515
114.026
101.739
96.3559
109.525
92.5944
95.2667
104.071
113.071
121.012
132.135
158.757
144.974
295.969
1109.6
199.162
142.576
132.475
124.968
115.854
103.863
96.595
98.1536
108.045
106.701
90.0326
105.345
126.361
135.782
157.487
150.643
312.606
1112.38
205.26
146.73
136.419
128.701
117.471
108.245
102.401
102.615
101.647
100.099
93.8414
100.994
120.744
139.063
142.877
165.924
471.085
1041.03
195.866
146.088
139.817
131.655
118.353
103.964
97.5032
96.332
102.667
104.182
104.376
111.48
125.195
139.362
156.697
197.006
1051.13
326.552
189.146
144.34
139.9
132.43
115.411
97.9394
84.9752
86.0789
88.1966
94.3746
104.458
116.278
129.655
140.161
155.88
198.898
1136.57
332.065
182.471
140.101
139.437
128.743
105.028
96.1901
84.3089
74.2364
62.5512
75.5042
99.0793
118.402
129.621
139.453
153.301
195.375
1100.28
1234.45
237.146
176.22
144.258
132.179
132.41
108.987
73.9981
80.5482
60.2131
60.8095
47.287
67.5351
111.112
129.821
136.311
157.595
209.608
1085.75
1120.4
198.28
139.733
206.675
149.871
120.997
113.327
93.3338
59.2441
52.3925
47.817
42.4661
69.7409
119.37
131.951
136.39
148.3
259.028
205.673
147.654
137.051
131.379
121.045
108.926
88.0748
72.4279
49.7687
50.5368
38.3912
78.2145
112.957
135.403
145.161
143.449
274.691
1046.55
203.592
141.44
132.354
130.125
124.076
116.96
107.266
87.9793
97.1193
42.7684
34.2561
55.0361
121.178
137.203
158.909
152.785
320.761
1079.33
190.201
138.108
129.943
129.368
125.538
114.473
110.181
103.973
83.2638
84.4223
43.2851
53.9223
123.695
133.542
151.747
160.147
479.632
1174.1
183.568
139.919
133.447
129.702
125.515
117.126
102.682
96.3553
91.2837
69.6637
89.1107
96.3586
126.988
140.037
140.931
168.182
907.906
170.359
161.948
147.256
132.696
123.289
120.791
111.688
93.6863
77.572
71.0098
92.738
110.54
122.451
140.143
161.67
191.458
1011.84
776.945
271.834
149.103
129.899
122.267
116.745
116.056
107.161
83.6988
59.381
72.6662
117.735
131.393
134.124
167.07
196.073
1109.03
2229.26
291.466
207.041
198.515
123.128
117.879
116.475
109.445
106.508
96.1739
91.5896
75.826
117.602
133.821
144.78
141.775
218.75
1161.96
310.432
159.449
147.257
146.56
108.386
108.544
113.456
108.037
105.053
95.7165
84.6527
87.2679
118.291
128.917
146.916
151.698
296.18
292.821
151.863
145.223
119.892
98.6027
93.7804
99.3381
108.924
95.2048
102.909
57.8388
81.448
110.939
124.223
138.054
158.704
319.619
1228.32
250.981
150.631
146.141
138.319
102.657
99.7478
88.6921
83.6919
109.766
70.0884
60.4527
82.2423
112.016
126.019
134.065
178.147
909.392
1000.3
189.628
150.681
127.707
123.028
91.3089
146.938
127.134
72.0767
58.4308
80.7165
74.798
83.6526
105.553
146.222
149.315
183.428
1032.16
871.855
151.564
272.058
190.97
107
68.1818
85.0441
109.708
173.602
63.2264
55.5344
77.7995
110.284
144.71
184.582
192.529
186.353
1040.36
474.372
142.208
161.121
153.105
81.766
52.8235
64.3506
45.1626
85.8043
124.085
72.4073
101.924
134.56
156.976
180.09
230.836
198.905
1087.21
1067.27
257.555
139.751
152.528
158.497
85.1056
39.1825
27.8617
32.9367
52.7223
76.0288
110.385
136.287
143.741
139.239
156.331
180.157
339.043
1103.33
963.552
165.009
184.412
148.761
148.444
84.5681
31.4434
13.146
19.0676
41.1936
66.6306
111.121
115.41
124.697
139.431
145.561
150.544
217.308
1135.54
242.776
159.746
141.638
134.658
67.4796
28.5726
14.5699
14.8504
35.0346
60.5101
100.437
117.613
129.449
141.202
157.433
144.82
276.532
1263.58
278.619
159.578
165.517
138.981
55.2274
20.0877
25.8326
46.1473
29.6758
54.9036
75.2958
120.65
133.544
142.072
152.913
156.777
322.384
288.648
173.459
183.166
164.064
63.7788
17.0159
15.0283
33.0065
46.2495
42.6792
100.283
126.644
137.514
142.813
152.818
163.623
484.596
260.862
275.769
217.728
181.388
82.6262
15.1207
10.9819
16.293
31.6352
50.4133
70.3466
128.629
141.721
149.167
146.67
170.977
935.41
1022.87
188.627
185.917
198.944
172.513
90.0429
28.4401
13.0302
20.0939
36.5692
79.3621
92.3284
133.164
150.043
149.878
171.026
208.322
1042.48
968.001
192.737
189.452
183.835
156.09
79.6783
24.7629
15.7139
23.8555
44.8313
70.418
115.448
153.428
152.392
159.423
147.778
296.799
902.6
163.911
140.808
150.586
148.411
82.6151
32.4328
21.2301
25.3396
51.6905
88.4329
136.117
143.591
151.604
164.606
156.701
336.802
914.793
160.447
139.214
145.15
157.162
78.0811
21.5493
20.8149
50.2672
77.3678
94.5823
146.723
149.621
150.581
164.196
165.947
339.862
927.931
163.315
142.677
145.408
144.18
92.2276
27.4069
20.7102
38.9757
74.4671
107.512
148.331
145.408
151.28
151.527
176.929
937.246
941.976
164.976
152.098
154.454
147.925
86.2194
72.8741
38.7692
37.1989
67.1902
111.969
151.939
142.39
150.142
158.032
205.54
1047.75
321.869
169.319
189.088
183.152
138.758
87.0716
129.221
131.936
74.1618
71.7526
100.688
124.859
137.74
142.627
169.634
209.4
1122.18
373.126
393.745
212.404
102.237
44.5474
31.5748
73.0165
193.625
89.4767
92.3027
125.124
140.298
148.883
158.047
257.416
1253.78
357.248
255.982
220.87
177.865
33.7363
22.111
34.009
73.6361
108.629
111.407
154.903
145.533
153.403
152.484
303.756
337.597
227.133
215.073
210.394
189.821
52.669
29.3606
44.4771
79.7015
142.896
158.942
141.327
160.327
153.319
153.281
327.044
366.248
165.791
193.508
233.748
224.778
178.93
76.8752
57.4574
147.227
180.978
181.265
210.211
184.326
217.095
181.1
902.793
374.904
176.022
182.739
222.797
262.43
253.127
169.764
193.721
215.729
219.24
197.07
212.259
215.839
258.034
210.053
1099.05
1292.47
346.803
202.617
169.35
215.382
250.458
235.36
228.607
198.52
235.928
266.526
245.695
199.223
246.236
260.261
511.908
1339.6
257.344
164.916
198.762
173.736
268.293
247.841
207.489
139.051
197.693
202.819
214.237
235.858
269.593
323.349
270.172
1086.12
241.842
180.834
163.769
164.859
197.548
243.315
331.408
211.805
196.356
218.043
215.464
201.668
222.816
335.586
860.571
351.825
185.123
618.032
374.06
254.325
177.835
192.854
150.726
191.474
195.87
180.889
163.965
172.158
203.418
335.2
4177.66
355.915
608.554
304.251
253.546
257.511
223.703
197.181
236.874
240.72
221.581
207.168
193.901
181.663
215.063
334.369
861.352
1131.82
690.401
352.169
247.424
218.466
217.614
161.166
175.467
219.272
232.557
248.213
230.967
233.871
228.85
371.458
1244.81
226.196
480.353
265.56
200.517
174.206
157.195
184.171
184.656
207.838
232.809
258.014
160.024
229.052
276.74
1509.66
1230.32
243.878
182.089
336.117
241.122
217.39
164.708
142.838
181.394
198.736
235.836
228.349
221.326
191.223
377.829
1339.32
613.437
237.789
192.725
495.588
319.073
229.968
188
199.707
202.894
205.01
233.659
282.693
162.127
206.63
389.525
1192.94
595.506
493.299
356.664
290.896
202.5
198.507
170.213
223.138
214.256
266.067
188.356
267.299
1232.88
756.277
553.341
487.569
397.33
298.908
291.106
199.946
180.983
220.247
263.798
154.57
200.258
362.922
1241.55
237.154
190.787
531.629
366.263
230.704
279.825
288.295
207.692
234.217
242.563
181.106
232.618
579.249
1296.16
251.507
203.195
524.716
444.237
273.61
267.7
370.887
337.956
310.549
359.434
196.32
249.934
1263.82
1201.53
242.547
593.254
512.285
478.784
349.457
260.314
237.651
254.588
326.264
505.153
204.44
260.258
1349.03
1256.51
231.99
588.568
507.469
505.299
470.225
256.713
265.492
238.319
344.921
508.39
204.051
345.665
1399.11
1203.61
239.336
190.994
531.902
485.756
517.257
337.306
221.963
245.449
332.338
194.063
218.015
348.246
1506.7
1504.87
1198.83
199.253
179.835
495.809
500.713
623.1
331.692
268.033
376.713
543.241
231.691
373.49
189.688
530.016
483.567
497.757
184.203
543.777
550.438
587.439
558.381
196.204
178.555
495.857
585.683
215.015
234.189
313.682
1225.4
6361
617.815
189.664
536.73
582.884
254.609
419.829
2857.79
2148.01
533.356
835.839
243.482
276.453
1243.28
523.218
826.428
245.939
266.605
638.965
896.705
666.845
302.221
246.617
293.582
1243.83
1210.55
303.463
1989.38
871.922
567.373
374.121
214.987
200.388
232.577
234.66
690.536
321.268
220.059
395.115
724.937
1563.27
1402.14
6514.05
529.136
1541.57
619.862
587.093
1456.85
643.874
437.97
332.098
316.246
294.281
273.843
263.359
361.843
1496.84
662.275
429.144
319.85
302.491
279.868
267.186
266.124
272.428
269.643
264.139
250.544
252.938
263.482
256.243
1410.95
628.429
341.665
301.54
274.417
270.656
266.104
259.139
260.768
262.03
267.618
256.402
244.104
248.326
260.626
262.216
267.863
262.592
270.119
370.738
448.413
937.063
1068.02
585.187
320.833
281.569
271.076
255.529
248.814
252.065
254.052
253.776
252.31
253.537
260.12
240.12
629.167
622.629
268.581
274.855
255.114
261.792
259.591
294.174
663.312
617.455
365.622
282.096
259.078
236.439
221.38
224.376
228.698
231.883
231.081
234.538
233.699
245.444
244.828
250.122
249.435
229.036
575.485
631.265
247.625
266.838
266.068
281.59
324.331
1365.74
466.005
226.457
182.498
176.848
220.946
237.001
526.924
784.039
930.336
201.396
217.267
220.404
205.791
197.624
207.408
229.821
234.673
222.165
208.282
541.226
618.402
258.862
282.197
325.407
681.977
1575.93
418.959
332.286
294.186
240.136
238.045
230.325
247.055
298.449
326.556
353.053
549.405
198.503
211.617
237.236
242.249
727.186
211.506
231.088
241.152
243.988
610.134
623.642
304.816
668.62
1328.41
357.829
408.16
353.589
241.442
215.602
210.41
260.679
204.437
175.357
299.681
304.673
349.575
353.846
407.937
583.189
198.689
251.033
598.135
227.321
241.008
245.316
256.762
296.111
611.465
478.044
1431.48
347.887
304.687
304.971
289.482
182.303
191.449
199.227
199.034
237.515
198.226
157.635
280.776
296.401
320.133
318.205
270.94
237.219
176.545
215.753
189.438
240.265
270.279
402.936
676.436
1157.83
447.863
211.048
205.941
246.244
226.512
236.8
173.558
162.032
162.17
212.865
229.756
183.527
157.512
159.807
175.087
175.882
177.688
237.305
226.237
278.729
227.618
228.183
234.386
268.657
596.955
1242.45
259.98
173.117
269.764
243.413
207.826
236.914
174.8
182.81
198.386
209.469
198.154
204.167
198.342
230.398
175.167
177.941
181.862
190.365
204.903
331.338
205.1
646.855
613.101
739.685
4687.16
811.962
1421.06
330.097
258.606
214.251
200.548
173.198
205.344
188.165
185.267
181.396
210.378
196.245
189.68
205.751
206.254
199.251
186.853
196.538
204.567
210.587
207.341
174.615
631.735
1756.67
1330.28
372.736
256.489
195.358
175.759
196.892
170.85
143.913
90.8411
98.8581
201.148
193.046
190.948
139.831
256.225
232.842
213.831
224.622
254.891
235.185
216.334
158.06
234.932
507.265
497.425
213.784
206.017
222.495
238.544
178.462
156.751
181.245
173.506
123.355
94.2318
93.9792
96.6057
83.8543
126.864
124.611
122.742
226.119
223.138
252.243
343.145
308.284
153.832
225.817
532.023
468.568
217.013
186.46
208.324
186.669
169.656
158.708
162.986
159.166
175.904
140.074
128.22
114.189
92.3293
87.9697
110.229
126.486
164.798
176.695
231.144
298.805
319.828
522.349
221.615
525.596
427.797
186.086
226.77
215.409
191.717
177.21
165.878
155.715
156.02
153.86
148.804
155.413
137.509
164.127
97.531
96.7318
110.482
168.398
217.795
227.05
271.645
346.564
366.915
488.93
921.464
1224.18
419.591
184.76
203.657
184.729
179.712
174.729
173.84
161.507
141.489
134.693
122.44
125.519
121.129
142.334
138.079
131.236
115.91
113.74
133.182
153.115
208.438
301.073
336.667
455.206
449.28
1207
417.746
178.041
194.145
181.721
180.702
175.897
165.658
152.473
128.294
79.7057
93.9957
97.718
95.4709
100.192
123.28
115.289
145.357
152.28
164.774
143.857
162.424
204.824
277.648
460.522
479.627
1092.49
291.008
172.159
204.921
186.757
180.371
172.748
164.598
151.098
130.796
106.215
71.5441
68.2877
90.4076
92.1939
99.3963
103.61
101.688
102.264
121.923
160.871
158.452
182.072
211.533
263.353
355.336
1407.37
1307.13
312.941
168.18
171.301
172.653
170.133
159.389
143.016
125.065
116.957
112.507
103.431
94.1356
87.2462
90.0587
94.4596
94.0405
109.735
110.29
109.586
93.5279
172.468
189.357
221.107
259.327
226.805
1612.33
456.241
179.314
210.621
184.7
173.072
157.788
126.546
99.0001
90.8247
91.7561
92.7692
90.474
90.3787
91.1625
88.1602
89.0903
99.0142
115.704
137.901
154.741
159.68
174.474
219.168
253.933
222.716
501.682
503.41
215.033
176.067
172.588
169.988
162.792
138.641
85.0708
48.2735
45.9242
53.8038
67.7919
81.3686
86.6349
92.1284
96.0574
98.9591
106.691
121.893
143.587
159.376
171.469
185.008
227.997
218.449
516.377
1071.3
270.792
174.769
185.082
171.272
163.688
152.307
107.459
58.75
33.6229
24.8032
27.4467
35.8956
53.9139
79.104
97.2901
102.4
110.071
122.968
139.023
156.382
176.67
189.597
201.81
180.209
448.655
449.724
178.317
177.405
168.725
160.27
143.91
101.879
54.8664
34.5889
27.0514
21.8656
20.5637
24.4239
33.456
58.49
86.9919
108.01
122.54
136.71
154.639
167.972
179.406
214.726
261.579
320.32
505.328
199.404
216.853
188.295
170.951
151.505
116.94
54.3418
31.0471
22.3813
20.1466
19.267
19.0744
19.8137
22.3373
34.2267
58.8923
95.4741
127.118
153.458
169.372
179.802
183.749
192.062
195.599
884.557
1007.8
256.343
175.373
189.248
174.347
162.002
139.222
105.234
41.9108
25.1447
17.8569
16.2314
17.2868
18.034
20.2524
22.8942
26.2679
39.5064
62.7266
118.858
153.698
174.838
188.923
188.071
172.677
444.315
1006.64
269.182
180.222
190.887
170.519
158.21
140.097
119.915
83.2272
44.5274
27.3475
23.2997
16.8253
16.0118
17.8094
22.1927
27.026
31.2637
52.2757
85.154
127.228
160.986
180.007
203.655
232.578
287.89
1154.59
443.907
198.179
191.666
166.179
154.631
136.44
113.863
88.6939
56.8545
32.1097
22.0575
24.0716
27.2173
20.6769
20.1396
26.9456
37.6393
51.0876
80.4159
134.138
162.358
181.584
207.799
236.196
272.993
994.787
832.132
220.442
212.751
172.142
154.74
129.942
103.351
94.3792
73.409
44.7974
26.5289
23.5694
35.0093
50.2554
43.2724
27.4482
32.7977
55.8401
99.4246
141.373
156.345
173.307
217.449
245.531
270.644
993.162
277.473
174.055
163.285
155.881
141.787
124.316
60.1191
53.4243
59.517
36.8332
27.6413
24.5803
38.6628
62.2468
55.9582
40.842
38.8111
61.7761
127.619
151.743
169.05
187.924
203.749
247.642
983.319
838.175
182.448
169.495
160.561
152.809
139.164
108.801
80.8225
39.8643
38.3672
43.8598
41.1061
36.3602
41.3998
59.4284
71.9924
58.1875
51.4069
106.79
144.503
166.199
185.414
209.989
249.899
438.566
297.084
177.59
162.874
157.371
142.339
118.473
88.5562
70.543
47.8743
29.9123
32.8388
38.0669
42.2925
42.0631
53.6291
78.0757
90.2298
105.405
124.05
163.044
174.405
202.241
243.857
280.337
1027.72
1003.24
230.709
169.695
153.613
144.462
125.515
91.239
68.8449
50.8785
37.2865
28.4977
26.1624
28.9399
32.4757
33.86
37.7663
57.1828
100.889
126.49
148.894
169.558
187.732
191.968
192.415
927.459
367.044
195.93
182.802
155.876
127.055
97.2232
70.9512
49.3202
35.6537
27.568
24.052
27.0454
32.5476
40.4069
51.1401
55.0197
63.1999
107.192
131.125
155.67
176.916
194.123
239.936
304.22
1304.45
775.35
167.138
160.056
150.733
136.877
116.192
50.6038
38.7807
29.5673
21.4092
19.8502
19.6931
22.9791
32.8459
49.5824
65.0007
87.027
105.083
118.323
142.923
159.957
173.085
217.444
265.551
985.067
238.358
201.125
161.498
149.786
133.083
106.527
80.3673
39.4895
23.0696
19.8557
19.0841
18.4585
18.1654
25.7898
41.9933
65.1386
86.5981
116.356
133.795
155.438
173.914
192.276
171.564
467.203
757.297
169.555
158.235
148.351
138.22
122.325
102.574
81.7444
56.4222
27.1432
17.7005
18.1706
21.8108
20.1114
21.6152
33.6123
60.4294
88.7631
123.155
147.862
163.202
173.396
218.193
260.206
1080.01
269.621
168.086
153.669
147.445
133.078
110.599
88.3655
64.3444
50.5333
29.6387
18.4981
16.4736
19.9111
28.4788
27.4446
28.7817
52.9987
96.6717
130.285
155.073
167.472
183.869
209.564
438.656
761.065
166.969
157.299
152.717
141.544
121.483
98.5028
70.3458
49.7035
32.4755
26.1977
19.735
17.9825
22.0274
30.5772
44.1196
46.8078
64.8978
99.9479
138.992
162.413
175.314
175.365
198.315
960.323
265.691
162.14
150.368
147.494
135.33
109.351
86.851
64.6542
44.4479
28.6667
20.0213
19.427
18.8647
22.118
34.17
52.79
80.2571
98.9466
116.19
146.339
170.971
194.19
219.4
304.015
774.095
165.659
152.652
144.708
137.305
117.499
98.892
81.7649
64.6815
44.0271
28.5144
22.109
18.3627
19.0904
20.8797
29.5533
48.662
71.1514
105.465
131.591
154.046
180.313
185.534
189.466
928.27
272.71
154.503
142.761
139.363
126.612
100.816
78.3204
70.7134
61.9625
49.5915
32.9618
20.5929
17.8992
19.2242
24.1235
34.7132
55.29
72.7784
104.529
142.744
164.773
177.227
243.076
295.826
231.005
192.841
150.378
137.374
117.952
85.5212
66.2248
55.6445
52.3852
50.3156
42.7777
30.2414
20.0454
19.8101
25.8276
43.7176
75.8564
105.074
120.683
151.546
177.176
196.329
168.333
779.13
804.608
161.186
150.847
139.757
130.241
110.012
74.6077
55.6301
45.8266
42.8059
43.5475
45.4721
42.7622
35.8095
33.3995
40.9277
56.5139
80.6352
115.514
137.275
156.894
177.998
237.301
260.901
1079.6
770.042
184.196
150.507
136.842
125.645
103.12
68.6625
48.3552
37.4326
34.3079
36.8413
40.923
44.6933
47.3428
49.8718
57.4403
70.1644
87.4468
111.433
137.31
156.367
170.107
242.972
716.133
393.265
177.266
151.503
137.836
120.581
101.671
59.9155
42.6584
33.8889
28.0479
26.9473
32.4536
39.6809
45.7372
53.8588
64.9357
80.009
96.0608
119.564
142.8
161.21
178.993
206.307
857.475
233.62
197.024
158.309
140.628
116.595
95.6457
74.1857
46.3956
34.2195
27.5966
21.6349
23.3525
31.1181
42.0707
51.6107
64.0609
80.414
106.233
131.179
153.095
159.459
210.479
273.303
777.791
193.883
174.988
148.425
136.379
109.214
81.9116
67.5864
54.7855
40.1105
32.5205
26.2205
21.3828
25.7734
35.1565
49.0132
65.6895
82.8309
108.338
138.063
156.433
185.594
164.007
789.255
408.964
174.247
151.421
141.822
127.282
103.966
76.3218
56.8023
43.431
38.3273
35.4276
33.5019
31.1885
30.8406
37.3896
49.6339
65.725
86.8062
114.068
136.333
155.495
172.867
211.373
1040.81
226.093
198.513
157.228
142.042
120.389
93.0586
71.0274
53.3972
38.086
26.7676
26.9138
31.3541
35.0994
39.0311
45.3953
56.0252
71.749
90.1439
120.113
141.368
154.959
181.645
259.207
806.258
165.014
152.294
141.765
134.679
114.096
87.6928
63.8082
46.791
35.2076
24.2273
19.6982
22.8802
30.4002
41.1694
50.6143
61.5162
77.8708
98.7111
125.173
147.795
153.929
188.651
415.788
398.424
166.371
143.506
140.201
126.842
106.748
86.125
60.7836
40.3545
27.0979
21.1614
17.3827
17.0174
21.7041
30.6606
47.3607
62.6026
79.7585
110.139
131.297
148.942
177.444
159.583
762.195
279.755
150.925
139.218
133.155
118.566
94.5332
75.8568
57.4441
37.5875
21.4433
15.6885
14.3748
15.0158
16.459
22.4195
35.7145
57.9222
79.6404
110.404
135.331
146.974
175.958
214.407
1051.17
237.781
197.44
151.892
132.686
112.336
91.1827
73.0019
56.7657
41.2541
23.6461
13.9093
11.8063
12.2999
15.0703
20.6302
35.2032
56.6914
82.1351
117.113
136.797
154.446
162.026
231.608
976.694
170.712
146.286
141.854
129.455
101.871
81.2742
68.6988
58.2202
48.3472
34.2651
19.4345
12.4939
11.0941
12.9396
18.8918
34.0206
60.4877
88.517
125.193
145.882
151.287
198.32
398.977
782.946
158.648
154.391
142.804
130.595
103.396
76.0311
59.771
49.7096
45.5691
40.6413
30.6105
19.9136
14.6518
11.615
16.2086
30.6185
59.1463
99.2162
131.355
148.481
174.913
167.645
807.739
727.556
176.003
148.375
142.818
129.559
103.102
75.5473
58.1514
44.9967
39.4024
36.4741
30.8516
25.2048
19.5975
16.8114
16.7938
30.1629
60.9272
102.92
135.026
156.547
158.426
231.311
282.428
148.948
138.067
134.754
125.023
100.859
72.2533
55.0832
43.3989
36.7655
36.8718
33.3162
24.765
18.6827
17.1995
20.9297
35.5014
66.8445
110.535
138.901
159.87
198.134
285.383
271.541
148.99
137.822
135.13
119.625
94.1151
67.7239
48.9236
38.0055
33.9865
35.1935
37.7735
33.0363
23.428
17.4692
21.5418
37.7092
66.5497
111.107
141.225
155.105
205.022
716.692
238.331
194.677
150.427
134.128
113.468
91.2374
67.6656
47.2526
33.0419
26.8036
27.871
35.445
39.7261
37.4146
32.9558
35.0599
52.2765
75.2162
110.963
138.918
173.74
198.381
753.668
235.704
159.109
140.512
130.929
109.091
85.3236
66.4072
47.6172
33.7474
24.5696
20.5905
23.0404
31.0072
40.4581
46.257
53.2049
65.5535
87.1708
111.937
138.897
157.347
206.63
889.84
227.259
158.19
141.028
130.787
108.316
83.0081
65.4976
48.7599
35.3611
27.5708
22.3971
19.5148
23.2156
29.3438
39.5596
55.2065
70.296
89.7754
111.602
135.901
162.639
170.075
987.57
949.27
176.578
153.378
143.211
132.049
107.578
80.4234
63.9219
48.3884
36.5875
30.375
28.7661
28.3903
27.179
29.7481
36.1911
48.8988
68.023
92.4172
118.138
136.079
161.519
208.283
759.439
200.088
179.91
149.574
131.452
103.593
75.6161
59.5785
45.7755
33.8948
28.0175
27.6096
30.8413
35.1863
38.7542
43.9672
54.1264
70.2949
96.9449
126.674
141.505
166.41
219.08
748.032
177.624
145.776
136.901
124.939
96.1438
66.5245
51.2856
39.7818
29.496
24.367
23.3302
25.5798
32.7554
41.4046
50.5576
61.5437
76.3054
99.1355
128.417
148.213
150.499
230.053
398.855
163.119
142.478
135.319
119.636
93.6299
65.3984
40.2877
29.9262
25.1449
20.7059
18.5403
18.8109
22.6924
32.9571
47.35
62.2658
80.1968
104.311
127.433
146.054
179.122
281.653
277.723
145.521
135.305
132.534
117.75
94.5148
68.2874
42.3356
22.0166
17.842
15.8716
13.7908
12.3623
14.8639
22.5455
37.3999
57.7196
79.1881
109.159
129.631
146.617
179.446
674.359
281.479
147.792
136.33
130.224
112.845
95.808
72.3786
48.192
24.714
13.4934
10.0545
9.27611
9.06266
10.6369
17.3452
33.0523
54.9
79.139
110.914
130.099
144.834
182.119
711.223
243.059
150.815
139.049
131.571
111.194
87.2062
68.7168
52.3127
34.2527
19.7413
11.7327
6.19498
6.21162
8.97791
16.1817
31.1395
55.2411
81.4414
113.05
133.76
139.732
177.497
742.863
229.498
157.76
137.129
127.578
107.586
80.9099
64.5223
51.466
41.3565
29.3493
19.0759
10.9009
5.8005
7.3796
14.6444
30.046
53.2194
81.8254
115.753
137.573
152.843
159.46
812.988
238.851
159.142
133.42
121.954
100.959
75.7898
60.4883
47.4889
38.1798
33.1367
26.7663
19.1341
11.6315
8.99039
14.6782
30.4763
54.8136
81.9693
118.857
139.233
160.132
205.539
1007.96
229.506
158.46
134.09
115.154
91.3747
68.6116
55.1878
45.6813
35.8621
26.5894
21.4307
18.8418
18.3251
17.3629
22.9093
37.9895
60.3271
86.6305
120.264
142.053
165.543
221.1
944.871
168.412
155.29
137.679
105.778
72.1504
58.9099
48.4528
41.2576
35.7845
27.0754
19.2212
13.9033
15.4592
22.4525
35.0181
51.921
70.283
95.346
121.431
140.902
170.567
224.492
756.2
205.617
168.822
132.631
91.5864
44.1677
42.6289
41.2714
37.617
33.2203
29.2781
22.6632
16.0318
12.5003
19.0729
34.8549
56.9895
75.6246
100.892
125.043
137.461
167.825
230.004
762.626
182.64
148.734
129.959
102.244
41.4112
29.7614
32.3264
34.6611
31.9925
26.4474
22.2227
18.9635
17.1286
17.9313
31.6532
54.8771
79.3801
108.446
130.553
145.829
156.884
218.734
412.945
171.961
145.537
132.808
109.397
71.058
36.0632
26.8039
30.1871
32.3808
26.5589
20.2013
15.6827
15.7514
20.8335
33.612
54.131
80.3858
111.515
130.906
145.823
179.957
255.54
271.342
152.921
142.975
133.374