/*--------------------------------*- C++ -*----------------------------------*\
| =========                 |                                                 |
| \\      /  F ield         | OpenFOAM: The Open Source CFD Toolbox           |
|  \\    /   O peration     | Version:  2312                                  |
|   \\  /    A nd           | Website:  www.openfoam.com                      |
|    \\/     M anipulation  |                                                 |
\*---------------------------------------------------------------------------*/
FoamFile
{
    version     2.0;
    format      ascii;
    arch        "LSB;label=64;scalar=64";
    class       volScalarField;
    location    "80";
    object      p;
}
// * * * * * * * * * * * * * * * * * * * * * * * * * * * * * * * * * * * * * //

dimensions      [0 2 -2 0 0 0 0];

internalField   nonuniform List<scalar> 
404911
(
0.64468
0.643773
0.647152
0.650222
0.643003
0.642979
0.646331
0.646984
0.648953
0.649769
0.654618
0.643636
0.642228
0.641989
0.643572
0.646655
0.656972
0.651516
0.649351
0.647897
0.654523
0.654609
0.652071
0.659967
0.656772
0.638495
0.659898
0.659868
0.661441
0.67591
0.665652
0.662492
0.657372
0.66977
0.667009
0.667606
0.668334
0.673872
0.672869
0.671494
0.662749
0.682395
0.675961
0.674408
0.672609
0.662021
0.679973
0.677405
0.674937
0.679724
0.683264
0.679117
0.678695
0.683181
0.68694
0.682971
0.700337
0.637104
0.639735
0.640092
0.648692
0.647174
0.653406
0.650939
0.649046
0.656612
0.654812
0.652253
0.658975
0.658084
0.662053
0.659453
0.658345
0.664936
0.663403
0.661289
0.6601
0.669335
0.667822
0.673805
0.672293
0.676408
0.674532
0.672831
0.679166
0.677458
0.68187
0.680395
0.678261
0.685273
0.683052
0.691915
0.693372
0.693211
0.700103
0.69773
0.695302
0.703917
0.701765
0.698338
0.703785
0.704994
0.704069
0.703821
0.326174
0.325001
0.324704
0.347026
0.348285
0.329569
0.338967
0.32996
0.327406
0.325697
0.324771
0.354763
0.351488
0.348275
0.342444
0.335989
0.333669
0.329734
0.328658
0.320465
0.36584
0.360593
0.359645
0.356062
0.353988
0.355215
0.353557
0.346802
0.337891
0.335394
0.33402
0.331099
0.324978
0.313788
0.317946
0.321076
0.373795
0.36847
0.365647
0.361905
0.358668
0.356379
0.354517
0.352925
0.351323
0.350861
0.342903
0.337845
0.336016
0.332885
0.31344
0.383491
0.380334
0.37613
0.37027
0.365544
0.362336
0.359057
0.356881
0.354866
0.353829
0.350633
0.347465
0.34408
0.339455
0.337482
0.384773
0.385083
0.381356
0.378396
0.373472
0.368909
0.365222
0.360393
0.357736
0.356937
0.354722
0.352721
0.349282
0.344705
0.339879
0.340643
0.395514
0.389928
0.383468
0.38426
0.37879
0.379618
0.376678
0.370131
0.365623
0.361114
0.35934
0.357575
0.355804
0.353372
0.350362
0.345567
0.344204
0.406002
0.402469
0.39812
0.395901
0.391005
0.387289
0.386277
0.382113
0.380613
0.376915
0.371053
0.36732
0.363219
0.361162
0.35937
0.356797
0.355126
0.353703
0.407645
0.408652
0.403953
0.399361
0.39654
0.392581
0.390165
0.38703
0.384383
0.381593
0.379818
0.37526
0.370057
0.365648
0.362973
0.359717
0.358855
0.355501
0.413747
0.411636
0.408989
0.40869
0.404792
0.401622
0.39895
0.395055
0.391657
0.387761
0.385193
0.383387
0.381292
0.37803
0.372994
0.368459
0.365504
0.363983
0.418468
0.417882
0.414201
0.410927
0.408858
0.405749
0.403534
0.400868
0.397481
0.394474
0.390363
0.387436
0.385032
0.382517
0.381056
0.375421
0.367163
0.424811
0.422935
0.418837
0.419225
0.416568
0.412951
0.410384
0.407667
0.405749
0.403252
0.399595
0.396376
0.3926
0.389726
0.387292
0.383403
0.38057
0.434391
0.431136
0.426102
0.426055
0.423335
0.42063
0.417654
0.414301
0.411739
0.409564
0.407912
0.404542
0.401216
0.397616
0.393807
0.392385
0.389132
0.386197
0.436359
0.434036
0.434764
0.43119
0.427203
0.427729
0.424926
0.421889
0.418914
0.415287
0.413457
0.410808
0.408609
0.406222
0.402474
0.396847
0.394969
0.396176
0.44312
0.441483
0.438119
0.438412
0.435534
0.431771
0.428779
0.428408
0.427135
0.423584
0.420032
0.416331
0.416074
0.414158
0.410702
0.407827
0.405266
0.401285
0.445159
0.444566
0.442104
0.439078
0.437331
0.435751
0.432739
0.430827
0.428232
0.427204
0.423889
0.419135
0.417673
0.417211
0.417362
0.4127
0.409526
0.403226
0.45393
0.450326
0.445227
0.444986
0.442895
0.439891
0.437738
0.437128
0.43467
0.432277
0.429926
0.428368
0.425675
0.420828
0.417853
0.417044
0.417758
0.414186
0.458327
0.455514
0.451882
0.449397
0.446811
0.443301
0.441798
0.439092
0.437182
0.435454
0.433952
0.433156
0.430274
0.427997
0.423949
0.420929
0.419569
0.41815
0.460662
0.46097
0.458659
0.457073
0.453079
0.451243
0.449676
0.44554
0.443516
0.440144
0.437096
0.436256
0.434711
0.432939
0.430984
0.430123
0.426233
0.42266
0.467128
0.46345
0.462
0.462355
0.459353
0.455396
0.453202
0.452003
0.448764
0.446024
0.442226
0.438026
0.436741
0.434492
0.433631
0.431981
0.428744
0.472843
0.470707
0.467051
0.464498
0.462663
0.461914
0.45993
0.457523
0.454515
0.452397
0.450691
0.447465
0.444478
0.439994
0.439064
0.436785
0.434827
0.432954
0.477517
0.473677
0.471992
0.468334
0.465685
0.464173
0.462043
0.460235
0.458893
0.456497
0.454138
0.452312
0.449222
0.445698
0.442013
0.439182
0.438733
0.43671
0.480074
0.478655
0.475732
0.473782
0.470015
0.466609
0.465427
0.463495
0.461115
0.459665
0.458216
0.456328
0.454543
0.451826
0.448511
0.448078
0.441144
0.440889
0.487244
0.483494
0.480894
0.479465
0.477457
0.475305
0.473254
0.469445
0.466563
0.464488
0.462228
0.460533
0.458857
0.458629
0.454892
0.453641
0.44917
0.44512
0.494102
0.491676
0.488881
0.48551
0.483301
0.481193
0.479128
0.476644
0.474819
0.471755
0.469295
0.466812
0.463386
0.46189
0.45972
0.458558
0.454864
0.454094
0.499053
0.495597
0.49312
0.490034
0.487168
0.484878
0.483265
0.481747
0.4783
0.474853
0.4727
0.471278
0.469123
0.465754
0.464115
0.461514
0.459075
0.455655
0.504981
0.503073
0.500739
0.497718
0.494724
0.491522
0.488873
0.486597
0.485099
0.483988
0.481077
0.477614
0.47469
0.471574
0.470896
0.468279
0.460817
0.46526
0.508643
0.506681
0.504652
0.502488
0.49943
0.496169
0.493262
0.490405
0.488017
0.486347
0.484933
0.482875
0.480129
0.477276
0.474239
0.474341
0.470942
0.468524
0.511881
0.510061
0.508004
0.506249
0.504037
0.501126
0.497749
0.494777
0.492057
0.489584
0.487527
0.485622
0.483428
0.480971
0.478411
0.476209
0.474986
0.472815
0.515089
0.51377
0.511215
0.508479
0.507739
0.50593
0.502864
0.498952
0.496371
0.493711
0.491313
0.48907
0.486789
0.484313
0.481803
0.479303
0.477301
0.47722
0.5166
0.51778
0.516645
0.514691
0.513132
0.510858
0.509484
0.508088
0.505748
0.50164
0.497812
0.495427
0.492964
0.490682
0.488497
0.485983
0.483235
0.479506
0.525296
0.520763
0.518117
0.516955
0.51486
0.513268
0.511951
0.510561
0.509555
0.507811
0.504592
0.500171
0.497414
0.494939
0.492504
0.490353
0.487586
0.485584
0.529828
0.527104
0.523482
0.521278
0.518628
0.515533
0.513747
0.512468
0.511256
0.510183
0.508619
0.50619
0.502902
0.499809
0.497369
0.495234
0.493765
0.49246
0.530837
0.530321
0.52853
0.525487
0.523399
0.521577
0.51803
0.514655
0.513642
0.512199
0.511072
0.509611
0.507398
0.504718
0.501698
0.498951
0.49738
0.539511
0.534986
0.5332
0.531743
0.529524
0.526937
0.525193
0.523974
0.521125
0.516822
0.515168
0.513556
0.512313
0.510669
0.508626
0.506091
0.503649
0.500243
0.542891
0.540206
0.537965
0.535456
0.533443
0.530968
0.527765
0.52618
0.525778
0.523481
0.519137
0.516576
0.515152
0.513557
0.511868
0.509852
0.506859
0.506584
0.545168
0.542986
0.541126
0.53955
0.537651
0.535577
0.533161
0.530333
0.527542
0.526696
0.525612
0.52284
0.51864
0.516932
0.515217
0.513961
0.512722
0.509861
0.553549
0.549457
0.547006
0.544414
0.542404
0.54062
0.53928
0.537894
0.535589
0.532923
0.529997
0.527932
0.527318
0.525261
0.5217
0.519314
0.517163
0.515765
0.555293
0.55322
0.551461
0.548752
0.546411
0.543999
0.542023
0.540732
0.539615
0.537129
0.534663
0.531825
0.529175
0.527953
0.52627
0.524055
0.520971
0.51798
0.560394
0.557094
0.554914
0.553021
0.550587
0.548319
0.546004
0.5438
0.542154
0.540916
0.539701
0.537129
0.534251
0.531038
0.529726
0.527749
0.525544
0.523731
0.560546
0.561354
0.559011
0.556841
0.55484
0.55256
0.55044
0.548338
0.545883
0.543616
0.541854
0.540523
0.538959
0.536468
0.533401
0.531649
0.529666
0.526222
0.567765
0.566344
0.563223
0.560716
0.558266
0.556216
0.553952
0.552223
0.550687
0.548471
0.54497
0.54261
0.541621
0.540451
0.53796
0.53603
0.532648
0.575741
0.571618
0.569483
0.567101
0.565209
0.562538
0.55982
0.557448
0.555045
0.553287
0.552372
0.5515
0.54899
0.545547
0.542731
0.541814
0.540231
0.538342
0.576672
0.574967
0.573945
0.571684
0.569579
0.567561
0.564901
0.561748
0.558514
0.556296
0.554361
0.553418
0.552957
0.551865
0.548233
0.545074
0.543311
0.542104
0.581065
0.578688
0.576603
0.575352
0.573427
0.571594
0.569801
0.567899
0.564671
0.560737
0.557526
0.555571
0.554092
0.553116
0.551543
0.54937
0.546897
0.544984
0.582888
0.581897
0.580411
0.578053
0.576652
0.574771
0.573028
0.571235
0.569791
0.567593
0.564795
0.560186
0.557406
0.5554
0.55388
0.552471
0.550575
0.548892
0.588016
0.584932
0.583043
0.581373
0.579541
0.577703
0.575723
0.573823
0.571994
0.570497
0.568888
0.567065
0.563841
0.560353
0.557566
0.55554
0.553744
0.551975
0.59083
0.589314
0.58736
0.584778
0.582814
0.580915
0.578907
0.576554
0.574376
0.572541
0.571131
0.569842
0.568381
0.566048
0.563119
0.559999
0.557609
0.555337
0.595057
0.592947
0.591169
0.588718
0.586318
0.584336
0.582498
0.580441
0.578013
0.575474
0.573553
0.571975
0.57077
0.569273
0.567422
0.565201
0.562144
0.557726
0.597288
0.596056
0.594739
0.592653
0.589476
0.587645
0.585879
0.584243
0.581973
0.579134
0.576155
0.574999
0.573309
0.571953
0.570382
0.568479
0.56641
0.566039
0.603691
0.601167
0.598102
0.597623
0.596669
0.595274
0.59282
0.589051
0.58658
0.585475
0.584259
0.581966
0.579005
0.576322
0.575028
0.573594
0.571926
0.56972
0.568057
0.606647
0.605961
0.603616
0.600585
0.599181
0.598301
0.597613
0.595529
0.592264
0.589161
0.586597
0.58532
0.584106
0.581886
0.578936
0.577194
0.576009
0.574398
0.607295
0.606082
0.604179
0.601999
0.600535
0.599447
0.598576
0.597151
0.594579
0.591552
0.588624
0.586086
0.585102
0.583381
0.581017
0.578492
0.57767
0.613084
0.611909
0.609842
0.607215
0.604998
0.60292
0.601415
0.600218
0.599236
0.598568
0.596303
0.593412
0.59064
0.587792
0.586384
0.58479
0.582929
0.580329
0.618287
0.614957
0.614016
0.611558
0.60895
0.606499
0.604139
0.602348
0.601047
0.600151
0.599626
0.597827
0.595263
0.592275
0.590399
0.588347
0.586533
0.583413
0.61656
0.619349
0.617556
0.615617
0.613288
0.610932
0.608835
0.606461
0.603136
0.601025
0.600941
0.600774
0.599439
0.596797
0.594333
0.592153
0.589999
0.589126
0.621988
0.620733
0.619004
0.617234
0.61496
0.612708
0.610855
0.609522
0.60675
0.6031
0.601782
0.601047
0.600012
0.598015
0.595799
0.593321
0.591801
0.625264
0.624608
0.621571
0.620721
0.619143
0.616704
0.614358
0.612479
0.611353
0.609421
0.605696
0.603187
0.602064
0.600664
0.599186
0.597966
0.595846
0.634494
0.634108
0.630153
0.627367
0.624045
0.622743
0.621178
0.618508
0.615697
0.613817
0.613121
0.6114
0.607718
0.605471
0.603827
0.602101
0.599398
0.599162
0.636405
0.634138
0.634886
0.632337
0.629134
0.626425
0.624696
0.623097
0.620969
0.617763
0.614672
0.613686
0.613082
0.610479
0.607998
0.605652
0.605577
0.638941
0.638588
0.63586
0.634562
0.632765
0.630023
0.627725
0.626223
0.624312
0.622885
0.620425
0.617423
0.615237
0.61397
0.611989
0.609469
0.607352
0.64691
0.644378
0.642263
0.640153
0.638312
0.635902
0.634371
0.632329
0.628873
0.627081
0.625122
0.62344
0.621787
0.619654
0.616981
0.615222
0.612952
0.610152
0.651453
0.648212
0.645473
0.644091
0.642172
0.640198
0.639546
0.637787
0.634824
0.630933
0.629227
0.626772
0.624045
0.622026
0.620522
0.618614
0.616978
0.61464
0.651288
0.651404
0.648762
0.647242
0.645288
0.643378
0.640879
0.640637
0.640359
0.63703
0.633159
0.63069
0.628475
0.626231
0.623118
0.621433
0.620048
0.618115
0.654414
0.653811
0.653525
0.65098
0.648868
0.646788
0.645384
0.642178
0.640196
0.639252
0.637625
0.634824
0.632193
0.629991
0.62802
0.625338
0.622974
0.622303
0.665554
0.659826
0.656008
0.655648
0.65446
0.652391
0.65021
0.647996
0.64668
0.644262
0.641935
0.640604
0.638916
0.63624
0.633725
0.632003
0.630099
0.627154
0.625419
0.663743
0.665607
0.661121
0.657926
0.656393
0.65503
0.653354
0.651087
0.649184
0.647355
0.645063
0.643107
0.641408
0.639583
0.637231
0.634661
0.63396
0.630574
0.62834
0.661202
0.664253
0.661388
0.659774
0.658133
0.656556
0.654732
0.652288
0.650319
0.648332
0.646176
0.644333
0.642506
0.640569
0.638298
0.636062
0.634525
0.633079
0.66652
0.665419
0.665172
0.663104
0.661346
0.659936
0.658397
0.65686
0.654051
0.652023
0.64984
0.647792
0.646103
0.644131
0.641997
0.639632
0.637685
0.669566
0.668315
0.66783
0.666244
0.664387
0.662716
0.661246
0.660042
0.658118
0.655822
0.653698
0.652339
0.649629
0.647972
0.646349
0.644634
0.640858
0.676003
0.672011
0.670397
0.669313
0.667761
0.666271
0.664715
0.662365
0.660904
0.659699
0.657748
0.655319
0.65379
0.651937
0.650547
0.648331
0.645883
0.681681
0.681235
0.677931
0.675794
0.672921
0.671439
0.669555
0.667977
0.666454
0.664305
0.662636
0.661506
0.659323
0.657141
0.655368
0.65378
0.651492
0.652482
0.686281
0.684902
0.682118
0.681142
0.678045
0.675545
0.673835
0.672095
0.669761
0.667929
0.665905
0.664109
0.662908
0.661224
0.658575
0.656231
0.654601
0.688698
0.686734
0.68475
0.683313
0.681167
0.679102
0.677078
0.675021
0.673252
0.671298
0.669324
0.667097
0.66537
0.663887
0.6625
0.660179
0.65795
0.68931
0.689902
0.688102
0.686369
0.683913
0.681511
0.679828
0.678161
0.675884
0.674346
0.67253
0.670572
0.668849
0.666536
0.665171
0.663725
0.662122
0.694107
0.692042
0.690955
0.688579
0.687517
0.68469
0.682244
0.681074
0.67924
0.677198
0.675367
0.673914
0.671811
0.669696
0.667897
0.667041
0.665202
0.695499
0.695684
0.693497
0.692321
0.690775
0.689144
0.686826
0.68341
0.682059
0.680697
0.679017
0.677346
0.675402
0.673595
0.671355
0.668843
0.668489
0.701721
0.698965
0.697257
0.694553
0.693213
0.692225
0.692121
0.690462
0.687239
0.684064
0.682197
0.680464
0.678981
0.677239
0.675988
0.673577
0.670591
0.701201
0.701058
0.69945
0.698046
0.695961
0.693925
0.692417
0.691614
0.689377
0.686362
0.684024
0.682249
0.680597
0.678476
0.679154
0.674952
0.708231
0.705528
0.702725
0.701856
0.700271
0.698166
0.695938
0.694288
0.69247
0.690847
0.688217
0.685511
0.684077
0.681532
0.680027
0.710162
0.711265
0.709423
0.707155
0.704916
0.704104
0.702395
0.70019
0.697754
0.696031
0.693608
0.691068
0.689348
0.687273
0.685277
0.683446
0.71048
0.712208
0.710034
0.708888
0.706527
0.705378
0.705205
0.704164
0.702203
0.699939
0.697821
0.694584
0.690446
0.690498
0.689236
0.685801
0.71844
0.71495
0.71535
0.712061
0.709594
0.708559
0.706202
0.705106
0.70438
0.702514
0.701066
0.700242
0.697662
0.69362
0.692243
0.690086
0.732677
0.727053
0.720538
0.716756
0.716534
0.714574
0.712917
0.712005
0.710618
0.708596
0.705734
0.703656
0.700201
0.700438
0.699864
0.697326
0.730364
0.729056
0.728852
0.725699
0.720808
0.717972
0.717297
0.714866
0.712955
0.71233
0.711612
0.710016
0.707446
0.70275
0.701115
0.701151
0.742392
0.736691
0.731522
0.728917
0.727599
0.723786
0.720576
0.719013
0.717208
0.715069
0.713131
0.713827
0.714045
0.711987
0.707576
0.705089
0.750595
0.745918
0.739141
0.734331
0.731688
0.729728
0.726846
0.722685
0.719669
0.717853
0.717001
0.715651
0.713742
0.715914
0.716723
0.713316
0.755397
0.748704
0.746663
0.743916
0.738757
0.734414
0.731792
0.730467
0.726344
0.721029
0.71945
0.715905
0.716687
0.716134
0.711808
0.712955
0.753768
0.75292
0.750944
0.749159
0.746495
0.742506
0.738618
0.73572
0.73313
0.729732
0.724551
0.721142
0.720495
0.717347
0.716603
0.757295
0.756749
0.755123
0.75291
0.749848
0.747526
0.744167
0.741786
0.738547
0.735792
0.733802
0.728777
0.724885
0.722778
0.72401
0.719292
0.759593
0.759078
0.758651
0.758702
0.754672
0.751665
0.748206
0.745603
0.743533
0.74092
0.737711
0.73716
0.734919
0.730646
0.727399
0.727829
0.767128
0.76363
0.761319
0.759611
0.758106
0.756754
0.753517
0.750266
0.74783
0.745357
0.742684
0.739638
0.737334
0.735321
0.733203
0.768739
0.764503
0.764156
0.762576
0.759886
0.75756
0.755362
0.752243
0.74969
0.748576
0.745717
0.743282
0.738638
0.738338
0.780456
0.770948
0.769041
0.767361
0.764417
0.762411
0.759564
0.756868
0.754716
0.752519
0.749873
0.747318
0.746644
0.778898
0.776268
0.774204
0.773048
0.772405
0.769796
0.766634
0.764603
0.76235
0.75983
0.756936
0.753917
0.751699
0.747815
0.785053
0.781089
0.779702
0.776479
0.775903
0.773748
0.772074
0.770127
0.766303
0.765086
0.761338
0.758658
0.756173
0.754794
0.793097
0.788794
0.784823
0.780439
0.780144
0.778751
0.777412
0.775063
0.772494
0.770835
0.767401
0.76467
0.761725
0.761823
0.794213
0.794601
0.791404
0.787697
0.785229
0.782111
0.782592
0.780283
0.77811
0.775736
0.773407
0.770059
0.766956
0.764714
0.801777
0.797469
0.795337
0.794173
0.792779
0.79178
0.786038
0.784692
0.783163
0.779791
0.777652
0.776245
0.774386
0.769293
0.804254
0.802102
0.799553
0.796657
0.796758
0.790048
0.78932
0.787506
0.788257
0.785881
0.782395
0.779693
0.779578
0.79602
0.796707
0.795185
0.789086
0.787548
0.787959
0.78839
0.783777
0.781297
0.798072
0.795156
0.794732
0.790178
0.789435
0.78841
0.789047
0.784399
0.799988
0.799859
0.796257
0.797666
0.792003
0.786903
0.788561
0.817833
0.809934
0.797418
0.801555
0.795878
0.791928
0.786096
0.815316
0.80721
0.80016
0.797143
0.795695
0.819749
0.820597
0.80359
0.812606
0.805401
0.799647
0.823628
0.834763
0.825967
0.826313
0.805948
0.82519
0.824876
0.826651
0.825822
0.82939
0.803042
0.833284
0.824079
0.815703
0.821846
0.822979
0.845668
0.828164
0.819304
0.12672
0.123607
0.127446
0.168525
0.157203
0.15175
0.148414
0.138536
0.129188
0.121991
0.126468
0.101162
0.191003
0.187205
0.173194
0.172047
0.166249
0.160259
0.157093
0.151764
0.142848
0.134295
0.1239
0.121947
0.119876
0.111834
0.104362
0.213124
0.204487
0.201283
0.190806
0.188626
0.177321
0.171059
0.168529
0.163898
0.159162
0.152834
0.14407
0.137396
0.128272
0.121054
0.118975
0.111964
0.0978524
0.101442
0.0893342
0.0644629
0.0637489
0.23112
0.234351
0.225656
0.21877
0.207418
0.199793
0.193205
0.185671
0.179743
0.173495
0.168838
0.165185
0.159676
0.153683
0.146694
0.149341
0.129364
0.124533
0.119949
0.112074
0.103621
0.0912701
0.0801708
0.261166
0.249057
0.246857
0.238058
0.238371
0.228766
0.21839
0.207463
0.200737
0.194576
0.187765
0.181337
0.175092
0.170341
0.162472
0.161279
0.155092
0.164381
0.145186
0.135226
0.126648
0.122128
0.113141
0.10521
0.0962285
0.263696
0.259713
0.260097
0.255358
0.248735
0.235068
0.238396
0.232821
0.221611
0.210315
0.201258
0.195253
0.191841
0.184877
0.176838
0.172469
0.165632
0.16313
0.158538
0.159428
0.147298
0.139894
0.13124
0.124463
0.116732
0.272814
0.266756
0.262414
0.261739
0.257989
0.255152
0.249329
0.24582
0.24196
0.23505
0.221269
0.210286
0.20601
0.197171
0.197043
0.191414
0.179657
0.175383
0.168075
0.165123
0.161348
0.161626
0.155156
0.144363
0.136355
0.283134
0.280448
0.272217
0.268295
0.262935
0.261249
0.260181
0.257131
0.249387
0.246775
0.244045
0.238749
0.227193
0.21419
0.206496
0.204525
0.194296
0.192844
0.183693
0.175575
0.171846
0.167075
0.16395
0.158502
0.155327
0.294957
0.283095
0.287194
0.285282
0.28143
0.275167
0.270624
0.266016
0.26278
0.261925
0.259156
0.250499
0.246396
0.242839
0.238524
0.231058
0.21943
0.209682
0.203362
0.200338
0.19862
0.190785
0.178333
0.175421
0.171509
0.161204
0.305351
0.301293
0.299976
0.294553
0.289708
0.287341
0.286584
0.282413
0.278174
0.273059
0.269516
0.264421
0.262083
0.258763
0.252856
0.247635
0.243167
0.237262
0.229854
0.219421
0.213344
0.208922
0.203713
0.196031
0.192931
0.180453
0.177074
0.309703
0.307111
0.303134
0.300085
0.297093
0.29223
0.286803
0.286222
0.283505
0.279891
0.275462
0.271622
0.267357
0.264465
0.258234
0.25465
0.250083
0.244531
0.237498
0.231926
0.225068
0.208754
0.219451
0.207767
0.198417
0.32006
0.319512
0.318234
0.313095
0.309042
0.30403
0.301959
0.298235
0.293121
0.288975
0.286285
0.283865
0.279875
0.276857
0.273593
0.271067
0.267568
0.259142
0.256606
0.252146
0.24563
0.238978
0.233956
0.227688
0.225387
0.328416
0.322313
0.318433
0.316574
0.314061
0.31171
0.306515
0.303124
0.299292
0.294444
0.289692
0.287202
0.284163
0.279597
0.276851
0.275187
0.272456
0.269167
0.260442
0.258358
0.253934
0.247403
0.239715
0.234105
0.33582
0.335679
0.330703
0.328593
0.322782
0.319395
0.318
0.316451
0.312387
0.307527
0.304113
0.300038
0.295918
0.291224
0.288144
0.284286
0.28015
0.277329
0.27586
0.272724
0.269571
0.26379
0.259659
0.25389
0.247505
0.349654
0.342921
0.338367
0.335444
0.331323
0.32869
0.324235
0.320875
0.318788
0.318354
0.313457
0.309401
0.304729
0.300331
0.296913
0.293866
0.289541
0.285592
0.282224
0.279084
0.277712
0.274971
0.269768
0.266418
0.259245
0.354351
0.352059
0.349383
0.345469
0.341574
0.336413
0.332897
0.329221
0.325126
0.321331
0.319326
0.317318
0.313676
0.310928
0.305148
0.301758
0.297479
0.293252
0.290413
0.286366
0.282348
0.279458
0.277487
0.277484
0.266427
0.364214
0.361313
0.359688
0.356256
0.353301
0.351112
0.347843
0.344048
0.338107
0.333988
0.331074
0.327091
0.323634
0.321238
0.317619
0.315548
0.311678
0.307247
0.30361
0.299312
0.292701
0.290181
0.287076
0.282478
0.280789
0.277726
0.370023
0.373412
0.367411
0.363923
0.360495
0.357472
0.35477
0.352017
0.350505
0.347009
0.340368
0.335729
0.333089
0.32974
0.326049
0.322935
0.317783
0.315234
0.31506
0.310127
0.30343
0.301281
0.296558
0.291514
0.285963
0.280216
0.389202
0.378617
0.372826
0.371517
0.368668
0.364431
0.360573
0.357713
0.355492
0.35344
0.352044
0.349364
0.343358
0.33873
0.335268
0.332485
0.329363
0.324342
0.317786
0.314466
0.314121
0.30938
0.304869
0.30249
0.30057
0.291584
0.29033
0.387186
0.388782
0.384852
0.380636
0.377638
0.373486
0.369716
0.365326
0.36125
0.358517
0.356377
0.354323
0.352567
0.350248
0.345749
0.341408
0.337451
0.334772
0.332446
0.327832
0.319001
0.316375
0.314013
0.310213
0.306218
0.302918
0.302762
0.393102
0.390133
0.387668
0.384622
0.382086
0.379404
0.375505
0.371188
0.366639
0.362416
0.359716
0.357545
0.35548
0.353419
0.350889
0.347074
0.342877
0.338563
0.336362
0.335324
0.332191
0.32403
0.319695
0.315573
0.310605
0.308099
0.403726
0.396067
0.393411
0.391719
0.38929
0.386165
0.383335
0.380942
0.376892
0.372928
0.368259
0.363737
0.360802
0.358865
0.357083
0.354933
0.352088
0.348386
0.344203
0.339447
0.336688
0.334173
0.33255
0.328114
0.321991
0.318655
0.408315
0.405857
0.403988
0.398982
0.395583
0.393305
0.390246
0.387442
0.384139
0.381297
0.3779
0.374781
0.370779
0.365643
0.361767
0.360041
0.358359
0.356096
0.353411
0.349993
0.345646
0.341279
0.33761
0.334496
0.33246
0.329951
0.408307
0.408482
0.406321
0.403604
0.400355
0.397261
0.394592
0.391361
0.388442
0.385267
0.382318
0.379161
0.376454
0.372848
0.367961
0.363552
0.361224
0.359208
0.356936
0.354494
0.351552
0.347638
0.343985
0.339803
0.337071
0.417559
0.416581
0.413183
0.410108
0.407359
0.405218
0.402529
0.398854
0.395934
0.392867
0.389886
0.386864
0.383828
0.380857
0.378422
0.375016
0.370094
0.36583
0.363133
0.3607
0.358017
0.355513
0.352622
0.349191
0.345915
0.344441
0.426099
0.423512
0.42117
0.41778
0.415138
0.411795
0.408664
0.407165
0.404201
0.401094
0.397867
0.394583
0.391455
0.388445
0.385426
0.382807
0.380504
0.377783
0.372486
0.368127
0.365295
0.362715
0.359783
0.357012
0.3542
0.354386
0.435624
0.430464
0.426602
0.424233
0.42243
0.419859
0.416882
0.413745
0.410608
0.408771
0.406026
0.403385
0.400146
0.396592
0.393478
0.390433
0.387546
0.384852
0.382269
0.38047
0.375523
0.371193
0.367681
0.364947
0.362041
0.359614
0.356814
0.43296
0.432685
0.432102
0.428642
0.426052
0.424001
0.421751
0.418825
0.415734
0.412742
0.410492
0.408103
0.405509
0.402414
0.398883
0.395714
0.39254
0.390026
0.387469
0.384149
0.381544
0.377921
0.374263
0.371547
0.368764
0.366149
0.441691
0.438544
0.436062
0.43438
0.433278
0.429743
0.427181
0.425664
0.423395
0.420786
0.417558
0.414416
0.41193
0.409887
0.407663
0.404299
0.400901
0.397301
0.394829
0.392235
0.38928
0.386066
0.382997
0.379069
0.373214
0.373121
0.442649
0.441479
0.438981
0.436986
0.435314
0.434746
0.430951
0.427956
0.427195
0.425288
0.422327
0.41894
0.415347
0.413381
0.411312
0.409081
0.406146
0.402845
0.398615
0.396311
0.393257
0.390182
0.387234
0.384003
0.379296
0.450116
0.447565
0.4449
0.442201
0.439567
0.437287
0.435913
0.43535
0.432001
0.429197
0.427932
0.426797
0.423514
0.419645
0.416567
0.415272
0.41411
0.410671
0.407557
0.404955
0.401279
0.397886
0.395397
0.392495
0.387
0.454861
0.451736
0.44917
0.446231
0.443636
0.440983
0.438268
0.436466
0.435642
0.432925
0.430548
0.42864
0.42709
0.424
0.419851
0.417434
0.416523
0.416225
0.412058
0.408961
0.405915
0.402594
0.398286
0.396128
0.396333
0.458446
0.457858
0.456355
0.453244
0.450631
0.448028
0.445319
0.4427
0.440012
0.438
0.436664
0.434264
0.432105
0.430285
0.428533
0.425464
0.421053
0.41797
0.416862
0.415973
0.413492
0.410756
0.407479
0.405227
0.400819
0.462656
0.461072
0.459498
0.458289
0.45483
0.452194
0.449899
0.447189
0.444327
0.441678
0.439123
0.437042
0.435168
0.433361
0.432108
0.430482
0.42768
0.423994
0.4206
0.418594
0.416842
0.414461
0.412482
0.410504
0.407518
0.468887
0.467495
0.464598
0.462657
0.461088
0.460262
0.457096
0.454084
0.451994
0.449294
0.446406
0.443531
0.440723
0.438018
0.435946
0.433852
0.432471
0.431061
0.42896
0.426428
0.42327
0.420986
0.41898
0.416223
0.412436
0.473771
0.471458
0.468582
0.465769
0.463515
0.461921
0.461519
0.45912
0.456346
0.453881
0.451513
0.448808
0.445691
0.442394
0.439368
0.436945
0.434526
0.43284
0.431341
0.429511
0.427574
0.425352
0.424067
0.418594
0.481689
0.477106
0.474662
0.472546
0.469848
0.466914
0.46406
0.46235
0.46134
0.459698
0.45755
0.45517
0.452901
0.450733
0.447672
0.444253
0.441057
0.438482
0.436094
0.4344
0.4324
0.430269
0.42863
0.426325
0.424741
0.483497
0.480994
0.47919
0.476716
0.474052
0.471212
0.468602
0.465494
0.46329
0.461566
0.459881
0.458624
0.457044
0.454811
0.452624
0.449408
0.44593
0.442622
0.439961
0.437815
0.435975
0.433822
0.431736
0.429698
0.491521
0.487779
0.485399
0.483012
0.480493
0.478266
0.475883
0.47317
0.47038
0.467303
0.464915
0.462779
0.460595
0.459138
0.458065
0.456635
0.454727
0.451661
0.448161
0.444749
0.441701
0.439731
0.43744
0.434643
0.432104
0.494967
0.492497
0.489847
0.486917
0.484265
0.482079
0.479808
0.477401
0.474778
0.472329
0.469395
0.466833
0.464592
0.462094
0.46001
0.458283
0.457043
0.455807
0.453179
0.450037
0.446657
0.444145
0.441432
0.438844
0.502449
0.499279
0.496659
0.493972
0.49135
0.488259
0.485631
0.483576
0.481571
0.479078
0.476382
0.473928
0.471161
0.468868
0.466745
0.464267
0.461689
0.459405
0.457508
0.456462
0.454124
0.451381
0.447805
0.446726
0.447013
0.504893
0.503205
0.501117
0.498638
0.495839
0.492936
0.489767
0.487003
0.484896
0.483065
0.480949
0.478278
0.47539
0.472679
0.470606
0.468879
0.466656
0.463866
0.461116
0.459372
0.457515
0.455336
0.453262
0.449884
0.50757
0.506629
0.504698
0.502982
0.500624
0.497668
0.49457
0.49148
0.48868
0.486422
0.484568
0.482734
0.480338
0.477553
0.474775
0.472173
0.470654
0.468777
0.465843
0.463158
0.461195
0.45903
0.457401
0.456359
0.513903
0.511871
0.509772
0.508197
0.506616
0.504742
0.502345
0.499458
0.496302
0.493298
0.490483
0.488028
0.485963
0.484056
0.481774
0.479233
0.476669
0.473919
0.472043
0.47071
0.468158
0.465187
0.462492
0.459917
0.459694
0.516172
0.514945
0.512877
0.511018
0.509821
0.508092
0.506233
0.504026
0.501227
0.498083
0.495084
0.492272
0.489667
0.487375
0.485272
0.483085
0.480771
0.478385
0.475823
0.473443
0.471702
0.469825
0.468572
0.466299
0.521635
0.517349
0.516223
0.513904
0.512499
0.511534
0.509524
0.507663
0.505605
0.502988
0.499873
0.496793
0.493948
0.491279
0.488853
0.48662
0.484495
0.482345
0.480061
0.477739
0.47551
0.472927
0.471017
0.468433
0.525239
0.522678
0.519895
0.51726
0.514712
0.513101
0.512562
0.511045
0.509099
0.507162
0.504782
0.501797
0.498645
0.49579
0.493122
0.490665
0.488311
0.486149
0.484064
0.481746
0.479538
0.477895
0.476865
0.531594
0.529807
0.527403
0.524467
0.522108
0.519289
0.516356
0.514172
0.513179
0.511917
0.510173
0.508417
0.50648
0.503886
0.500778
0.497757
0.495161
0.492784
0.490521
0.488328
0.486001
0.483896
0.481197
0.477173
0.534218
0.532866
0.530838
0.528543
0.52611
0.523897
0.521547
0.518891
0.516112
0.514312
0.512909
0.51123
0.509542
0.507791
0.505641
0.502915
0.499848
0.497179
0.494698
0.492387
0.490378
0.487935
0.487004
0.48302
0.539329
0.536586
0.534838
0.532511
0.53024
0.527883
0.525532
0.52342
0.521332
0.518674
0.516241
0.514401
0.512577
0.510864
0.509147
0.507089
0.504572
0.501719
0.499236
0.496704
0.494209
0.492096
0.489039
0.545075
0.541881
0.540536
0.538363
0.536381
0.534275
0.532019
0.529554
0.527017
0.524926
0.5232
0.520821
0.518323
0.51601
0.514039
0.512247
0.510433
0.508442
0.506089
0.503427
0.500912
0.498742
0.4969
0.492105
0.550382
0.546212
0.543764
0.541884
0.539836
0.537855
0.535981
0.533787
0.531269
0.528621
0.526335
0.524713
0.52277
0.520389
0.517818
0.515547
0.513604
0.511659
0.509848
0.50775
0.505108
0.502915
0.500067
0.500891
0.550807
0.549981
0.547758
0.545522
0.543424
0.541307
0.539287
0.537532
0.535516
0.533168
0.53064
0.528206
0.526262
0.524552
0.522506
0.519945
0.517296
0.515236
0.513026
0.511148
0.509282
0.507021
0.504892
0.501908
0.555433
0.553637
0.551428
0.548819
0.546745
0.544789
0.542732
0.540702
0.538964
0.53725
0.534997
0.532662
0.530277
0.528029
0.526275
0.524484
0.522122
0.519243
0.517003
0.514861
0.512662
0.510505
0.509028
0.560014
0.560621
0.557578
0.555556
0.553309
0.550811
0.548264
0.546083
0.544058
0.542096
0.540393
0.538788
0.536757
0.534377
0.532233
0.529856
0.527848
0.526042
0.523922
0.521239
0.518576
0.516697
0.514665
0.512288
0.568123
0.56306
0.561579
0.559622
0.557419
0.555218
0.55287
0.550402
0.547976
0.545767
0.543691
0.541881
0.540186
0.538582
0.536366
0.534122
0.531921
0.529744
0.52765
0.525623
0.523204
0.520771
0.518234
0.516757
0.569594
0.567959
0.565779
0.563678
0.561369
0.559157
0.556943
0.554724
0.552437
0.550201
0.548034
0.545827
0.543653
0.541705
0.540041
0.538193
0.536225
0.534171
0.531764
0.529377
0.527135
0.524238
0.521889
0.574479
0.572014
0.569485
0.567535
0.565484
0.563258
0.560902
0.558553
0.556378
0.554199
0.55221
0.550372
0.548377
0.545901
0.543501
0.541695
0.540012
0.538221
0.536259
0.533842
0.531353