/*--------------------------------*- C++ -*----------------------------------*\
  =========                 |
  \\      /  F ield         | OpenFOAM: The Open Source CFD Toolbox
   \\    /   O peration     | Website:  https://openfoam.org
    \\  /    A nd           | Version:  8
     \\/     M anipulation  |
\*---------------------------------------------------------------------------*/
FoamFile
{
    version     2.0;
    format      ascii;
    class       volScalarField;
    location    "20";
    object      p;
}
// * * * * * * * * * * * * * * * * * * * * * * * * * * * * * * * * * * * * * //

dimensions      [0 2 -2 0 0 0 0];

internalField   nonuniform List<scalar> 
404911
(
7.80928
7.7996
7.79977
7.80614
7.81887
7.80722
7.80214
7.804
7.80509
7.80576
7.91868
7.88725
7.85322
7.83459
7.81882
7.8089
7.95877
7.93203
7.89756
7.86791
8.01394
7.98652
7.95239
8.0741
8.04664
8.02275
8.13209
8.10524
8.08187
8.20792
8.18398
8.15719
8.13008
8.10253
8.23503
8.21092
8.1814
8.31932
8.2927
8.26286
8.23966
8.36058
8.34147
8.31763
8.29235
8.26952
8.38722
8.36482
8.34146
8.3164
8.43464
8.41438
8.38705
8.36042
8.44283
8.43226
8.66403
7.77259
7.80333
7.78818
7.88313
7.85306
7.95922
7.92956
7.89879
8.01327
7.98527
7.95259
8.07397
8.04237
8.12797
8.10288
8.07926
8.18179
8.15416
8.12241
8.09689
8.23424
8.20848
8.29466
8.26735
8.34707
8.3226
8.29565
8.39848
8.37771
8.45236
8.42605
8.39264
8.46804
8.44833
8.65506
8.67565
8.65312
8.7551
8.72782
8.70304
8.80868
8.78462
8.75051
8.86112
8.83924
8.81304
8.85806
3.39935
3.35721
3.31894
3.588
3.54622
3.49256
3.45734
3.41971
3.38246
3.35329
3.30283
3.68687
3.6532
3.56762
3.5136
3.46919
3.4395
3.40343
3.36889
3.21786
3.81126
3.77374
3.73905
3.70568
3.67398
3.65117
3.60181
3.54127
3.49399
3.46229
3.42669
3.38604
3.32845
3.26706
3.22653
3.19536
3.91038
3.86845
3.82678
3.78859
3.75397
3.72091
3.68895
3.65825
3.62706
3.57243
3.52898
3.48877
3.45268
3.41233
3.23397
4.02369
3.97605
3.92777
3.88143
3.83776
3.80062
3.76618
3.73362
3.70131
3.66842
3.63026
3.58962
3.55036
3.51262
3.48336
4.09151
4.05456
4.00195
3.95159
3.90558
3.85523
3.8139
3.7776
3.74746
3.71679
3.68281
3.64709
3.60829
3.5698
3.5319
3.49955
4.20985
4.16318
4.11886
4.07393
4.02548
3.98061
3.93264
3.87924
3.83232
3.79224
3.76463
3.73288
3.69938
3.66394
3.62697
3.58919
3.55152
4.36614
4.32255
4.28505
4.23672
4.19228
4.14604
4.09771
4.05311
4.00571
3.95913
3.90107
3.85532
3.81595
3.78449
3.75191
3.71748
3.68312
3.64608
4.44264
4.40192
4.35175
4.30768
4.26406
4.21739
4.17421
4.12752
4.07764
4.03161
3.98331
3.92714
3.86974
3.83783
3.80606
3.77207
3.73691
3.70303
4.55355
4.51309
4.4745
4.43474
4.38294
4.3365
4.29134
4.24696
4.20047
4.15227
4.10337
4.05752
4.01154
3.95789
3.90039
3.85775
3.82795
3.79572
4.62235
4.58107
4.54082
4.50159
4.45951
4.41024
4.36634
4.31898
4.27347
4.22886
4.18108
4.13205
4.08286
4.03608
3.99726
3.93641
3.88507
4.72561
4.68856
4.64853
4.61098
4.57036
4.52799
4.48393
4.43861
4.3956
4.34716
4.30079
4.25478
4.2088
4.16104
4.11107
4.06175
4.02921
4.82227
4.78126
4.74691
4.71802
4.68401
4.64258
4.60027
4.5571
4.51573
4.47181
4.42729
4.37555
4.32629
4.27969
4.24129
4.18985
4.13552
4.09318
4.94139
4.91066
4.85598
4.80511
4.76698
4.74733
4.71336
4.6703
4.62652
4.58477
4.55105
4.50516
4.45411
4.40224
4.35318
4.29762
4.2621
4.21855
5.02676
4.99788
4.96873
4.94576
4.89494
4.83649
4.79123
4.7703
4.74576
4.70067
4.65371
4.6097
4.57884
4.53997
4.48
4.42624
4.38186
4.32814
5.08468
5.04955
5.01823
4.98958
4.96404
4.92351
4.86844
4.82813
4.79334
4.76532
4.72007
4.66827
4.63081
4.60577
4.56701
4.50382
4.44245
4.40449
5.17859
5.1435
5.1058
5.06961
5.03607
5.00445
4.97418
4.94863
4.90557
4.86225
4.82651
4.79186
4.74558
4.68969
4.64911
4.62775
4.5931
4.53023
5.24308
5.20038
5.1661
5.13133
5.08963
5.05081
5.02755
4.98725
4.95451
4.92332
4.89151
4.86546
4.82004
4.77419
4.72299
4.67438
4.64492
4.61213
5.36546
5.33392
5.28106
5.23251
5.1939
5.16147
5.12326
5.08003
5.04511
5.00486
4.96794
4.94109
4.91466
4.88909
4.85881
4.80655
4.75225
4.70701
5.42434
5.39553
5.37266
5.32496
5.27508
5.23403
5.19685
5.15669
5.11225
5.07123
5.02343
4.98513
4.96063
4.9329
4.90377
4.86985
4.82828
5.50574
5.47621
5.44728
5.41773
5.39085
5.35938
5.31094
5.27061
5.2296
5.18484
5.14085
5.09743
5.0511
5.00956
4.98406
4.95446
4.92296
4.89032
5.55948
5.52974
5.49865
5.46996
5.43879
5.41299
5.37881
5.33951
5.30426
5.27069
5.22284
5.1776
5.12891
5.07808
5.03912
5.00845
4.97838
4.9456
5.61019
5.58169
5.55332
5.52419
5.48899
5.45553
5.43024
5.39636
5.36004
5.3328
5.30619
5.26303
5.2117
5.16216
5.11266
5.07328
5.03596
5.00503
5.69156
5.66185
5.633
5.60442
5.57639
5.54843
5.52311
5.479
5.44298
5.40931
5.37692
5.3479
5.31957
5.29175
5.24769
5.18998
5.14539
5.10423
5.76848
5.74187
5.71296
5.68325
5.65554
5.6268
5.59807
5.56769
5.53998
5.5064
5.4679
5.43095
5.38895
5.36459
5.33578
5.30419
5.26217
5.21877
5.81893
5.79005
5.76219
5.73375
5.7054
5.67745
5.65067
5.62528
5.58706
5.5513
5.52045
5.49196
5.4565
5.41334
5.3843
5.3555
5.32438
5.28557
5.89465
5.86773
5.83904
5.8106
5.78139
5.75344
5.72574
5.69894
5.67378
5.65067
5.61872
5.58068
5.54524
5.50941
5.48001
5.44093
5.40626
5.37828
5.94433
5.9147
5.88651
5.85902
5.82958
5.80053
5.77263
5.74549
5.71911
5.69403
5.6693
5.64066
5.60637
5.5716
5.53464
5.50368
5.46828
5.43418
5.9951
5.96316
5.93281
5.90567
5.87805
5.84852
5.81851
5.79086
5.76461
5.73849
5.71237
5.68577
5.65634
5.62377
5.59021
5.55706
5.52396
5.49022
6.0518
6.02221
5.98417
5.95034
5.92628
5.89977
5.8666
5.83527
5.80861
5.78354
5.7579
5.73131
5.70376
5.67396
5.64363
5.61015
5.57734
5.54717
6.1278
6.10118
6.07685
6.05411
6.01558
5.97597
5.95172
5.92861
5.89551
5.85496
5.8292
5.80414
5.77847
5.75147
5.72365
5.69417
5.66311
5.63037
6.18151
6.15205
6.12328
6.09512
6.06664
6.03397
6.00286
5.97681
5.95514
5.92778
5.88648
5.85382
5.82714
5.80055
5.77287
5.74521
5.71681
5.68656
6.23144
6.20366
6.17501
6.14527
6.11443
6.08178
6.04972
6.02181
5.99654
5.97257
5.94518
5.91306
5.88049
5.85126
5.82293
5.79536
5.76864
5.74076
6.28257
6.2544
6.22646
6.19717
6.16963
6.13983
6.09829
6.06451
6.03919
6.01466
5.98985
5.9632
5.93393
5.90332
5.87421
5.84569
5.81767
6.36363
6.33639
6.30694
6.2776
6.24782
6.21861
6.19242
6.16951
6.12514
6.08432
6.05815
6.03355
6.00884
5.98273
5.95498
5.92599
5.89674
5.86775
6.4148
6.38731
6.3602
6.33207
6.30134
6.26922
6.23605
6.20993
6.19025
6.15378
6.10706
6.07877
6.05368
6.02929
6.00362
5.97681
5.94924
5.91991
6.46298
6.43674
6.41072
6.38437
6.35772
6.32796
6.29265
6.25828
6.223
6.20146
6.17798
6.13712
6.10042
6.07606
6.05088
6.02571
5.99888
5.97274
6.53479
6.50866
6.48447
6.45908
6.43387
6.40882
6.38506
6.36228
6.32162
6.28509
6.24683
6.22253
6.20396
6.16907
6.12785
6.10088
6.07469
6.04806
6.58187
6.55602
6.5313
6.50656
6.48116
6.45644
6.43233
6.40984
6.39008
6.35004
6.31172
6.26939
6.24117
6.21765
6.19002
6.15841
6.1268
6.09786
6.63116
6.60446
6.57839
6.55304
6.52792
6.50296
6.47838
6.45404
6.4306
6.40608
6.37736
6.34156
6.3016
6.26228
6.23858
6.21185
6.18343
6.15337
6.67949
6.65307
6.62695
6.60066
6.57485
6.54958
6.52498
6.50055
6.47502
6.44865
6.42276
6.39691
6.36602
6.32634
6.28886
6.26301
6.23546
6.20864
6.72799
6.70257
6.67507
6.64877
6.62214
6.59605
6.57091
6.54748
6.5243
6.49832
6.46834
6.43998
6.41618
6.39024
6.35121
6.32005
6.29053
6.79912
6.77571
6.75028
6.72363
6.69716
6.67039
6.64302
6.61643
6.5914
6.56914
6.54829
6.52667
6.49638
6.4619
6.43041
6.40722
6.37683
6.34709
6.84638
6.82102
6.79687
6.7727
6.74617
6.72014
6.69309
6.6635
6.63521
6.61068
6.58939
6.56932
6.54936
6.52909
6.49037
6.45436
6.42883
6.40074
6.89404
6.86846
6.84301
6.81856
6.79334
6.76863
6.74448
6.72165
6.68526
6.65306
6.63062
6.60962
6.58844
6.56648
6.54127
6.51113
6.48018
6.45258
6.94182
6.91563
6.8902
6.86442
6.83936
6.81435
6.7902
6.76761
6.74743
6.72198
6.6858
6.65465
6.63157
6.60856
6.58452
6.55876
6.53152
6.50366
6.99207
6.96454
6.93771
6.9114
6.88566
6.86001
6.83463
6.81035
6.78733
6.76522
6.74032
6.71142
6.68174
6.65545
6.63058
6.6054
6.57783
6.55203
7.04414
7.01488
6.98664
6.95891
6.93251
6.90647
6.88014
6.8541
6.82916
6.80561
6.78254
6.75853
6.73249
6.70548
6.67904
6.65295
6.62679
6.60002
7.09616
7.06811
7.03719
7.00669
6.97909
6.95309
6.92721
6.89992
6.87278
6.84691
6.82362
6.80106
6.77784
6.75325
6.72778
6.70201
6.67624
6.64909
7.14569
7.12081
7.094
7.05813
7.02594
6.99916
6.97354
6.94941
6.9197
6.89169
6.8654
6.84208
6.82098
6.79858
6.77484
6.7501
6.72461
6.69967
7.21815
7.19532
7.17012
7.1466
7.1241
7.0982
7.05293
7.02559
6.99615
6.97317
6.95215
6.91836
6.88527
6.86462
6.84299
6.82063
6.79717
6.77357
6.74748
7.26603
7.24213
7.21835
7.19345
7.17115
7.14983
7.1312
7.09216
7.05464
7.02108
6.99281
6.97555
6.95052
6.91925
6.89107
6.86691
6.84384
6.82008
7.28988
7.26531
7.24128
7.21697
7.1933
7.17123
7.1473
7.11716
7.08748
7.05442
7.02253
6.99551
6.97258
6.94594
6.91813
6.89221
6.86717
7.3622
7.33678
7.31298
7.28843
7.26377
7.2388
7.21417
7.19138
7.16905
7.14771
7.11264
7.07969
7.04951
7.01776
6.99527
6.96961
6.94351
6.91731
7.40984
7.38418
7.3599
7.33583
7.31125
7.2864
7.26054
7.23418
7.21046
7.18957
7.17061
7.13771
7.10481
7.07382
7.04602
7.02014
6.9937
6.96734
7.45512
7.42999
7.40599
7.38221
7.35839
7.33442
7.31043
7.28425
7.25407
7.22914
7.20885
7.19218
7.16351
7.1298
7.09915
7.07212
7.04518
7.01901
7.47444
7.45034
7.42739
7.40463
7.38112
7.35757
7.33486
7.31139
7.28066
7.24621
7.22818
7.20779
7.1827
7.15397
7.12501
7.09687
7.07065
7.53694
7.49745
7.46925
7.45002
7.42746
7.40373
7.37964
7.35718
7.33442
7.30872
7.27333
7.24969
7.22709
7.20227
7.1759
7.14862
7.12164
7.65044
7.61158
7.57123
7.53143
7.49801
7.47534
7.45164
7.42629
7.40078
7.37756
7.35895
7.33159
7.29765
7.27308
7.24878
7.22396
7.19754
7.17143
7.69739
7.67605
7.64374
7.60231
7.56238
7.52806
7.50187
7.47769
7.45134
7.42014
7.39352
7.379
7.35714
7.32525
7.29754
7.27131
7.24657
7.74593
7.72058
7.69133
7.65981
7.62378
7.5835
7.55191
7.52675
7.50331
7.48099
7.45427
7.42277
7.40099
7.37668
7.34962
7.32165
7.29498
7.82525
7.797
7.76894
7.74354
7.71452
7.67971
7.64742
7.61312
7.57915
7.55114
7.5244
7.50633
7.48208
7.45519
7.42621
7.40067
7.37425
7.34623
7.87652
7.84683
7.81861
7.79199
7.76718
7.74255
7.7159
7.68553
7.64889
7.60977
7.58509
7.55407
7.5229
7.49996
7.47478
7.45069
7.42551
7.39938
7.9331
7.8984
7.86761
7.84181
7.81399
7.79432
7.77281
7.75212
7.72012
7.68365
7.64888
7.61958
7.58929
7.55602
7.5201
7.49848
7.47553
7.4502
7.99194
7.9651
7.93001
7.89722
7.8701
7.84548
7.82285
7.80116
7.77575
7.75439
7.71732
7.68543
7.65686
7.62605
7.59317
7.55591
7.52756
7.50209
8.07245
8.04711
8.01731
7.98996
7.95839
7.92674
7.89998
7.87311
7.85198
7.82559
7.8026
7.77817
7.75177
7.72093
7.69152
7.66397
7.63398
7.59092
7.55773
8.12329
8.09694
8.06986
8.04314
8.01521
7.98319
7.95435
7.92294
7.8985
7.87267
7.84866
7.82329
7.7991
7.77273
7.74352
7.7129
7.68514
7.65455
7.62048
8.14924
8.12198
8.09419
8.06891
8.04029
8.0111
7.98137
7.94845
7.923
7.89644
7.87203
7.84705
7.82139
7.79469
7.76609
7.73643
7.70642
7.67803
8.21011
8.17928
8.15037
8.12203
8.09717
8.07144
8.04215
8.01097
7.97739
7.94911
7.91714
7.89554
7.87091
7.84515
7.81814
7.78991
7.76106
8.27364
8.24096
8.20961
8.17973
8.15339
8.12508
8.09733
8.07802
8.04011
8.00513
7.97446
7.94995
7.92167
7.89609
7.86991
7.84235
7.81378
8.34084
8.30075
8.27103
8.23888
8.20759
8.18084
8.15303
8.12132
8.0975
8.06746
8.03302
8.00218
7.97466
7.94775
7.92253
7.89538
7.86773
8.43871
8.40638
8.3732
8.33706
8.30045
8.26768
8.23392
8.20817
8.18344
8.15411
8.12381
8.09466
8.05817
8.02881
8.00091
7.97423
7.94756
7.92135
8.49731
8.46901
8.44097
8.4035
8.36642
8.32984
8.30026
8.27163
8.23609
8.20967
8.18069
8.15603
8.12598
8.09234
8.05783
8.02889
8.00036
8.55501
8.52562
8.49583
8.46637
8.42899
8.39202
8.35491
8.32705
8.2978
8.26562
8.23751
8.20546
8.17827
8.14962
8.11792
8.08654
8.05719
8.61232
8.58246
8.55378
8.52531
8.48979
8.45058
8.41515
8.38939
8.35224
8.32341
8.29495
8.26731
8.23645
8.20384
8.17463
8.14342
8.11345
8.67327
8.64124
8.60967
8.57699
8.55279
8.51339
8.47376
8.44739
8.41227
8.38362
8.35479
8.32392
8.29341
8.26164
8.23112
8.2003
8.16945
8.73167
8.69888
8.66909
8.63856
8.60706
8.57541
8.53922
8.49623
8.46688
8.44282
8.41773
8.38611
8.35344
8.3215
8.29019
8.25802
8.2272
8.78873
8.75757
8.72636
8.6944
8.66738
8.64097
8.61143
8.57138
8.53698
8.50068
8.47168
8.44467
8.4141
8.38188
8.34916
8.31919
8.28621
8.81859
8.7814
8.75398
8.72412
8.69652
8.66592
8.63691
8.60165
8.56448
8.52709
8.4975
8.4683
8.43776
8.40729
8.37649
8.34646
8.91098
8.85981
8.81411
8.78362
8.7529
8.72351
8.69351
8.66035
8.62499
8.59214
8.55626
8.52228
8.4926
8.4632
8.43279
9.0269
8.99997
8.95411
8.9023
8.84936
8.81698
8.78503
8.75212
8.71762
8.68406
8.6457
8.61055
8.58017
8.54899
8.51873
8.48927
9.09663
9.06052
9.02393
8.98558
8.93804
8.88436
8.84793
8.81822
8.78397
8.75131
8.71455
8.66855
8.62683
8.60153
8.57523
8.54514
9.16897
9.13535
9.10071
9.05925
9.0147
8.96975
8.92529
8.88832
8.84946
8.81465
8.78158
8.75362
8.70931
8.66014
8.6297
8.60458
9.27712
9.2394
9.20396
9.17257
9.14721
9.10087
9.05604
9.01781
8.9788
8.94349
8.89834
8.85171
8.81075
8.78765
8.75085
8.70647
9.35046
9.30796
9.27174
9.23853
9.20789
9.17689
9.13253
9.08996
9.05426
9.02382
8.98882
8.94565
8.89587
8.8499
8.81286
8.78864
9.4311
9.38109
9.33794
9.30361
9.27006
9.23651
9.20251
9.16604
9.12715
9.09554
9.06781
9.04497
9.00199
8.94928
8.899
8.85325
9.51201
9.46721
9.40761
9.36107
9.33097
9.30218
9.27003
9.22778
9.1935
9.15856
9.13292
9.10446
9.07846
9.04966
8.99779
8.94327
9.59314
9.54932
9.50251
9.45747
9.40655
9.36478
9.33865
9.3075
9.25859
9.22008
9.19127
9.15882
9.13591
9.10804
9.07505
9.0384
9.66764
9.63121
9.59072
9.5463
9.50458
9.46195
9.41808
9.38262
9.34799
9.30104
9.25494
9.22281
9.19663
9.1664
9.13744
9.73732
9.70672
9.67177
9.62687
9.58317
9.54489
9.50456
9.46713
9.42446
9.38793
9.34757
9.29737
9.25613
9.23044
9.20098
9.16974
9.80296
9.76922
9.73877
9.71133
9.66121
9.61947
9.58009
9.54539
9.50908
9.46881
9.42913
9.39396
9.34585
9.29718
9.2661
9.23397
9.85978
9.83305
9.79931
9.76698
9.73535
9.69308
9.65518
9.61897
9.58227
9.54594
9.50869
9.47033
9.43641
9.39001
9.34238
9.90271
9.86656
9.83338
9.79981
9.76467
9.72296
9.68749
9.65369
9.61959
9.58577
9.5439
9.50588
9.46534
9.42467
10.0119
9.962
9.91232
9.87662
9.83609
9.79977
9.75771
9.72576
9.68882
9.65519
9.62204
9.57943
9.54059
10.1098
10.079
10.0398
10.0054
9.95797
9.91738
9.87329
9.83738
9.79747
9.7627
9.7241
9.68497
9.6489
9.60917
10.1792
10.1415
10.1075
10.0728
10.034
9.99206
9.95157
9.91272
9.87115
9.83241
9.79389
9.75751
9.71916
9.6813
10.2515
10.2155
10.1765
10.1315
10.106
10.0694
10.028
9.98843
9.94802
9.90804
9.86681
9.8258
9.79124
9.75479
10.3174
10.286
10.2536
10.2144
10.1732
10.1358
10.1055
10.0671
10.0238
9.98361
9.95012
9.90436
9.86389
9.82632
10.3809
10.3487
10.3191
10.292
10.253
10.2162
10.1741
10.1382
10.0965
10.0541
10.0133
9.97855
9.93899
9.89985
10.4474
10.41
10.372
10.3534
10.3274
10.2878
10.2508
10.2175
10.1812
10.1333
10.0781
10.0427
10.0081
10.3842
10.3694
10.3326
10.2822
10.2512
10.2273
10.1776
10.1154
10.0756
10.4161
10.398
10.3702
10.3185
10.2778
10.2517
10.2139
10.1627
10.4926
10.4425
10.4262
10.4082
10.3629
10.3156
10.2791
10.5979
10.5478
10.4945
10.4543
10.432
10.3949
10.3528
10.5935
10.5532
10.5059
10.4673
10.4288
10.7521
10.6884
10.6166
10.5869
10.5458
10.5047
11.0475
11.0151
10.867
10.8093
10.6259
11.0664
11.0214
10.9845
10.95
10.9156
10.7236
11.1488
10.9674
10.9326
10.9008
10.8451
11.1882
11.0856
10.9922
0.937267
0.882693
0.842531
1.23737
1.18135
1.12728
1.07109
1.01416
0.957
0.9015
0.854413
0.63987
1.48322
1.4266
1.37156
1.31456
1.2586
1.20121
1.1452
1.08916
1.0311
0.97208
0.913294
0.858805
0.801086
0.733494
0.670262
1.67491
1.61742
1.56186
1.50342
1.44735
1.38891
1.33229
1.27678
1.22141
1.16525
1.10781
1.04497
0.982456
0.922827
0.865774
0.809194
0.748358
0.681908
0.618142
0.534825
0.445307
0.355462
1.88518
1.82556
1.75845
1.69843
1.6377
1.57991
1.52336
1.46558
1.40714
1.34931
1.29389
1.24031
1.1865
1.13225
1.07432
0.997126
0.925878
0.873537
0.819481
0.761927
0.697688
0.626177
0.548416
2.08352
2.0324
1.97681
1.91481
1.84812
1.77951
1.71479
1.65454
1.59883
1.54312
1.48504
1.42402
1.36406
1.30881
1.25619
1.2082
1.164
1.10999
1.0109
0.931907
0.883973
0.832494
0.775657
0.713916
0.645654
2.22072
2.16246
2.11102
2.05928
2.00623
1.9449
1.87764
1.80008
1.73008
1.66657
1.61784
1.56579
1.50947
1.43865
1.3716
1.32055
1.27191
1.22606
1.18509
1.13149
1.0304
0.949223
0.90096
0.848202
0.792054
2.39244
2.31071
2.23393
2.19018
2.14077
2.08466
2.03346
1.99432
1.92916
1.84398
1.76088
1.68352
1.63959
1.59361
1.55362
1.47196
1.38087
1.3298
1.28542
1.23982
1.19253
1.14699
1.0564
0.977913
0.923914
2.56271
2.49343
2.4178
2.33684
2.26412
2.21811
2.17399
2.11494
2.05591
2.02228
1.97253
1.89081
1.80525
1.72477
1.66293
1.62009
1.58736
1.50434
1.40649
1.34744
1.30119
1.25242
1.20025
1.1414
1.07207
2.78805
2.74819
2.67463
2.59552
2.52107
2.43996
2.36709
2.30128
2.24495
2.19984
2.14507
2.08239
2.04479
2.01007
1.94183
1.86536
1.7763
1.69499
1.64812
1.59765
1.52451
1.42626
1.37233
1.31953
1.26593
1.21455
2.95144
2.90717
2.86017
2.81885
2.76285
2.69569
2.62594
2.53968
2.47612
2.4031
2.3395
2.2671
2.21206
2.16391
2.10724
2.06148
2.01618
1.96486
1.90527
1.82601
1.73837
1.67133
1.60003
1.52433
1.46159
1.3954
1.34055
3.01916
2.97854
2.92795
2.88643
2.84328
2.78479
2.70501
2.65275
2.56953
2.5001
2.43526
2.37178
2.30222
2.23532
2.17591
2.1268
2.08065
2.03413
1.98446
1.92844
1.86512
1.78879
1.70563
1.63375
1.5408
3.23502
3.19335
3.12798
3.06353
3.00666
2.95418
2.91259
2.86231
2.80591
2.74187
2.67933
2.60816
2.53689
2.46821
2.398
2.33237
2.26231
2.19368
2.1477
2.10184
2.05492
2.00986
1.95936
1.91029
1.82889
3.31485
3.25133
3.21078
3.15915
3.10257
3.05879
2.98585
2.94166
2.88716
2.82994
2.77039
2.71787
2.63894
2.56899
2.49815
2.42742
2.35755
2.28685
2.21521
2.17008
2.12551
2.07864
2.03276
1.98472
3.47934
3.44265
3.41262
3.35349
3.28351
3.2363
3.19028
3.13911
3.08595
3.02338
2.96983
2.91536
2.85761
2.79197
2.74833
2.67289
2.59983
2.53216
2.45707
2.38139
2.3124
2.24273
2.19568
2.1492
2.10194
3.58129
3.54027
3.50158
3.46406
3.4251
3.37877
3.32304
3.27461
3.22664
3.17779
3.11712
3.06039
3.00106
2.94338
2.89178
2.84398
2.77162
2.70507
2.63664
2.56965
2.49606
2.41064
2.32648
2.27161
2.21972
3.67848
3.64064
3.60141
3.56441
3.521
3.47985
3.44191
3.39936
3.35682
3.31296
3.27481
3.21422
3.15363
3.09175
3.02722
2.9794
2.9176
2.87682
2.80945
2.74392
2.67487
2.60698
2.53621
2.45437
2.37021
3.81161
3.77534
3.73706
3.6994
3.66339
3.62855
3.58646
3.545
3.49535
3.45576
3.41889
3.38111
3.34331
3.31003
3.24028
3.18493
3.1277
3.05898
3.02009
2.9594
2.8904
2.84276
2.77943
2.70517
2.64089
2.56989
3.91538
3.87688
3.83437
3.79395
3.75674
3.72147
3.68574
3.65216
3.61434
3.56594
3.51054
3.47333
3.43753
3.40256
3.36694
3.31942
3.25508
3.2047
3.17062
3.10214
3.04912
3.00838
2.94286
2.87404
2.81109
2.7462
4.02469
3.98279
3.939
3.89422
3.85212
3.81188
3.77326
3.73883
3.70478
3.67179
3.63688
3.59517
3.53339
3.49725
3.46123
3.42536
3.38271
3.32884
3.26786
3.22246
3.1776
3.12384
3.08122
3.04308
2.98419
2.91109
2.84566
4.12813
4.08887
4.04679
4.00311
3.95841
3.91236
3.86781
3.82678
3.7874
3.75285
3.72016
3.68829
3.65391
3.61129
3.56486
3.52058
3.48664
3.45133
3.40489
3.35391
3.27292
3.23692
3.19262
3.14698
3.10519
3.06706
3.02862
4.20034
4.15638
4.11233
4.06951
4.02515
3.98013
3.93164
3.88468
3.84149
3.79976
3.76591
3.73435
3.70223
3.66802
3.62976
3.58778
3.54664
3.51167
3.47832
3.44309
3.37499
3.30982
3.2574
3.21422
3.16987
3.12473
4.31383
4.26936
4.22697
4.18118
4.13772
4.09421
4.04877
4.00005
3.9501
3.90108
3.85528
3.81501
3.77882
3.74797
3.716
3.68185
3.64505
3.60692
3.56866
3.53187
3.49477
3.44615
3.39582
3.33719
3.28721
3.23908
4.4216
4.38235
4.33924
4.29769
4.25377
4.20843
4.16392
4.11538
4.07001
4.02348
3.97438
3.92521
3.87484
3.8256
3.79654
3.76377
3.73229
3.69833
3.66204
3.62529
3.58809
3.5497
3.50813
3.464
3.4157
3.36468
4.49389
4.45193
4.40988
4.36647
4.32345
4.27798
4.23201
4.18466
4.13936
4.09491
4.04898
4.00098
3.9515
3.90037
3.8578
3.81661
3.7836
3.75095
3.71743
3.68204
3.64301
3.60697
3.56744
3.52757
3.48362
4.60556
4.56485
4.5224
4.48123
4.43988
4.39514
4.34776
4.30227
4.25758
4.21181
4.16659
4.1215
4.07438
4.02735
3.97915
3.92545
3.88677
3.83876
3.80582
3.77289
3.73693
3.70259
3.66502
3.62838
3.58932
3.54849
4.71178
4.67372
4.6329
4.59386
4.5514
4.51032
4.4678
4.42769
4.37915
4.33129
4.28483
4.23861
4.19331
4.14817
4.10009
4.05247
4.00769
3.95688
3.9021
3.86401
3.82935
3.7968
3.75996
3.72433
3.68606
3.64975
4.81298
4.77667
4.73762
4.69952
4.66043
4.62078
4.57858
4.53743
4.49419
4.45621
4.40727
4.36285
4.31483
4.26722
4.22081
4.17559
4.12815
4.07933
4.03508
3.99203
3.93382
3.89202
3.85574
3.82016
3.78419
3.74588
3.71062
4.87923
4.83949
4.80176
4.76255
4.72549
4.68758
4.64761
4.60692
4.56661
4.52319
4.48163
4.4365
4.39054
4.34333
4.29543
4.24957
4.2054
4.15734
4.1092
4.06444
4.01888
3.96978
3.92325
3.88381
3.84503
3.80973
4.97724
4.94505
4.90734
4.86825
4.82673
4.78591
4.74937
4.71809
4.67911
4.6393
4.59683
4.55456
4.51383
4.46881
4.42259
4.37059
4.32126
4.27687
4.23634
4.18857
4.13583
4.09184
4.04571
3.99993
3.95176
3.91186
5.03595
5.00373
4.97017
4.93781
4.90083
4.85294
4.80264
4.77071
4.74444
4.71281
4.66978
4.62538
4.58361
4.54581
4.50224
4.45024
4.39756
4.34735
4.30415
4.25837
4.213
4.16514
4.12128
4.0732
4.02953
5.13098
5.09449
5.06093
5.02685
4.9955
4.96632
4.93172
4.89079
4.82987
4.79511
4.76974
4.74416
4.70033
4.65116
4.60952
4.57089
4.53467
4.4756
4.42398
4.37606
4.32976
4.28331
4.23866
4.19433
4.14858
5.19296
5.15704
5.12004
5.08544
5.04847
5.01684
4.98943
4.96042
4.92464
4.86583
4.82417
4.79573
4.7639
4.72259
4.67222
4.63115
4.59365
4.56148
4.50051
4.44939
4.40282
4.35574
4.31013
4.26379
4.22293
5.29802
5.2612
5.22023
5.18091
5.14385
5.10796
5.06852
5.03434
5.00592
4.97635
4.94048
4.90067
4.86144
4.82739
4.7876
4.74372
4.68656
4.65549
4.61827
4.58583
4.52612
4.47718
4.43249
4.38543
4.33739
5.36632
5.32963
5.29171
5.24911
5.2068
5.1684
5.13296
5.08983
5.05316
5.01879
4.98614
4.95566
4.92312
4.89077
4.86315
4.82182
4.77164
4.72155
4.68165
4.64446
4.60236
4.55359
4.50785
4.46187
4.41658
5.45797
5.42551
5.39403
5.36109
5.32607
5.27964
5.23266
5.19622
5.15959
5.11844
5.0752
5.03968
4.99904
4.96915
4.94131
4.91547
4.88758
4.84899
4.79799
4.75212
4.70757
4.6702
4.62649
4.57998
4.53702
5.51137
5.48148
5.45169
5.42187
5.39109
5.36026
5.32546
5.27283
5.22933
5.19159
5.15249
5.10826
5.06641
5.01846
4.98743
4.96093
4.93447
4.90313
4.86788
4.82644
4.7813
4.73929
4.69843
4.65354
5.59538
5.56418
5.53514
5.50419
5.47511
5.44566
5.41738
5.38816
5.35748
5.31273
5.2715
5.22939
5.18312
5.13815
5.09378
5.0471
5.01188
4.98335
4.95616
4.92284
4.88719
4.8501
4.80901
4.76861
4.73261
5.64598
5.61726
5.58735
5.55897
5.52784
5.49989
5.46852
5.43764
5.40932
5.3805
5.34228
5.30785
5.27145
5.22397
5.17672
5.12357
5.07713
5.03922
5.00808
4.97984
4.94562
4.90928
4.87414
4.83612
5.72647
5.69668
5.66857
5.63946
5.60967
5.58208
5.55147
5.52241
5.49002
5.4573
5.42754
5.39612
5.36144
5.33135
5.29924
5.26164
5.21398
5.15943
5.11329
5.07342
5.03705
5.00521
4.97115
4.93571
4.89828
5.77562
5.74808
5.71891
5.69118
5.66122
5.63131
5.60438
5.57526
5.54544
5.51598
5.47838
5.44466
5.40998
5.37879
5.3481
5.32012
5.28791
5.24109
5.18953
5.14491
5.10592
5.0672
5.03314
4.99665
5.85488
5.82543
5.79741
5.76853
5.74049
5.71297
5.68375
5.65361
5.62559
5.59707
5.56649
5.53566
5.50292
5.46565
5.42685
5.39445
5.36527
5.33658
5.30365
5.26274
5.21807
5.17496
5.13578
5.09828
5.0614
5.90203
5.87533
5.84667
5.81932
5.78976
5.7607
5.73284
5.7039
5.67553
5.64839
5.62089
5.58991
5.55666
5.52267
5.48849
5.4509
5.41709
5.38516
5.35535
5.32262
5.28433
5.24373
5.20242
5.16356
5.95247
5.9235
5.89555
5.86761
5.8399
5.81016
5.78093
5.75216
5.72413
5.69714
5.67103
5.64569
5.61905
5.58225
5.54534
5.51077
5.47599
5.44174
5.40901
5.37845
5.34358
5.30726
5.2694
5.23069
6.02924
6.00137
5.97467
5.94516
5.91527
5.88673
5.85938
5.82943
5.80026
5.77165
5.74408
5.71739
5.69139
5.66518
5.6377
5.60307
5.56817
5.53419
5.5014
5.46623
5.4348
5.40182
5.366
5.33009
5.29597
6.0819
6.05319
6.02471
5.99653
5.96679
5.93467
5.9066
5.87849
5.84878
5.81885
5.7907
5.76364
5.73685
5.71027
5.68342
5.65395
5.62164
5.58914
5.55552
5.52274
5.48795
5.45794
5.42511
5.39082
6.1362
6.10606
6.07733
6.04862
6.01993
5.98797
5.95321
5.92685
5.89985
5.8688
5.83696
5.80971
5.78351
5.75697
5.7301
5.70232
5.67264
5.64018
5.60926
5.57745
5.54505
5.51212
5.47907
5.44927
6.1878
6.15814
6.12896
6.1009
6.07291
6.04718
6.01391
5.97845
5.95158
5.9255
5.89416
5.85569
5.83098
5.80443
5.77799
5.75091
5.72342
5.69424
5.66216
5.6295
5.59985
5.56687
5.53665
6.26523
6.23587
6.21076
6.18174
6.15155
6.1229
6.09482
6.06663
6.03456
6.00335
5.97637
5.95174
5.92518
5.8861
5.85584
5.82746
5.80002
5.77197
5.74535
5.71633
5.68542
5.65376
5.62312
5.58977
6.31761
6.28903
6.25977
6.23219
6.205
6.17498
6.14549
6.11566
6.08404
6.05244
6.02331
5.99705
5.97159
5.94296
5.91129
5.88053
5.85143
5.82362
5.79467
5.76706
5.73836
5.70812
5.67739
5.64892
6.36918
6.33978
6.31225
6.28273
6.25445
6.22639
6.1975
6.16874
6.13811
6.09959
6.06822
6.04107
6.01568
5.99002
5.96225
5.93315
5.90288
5.87383
5.84602
5.8181
5.78906
5.76042
5.73076
6.44427
6.41662
6.39125
6.36254
6.33551
6.30622
6.2771
6.2479
6.21863
6.19082
6.16347
6.12265
6.08817
6.06106
6.0351
6.00953
5.98268
5.95489
5.92569
5.89572
5.86622
5.84002
5.81121
5.78254
6.49106
6.46609
6.43956
6.41436
6.38644
6.35978
6.33113
6.3009
6.26998
6.23815
6.21041
6.18399
6.15056
6.11132
6.08255
6.0557
6.03038
6.00451
5.97752
5.9494
5.91982
5.89058
5.86232
5.83445
6.53817
6.51261
6.48777
6.46192
6.43627
6.40959
6.38321
6.35541
6.32633
6.29297
6.25579
6.22662
6.2012
6.17543
6.13764
6.10441
6.07759
6.05156
6.02671
5.99879
5.97082
5.94266
5.91362
5.88731
6.58711
6.56012
6.53481
6.50938
6.48453
6.45806
6.43231
6.40712
6.38164
6.3563
6.32113
6.28201
6.24739
6.22273
6.19903
6.16677
6.13173
6.10268
6.07487
6.04909
6.02108
5.99402
5.96491
6.65899
6.63353
6.60874
6.58224
6.55627
6.53099
6.50649
6.48009
6.45472
6.43036
6.40661
6.38456
6.34992
6.30966
6.27139
6.24365
6.21777
6.18903
6.15803
6.12805
6.09793
6.07205
6.04284
6.0146
6.70949
6.68282
6.65694
6.63049
6.60424
6.57845
6.553
6.52798
6.50251
6.47713
6.45223
6.42792
6.40295
6.37427
6.33692
6.2969
6.26599
6.23951
6.21198
6.1825
6.15309
6.12291
6.09617
6.06666
6.75673
6.73111
6.70586
6.68034
6.65298
6.62655
6.60066
6.57488
6.5498
6.52473
6.49947
6.47379
6.44771
6.42084
6.39405
6.36303
6.32431
6.29278
6.26504
6.2362
6.20719
6.17815
6.14743
6.80227
6.77841
6.75278
6.72777
6.70335
6.676
6.64935
6.62295
6.59655
6.57133
6.54695
6.52252
6.49678
6.46918
6.44017
6.41367
6.38524
6.3518
6.32106
6.29166
6.26212
6.23224
6.20286
6.84955
6.82455
6.79966
6.77524
6.74901
6.72417
6.6988
6.67171
6.64446
6.61773
6.59267
6.56933
6.5466
6.5234
6.49608
6.46123
6.43274
6.40542
6.37664
6.34724
6.31742
6.28741
6.25728
6.89824
6.87196
6.84689
6.82125
6.79693
6.77153
6.74537
6.72014
6.69381
6.66586
6.63781
6.61232
6.58959
6.56786
6.54512
6.52088
6.4873
6.45445
6.42726
6.40033
6.37141
6.34242
6.31377
6.94792
6.92106
6.89447
6.8684
6.84287
6.81759
6.79236
6.76734
6.7431
6.71845
6.68916
6.65563
6.63258
6.60974
6.58761
6.56443
6.53845
6.50902
6.47955
6.45195
6.42349
6.39604
6.36673
6.99718
6.96995
6.94311
6.91647
6.89021
6.86447
6.83883
6.81394
6.78925
6.76605
6.74375
6.71964
6.68376
6.65707
6.63196
6.60799
6.58326
6.55737
6.52956
6.50259
6.47563
6.44927
6.42167
7.07381
7.04671
7.02054
6.99284
6.96536
6.93863
6.91199
6.88575
6.86003
6.83496
6.81
6.78627
6.76336
6.73805
6.70979
6.68208
6.6553
6.62965
6.6027
6.57707
6.54925
6.52488
6.49864
7.12425
7.09781
7.07269
7.04504
7.01581
6.98731
6.95992
6.93307
6.90677
6.88072
6.85522
6.83
6.80571
6.78243
6.75778
6.73182
6.7054
6.67881
6.65249
6.62608
6.59971
6.57288
6.54759
7.17262
7.14696
7.1215
7.0958
7.0693
7.0386
7.00859
6.98092
6.9542
6.92814
6.9014
6.87511
6.84925
6.82502
6.80191
6.77792
6.75321
6.72793
6.7019
6.67544
6.6484
6.62215
6.59534
7.22157
7.19614
7.17071
7.14508
7.11986
7.09354
7.06242
7.03013
7.00231
6.97588
6.95078
6.92273
6.89442
6.86743
6.84493
6.82235
6.79911
6.77517
6.75045
6.72476
6.69832
6.67134
6.64452
7.26911
7.24406
7.21859
7.19442
7.16909
7.14454
7.12062
7.09293
7.05576
7.02527
6.99813
6.974
6.94692
6.91582
6.88727
6.86717
6.84443
6.82168
6.7981
6.7727
6.7475
6.72108
6.69487
7.31723
7.29219
7.26717
7.24208
7.21818
7.19421
7.16948
7.14661
7.1242
7.09171
7.05413
7.02174
6.99588
6.97213
6.94667
6.91827
6.89298
6.86804
6.84546
6.82093
6.79553
6.77047
6.74424
7.36542
7.34061
7.31503
7.28985
7.26535
7.2413
7.21639
7.19198
7.16869
7.14331
7.11761
7.08533
7.05174
7.02265
6.99671
6.97157
6.94531
6.91875
6.89326
6.86953
6.84483
6.81922
6.7937
7.41462
7.38809
7.36282
7.33748
7.31247
7.28806
7.2637
7.23877
7.21385
7.18965
7.16541
7.14392
7.11269
7.07934
7.04886
7.02095
6.99555
6.96964
6.9431
6.91842
6.89331
6.86884
6.84297
7.46637
7.43739
7.41036
7.38473
7.35992
7.33525
7.31092
7.28648
7.261
7.23496
7.21029
7.18726
7.16807
7.13859
7.10551
7.07497
7.04648
7.02061
6.99367
6.96607
6.94257
6.91737
6.8937
7.5218
7.48975
7.45868
7.43114
7.40651
7.38256
7.35826
7.33406
7.30977
7.28406
7.25533
7.22964
7.20811
7.18968
7.16243
7.12982
7.0998
7.07096
7.04565
7.01917
6.99258
6.96714
7.61188
7.5796
7.548
7.51091
7.48068
7.4509
7.42758
7.40485
7.38113
7.35734
7.33366
7.30955
7.27834
7.24806
7.22906
7.20623
7.18068
7.15318
7.12507
7.09719
7.07075
7.0443
7.01777
7.66797
7.6396
7.61076
7.57681
7.53685
7.49857
7.47148
7.44963
7.42779
7.40418
7.37994
7.35651
7.334
7.30663
7.2744
7.25143
7.22698
7.20104
7.17562
7.1485
7.12136
7.09526
7.06906
7.72357
7.69564
7.6693
7.64256
7.61121
7.56877
7.52932
7.50012
7.47536
7.45213
7.42745
7.4024
7.37862
7.35718
7.33282
7.30125
7.27443
7.24926
7.2229
7.19698
7.17128
7.14464
7.11887
7.77761
7.74934
7.72185
7.69695
7.67078
7.64299
7.60116
7.56189
7.52954
7.50262
7.478
7.45302
7.42257
7.3983
7.37891
7.35499
7.32602
7.29859
7.27243
7.24648
7.21982
7.19267
7.16694
7.82949
7.80145
7.77312
7.74607
7.72135
7.69405
7.6637
7.62685
7.58776
7.55552
7.5281
7.50321
7.48137
7.45391
7.42548
7.40246
7.37662
7.34979
7.32278
7.29517
7.26992
7.24335