/*--------------------------------*- C++ -*----------------------------------*\
  =========                 |
  \\      /  F ield         | OpenFOAM: The Open Source CFD Toolbox
   \\    /   O peration     | Website:  https://openfoam.org
    \\  /    A nd           | Version:  8
     \\/     M anipulation  |
\*---------------------------------------------------------------------------*/
FoamFile
{
    version     2.0;
    format      ascii;
    class       volScalarField;
    location    "95";
    object      epsilon;
}
// * * * * * * * * * * * * * * * * * * * * * * * * * * * * * * * * * * * * * //

dimensions      [0 2 -3 0 0 0 0];

internalField   nonuniform List<scalar> 
12225
(
285.512
270.711
257.905
243.826
232.442
223.119
216.776
212.727
212.767
214.001
217.31
220.998
228.299
233.005
241.674
247.465
254.793
266.174
52.4882
91.8984
106.961
114.78
124.84
136.851
152.728
170.04
191.295
211.201
235.7
256.018
282.098
300.361
326.98
341.314
370.302
378.615
20.32
34.8644
44.6669
50.4829
55.3886
59.6323
64.6639
69.6873
76.3549
83.2867
91.5613
99.5504
108.452
117.464
126.138
136.527
144.001
157.119
15.3465
19.7005
24.1082
27.5748
30.4933
32.8799
35.1545
37.3107
39.5106
41.9529
44.3673
47.2782
49.7593
53.2008
55.604
59.5774
61.9548
66.5498
14.6502
15.8628
17.3655
19.0768
20.6363
22.0305
23.2455
24.439
25.4468
26.6096
27.5343
28.7874
29.6616
31.0437
31.8857
33.3842
34.2576
35.9327
14.7066
14.8768
15.201
15.868
16.5656
17.2888
17.9232
18.5879
19.1204
19.7408
20.1984
20.8118
21.2219
21.8474
22.2295
22.8751
23.2494
23.9656
14.7421
14.6201
14.6248
14.737
14.9293
15.2199
15.491
15.8105
16.0715
16.3856
16.6207
16.9261
17.1374
17.4385
17.6304
17.9349
18.1123
18.452
14.7626
14.5866
14.4637
14.3813
14.3668
14.3901
14.438
14.5343
14.6187
14.7378
14.8319
14.9589
15.0506
15.1813
15.2676
15.4022
15.484
15.6405
14.7666
14.5908
14.4345
14.2964
14.1849
14.1044
14.0396
14.0067
13.9813
13.9787
13.9812
13.9923
14.005
14.0313
14.0498
14.0836
14.1093
14.1556
14.7663
14.594
14.432
14.2821
14.1429
14.0219
13.9114
13.8192
13.7368
13.6696
13.61
13.5632
13.5181
13.4873
13.4522
13.4353
13.4045
13.4046
14.7658
14.5945
14.4322
14.2803
14.1361
14.0032
13.8781
13.7643
13.6579
13.5626
13.4732
13.3948
13.3193
13.2556
13.1911
13.1406
13.084
13.046
14.7657
14.5943
14.4321
14.2798
14.1353
13.9998
13.8714
13.7517
13.6383
13.5334
13.4337
13.3425
13.2551
13.1765
13.0996
13.0322
12.9642
12.9072
14.7657
14.5941
14.432
14.2794
14.135
13.9989
13.8698
13.7484
13.633
13.5247
13.4216
13.3253
13.2333
13.1478
13.0657
12.99
12.9166
12.8498
14.7657
14.594
14.4318
14.2791
14.1346
13.9983
13.8691
13.7472
13.6314
13.5221
13.4182
13.3201
13.2267
13.1386
13.0546
12.9755
12.8999
12.8288
14.7657
14.5938
14.4317
14.2787
14.1343
13.9977
13.8686
13.7464
13.6307
13.521
13.417
13.3184
13.2247
13.1359
13.0515
12.9713
12.8951
12.8227
14.7657
14.5938
14.4316
14.2785
14.1339
13.9973
13.8681
13.7458
13.63
13.5202
13.4161
13.3174
13.2237
13.1347
13.0501
12.9698
12.8933
12.8206
14.7657
14.5937
14.4315
14.2783
14.1337
13.997
13.8677
13.7453
13.6294
13.5196
13.4155
13.3167
13.2229
13.1338
13.0491
12.9687
12.8922
12.8194
14.7657
14.5937
14.4314
14.2782
14.1336
13.9968
13.8675
13.745
13.6291
13.5192
13.415
13.3161
13.2223
13.1331
13.0484
12.9679
12.8913
12.8185
14.7657
14.5936
14.4314
14.2782
14.1335
13.9967
13.8674
13.7449
13.6289
13.519
13.4148
13.3159
13.222
13.1328
13.0481
12.9675
12.8909
12.818
14.7657
14.5937
14.4314
14.2782
14.1336
13.9968
13.8675
13.745
13.6291
13.5192
13.415
13.3161
13.2223
13.133
13.0484
12.9678
12.8913
12.8184
14.7657
14.5937
14.4315
14.2784
14.1338
13.9971
13.8678
13.7454
13.6295
13.5197
13.4156
13.3169
13.2232
13.1342
13.0498
12.9695
12.8932
12.8207
14.7657
14.5937
14.4316
14.2785
14.1341
13.9975
13.8685
13.7465
13.6313
13.5222
13.4192
13.3216
13.2296
13.1422
13.0599
12.9815
12.908
12.8375
14.7658
14.5937
14.4318
14.2788
14.1354
14.0002
13.8743
13.7561
13.6465
13.5436
13.4487
13.3594
13.2773
13.1995
13.1286
13.0605
12.9992
12.939
14.7655
14.5928
14.4328
14.2844
14.1515
14.0322
13.929
13.8376
13.7594
13.6895
13.6307
13.577
13.5328
13.4905
13.4573
13.4228
13.3985
13.3689
14.7592
14.5932
14.4603
14.3602
14.3029
14.2766
14.2805
14.2921
14.3209
14.3529
14.3955
14.4341
14.4817
14.5208
14.5707
14.6074
14.6596
14.6915
14.7213
14.6911
14.754
14.9176
15.1826
15.461
15.7472
16.0117
16.2716
16.503
16.7347
16.9369
17.1483
17.328
17.5271
17.689
17.883
18.029
14.7477
15.5124
16.5471
17.6842
18.7039
19.5673
20.3361
20.9958
21.6172
22.1638
22.7148
23.2063
23.7332
24.1966
24.722
25.1702
25.7087
26.1468
15.9871
20.9921
25.0236
27.7604
29.7837
31.3576
32.7741
34.0549
35.353
36.6095
37.9632
39.2837
40.7402
42.1223
43.6832
45.1336
46.8289
48.2952
29.9031
47.2177
54.8685
58.6714
61.6101
64.426
67.5701
70.9629
74.7154
78.6839
82.9402
87.288
91.8275
96.356
100.978
105.48
109.996
114.371
165.798
160.075
154.9
149.564
144.48
139.677
135.615
132.107
129.269
126.969
125.314
124.034
123.326
122.804
122.813
122.93
123.235
123.773
4.18745
2.49419
3.66398
4.68512
5.58635
6.38011
7.0713
7.66399
8.16326
8.52093
8.88302
39.5189
41.8361
43.8064
44.7126
43.4431
47.5182
53.6784
58.656
60.1746
55.3751
41.1961
48.0796
54.7753
62.3511
70.7437
79.9981
90.1338
101.136
112.97
125.575
138.882
152.81
167.281
182.209
197.525
213.143
229.016
245.069
261.276
277.576
293.955
310.36
326.793
343.21
359.623
375.989
392.337
408.62
424.878
441.063
457.218
473.294
489.339
505.302
521.237
537.084
552.901
568.625
584.312
599.891
615.435
630.87
646.288
661.597
676.913
692.132
707.385
722.566
737.816
753.027
768.347
783.665
799.136
814.639
830.341
846.109
862.123
878.251
894.676
911.242
928.147
945.217
962.654
980.242
998.206
1016.32
1034.81
1053.47
1072.41
1091.51
1110.66
1129.79
1148.73
1167.32
1185.19
1201.79
1215.87
1225.01
1222.89
1237.63
1271.53
1273.56
1287.15
1318.42
1317.78
1329.51
1357.45
1357.56
1381.08
1378.5
1376.78
1381.63
1387.1
1396.98
1391.29
1387.15
1380.23
1370.42
1358.53
1344.21
1327.56
1308.51
1287.14
1263.47
1237.63
1209.74
1180
1148.62
1115.92
1081.65
1045.63
1008.93
971.662
934.104
896.507
859.017
822.06
786.328
750.577
718.374
694.473
672.691
651.492
630.737
610.46
590.766
571.626
553.216
535.209
517.64
500.84
484.57
468.942
454.018
439.686
425.977
412.933
400.587
388.906
377.82
367.308
357.365
347.978
339.111
330.741
322.851
315.414
308.405
301.793
295.556
289.63
284.047
278.576
273.577
267.997
263.639
256.342
253.058
231.435
8.83318
5.54319
5.23809
5.44425
5.84477
6.3496
6.94654
7.6614
8.57878
9.92272
12.2669
16.981
19.9569
22.2572
24.3585
26.6365
29.6063
32.8584
35.6304
37.3998
38.1794
39.2638
43.6367
48.5276
53.667
59.083
64.7623
70.678
76.8179
83.1099
89.5324
96.0597
102.674
109.355
116.094
122.876
129.698
136.552
143.438
150.355
157.305
164.27
171.248
178.237
185.235
192.242
199.255
206.275
213.298
220.327
227.357
234.389
241.42
248.451
255.477
262.502
269.519
276.53
283.529
290.519
297.492
304.451
311.39
318.317
325.225
332.122
339.002
345.876
352.736
359.598
366.451
373.311
380.168
387.038
393.909
400.798
407.693
414.611
421.54
428.495
435.46
442.452
449.447
456.461
463.464
470.473
477.456
484.423
491.338
498.205
504.967
511.591
518.027
524.223
530.109
535.584
540.524
544.779
548.3
551.469
556.557
562.021
563
572.575
578.311
580.711
586.058
590.63
591.428
597.01
596.041
597.384
599.296
602.619
602.543
602.517
601.057
598.965
595.828
591.969
587.276
581.747
575.36
568.112
559.992
550.997
541.117
530.428
518.988
506.868
494.084
480.646
466.784
452.569
438.095
423.458
408.733
394.019
379.461
364.939
350.914
338.399
326.648
315.299
304.26
293.533
283.142
273.091
263.414
254.075
244.827
235.882
227.283
219.017
211.106
203.535
196.298
189.402
182.858
176.66
170.785
165.22
159.956
154.984
150.291
145.863
141.69
137.759
134.06
130.577
127.305
124.217
121.331
118.574
116.062
113.569
111.413
109.737
109.457
110.852
16.147
9.09778
7.84024
7.65061
7.84428
8.25796
8.84098
9.59552
10.565
11.8299
13.4947
15.606
17.7977
20.0693
22.4998
25.1603
28.0638
31.0822
34.0536
36.9293
39.8676
43.2262
47.2704
51.6004
56.0989
60.7507
65.5508
70.4569
75.3731
80.3764
85.4689
90.6448
95.8959
101.214
106.593
112.028
117.517
123.058
128.646
134.275
139.943
145.643
151.374
157.132
162.916
168.724
174.553
180.401
186.268
192.151
198.048
203.958
209.879
215.809
221.747
227.689
233.634
239.579
245.523
251.461
257.392
263.312
269.22
275.114
280.991
286.849
292.686
298.501
304.29
310.052
315.785
321.488
327.156
332.79
338.384
343.938
349.447
354.912
360.326
365.69
370.997
376.246
381.429
386.545
391.584
396.543
401.414
406.189
410.859
415.418
419.85
424.135
428.25
432.18
435.901
439.398
442.66
445.714
448.649
451.663
455.008
458.259
461.174
465.297
468.377
470.94
473.873
476.332
478.162
480.414
481.448
482.928
484.066
484.807
484.851
484.58
483.712
482.332
480.304
477.681
474.415
470.477
465.841
460.491
454.417
447.617
440.102
431.914
423.089
413.672
403.707
393.245
382.393
371.221
359.803
348.206
336.491
324.722
312.984
301.339
290.008
279.306
269.092
259.224
249.651
240.366
231.383
222.709
214.356
206.312
198.512
190.993
183.775
176.786
170.06
163.616
157.442
151.54
145.924
140.587
135.52
130.713
126.159
121.852
117.78
113.935
110.306
106.885
103.663
100.629
97.7761
95.0907
92.5756
90.202
88.0125
85.9326
84.1098
82.4102
81.73
81.9775
24.5471
13.0867
10.8991
10.3677
10.4255
10.8064
11.4218
12.248
13.2927
14.5797
16.1367
17.9718
20.0518
22.3635
24.9025
27.6559
30.5925
33.663
36.8306
40.0995
43.5242
47.1766
51.0712
55.1319
59.3161
63.606
67.9878
72.4642
77.0685
81.7799
86.5921
91.5042
96.4998
101.569
106.706
111.901
117.143
122.457
127.833
133.267
138.756
144.294
149.879
155.508
161.177
166.883
172.625
178.399
184.204
190.036
195.894
201.776
207.678
213.598
219.535
225.484
231.444
237.41
243.38
249.351
255.319
261.279
267.228
273.163
279.078
284.969
290.831
296.661
302.452
308.199
313.898
319.543
325.127
330.646
336.094
341.465
346.752
351.952
357.058
362.064
366.966
371.758
376.435
380.993
385.427
389.732
393.903
397.937
401.829
405.58
409.184
412.634
415.924
419.05
422.012
424.815
427.476
430.027
432.525
435.034
437.581
440.078
442.534
445.12
447.396
449.478
451.514
453.322
454.894
456.373
457.49
458.47
458.972
459.157
459.11
458.683
457.811
456.474
454.604
452.182
449.167
445.523
441.222
436.242
430.572
424.208
417.154
409.451
401.13
392.232
382.804
372.906
362.619
352.012
341.151
330.101
318.929
307.716
296.553
285.526
274.755
264.371
254.357
244.666
235.277
226.188
217.407
208.942
200.798
192.972
185.44
178.208
171.279
164.63
158.259
152.167
146.308
140.685
135.323
130.205
125.334
120.702
116.306
112.139
108.193
104.459
100.931
97.6009
94.4599
91.4999
88.7142
86.0923
83.6329
81.3221
79.1767
77.1705
75.3784
73.7445
72.6051
72.3534
33.3993
17.4814
14.2725
13.3846
13.3026
13.6457
14.2832
15.1649
16.2785
17.6287
19.2254
21.074
23.1703
25.5037
28.0579
30.8102
33.7338
36.8027
40.0013
43.3294
46.8011
50.4311
54.2186
58.1454
62.1967
66.3647
70.6462
75.0425
79.5579
84.1878
88.9266
93.766
98.7075
103.748
108.885
114.114
119.435
124.843
130.332
135.898
141.537
147.244
153.015
158.846
164.734
170.676
176.667
182.705
188.787
194.91
201.07
207.265
213.492
219.748
226.029
232.332
238.653
244.988
251.334
257.686
264.038
270.386
276.725
283.049
289.351
295.624
301.863
308.06
314.207
320.296
326.32
332.271
338.14
343.918
349.599
355.173
360.632
365.968
371.175
376.245
381.171
385.948
390.569
395.031
399.329
403.459
407.42
411.208
414.824
418.27
421.548
424.656
427.597
430.371
432.985
435.448
437.777
439.997
442.138
444.223
446.252
448.208
450.096
451.924
453.597
455.135
456.559
457.829
458.94
459.906
460.616
460.972
460.991
460.891
460.509
459.784
458.664
457.108
455.065
452.496
449.357
445.611
441.224
436.171
430.437
424.017
416.916
409.162
400.784
391.824
382.331
372.364
361.998
351.298
340.335
329.185
317.932
306.659
295.454
284.397
273.576
263.064
252.875
243.001
233.438
224.191
215.266
206.67
198.409
190.479
182.872
175.585
168.614
161.948
155.578
149.496
143.682
138.125
132.824
127.733
122.879
118.25
113.846
109.662
105.691
101.927
98.364
94.9952
91.8137
88.8123
85.9845
83.3186
80.8152
78.4665
76.2789
74.2444
72.4033
70.7473
69.4238
68.7174
42.1243
21.9939
17.7679
16.5164
16.2896
16.5793
17.2153
18.1221
19.2714
20.6553
22.274
24.1278
26.2128
28.5189
31.031
33.7302
36.5968
39.6139
42.7714
46.066
49.5004
53.0783
56.7998
60.6612
64.6583
68.7885
73.0511
77.4462
81.974
86.6329
91.4206
96.334
101.371
106.531
111.809
117.202
122.709
128.324
134.043
139.86
145.772
151.773
157.859
164.026
170.268
176.583
182.965
189.411
195.917
202.48
209.096
215.76
222.471
229.223
236.012
242.836
249.688
256.565
263.462
270.372
277.29
284.209
291.122
298.022
304.901
311.75
318.56
325.322
332.025
338.66
345.216
351.682
358.047
364.301
370.432
376.429
382.283
387.983
393.519
398.883
404.067
409.063
413.864
418.467
422.866
427.059
431.043
434.818
438.385
441.747
444.908
447.871
450.638
453.218
455.617
457.849
459.925
461.863
463.682
465.394
466.998
468.493
469.882
471.161
472.304
473.317
474.206
474.945
475.554
475.965
476.079
475.887
475.564
475.031
474.225
473.094
471.592
469.673
467.29
464.398
460.95
456.906
452.228
446.889
440.87
434.163
426.773
418.717
410.025
400.737
390.903
380.581
369.842
358.761
347.421
335.909
324.311
312.712
301.194
289.833
278.698
267.844
257.297
247.067
237.162
227.591
218.361
209.479
200.948
192.768
184.934
177.441
170.282
163.448
156.93
150.715
144.79
139.14
133.758
128.62
123.722
119.028
114.55
110.284
106.225
102.37
98.7139
95.2518
91.978
88.886
85.9698
83.2199
80.6358
78.2114
75.9491
73.8481
71.9318
70.2099
68.7611
67.712
50.4438
26.4276
21.2193
19.6057
19.2287
19.4499
20.0625
20.9657
22.1165
23.497
25.1003
26.9224
28.9585
31.2005
33.637
36.2546
39.0401
41.982
45.0732
48.3103
51.6932
55.2233
58.9018
62.729
66.705
70.8299
75.104
79.528
84.1022
88.8261
93.6989
98.7191
103.886
109.196
114.648
120.239
125.966
131.824
137.809
143.917
150.142
156.48
162.925
169.474
176.12
182.86
189.688
196.6
203.593
210.66
217.8
225.006
232.275
239.603
246.985
254.416
261.89
269.403
276.947
284.517
292.106
299.704
307.305
314.898
322.474
330.023
337.533
344.992
352.388
359.709
366.94
374.07
381.083
387.967
394.707
401.291
407.704
413.936
419.972
425.803
431.419
436.81
441.969
446.889
451.566
455.996
460.177
464.107
467.788
471.224
474.42
477.379
480.105
482.608
484.894
486.974
488.86
490.565
492.102
493.481
494.705
495.778
496.709
497.494
498.119
498.591
498.951
499.099
499.02
498.791
498.338
497.679
496.823
495.736
494.379
492.706
490.676
488.244
485.364
481.988
478.072
473.57
468.444
462.663
456.204
449.056
441.221
432.712
423.557
413.793
403.471
392.652
381.415
369.844
358.026
346.053
334.011
321.983
310.049
298.278
286.733
275.462
264.497
253.858
243.559
233.61
224.022
214.799
205.946
197.462
189.343
181.583
174.177
167.114
160.382
153.971
147.865
142.053
136.521
131.253
126.236
121.451
116.877
112.503
108.329
104.354
100.578
96.997
93.6064
90.4007
87.374
84.5195
81.8334
79.312
76.9559
74.7668
72.7595
70.9479
69.3822
68.0729
58.1176
30.6152
24.4807
22.5133
21.9835
22.1265
22.7005
23.5812
24.7117
26.0655
27.6302
29.3991
31.3673
33.5288
35.8764
38.4019
41.097
43.955
46.971
50.1427
53.4698
56.9532
60.5946
64.3955
68.3577
72.4825
76.7715
81.2261
85.8473
90.6357
95.5918
100.715
106.005
111.46
117.079
122.86
128.799
134.893
141.139
147.531
154.065
160.737
167.542
174.474
181.528
188.7
195.984
203.377
210.872
218.466
226.153
233.93
241.791
249.731
257.746
265.83
273.976
282.178
290.43
298.724
307.051
315.402
323.768
332.137
340.497
348.837
357.143
365.401
373.596
381.713
389.736
397.649
405.434
413.076
420.557
427.862
434.973
441.876
448.556
454.999
461.192
467.126
472.788
478.173
483.272
488.082
492.598
496.82
500.747
504.384
507.734
510.799
513.586
516.101
518.353
520.351
522.106
523.628
524.93
526.02
526.904
527.58
528.073
528.392
528.485
528.347
528.071
527.574
526.882
525.991
524.887
523.57
522.032
520.248
518.188
515.815
513.091
509.976
506.427
502.398
497.843
492.719
486.987
480.613
473.572
465.85
457.446
448.37
438.647
428.315
417.43
406.06
394.287
382.197
369.88
357.426
344.92
332.444
320.074
307.877
295.91
284.22
272.84
261.797
251.109
240.788
230.843
221.28
212.103
203.309
194.897
186.861
179.193
171.883
164.92
158.29
151.981
145.979
140.269
134.837
129.669
124.749
120.058
115.571
111.272
107.167
103.261
99.5509
96.0341
92.7054
89.5597
86.5909
83.7947
81.1677
78.7097
76.4229
74.3168
72.4039
70.7214
69.2057
64.9454
34.4148
27.431
25.1266
24.4459
24.507
25.0349
25.8838
26.9847
28.3032
29.8225
31.5339
33.4324
35.5139
37.7747
40.2104
42.817
45.5908
48.5298
51.6326
54.8996
58.332
61.9316
65.7006
69.6413
73.7562
78.0476
82.5177
87.1687
92.0023
97.0198
102.222
107.61
113.182
118.939
124.879
131
137.299
143.774
150.42
157.234
164.211
171.348
178.638
186.077
193.661
201.385
209.243
217.231
225.344
233.577
241.926
250.385
258.948
267.611
276.366
285.208
294.13
303.123
312.179
321.288
330.441
339.625
348.828
358.038
367.238
376.415
385.551
394.63
403.632
412.54
421.334
429.995
438.501
446.834
454.973
462.9
470.594
478.039
485.218
492.114
498.715
505.007
510.981
516.627
521.939
526.911
531.541
535.828
539.773
543.38
546.65
549.589
552.201
554.495
556.479
558.164
559.56
560.679
561.528
562.117
562.408
562.44
562.253
561.803
561.115
560.196
559.033
557.633
555.997
554.122
552.005
549.636
546.998
544.068
540.819
537.217
533.23
528.818
523.942
518.56
512.63
506.116
498.984
491.21
482.777
473.683
463.939
453.57
442.618
431.142
419.211
406.905
394.31
381.515
368.607
355.668
342.779
330.01
317.424
305.077
293.012
281.266
269.868
258.838
248.188
237.929
228.063
218.595
209.523
200.843
192.552
184.64
177.098
169.914
163.074
156.566
150.374
144.485
138.884
133.557
128.488
123.66
119.054
114.629
110.396
106.36
102.522
98.88
95.4291
92.1646
89.0809
86.1739
83.44
80.8785
78.491
76.2835
74.2657
72.4658
70.7815
70.771
37.7138
29.98
27.3672
26.5431
26.5272
27.0033
27.8183
28.8892
30.1747
31.6535
33.315
35.1538
37.1669
39.3527
41.7097
44.2365
46.9323
49.7967
52.83
56.0332
59.408
62.9568
66.6821
70.5871
74.6747
78.9484
83.4113
88.0667
92.9173
97.9657
103.214
108.664
114.316
120.172
126.23
132.49
138.951
145.612
152.468
159.518
166.759
174.186
181.795
189.582
197.544
205.674
213.969
222.424
231.034
239.794
248.7
257.746
266.926
276.234
285.664
295.209
304.861
314.612
324.451
334.369
344.353
354.391
364.469
374.572
384.683
394.786
404.86
414.886
424.843
434.71
444.463
454.08
463.537
472.811
481.877
490.714
499.299
507.609
515.625
523.328
530.7
537.726
544.393
550.689
556.605
562.134
567.271
572.013
576.361
580.315
583.877
587.049
589.836
592.244
594.282
595.959
597.287
598.276
598.919
599.208
599.147
598.787
598.12
597.141
595.857
594.274
592.391
590.213
587.743
584.983
581.932
578.585
574.932
570.957
566.641
561.962
556.893
551.405
545.467
539.044
532.102
524.609
516.537
507.863
498.575
488.674
478.176
467.105
455.503
443.426
430.943
418.132
405.073
391.851
378.549
365.246
352.014
338.922
326.027
313.381
301.024
288.993
277.322
266.03
255.129
244.626
234.525
224.829
215.534
206.639
198.139
190.026
182.29
174.918
167.897
161.213
154.853
148.802
143.046
137.57
132.359
127.397
122.664
118.119
113.764
109.608
105.652
101.893
98.3282
94.9521
91.7598
88.7471
85.9106
83.2489
80.7628
78.4559
76.3345
74.4199
72.5925
75.4932
40.4357
32.0677
29.1818
28.222
28.1369
28.57
29.3564
30.4039
31.6652
33.1152
34.7411
36.5367
38.4991
40.6276
42.9222
45.3833
48.0116
50.8084
53.775
56.9134
60.226
63.7159
67.3862
71.2408
75.2837
79.5193
83.9518
88.5858
93.4251
98.4737
103.735
109.211
114.905
120.819
126.954
133.31
139.888
146.688
153.709
160.949
168.408
176.081
183.967
192.062
200.361
208.862
217.56
226.451
235.53
244.792
254.234
263.848
273.63
283.574
293.672
303.916
314.3
324.812
335.443
346.181
357.014
367.926
378.904
389.929
400.983
412.047
423.099
434.117
445.077
455.953
466.72
477.352
487.821
498.1
508.162
517.979
527.525
536.775
545.704
554.29
562.511
570.349
577.788
584.812
591.41
597.573
603.293
608.566
613.389
617.763
621.686
625.159
628.185
630.77
632.92
634.645
635.953
636.847
637.307
637.353
637
636.257
635.128
633.613
631.715
629.44
626.787
623.764
620.374
616.623
612.511
608.042
603.209
598.009
592.43
586.463
580.09
573.298
566.065
558.371
550.191
541.506
532.299
522.554
512.267
501.447
490.118
478.294
466.018
453.342
440.332
427.058
413.596
400.022
386.413
372.84
359.369
346.062
332.969
320.137
307.601
295.395
283.56
272.113
261.063
250.414
240.17
230.331
220.894
211.856
203.215
194.963
187.089
179.58
172.424
165.607
159.115
152.934
147.052
141.451
136.118
131.037
126.187
121.53
117.068
112.808
108.749
104.889
101.225
97.7502
94.4611
91.3532
88.423
85.6687
83.0905
80.6897
78.4702
76.4474
74.4976
79.0663
42.5423
33.6703
30.5564
29.479
29.3343
29.7325
30.4982
31.5317
32.7806
34.2166
35.8243
37.5961
39.5286
41.6207
43.8729
46.2865
48.8628
51.6041
54.5125
57.591
60.8428
64.2716
67.8816
71.6778
75.6651
79.8491
84.2356
88.8304
93.6386
98.6652
103.915
109.391
115.098
121.038
127.215
133.632
140.291
147.193
154.34
161.734
169.373
177.258
185.385
193.753
202.36
211.201
220.274
229.575
239.1
248.843
258.802
268.969
279.34
289.907
300.664
311.603
322.713
333.986
345.41
356.973
368.659
380.455
392.342
404.302
416.314
428.357
440.407
452.438
464.424
476.337
488.147
499.824
511.338
522.657
533.749
544.584
555.132
565.362
575.247
584.759
593.874
602.569
610.825
618.623
625.949
632.791
639.139
644.987
650.332
655.169
659.498
663.316
666.625
669.428
671.73
673.537
674.857
675.682
676.01
675.852
675.212
674.096
672.507
670.446
667.912
664.908
661.436
657.5
653.106
648.259
642.966
637.231
631.06
624.454
617.416
609.945
602.043
593.709
584.94
575.733
566.084
555.988
545.45
534.464
523.036
511.18
498.893
486.217
473.212
459.926
446.416
432.74
418.962
405.148
391.359
377.657
364.097
350.729
337.597
324.738
312.178
299.944
288.08
276.61
265.536
254.861
244.586
234.708
225.226
216.136
207.438
199.125
191.186
183.608
176.378
169.481
162.907
156.642
150.673
144.985
139.561
134.387
129.439
124.69
120.144
115.802
111.664
107.724
103.979
100.424
97.0551
93.8668
90.8562
88.021
85.3608
82.8753
80.5666
78.445
76.3917
81.4923
44.0293
34.7935
31.5041
30.3329
30.141
30.5143
31.2687
32.2991
33.549
34.987
36.5954
38.3647
40.2902
42.3699
44.6039
46.9931
49.5393
52.2448
55.1126
58.146
61.3492
64.7269
68.2843
72.0274
75.9628
80.0971
84.4379
88.9938
93.7699
98.7716
104.004
109.472
115.181
121.136
127.341
133.802
140.523
147.51
154.765
162.293
170.098
178.178
186.533
195.161
204.062
213.233
222.672
232.374
242.338
252.557
263.027
273.743
284.699
295.888
307.302
318.932
330.768
342.801
355.016
367.401
379.94
392.616
405.41
418.302
431.27
444.289
457.333
470.374
483.383
496.328
509.176
521.895
534.45
546.805
558.926
570.777
582.324
593.533
604.373
614.812
624.822
634.377
643.452
652.028
660.086
667.611
674.593
681.022
686.893
692.202
696.945
701.118
704.719
707.751
710.214
712.113
713.452
714.227
714.431
714.07
713.133
711.633
709.567
706.932
703.726
699.946
695.594
690.67
685.181
679.131
672.53
665.386
657.712
649.519
640.822
631.633
621.969
611.857
601.311
590.354
579.013
567.291
555.135
542.608
529.782
516.708
503.452
490.036
476.424
462.653
448.766
434.811
420.841
406.906
393.059
379.348
365.819
352.513
339.464
326.702
314.244
302.097
290.372
279.045
268.107
257.557
247.393
237.612
228.211
219.173
210.518
202.237
194.319
186.75
179.517
172.607
166.012
159.719
153.714
147.981
142.508
137.274
132.258
127.451
122.853
118.461
114.27
110.277
106.477
102.865
99.4357
96.1858
93.1117
90.2108
87.4821
84.9245
82.5387
80.3305
78.192
82.8675
44.9368
35.4715
32.0617
30.8246
30.6014
30.9628
31.7178
32.7581
34.0247
35.4834
37.1144
38.906
40.852
42.949
45.1958
47.5928
50.1412
52.8434
55.7023
58.7219
61.9069
65.263
68.7966
72.5154
76.4276
80.5396
84.8589
89.3943
94.1535
99.1444
104.374
109.85
115.578
121.566
127.821
134.35
141.161
148.259
155.652
163.343
171.336
179.633
188.235
197.144
206.36
215.883
225.71
235.837
246.261
256.977
267.98
279.263
290.821
302.646
314.729
327.06
339.628
352.421
365.427
378.629
392.011
405.555
419.239
433.043
446.94
460.906
474.911
488.926
502.917
516.852
530.693
544.405
557.95
571.289
584.383
597.195
609.686
621.818
633.557
644.867
655.717
666.077
675.92
685.221
693.961
702.121
709.688
716.652
723.006
728.745
733.861
738.351
742.21
745.437
748.029
749.991
751.32
752.016
752.065
751.463
750.189
748.26
745.666
742.401
738.455
733.824
728.505
722.496
715.8
708.421
700.37
691.661
682.311
672.343
661.785
650.665
639.014
626.901
614.353
601.333
587.891
574.167
560.326
546.421
532.383
518.265
504.161
489.914
475.632
461.356
447.117
432.949
418.883
404.954
391.195
377.64
364.317
351.255
338.475
325.996
313.826
301.949
290.476
279.386
268.674
258.338
248.375
238.781
229.55
220.668
212.172
204.036
196.244
188.781
181.634
174.787
168.24
161.982
155.999
150.275
144.798
139.544
134.511
129.691
125.081
120.674
116.465
112.449
108.622
104.978
101.514
98.2249
95.1074
92.1591
89.3787
86.7643
84.316
82.036
79.8308
83.0626
45.2435
35.7304
32.2787
31.0171
30.7879
31.1573
31.9271
32.9953
34.3005
35.8062
37.49
39.3385
41.3435
43.5003
45.806
48.26
50.8627
53.6159
56.5224
59.5862
62.8127
66.2092
69.7808
73.5342
77.4773
81.6199
85.9713
90.5412
95.34
100.378
105.664
111.209
117.022
123.112
129.491
136.165
143.145
150.437
158.049
165.988
174.256
182.859
191.799
201.076
210.689
220.64
230.928
241.551
252.502
263.777
275.37
287.273
299.479
311.978
324.761
337.816
351.131
364.692
378.486
392.493
406.698
421.079
435.613
450.279
465.048
479.893
494.784
509.688
524.571
539.396
554.125
568.719
583.137
597.339
611.282
624.926
638.23
651.154
663.66
675.711
687.27
698.307
708.79
718.693
727.992
736.667
744.703
752.088
758.814
764.874
770.261
774.969
778.989
782.317
784.95
786.887
788.122
788.647
788.464
787.526
785.826
783.373
780.151
776.149
771.351
765.749
759.334
752.102
744.053
735.19
725.522
715.072
703.858
691.921
679.309
666.055
652.157
637.623
622.642
607.429
592.129
576.704
561.309
545.765
530.25
514.842
499.593
484.504
469.602
454.908
440.433
426.19
412.189
398.441
384.96
371.756
358.841
346.225
333.918
321.925
310.25
298.898
287.894
277.243
266.946
256.999
247.401
238.144
229.222
220.609
212.352
204.43
196.83
189.539
182.544
175.826
169.405
163.256
157.363
151.709
146.285
141.081
136.088
131.306
126.728
122.348
118.159
114.155
110.333
106.688
103.216
99.912
96.7742
93.7994
90.9865
88.3332
85.8395
83.5042
81.2514
82.6359
45.1432
35.6734
32.2334
30.9857
30.7821
31.195
32.0188
33.1565
34.5449
36.1468
37.9388
39.906
42.0386
44.3302
46.7767
49.3761
52.1277
55.0324
58.0921
61.3102
64.6909
68.2391
71.9623
75.8686
79.9672
84.2685
88.7837
93.5247
98.5036
103.733
109.225
114.992
121.047
127.402
134.068
141.055
148.373
156.032
164.038
172.399
181.12
190.205
199.657
209.475
219.659
230.208
241.117
252.385
264.005
275.972
288.276
300.908
313.857
327.113
340.664
354.495
368.592
382.939
397.521
412.318
427.31
442.476
457.793
473.235
488.775
504.382
520.027
535.674
551.289
566.834
582.268
597.551
612.64
627.495
642.071
656.327
670.22
683.709
696.754
709.316
721.359
732.848
743.751
754.038
763.684
772.665
780.964
788.567
795.466
801.654
807.121
811.861
815.861
819.114
821.613
823.353
824.332
824.508
823.93
822.472
820.171
817.01
812.971
808.035
802.182
795.398
787.671
778.991
769.358
758.772
747.245
734.81
721.48
707.259
692.118
676.234
659.813
643.07
625.992
608.79
591.274
573.703
556.224
538.909
521.865
505.175
488.895
473.046
457.638
442.671
428.131
414.005
400.276
386.928
373.949
361.325
349.047
337.107
325.496
314.207
303.236
292.58
282.242
272.225
262.526
253.143
244.073
235.309
226.847
218.677
210.807
203.233
195.945
188.935
182.193
175.694
169.46
163.472
157.716
152.188
146.881
141.785
136.893
132.206
127.714
123.408
119.281
115.329
111.546
107.932
104.481
101.19
98.0566
95.0781
92.2537
89.5811
87.0606
84.688
82.4066
81.3666
44.6453
35.3526
32.0026
30.8398
30.7375
31.2702
32.2259
33.5144
35.0755
36.8728
38.8824
41.0883
43.4795
46.0483
48.7891
51.6985
54.7745
58.0167
61.4259
65.0045
68.7562
72.6859
76.8007
81.1093
85.6216
90.3488
95.3028
100.497
105.944
111.66
117.657
123.952
130.557
137.486
144.752
152.366
160.337
168.673
177.382
186.47
195.941
205.8
216.046
226.677
237.69
249.079
260.837
272.955
285.425
298.237
311.381
324.844
338.611
352.669
367.002
381.593
396.425
411.482
426.744
442.192
457.806
473.564
489.441
505.412
521.45
537.525
553.608
569.664
585.658
601.553
617.309
632.888
648.247
663.344
678.139
692.588
706.651
720.288
733.458
746.124
758.25
769.799
780.74
791.04
800.671
809.609
817.831
825.323
832.076
838.08
843.329
847.811
851.513
854.419
856.522
857.808
858.262
857.903
856.642
854.433
851.285
847.171
842.069
835.95
828.794
820.578
811.288
800.907
789.443
776.889
763.245
748.42
732.549
715.75
698.277
680.114
661.48
642.209
622.58
602.777
582.919
563.184
543.742
524.731
506.271
488.455
471.339
454.944
439.262
424.265
409.914
396.163
382.964
370.274
358.049
346.253
334.852
323.818
313.127
302.757
292.693
282.922
273.437
264.233
255.305
246.65
238.264
230.142
222.278
214.666
207.308
200.202
193.339
186.715
180.326
174.151
168.198
162.467
156.948
151.637
146.528
141.612
136.879
132.335
127.97
123.778
119.752
115.887
112.184
108.637
105.242
101.995
98.8958
95.9401
93.1286
90.4594
87.9338
85.5443
83.2554
79.4633
43.774
34.8451
31.7279
30.7726
30.8636
31.5965
32.797
34.3655
36.2441
38.3972
40.8013
43.4403
46.3024
49.379
52.6634
56.1507
59.8374
63.7214
67.8016
72.0789
76.5557
81.2359
86.1251
91.2308
96.5618
102.129
107.942
114.016
120.363
126.998
133.935
141.19
148.778
156.711
165.003
173.658
182.684
192.086
201.869
212.034
222.581
233.507
244.809
256.484
268.525
280.923
293.668
306.747
320.146
333.85
347.841
362.103
376.617
391.365
406.33
421.491
436.832
452.333
467.977
483.745
499.618
515.576
531.597
547.657
563.731
579.794
595.817
611.769
627.619
643.332
658.873
674.203
689.287
704.084
718.555
732.663
746.367
759.632
772.42
784.695
796.422
807.568
818.099
827.983
837.191
845.69
853.46
860.48
866.74
872.23
876.944
880.865
883.977
886.259
887.703
888.28
888.011
886.845
884.667
881.484
877.268
871.987
865.611
858.108
849.449
839.61
828.574
816.314
802.755
787.938
771.9
754.849
736.756
717.792
697.813
677.049
655.675
633.816
611.68