/*--------------------------------*- C++ -*----------------------------------*\
  =========                 |
  \\      /  F ield         | OpenFOAM: The Open Source CFD Toolbox
   \\    /   O peration     | Website:  https://openfoam.org
    \\  /    A nd           | Version:  8
     \\/     M anipulation  |
\*---------------------------------------------------------------------------*/
FoamFile
{
    version     2.0;
    format      ascii;
    class       volScalarField;
    location    "95";
    object      k;
}
// * * * * * * * * * * * * * * * * * * * * * * * * * * * * * * * * * * * * * //

dimensions      [0 2 -2 0 0 0 0];

internalField   nonuniform List<scalar> 
12225
(
0.362825
0.344007
0.327732
0.30984
0.295373
0.283526
0.275465
0.270319
0.270367
0.271948
0.276122
0.280861
0.290074
0.29604
0.307212
0.31343
0.327185
0.324124
0.440277
0.468738
0.461615
0.448385
0.45037
0.458361
0.474488
0.498877
0.524447
0.552681
0.581091
0.607079
0.634754
0.655383
0.681781
0.69568
0.724801
0.728991
0.390412
0.417854
0.420241
0.416828
0.411637
0.407812
0.408021
0.410068
0.414571
0.42153
0.430881
0.439939
0.45161
0.461634
0.473763
0.484783
0.49563
0.509895
0.377045
0.387166
0.391466
0.391342
0.390261
0.387884
0.385663
0.384085
0.382891
0.382916
0.383394
0.384445
0.38641
0.388598
0.391204
0.394679
0.39731
0.40237
0.374435
0.376093
0.378428
0.378665
0.378275
0.377199
0.375489
0.373734
0.372012
0.370453
0.369265
0.368116
0.367409
0.366856
0.366505
0.366493
0.36665
0.367104
0.37378
0.372704
0.372659
0.372365
0.371773
0.370815
0.369553
0.368077
0.366569
0.364969
0.363523
0.362057
0.360748
0.359534
0.3584
0.357459
0.356501
0.355911
0.373775
0.371739
0.370388
0.369283
0.368235
0.367111
0.365913
0.364581
0.363233
0.361799
0.360411
0.359011
0.357661
0.356367
0.355101
0.353953
0.352787
0.35182
0.373819
0.371559
0.369635
0.367975
0.3665
0.365105
0.363773
0.362424
0.361101
0.359757
0.358438
0.357129
0.355843
0.3546
0.353374
0.352221
0.35107
0.350032
0.373832
0.371553
0.369449
0.367525
0.365776
0.364152
0.362642
0.361194
0.359811
0.358464
0.357158
0.355887
0.354647
0.353451
0.352279
0.351165
0.350065
0.349043
0.373831
0.37156
0.369418
0.367405
0.365528
0.363771
0.36213
0.360581
0.359116
0.35772
0.356384
0.355104
0.35387
0.352688
0.351544
0.350453
0.34939
0.348392
0.373829
0.371561
0.369413
0.367378
0.365458
0.363644
0.361935
0.360321
0.358794
0.357346
0.35597
0.35466
0.353409
0.352217
0.351073
0.349985
0.348935
0.347945
0.373828
0.371559
0.369409
0.367371
0.365439
0.363608
0.361874
0.360231
0.358674
0.357196
0.355792
0.354459
0.353188
0.35198
0.350826
0.349729
0.348677
0.347682
0.373827
0.371557
0.369405
0.367365
0.36543
0.363593
0.36185
0.360195
0.358623
0.35713
0.35571
0.35436
0.353075
0.351854
0.350688
0.349581
0.348522
0.347519
0.373827
0.371555
0.369402
0.36736
0.365423
0.363583
0.361837
0.360177
0.358599
0.357098
0.355671
0.354312
0.353019
0.351788
0.350615
0.349498
0.348433
0.34742
0.373826
0.371553
0.369399
0.367355
0.365416
0.363575
0.361826
0.360164
0.358584
0.35708
0.35565
0.354288
0.35299
0.351755
0.350578
0.349456
0.348386
0.347367
0.373826
0.371552
0.369396
0.367351
0.365411
0.363568
0.361818
0.360154
0.358572
0.357067
0.355635
0.354271
0.352972
0.351735
0.350555
0.349431
0.348359
0.347337
0.373825
0.371551
0.369394
0.367348
0.365406
0.363563
0.361811
0.360146
0.358563
0.357056
0.355623
0.354258
0.352958
0.351719
0.350538
0.349413
0.348339
0.347315
0.373825
0.371551
0.369393
0.367346
0.365404
0.363559
0.361806
0.36014
0.358556
0.357049
0.355614
0.354248
0.352947
0.351708
0.350526
0.349399
0.348325
0.347299
0.373825
0.37155
0.369393
0.367346
0.365403
0.363557
0.361805
0.360138
0.358554
0.357046
0.355611
0.354244
0.352943
0.351702
0.35052
0.349392
0.348317
0.347291
0.373825
0.371551
0.369394
0.367346
0.365405
0.363559
0.361807
0.360141
0.358557
0.357049
0.355615
0.354248
0.352947
0.351706
0.350525
0.349397
0.348323
0.347296
0.373825
0.371552
0.369395
0.367349
0.365407
0.363564
0.361812
0.360147
0.358564
0.357058
0.355624
0.35426
0.35296
0.351722
0.350541
0.349417
0.348344
0.34732
0.373826
0.371553
0.369397
0.367352
0.365413
0.363571
0.361823
0.360163
0.358585
0.357086
0.35566
0.354303
0.353012
0.351782
0.350611
0.349493
0.348429
0.347411
0.373826
0.371554
0.369399
0.36736
0.365429
0.363603
0.361877
0.360242
0.358693
0.357223
0.355827
0.354498
0.353234
0.352026
0.350875
0.349773
0.348723
0.347714
0.373828
0.371551
0.369412
0.367417
0.365557
0.36382
0.362191
0.360653
0.359192
0.357797
0.356461
0.355177
0.353942
0.352753
0.351609
0.350506
0.349448
0.348424
0.373823
0.371554
0.369605
0.367893
0.36634
0.364893
0.363496
0.362124
0.360764
0.359417
0.358085
0.356775
0.355494
0.354245
0.353037
0.351865
0.350744
0.349657
0.37378
0.37199
0.371113
0.370266
0.369361
0.368313
0.36705
0.365632
0.364123
0.362578
0.361034
0.359526
0.358078
0.356687
0.355387
0.354147
0.353015
0.351929
0.374297
0.375564
0.377779
0.377858
0.377291
0.375886
0.373835
0.371642
0.369506
0.367483
0.365663
0.364082
0.362707
0.36153
0.360603
0.359808
0.359276
0.358782
0.378732
0.394394
0.398295
0.396567
0.39256
0.38761
0.383641
0.380454
0.378261
0.376844
0.37648
0.37673
0.377371
0.378658
0.380386
0.382355
0.384736
0.387031
0.408344
0.427537
0.422422
0.411046
0.402224
0.397911
0.39854
0.401091
0.405942
0.412975
0.420904
0.42971
0.438677
0.448001
0.457063
0.466272
0.474973
0.483789
0.366034
0.35341
0.341989
0.330208
0.318984
0.30838
0.29941
0.291671
0.285402
0.280324
0.276671
0.273847
0.272283
0.271142
0.271137
0.271447
0.272061
0.273283
0.0140716
0.0388459
0.0572665
0.0733885
0.0877463
0.100613
0.11214
0.122322
0.130659
0.135902
0.13573
0.124669
0.123393
0.12697
0.133994
0.143164
0.152844
0.161766
0.168107
0.170441
0.167447
0.158183
0.16677
0.181265
0.196808
0.213559
0.231424
0.250211
0.26984
0.290108
0.31093
0.332102
0.353555
0.375112
0.396721
0.418237
0.439635
0.460808
0.481753
0.502399
0.522765
0.542796
0.562516
0.581892
0.60095
0.619669
0.638076
0.656161
0.673948
0.691434
0.708637
0.725561
0.742216
0.758613
0.774755
0.790656
0.806312
0.821745
0.836941
0.851925
0.866672
0.881215
0.895517
0.909629
0.923509
0.937223
0.950718
0.964078
0.977239
0.990301
1.00319
1.01602
1.02871
1.04138
1.05394
1.06652
1.07902
1.0916
1.10413
1.11678
1.12941
1.1422
1.155
1.16799
1.18099
1.19419
1.20742
1.22084
1.23429
1.2479
1.26156
1.27518
1.28869
1.30194
1.31472
1.32658
1.3367
1.34327
1.34137
1.35184
1.37614
1.37741
1.39941
1.40477
1.40715
1.41523
1.43564
1.4345
1.44118
1.44883
1.46224
1.45808
1.46795
1.46626
1.46464
1.47012
1.46488
1.46101
1.45473
1.44678
1.43722
1.42601
1.41309
1.39848
1.38215
1.36414
1.34447
1.32323
1.30051
1.27645
1.25124
1.2244
1.19629
1.16729
1.13755
1.10725
1.07658
1.04555
1.01466
0.984177
0.953137
0.926323
0.905546
0.885874
0.866455
0.847236
0.828277
0.809656
0.791373
0.773599
0.755921
0.738577
0.721894
0.705473
0.689594
0.674179
0.659223
0.64478
0.630915
0.61765
0.604932
0.592726
0.581042
0.56988
0.559226
0.549054
0.539363
0.530128
0.521336
0.512955
0.504972
0.497318
0.490038
0.482867
0.476225
0.468924
0.46286
0.454162
0.446731
0.422919
0.0300225
0.0680236
0.094362
0.114175
0.130742
0.145252
0.158216
0.169819
0.180108
0.188927
0.196056
0.201841
0.209609
0.219902
0.232517
0.246644
0.262077
0.277901
0.294042
0.311593
0.334112
0.366301
0.397542
0.425962
0.454755
0.485139
0.517163
0.550627
0.585356
0.621133
0.657782
0.695121
0.733011
0.771287
0.809819
0.848464
0.887116
0.925658
0.964019
1.00212
1.03991
1.07733
1.11437
1.15098
1.18716
1.22287
1.25814
1.29293
1.32725
1.36111
1.3945
1.42743
1.4599
1.49191
1.52346
1.55456
1.58519
1.61538
1.64511
1.67439
1.70323
1.73166
1.75958
1.78701
1.81392
1.84033
1.86622
1.89162
1.91651
1.94093
1.96486
1.98835
2.01139
2.03402
2.05625
2.07813
2.09966
2.1209
2.14187
2.16263
2.1832
2.20364
2.22397
2.24428
2.26456
2.28489
2.30528
2.32581
2.34648
2.36739
2.38853
2.40986
2.43134
2.45291
2.47451
2.49603
2.51733
2.53828
2.55908
2.58123
2.60319
2.62287
2.6442
2.66162
2.68006
2.69962
2.71847
2.73499
2.7525
2.76828
2.78419
2.79689
2.80926
2.81812
2.82305
2.83511
2.83879
2.83938
2.84134
2.83805
2.83197
2.82278
2.81033
2.79452
2.77526
2.75232
2.7257
2.69546
2.66173
2.62465
2.58441
2.54125
2.49546
2.4474
2.39735
2.34565
2.29262
2.23855
2.18369
2.12866
2.07355
2.0184
1.96394
1.90998
1.85664
1.80416
1.75274
1.70254
1.65365
1.60612
1.55916
1.51331
1.469
1.42638
1.38547
1.34596
1.30776
1.27103
1.23586
1.20225
1.17004
1.13918
1.10968
1.08153
1.05467
1.02905
1.00464
0.981391
0.959256
0.93818
0.918105
0.898964
0.880714
0.863212
0.846584
0.830179
0.815434
0.798287
0.785935
0.749241
0.0547749
0.104446
0.135935
0.159396
0.179056
0.196513
0.212582
0.227771
0.242456
0.256953
0.271614
0.286979
0.303901
0.322886
0.344089
0.367314
0.392164
0.418248
0.445619
0.474917
0.507158
0.542657
0.57945
0.616917
0.655489
0.695488
0.736966
0.779832
0.82393
0.869063
0.915072
0.961801
1.0091
1.05683
1.10483
1.15299
1.20118
1.24931
1.29728
1.34502
1.39248
1.43961
1.48637
1.53272
1.57866
1.62415
1.6692
1.71379
1.75791
1.80156
1.84475
1.88745
1.92968
1.97143
2.0127
2.05347
2.09375
2.13352
2.17278
2.21152
2.24973
2.2874
2.32451
2.36103
2.39697
2.4323
2.46702
2.50112
2.53459
2.56742
2.59961
2.63117
2.66208
2.69236
2.722
2.75102
2.77942
2.80723
2.83445
2.86112
2.88725
2.91288
2.93803
2.96273
2.98701
3.01091
3.03447
3.05771
3.08068
3.10343
3.126
3.14837
3.17053
3.19247
3.21419
3.23567
3.2569
3.27793
3.29885
3.31984
3.34058
3.36099
3.38138
3.40068
3.42075
3.44048
3.45935
3.47763
3.49549
3.51214
3.52814
3.54245
3.55562
3.56661
3.57458
3.58255
3.58566
3.58647
3.58545
3.58056
3.57203
3.55959
3.54303
3.52217
3.49687
3.46701
3.43262
3.39374
3.35052
3.30314
3.25184
3.19697
3.13884
3.07784
3.01436
2.94877
2.88143
2.8127
2.74295
2.6728
2.60292
2.53353
2.46485
2.3969
2.32984
2.26388
2.19926
2.13615
2.07466
2.01487
1.95664
1.9001
1.84539
1.79264
1.74187
1.69269
1.6449
1.59889
1.55476
1.5125
1.47189
1.43288
1.39554
1.35986
1.32575
1.29315
1.26206
1.2324
1.20413
1.17718
1.15149
1.12699
1.10363
1.0813
1.06004
1.03952
1.02054
1.00084
0.987003
0.954955
0.0831632
0.143462
0.180194
0.207702
0.230844
0.251556
0.270883
0.289525
0.308037
0.326897
0.346557
0.367464
0.390039
0.414568
0.441152
0.469695
0.499979
0.53181
0.565206
0.600432
0.637858
0.677605
0.719319
0.76267
0.807579
0.854024
0.901949
0.951239
1.00175
1.05335
1.10591
1.15926
1.21327
1.26778
1.32267
1.37781
1.43308
1.48838
1.54363
1.59875
1.65368
1.70838
1.76278
1.81687
1.8706
1.92396
1.97693
2.02948
2.08161
2.1333
2.18455
2.23534
2.28566
2.33551
2.38488
2.43375
2.48212
2.52996
2.57726
2.62401
2.67018
2.71575
2.76071
2.80502
2.84867
2.89163
2.93388
2.97538
3.01613
3.05609
3.09525
3.13359
3.17108
3.20772
3.24349
3.27837
3.31237
3.34548
3.37769
3.40902
3.43948
3.46908
3.49783
3.52576
3.55289
3.57925
3.60487
3.6298
3.65406
3.67772
3.70083
3.72339
3.74543
3.76697
3.78804
3.80866
3.82889
3.84876
3.86836
3.88775
3.90688
3.92575
3.94432
3.96245
3.98059
3.99824
4.01527
4.03176
4.04756
4.06241
4.07635
4.08894
4.10011
4.1094
4.116
4.1199
4.12112
4.12001
4.11594
4.10814
4.09637
4.08033
4.05974
4.03439
4.00411
3.96879
3.92842
3.88304
3.83281
3.7779
3.71861
3.65528
3.58827
3.51801
3.4449
3.36936
3.29183
3.21282
3.13291
3.05268
2.97272
2.89334
2.81476
2.73711
2.66059
2.5854
2.51177
2.43987
2.36984
2.30176
2.23565
2.17157
2.10959
2.04976
1.99211
1.93649
1.88281
1.83112
1.78148
1.73386
1.6879
1.64363
1.6012
1.56061
1.52169
1.48444
1.44887
1.41489
1.38244
1.35147
1.32193
1.29374
1.26685
1.24119
1.21677
1.19343
1.17162
1.15023
1.13396
1.10623
0.11313
0.182512
0.225049
0.256969
0.283793
0.30779
0.330197
0.35185
0.373401
0.395402
0.418338
0.442628
0.468606
0.496495
0.526394
0.558284
0.592078
0.627691
0.665128
0.704493
0.745929
0.789499
0.835129
0.882676
0.93202
0.983053
1.03567
1.08974
1.14515
1.20176
1.25943
1.31802
1.37738
1.43737
1.49788
1.55878
1.61996
1.68132
1.74278
1.80426
1.8657
1.92703
1.9882
2.04917
2.10989
2.17033
2.23046
2.29025
2.34969
2.40876
2.46743
2.52569
2.58352
2.64091
2.69784
2.75429
2.81024
2.86567
2.92056
2.97488
3.0286
3.08169
3.13411
3.18585
3.23685
3.28708
3.3365
3.38508
3.43276
3.47951
3.5253
3.57008
3.61381
3.65646
3.69801
3.73841
3.77764
3.81568
3.85252
3.88814
3.92254
3.95572
3.98769
4.01846
4.04804
4.07646
4.10376
4.12996
4.15511
4.17927
4.2025
4.22482
4.24629
4.26694
4.28682
4.30599
4.3245
4.34241
4.35981
4.37675
4.39324
4.4093
4.4249
4.44004
4.45481
4.46905
4.48269
4.49574
4.50803
4.51941
4.5298
4.53897
4.54662
4.55233
4.55516
4.5557
4.55409
4.54975
4.5422
4.53095
4.51562
4.49589
4.47142
4.44197
4.40733
4.36738
4.32206
4.2714
4.21554
4.15465
4.08902
4.01899
3.94497
3.86737
3.78665
3.70333
3.61797
3.53115
3.44347
3.35551
3.26779
3.18069
3.09445
3.00929
2.92543
2.84308
2.76246
2.68375
2.6071
2.5326
2.46031
2.39029
2.32258
2.25722
2.1942
2.13346
2.07492
2.01858
1.96443
1.91244
1.86246
1.81443
1.76837
1.72425
1.68179
1.64107
1.60212
1.56485
1.5292
1.49513
1.46258
1.43151
1.40185
1.37356
1.34665
1.32106
1.29708
1.27423
1.25553
1.23022
0.142684
0.220464
0.268862
0.305272
0.335792
0.362985
0.388255
0.412544
0.436573
0.460942
0.486162
0.512661
0.540782
0.570763
0.602748
0.636791
0.672894
0.711038
0.751231
0.793505
0.83791
0.884462
0.933127
0.983825
1.03646
1.09091
1.14707
1.20482
1.26403
1.32456
1.3863
1.44909
1.51282
1.57735
1.64257
1.70837
1.77464
1.84127
1.9082
1.97532
2.04256
2.10987
2.17717
2.2444
2.31153
2.37851
2.44529
2.51185
2.57814
2.64415
2.70985
2.77521
2.84022
2.90483
2.96904
3.03281
3.09612
3.15893
3.22122
3.28295
3.34408
3.40458
3.46439
3.52347
3.58176
3.63923
3.6958
3.75142
3.80604
3.8596
3.91203
3.96327
4.01328
4.06199
4.10935
4.15531
4.19982
4.24284
4.28434
4.32429
4.36267
4.39946
4.43466
4.46827
4.50029
4.53075
4.55967
4.58709
4.61304
4.6376
4.6608
4.68271
4.70337
4.72285
4.74119
4.75848
4.77477
4.79014
4.80467
4.81843
4.83146
4.8438
4.85546
4.86645
4.87681
4.88652
4.89555
4.90391
4.91148
4.91805
4.92354
4.92807
4.93077
4.93142
4.92982
4.92642
4.92071
4.91225
4.90061
4.88537
4.86612
4.84247
4.8141
4.78069
4.74202
4.69791
4.64828
4.59313
4.53254
4.4667
4.39586
4.32035
4.2406
4.15706
4.0703
3.98088
3.88942
3.79652
3.70277
3.60874
3.51493
3.42173
3.32945
3.23835
3.14865
3.06059
2.9744
2.89024
2.80828
2.72862
2.65133
2.57649
2.50412
2.43424
2.36685
2.30191
2.23935
2.17915
2.12127
2.06566
2.01223
1.96092
1.91171
1.86454
1.8193
1.77593
1.73443
1.6946
1.65641
1.61988
1.58491
1.55148
1.51956
1.48911
1.46014
1.43267
1.40688
1.38265
1.36191
1.33628
0.170899
0.256145
0.310098
0.350851
0.384942
0.415187
0.443123
0.469776
0.495923
0.5222
0.549149
0.577224
0.606798
0.638154
0.671491
0.706929
0.744536
0.784341
0.82636
0.870607
0.91709
0.965795
1.01669
1.0697
1.12474
1.18172
1.24052
1.30103
1.36313
1.42671
1.49163
1.55778
1.62504
1.6933
1.76243
1.83234
1.90293
1.97409
2.04574
2.11779
2.19016
2.26278
2.33557
2.40848
2.48144
2.5544
2.62732
2.70015
2.77286
2.8454
2.91774
2.98985
3.0617
3.13326
3.20449
3.27536
3.34584
3.41588
3.48545
3.5545
3.62299
3.69085
3.75803
3.82448
3.89012
3.95489
4.01871
4.08151
4.14321
4.20372
4.26298
4.32089
4.37739
4.43238
4.48579
4.53755
4.58759
4.63585
4.68228
4.72681
4.76942
4.81006
4.84873
4.8854
4.92008
4.95278
4.9835
5.01227
5.03915
5.06417
5.08741
5.1089
5.12871
5.14691
5.16355
5.17872
5.19248
5.20494
5.21615
5.22621
5.2352
5.24319
5.2502
5.25624
5.26135
5.26562
5.26905
5.27168
5.27352
5.2741
5.27335
5.27158
5.26833
5.2634
5.25668
5.24804
5.23717
5.2237
5.20722
5.18734
5.16363
5.13571
5.10321
5.06578
5.02317
4.97515
4.9216
4.86248
4.79782
4.72777
4.65258
4.57257
4.48821
4.40002
4.30859
4.2145
4.11837
4.02081
3.92241
3.8237
3.72519
3.62728
3.5303
3.43454
3.34028
3.24774
3.15714
3.06867
2.98248
2.89869
2.8174
2.73866
2.6625
2.58895
2.51799
2.44959
2.38371
2.3203
2.25931
2.2007
2.14438
2.09028
2.03837
1.98859
1.94088
1.89516
1.85139
1.80945
1.76926
1.7308
1.69387
1.65853
1.62473
1.59249
1.5618
1.53272
1.50539
1.47984
1.45732
1.43124
0.196954
0.288557
0.347517
0.39227
0.429692
0.462791
0.493209
0.522035
0.550086
0.578028
0.606428
0.635766
0.66645
0.698804
0.733076
0.769444
0.808022
0.84888
0.892054
0.937557
0.985384
1.03551
1.08789
1.14246
1.19915
1.25787
1.31851
1.38097
1.44515
1.51094
1.57823
1.64692
1.71689
1.78805
1.86029
1.93351
2.00761
2.08251
2.15811
2.23433
2.31108
2.38828
2.46586
2.54376
2.6219
2.70024
2.77871
2.85726
2.93585
3.01443
3.09296
3.17141
3.24973
3.32789
3.40584
3.48355
3.56097
3.63806
3.71476
3.79102
3.86678
3.94197
4.01652
4.09036
4.16341
4.23558
4.30678
4.37692
4.44589
4.51359
4.57992
4.64477
4.70805
4.76963
4.82944
4.88735
4.94329
4.99716
5.04888
5.09839
5.14561
5.1905
5.23301
5.27312
5.31082
5.34608
5.37892
5.40936
5.43743
5.46317
5.48665
5.50789
5.52698
5.54397
5.55893
5.57195
5.5831
5.59248
5.60018
5.60625
5.61085
5.61409
5.61602
5.61653
5.61572
5.61382
5.61084
5.6068
5.60167
5.59528
5.58768
5.57889
5.56873
5.55709
5.54384
5.52879
5.51168
5.4922
5.46998
5.44465
5.4158
5.38303
5.34597
5.30424
5.25755
5.20565
5.14835
5.08556
5.01728
4.94363
4.86483
4.78126
4.69338
4.60172
4.50687
4.4094
4.30992
4.20902
4.10726
4.00518
3.90326
3.80191
3.70148
3.6023
3.50465
3.40876
3.31486
3.22313
3.13373
3.04678
2.96239
2.88062
2.80149
2.72504
2.65124
2.58008
2.51151
2.4455
2.38198
2.32091
2.26221
2.2058
2.15164
2.09968
2.04985
2.00211
1.95638
1.91256
1.87059
1.8304
1.79189
1.75503
1.71971
1.68598
1.65385
1.62339
1.59471
1.56793
1.54383
1.51713
0.220173
0.316945
0.3802
0.428473
0.46889
0.504599
0.537313
0.568165
0.597996
0.627491
0.657231
0.687716
0.719375
0.752562
0.787564
0.824596
0.863813
0.905315
0.949161
0.995373
1.04395
1.09487
1.14809
1.20355
1.26118
1.3209
1.38262
1.44627
1.51174
1.57895
1.6478
1.71819
1.79005
1.86327
1.93777
2.01345
2.09023
2.16802
2.24673
2.32628
2.40659
2.48759
2.56918
2.65131
2.73391
2.8169
2.90024
2.98387
3.06774
3.15179
3.23598
3.32026
3.4046
3.48894
3.57323
3.65744
3.74151
3.82538
3.909
3.9923
4.0752
4.15763
4.23951
4.32074
4.40124
4.48088
4.55957
4.63719
4.71362
4.78873
4.86238
4.93447
5.00484
5.07337
5.13993
5.20439
5.26663
5.32653
5.384
5.43892
5.49121
5.5408
5.58762
5.63162
5.67277
5.71104
5.74643
5.77893
5.80858
5.8354
5.85944
5.88074
5.89937
5.91539
5.92886
5.93987
5.94851
5.95487
5.95906
5.96104
5.96111
5.95933
5.95576
5.95041
5.94341
5.93489
5.9249
5.91353
5.90078
5.88667
5.87123
5.85449
5.8364
5.8169
5.7959
5.77326
5.74876
5.72216
5.69314
5.66139
5.62651
5.58813
5.54586
5.49933
5.4482
5.39221
5.33113
5.26483
5.19327
5.11655
5.03489
4.94863
4.85823
4.7642
4.6671
4.56747
4.46589
4.36291
4.25907
4.15489
4.05083
3.9473
3.84466
3.74326
3.64339
3.5453
3.44919
3.35525
3.26364
3.17449
3.0879
3.00396
2.92268
2.84409
2.76819
2.69494
2.62433
2.55631
2.49083
2.42783
2.36724
2.30899
2.25303
2.1993
2.14775
2.09832
2.05094
2.00553
1.96202
1.92034
1.88042
1.84221
1.80565
1.77072
1.7374
1.70576
1.67591
1.64798
1.62247
1.59507
0.240026
0.340776
0.407546
0.458787
0.501802
0.539835
0.574644
0.607382
0.638907
0.669905
0.70096
0.732577
0.765193
0.799177
0.834833
0.872401
0.912062
0.95394
0.998114
1.04462
1.09348
1.14466
1.19815
1.25388
1.3118
1.37185
1.43396
1.49805
1.56406
1.63189
1.7015
1.77278
1.84568
1.92011
1.996
2.07327
2.15185
2.23165
2.31259
2.3946
2.47761
2.56153
2.6463
2.73184
2.81808
2.90497
2.99243
3.08042
3.16887
3.25773
3.34696
3.4365
3.5263
3.61632
3.7065
3.79679
3.88713
3.97746
4.0677
4.15779
4.24763
4.33715
4.42624
4.51479
4.6027
4.68984
4.77609
4.86129
4.94532
5.02801
5.10922
5.18878
5.26654
5.34233
5.416
5.48738
5.55633
5.62269
5.68634
5.74713
5.80497
5.85973
5.91134
5.95971
6.0048
6.04655
6.08495
6.11998
6.15164
6.17997
6.20499
6.22675
6.24528
6.26067
6.27297
6.28227
6.28863
6.29204
6.29287
6.29099
6.28662
6.27982
6.27071
6.25935
6.24588
6.23039
6.21301
6.19383
6.17294
6.1504
6.12631
6.10074
6.07373
6.04529
6.0154
5.98397
5.95089
5.91597
5.879
5.83969
5.79774
5.75278
5.70445
5.65239
5.59627
5.5358
5.4708
5.40105
5.3265
5.24719
5.16331
5.07517
4.98316
4.88778
4.78954
4.68893
4.58646
4.48264
4.378
4.27299
4.16807
4.06362
3.96001
3.85762
3.75674
3.6576
3.5604
3.46533
3.37253
3.28215
3.19431
3.10907
3.02648
2.94655
2.86928
2.79466
2.72267
2.65326
2.58639
2.522
2.46003
2.40042
2.34311
2.28803
2.23515
2.1844
2.13571
2.08901
2.04424
2.00133
1.96022
1.92086
1.88321
1.84725
1.81297
1.78034
1.74947
1.72051
1.69375
1.66565
0.256188
0.359789
0.429281
0.48291
0.528085
0.568114
0.604783
0.639253
0.672379
0.704839
0.737208
0.769978
0.803579
0.838377
0.87468
0.912735
0.952735
0.99482
1.03909
1.08559
1.13435
1.18537
1.23863
1.2941
1.35175
1.41151
1.47334
1.53719
1.60301
1.67074
1.74032
1.8117
1.88482
1.95962
2.03605
2.11403
2.19352
2.27444
2.35672
2.4403
2.52511
2.61108
2.69815
2.78623
2.87529
2.96524
3.05603
3.1476
3.23989
3.33286
3.42644
3.52058
3.61524
3.71036
3.80588
3.90176
3.99791
4.09428
4.19078
4.28732
4.38382
4.48018
4.57628
4.67201
4.76723
4.86179
4.95557
5.04838
5.14007
5.23045
5.31935
5.40658
5.49195
5.57527
5.65633
5.73496
5.81096
5.88416
5.95439
6.02148
6.08528
6.14567
6.20252
6.25573
6.30523
6.35093
6.39281
6.43082
6.46497
6.49525
6.52169
6.54433
6.56319
6.57834
6.58985
6.59776
6.60209
6.60311
6.60082
6.59529
6.58665
6.57498
6.56042
6.54305
6.52301
6.50041
6.4754
6.44808
6.4186
6.38709
6.35369
6.31851
6.28169
6.24331
6.20343
6.16207
6.11919
6.07472
6.02854
5.98045
5.93026
5.87763
5.82225
5.76381
5.70201
5.63656
5.5672
5.49384
5.41639
5.33485
5.24933
5.16007
5.06745
4.97183
4.87356
4.7731
4.67094
4.56754
4.46336
4.35883
4.25435
4.15028
4.04695
3.94483
3.84417
3.74519
3.64806
3.55296
3.46004
3.36944
3.2813
3.1957
3.11267
3.03223
2.95437
2.8791
2.80641
2.73626
2.66861
2.60341
2.5406
2.48013
2.42193
2.36595
2.31214
2.26045
2.21081
2.16316
2.11743
2.07357
2.03151
1.99123
1.95268
1.91585
1.88074
1.84731
1.81557
1.78569
1.75785
1.7291
0.268508
0.373938
0.44539
0.500823
0.547703
0.589375
0.627638
0.663649
0.69825
0.732103
0.765758
0.799686
0.834294
0.869932
0.906894
0.945422
0.985709
1.0279
1.0721
1.11837
1.16676
1.21728
1.26993
1.3247
1.38158
1.44052
1.5015
1.5645
1.62949
1.69642
1.76528
1.83602
1.9086
1.98298
2.05913
2.137
2.21655
2.29772
2.38048
2.46476
2.5505
2.63765
2.72615
2.81593
2.90694
2.99913
3.09243
3.1868
3.28216
3.37848
3.47569
3.57374
3.67258
3.77216
3.87243
3.97332
4.07476
4.17667
4.27897
4.38156
4.48434
4.5872
4.69002
4.79265
4.89497
4.9968
5.09797
5.19831
5.29762
5.3957
5.49233
5.58731
5.68041
5.7714
5.86006
5.94616
6.02947
6.10979
6.18691
6.26063
6.33076
6.39715
6.45963
6.51808
6.57239
6.62247
6.66824
6.70967
6.74671
6.77938
6.80766
6.83159
6.85118
6.8665
6.87759
6.88448
6.88732
6.88621
6.88117
6.87227
6.85962
6.84331
6.82347
6.80019
6.77361
6.74386
6.71109
6.67543
6.63707
6.59616
6.5529
6.50748
6.46008
6.41087
6.36001
6.30762
6.25378
6.19856
6.14192
6.08374
6.02387
5.96173
5.89758
5.83127
5.76258
5.6913
5.61721
5.54018
5.46
5.37661
5.29003
5.20038
5.10799
5.01311
4.91603
4.81711
4.71671
4.61523
4.51306
4.41057
4.3081
4.20593
4.1044
4.00394
3.9048
3.80721
3.71135
3.61737
3.52542
3.43565
3.34823
3.26322
3.18067
3.10057
3.02294
2.94779
2.87513
2.80492
2.73714
2.67172
2.60863
2.54781
2.48922
2.43281
2.37851
2.32629
2.27608
2.22782
2.18146
2.13694
2.09423
2.05327
2.01405
1.97654
1.94075
1.90666
1.8742
1.84354
1.81478
1.78549
0.276989
0.383361
0.456066
0.512744
0.560873
0.603815
0.643372
0.68069
0.716595
0.751719
0.786584
0.821628
0.857227
0.893702
0.931323
0.970315
1.01086
1.05309
1.09713
1.14303
1.19086
1.24064
1.2924
1.34614
1.40187
1.45957
1.51925
1.5809
1.64451
1.71008
1.77762
1.84712
1.9185
1.99175
2.06688
2.14388
2.22272
2.30338
2.38582
2.46999
2.55585
2.64337
2.73248
2.82315
2.91532
3.00894
3.10397
3.20034
3.29802
3.39694
3.49704
3.59828
3.70056
3.80392
3.90828
4.01357
4.11971
4.2266
4.33415
4.44227
4.55085
4.65977
4.7689
4.87808
4.98715
5.09594
5.20426
5.31191
5.41866
5.5243
5.62857
5.73124
5.83205
5.93073
6.02703
6.12069
6.21144
6.29904
6.38323
6.46379
6.54049
6.61313
6.68153
6.74551
6.80495
6.85972
6.90972
6.95489
6.99518
7.03057
7.06105
7.08662
7.1073
7.12313
7.13415
7.14042
7.14206
7.1392
7.13175
7.1198
7.10343
7.08273
7.05781
7.02878
6.99575
6.95888
6.91829
6.87418
6.82671
6.7761
6.72256
6.66635
6.60771
6.5469
6.48417
6.41978
6.35386
6.28635
6.21717
6.14683
6.07544
6.00363
5.93103
5.85724
5.78208
5.70536
5.62687
5.54646
5.46385
5.37894
5.29167
5.20206
5.11034
5.01668
4.92129
4.82443
4.72639
4.62749
4.52802
4.42832
4.32867
4.22927
4.13035
4.03291
3.93677
3.84204
3.74885
3.65736
3.56769
3.47992
3.39427
3.31086
3.22972
3.15087
3.07432
3.00008
2.9282
2.85865
2.7914
2.72641
2.66363
2.60302
2.54456
2.48819
2.43387
2.38155
2.33117
2.28268
2.23604
2.1912
2.14812
2.10677
2.06711
2.02915
1.99286
1.95825
1.92523
1.89395
1.86444
1.83474
0.281882
0.388372
0.461663
0.519046
0.567978
0.61181
0.65234
0.690699
0.727688
0.763912
0.799855
0.835917
0.872436
0.909702
0.947956
0.987393
1.02817
1.07042
1.11425
1.15971
1.20688
1.2558
1.3065
1.35901
1.41335
1.46953
1.5276
1.58757
1.64942
1.71317
1.7789
1.84667
1.91638
1.98806
2.0617
2.13731
2.21489
2.29443
2.37591
2.4593
2.54459
2.63175
2.72073
2.81152
2.90406
2.99833
3.09427
3.19185
3.29103
3.39176
3.49398
3.59764
3.70268
3.80915
3.91694
4.02596
4.13613
4.24736
4.35955
4.47255
4.58633
4.70075
4.81565
4.93087
5.04622
5.16152
5.27656
5.39113
5.50498
5.61786
5.7295
5.83962
5.94793
6.05415
6.15797
6.25909
6.35722
6.45207
6.54335
6.63078
6.71412
6.79312
6.86755
6.93722
7.00194
7.06159
7.11602
7.16514
7.20889
7.24723
7.28014
7.30759
7.3296
7.34619
7.35739
7.36328
7.36399
7.35971
7.35014
7.33539
7.31554
7.29065
7.26083
7.22616
7.18678
7.1428
7.0944
7.04173
6.98499
6.92441
6.86023
6.79277
6.72234
6.64924
6.57358
6.4955
6.4157
6.33475
6.25363
6.172
6.08996
6.00809
5.92553
5.84272
5.75968
5.67634
5.59254
5.5081
5.42278
5.33639
5.24878
5.15986
5.06969
4.97831
4.88583
4.79239
4.69815
4.60332
4.50812
4.41278
4.31751
4.22248
4.12779
4.03417
3.94169
3.85047
3.76066
3.67237
3.58572
3.50079
3.41807
3.33741
3.25879
3.18223
3.10773
3.03527
2.96496
2.89681
2.83079
2.76688
2.70503
2.64521
2.58742
2.53162
2.47776
2.42579
2.37567
2.32735
2.28081
2.23599
2.19287
2.15141
2.11159
2.0734
2.03684
2.00186
1.96846
1.93674
1.90668
1.87673
0.282864
0.388974
0.462403
0.520095
0.569458
0.613838
0.65503
0.694156
0.731992
0.769115
0.80597
0.842906
0.880202
0.918169
0.957007
0.99687
1.03789
1.08016
1.12379
1.16882
1.21534
1.26338
1.31301
1.36426
1.41713
1.47168
1.52799
1.58619
1.64618
1.70802
1.77175
1.83737
1.90489
1.9744
2.04597
2.11961
2.19536
2.27321
2.35317
2.43525
2.51943
2.60569
2.69402
2.7844
2.8768
2.97118
3.06752
3.16579
3.26594
3.36793
3.47171
3.57723
3.68443
3.79325
3.90367
4.01561
4.12901
4.24377
4.35981
4.477
4.59529
4.71451
4.83449
4.95506
5.07599
5.19715
5.3183
5.4392
5.55958
5.67916
5.79766
5.91477
6.03016
6.14351
6.25448
6.36274
6.46796
6.56981
6.66795
6.76208
6.8519
6.93713
7.01751
7.0928
7.16278
7.22728
7.28615
7.33925
7.3865
7.42784
7.46323
7.49264
7.51606
7.5335
7.54498
7.55056
7.55051
7.54496
7.53344
7.51603
7.4928
7.46382
7.42916
7.3889
7.34315
7.29202
7.23571
7.17435
7.10817
7.03738
6.96222
6.88268
6.79932
6.71267
6.62346
6.5326
6.44022
6.34712
6.2527
6.15789
6.06317
5.96899
5.87547
5.78287
5.69136
5.60094
5.51153
5.42296
5.33498
5.24736
5.15982
5.07219
4.98432
4.89614
4.8076
4.7187
4.62947
4.54
4.45039
4.36077
4.27127
4.18202
4.09319
4.00509
3.91789
3.83173
3.74674
3.66304
3.5807
3.49975
3.42062
3.34328
3.26777
3.1941
3.12227
3.05231
2.98444
2.91854
2.85455
2.79247
2.73225
2.67384
2.61729
2.56259
2.50969
2.45855
2.40913
2.36141
2.31535
2.27092
2.22809
2.18684
2.14715
2.109
2.07237
2.03726
2.00369
1.97173
1.94133
1.9113
0.281665
0.386894
0.459855
0.517292
0.566566
0.611012
0.652419
0.691901
0.730215
0.767913
0.805413
0.84304
0.881057
0.919726
0.95917
0.999504
1.04083
1.08322
1.12674
1.17146
1.21743
1.26471
1.31336
1.36349
1.41504
1.46809
1.52268
1.57884
1.63666
1.69626
1.75772
1.82111
1.88647
1.95386
2.02333
2.09493
2.16872
2.24471
2.32294
2.40342
2.48616
2.57117
2.65844
2.74796
2.83972
2.9337
3.02988
3.12822
3.22871
3.33129
3.43594
3.54261
3.65125
3.76181
3.87427
3.98854
4.10456
4.22223
4.34145
4.46208
4.58403
4.70718
4.83138
4.95646
5.08221
5.20847
5.33498
5.46148
5.58766
5.71326
5.83796
5.96143
6.08331
6.20323
6.32083
6.43575
6.54761
6.65603
6.76065
6.86113
6.95712
7.0483
7.13436
7.21504
7.29007
7.35925
7.42238
7.4793
7.52989
7.57408
7.61181
7.64303
7.66771
7.68583
7.69742
7.70253
7.70166
7.69475
7.68113
7.66092
7.63415
7.60086
7.56112
7.51499
7.46256
7.40393
7.33912
7.2683
7.19172
7.10966
7.02254
6.93113
6.83556
6.73643
6.63464
6.52977
6.4229
6.31477
6.20588
6.09697
5.98873
5.88181
5.77669
5.67378
5.57337
5.47562
5.3805
5.28789
5.19754
5.10911
5.02227
4.93668
4.85205
4.76813
4.6847
4.60161
4.51873
4.43601
4.35341
4.27095
4.18867
4.10663
4.02493
3.94376
3.86324
3.78351
3.70467
3.62683
3.55009
3.47453
3.40034
3.3276
3.25637
3.18667
3.11852
3.0519
2.98703
2.92389
2.86246
2.80271
2.74464
2.68823
2.63356
2.58057
2.5292
2.47943
2.43122
2.38453
2.33936
2.2957
2.25352
2.2128
2.17352
2.13566
2.09922
2.06424
2.03074
1.99876
1.96823
1.93831
0.27787
0.381204
0.45317
0.509978
0.558871
0.60316
0.644628
0.68437
0.723118
0.76139
0.799567
0.837923
0.876648
0.915945
0.955962
0.9968
1.03854
1.08123
1.12493
1.16967
1.21548
1.26241
1.31049
1.35973
1.41021
1.46207
1.5154
1.57022
1.62664
1.68472
1.74457
1.80627
1.8699
1.93554
2.00325
2.07312
2.1452
2.21954
2.29619
2.37517
2.45652
2.54025
2.62636
2.71486
2.80575
2.89901
2.99463
3.09259
3.19287
3.29544
3.40026
3.5073
3.61651
3.72785
3.84127
3.9567
4.0741
4.19336
4.31441
4.43714
4.56145
4.68723
4.81433
4.94256
5.07169
5.20156
5.33193
5.46253
5.59307
5.72328
5.85279
5.98124
6.10824
6.23342
6.35639
6.47673
6.59403
6.7079
6.81792
6.92371
7.02488
7.12107
7.21195
7.29719
7.37652
7.44965
7.51638
7.57649
7.62984
7.67632
7.71586
7.74838
7.77384
7.7922
7.80346
7.80768
7.80579
7.79722
7.78122
7.75791
7.72729
7.68935
7.64413
7.59167
7.53205
7.46541
7.39201
7.31203
7.22563
7.13319
7.03532
6.93177
6.82332
6.7106
6.59429
6.4749
6.35327
6.23028
6.1068
5.98375
5.86204
5.74253
5.62596
5.51295
5.40396
5.29928
5.19897
5.10293
5.0109
4.92247
4.83719
4.7546
4.67424
4.59567
4.51851
4.44243
4.36714
4.29242
4.2181
4.14408
4.07029
3.99671
3.92337
3.85035
3.77775
3.70565
3.63414
3.56333
3.49328
3.4241
3.35591
3.28881
3.22284
3.15807
3.09454
3.03228
2.9714
2.91192
2.85386
2.79723
2.74203
2.6882
2.63588
2.58503
2.53563
2.48764
2.44105