/*--------------------------------*- C++ -*----------------------------------*\
  =========                 |
  \\      /  F ield         | OpenFOAM: The Open Source CFD Toolbox
   \\    /   O peration     | Website:  https://openfoam.org
    \\  /    A nd           | Version:  8
     \\/     M anipulation  |
\*---------------------------------------------------------------------------*/
FoamFile
{
    version     2.0;
    format      ascii;
    class       volScalarField;
    location    "95";
    object      nut;
}
// * * * * * * * * * * * * * * * * * * * * * * * * * * * * * * * * * * * * * //

dimensions      [0 2 -1 0 0 0 0];

internalField   nonuniform List<scalar> 
12225
(
4.14965e-05
3.93433e-05
3.74818e-05
3.54353e-05
3.37808e-05
3.24259e-05
3.1504e-05
3.09153e-05
3.09204e-05
3.11028e-05
3.15765e-05
3.21246e-05
3.31708e-05
3.38514e-05
3.51472e-05
3.5728e-05
3.78131e-05
3.55222e-05
0.000332379
0.000215177
0.000179299
0.000157644
0.000146227
0.000138168
0.000132671
0.000131728
0.000129403
0.000130165
0.000128935
0.000129558
0.000128545
0.000128703
0.000127941
0.000127617
0.00012768
0.000126325
0.000675097
0.000450724
0.00035584
0.00030975
0.000275328
0.000251004
0.00023171
0.00021717
0.000202584
0.00019201
0.000182493
0.000174979
0.000169251
0.00016328
0.000160146
0.000154924
0.000153529
0.000148928
0.00083372
0.000684792
0.000572092
0.000499854
0.000449519
0.000411828
0.000380784
0.000355848
0.000333949
0.000314548
0.000298175
0.000281352
0.000270063
0.000255462
0.000247709
0.000235315
0.000229313
0.000218951
0.000861293
0.000802511
0.000742201
0.000676467
0.000624058
0.000581246
0.000545883
0.000514381
0.000489467
0.000464163
0.000445702
0.000423653
0.000409588
0.000390176
0.000379147
0.000362104
0.000353174
0.000337546
0.00085499
0.000840349
0.000822233
0.000786427
0.000750914
0.0007158
0.000685773
0.00065598
0.000632493
0.000607282
0.000588828
0.000566875
0.000551909
0.000532505
0.000520056
0.000502729
0.000491984
0.000475703
0.000852912
0.000850686
0.000844244
0.000832821
0.000817433
0.000796941
0.00077789
0.000756634
0.000738848
0.000718976
0.000703382
0.000685334
0.000671801
0.000655434
0.000643702
0.000628689
0.000618433
0.000603724
0.000851925
0.00085181
0.000850178
0.000847386
0.000841457
0.000833711
0.000824887
0.00081336
0.00080277
0.000790368
0.000779604
0.000767347
0.000757192
0.000745435
0.000736103
0.00072492
0.000716389
0.000705029
0.000851753
0.000851539
0.000851038
0.000850334
0.000848883
0.000846159
0.000843032
0.000838277
0.000833378
0.000827307
0.000821143
0.000814665
0.000808261
0.000801316
0.000794963
0.000788043
0.000781687
0.000774592
0.000851771
0.000851387
0.000851048
0.00085063
0.000850249
0.000849363
0.000848403
0.000846769
0.000844942
0.000842504
0.000839885
0.000836742
0.000833714
0.000830039
0.000826816
0.000822728
0.000819622
0.000814939
0.000851788
0.000851358
0.000851013
0.000850612
0.00085033
0.000849903
0.000849524
0.000848923
0.000848295
0.00084738
0.000846446
0.000845147
0.00084395
0.000842294
0.000840921
0.000838932
0.000837515
0.000835196
0.000851789
0.000851359
0.000850996
0.000850605
0.000850292
0.000849937
0.000849644
0.000849277
0.00084895
0.000848496
0.000848087
0.000847491
0.000846976
0.000846213
0.000845604
0.00084467
0.000843999
0.000842899
0.000851786
0.000851363
0.000850986
0.000850604
0.000850269
0.000849925
0.000849629
0.000849311
0.000849039
0.000848723
0.000848455
0.000848116
0.000847831
0.000847448
0.000847136
0.000846701
0.000846359
0.000845868
0.000851783
0.000851364
0.000850978
0.000850602
0.000850256
0.000849916
0.000849607
0.000849298
0.00084902
0.000848737
0.000848484
0.000848218
0.000847981
0.000847726
0.000847498
0.000847246
0.000847022
0.00084677
0.000851781
0.000851364
0.000850973
0.000850598
0.000850247
0.000849909
0.000849592
0.000849286
0.000848999
0.000848722
0.000848462
0.000848209
0.000847972
0.000847741
0.000847524
0.000847312
0.000847112
0.000846916
0.00085178
0.000851363
0.000850969
0.000850594
0.00085024
0.000849902
0.000849581
0.000849275
0.000848985
0.000848707
0.000848444
0.000848191
0.000847951
0.000847722
0.000847503
0.000847294
0.000847095
0.000846904
0.000851779
0.000851363
0.000850967
0.000850591
0.000850234
0.000849895
0.000849573
0.000849266
0.000848974
0.000848696
0.00084843
0.000848177
0.000847935
0.000847705
0.000847485
0.000847274
0.000847073
0.000846881
0.000851779
0.000851362
0.000850965
0.000850589
0.000850231
0.000849891
0.000849568
0.00084926
0.000848967
0.000848687
0.000848421
0.000848167
0.000847924
0.000847692
0.000847471
0.000847259
0.000847057
0.000846864
0.000851779
0.000851362
0.000850965
0.000850588
0.00085023
0.00084989
0.000849566
0.000849258
0.000848964
0.000848684
0.000848417
0.000848162
0.000847919
0.000847686
0.000847464
0.000847252
0.000847049
0.000846855
0.000851779
0.000851362
0.000850966
0.000850589
0.000850232
0.000849892
0.000849568
0.000849261
0.000848967
0.000848688
0.000848421
0.000848166
0.000847923
0.00084769
0.000847468
0.000847256
0.000847052
0.000846858
0.000851779
0.000851363
0.000850967
0.000850592
0.000850235
0.000849897
0.000849574
0.000849268
0.000848975
0.000848697
0.000848428
0.000848173
0.000847925
0.000847691
0.00084746
0.000847242
0.000847024
0.000846821
0.000851778
0.000851366
0.000850968
0.000850599
0.000850241
0.000849908
0.000849581
0.000849276
0.000848967
0.000848675
0.000848369
0.000848078
0.000847763
0.000847465
0.000847134
0.000846825
0.000846473
0.000846155
0.000851777
0.000851374
0.000850972
0.000850615
0.000850241
0.000849891
0.00084948
0.000849057
0.000848533
0.000847983
0.000847308
0.000846614
0.000845779
0.000844955
0.000843974
0.000843054
0.000841949
0.000840977
0.000851802
0.00085141
0.000850971
0.00085055
0.000849862
0.000848969
0.00084761
0.000845984
0.000843911
0.000841646
0.000838971
0.000836235
0.000833145
0.00083015
0.00082681
0.000823739
0.000820257
0.000817266
0.000852138
0.000851403
0.000850235
0.000848252
0.000844475
0.00083936
0.00083272
0.000825775
0.000817934
0.000810026
0.000801654
0.000793675
0.000785396
0.000777786
0.000769843
0.000762821
0.000755269
0.000748967
0.000854143
0.000847719
0.000840126
0.000827122
0.000808718
0.000789654
0.000769995
0.000751439
0.000733347
0.000716942
0.000701005
0.000686861
0.000672938
0.000660796
0.000648536
0.000638123
0.000627174
0.000618273
0.000854971
0.000818337
0.000776237
0.000726634
0.000684957
0.000649868
0.000618496
0.000592052
0.000568441
0.000548368
0.000529781
0.000514085
0.000498884
0.000486159
0.000473387
0.00046291
0.000451874
0.000443082
0.000807488
0.000666879
0.000570561
0.00050986
0.000465669
0.00043121
0.000404168
0.000382532
0.000364249
0.000349117
0.00033602
0.000325155
0.000314598
0.000306355
0.000298111
0.000291525
0.000284482
0.000279145
0.000501854
0.000348406
0.000292694
0.000259178
0.000236334
0.000221184
0.000211559
0.000204032
0.0001985
0.000195077
0.00019224
0.000190388
0.000188608
0.000187466
0.000186196
0.000185504
0.000184588
0.000184179
7.27287e-05
7.02228e-05
6.79541e-05
6.56132e-05
6.3383e-05
6.12761e-05
5.94931e-05
5.79566e-05
5.671e-05
5.57015e-05
5.49756e-05
5.44148e-05
5.41038e-05
5.38793e-05
5.38737e-05
5.39457e-05
5.40558e-05
5.43051e-05
4.2558e-06
5.44508e-05
8.05545e-05
0.000103461
0.000124043
0.000142798
0.000160052
0.000175709
0.000188217
0.000195079
0.000186653
3.5396e-05
3.27548e-05
3.3121e-05
3.61396e-05
4.24609e-05
4.42465e-05
4.38752e-05
4.33614e-05
4.3449e-05
4.55703e-05
5.46644e-05
5.20618e-05
5.39862e-05
5.59092e-05
5.80216e-05
6.02532e-05
6.25126e-05
6.47961e-05
6.705e-05
6.92887e-05
7.14725e-05
7.36217e-05
7.57038e-05
7.77397e-05
7.97015e-05
8.16123e-05
8.34482e-05
8.52323e-05
8.69443e-05
8.8608e-05
9.02059e-05
9.17585e-05
9.32509e-05
9.4702e-05
9.6098e-05
9.74567e-05
9.87654e-05
0.00010004
0.00010127
0.000102468
0.000103626
0.000104754
0.000105846
0.00010691
0.00010794
0.000108945
0.000109918
0.000110868
0.000111789
0.000112688
0.000113559
0.000114406
0.000115225
0.000116019
0.000116787
0.000117532
0.000118253
0.000118951
0.000119627
0.000120281
0.000120918
0.000121533
0.000122135
0.000122718
0.000123289
0.000123845
0.000124393
0.000124929
0.000125461
0.000125983
0.000126506
0.000127021
0.000127541
0.000128057
0.00012858
0.0001291
0.000129627
0.000130154
0.000130689
0.000131229
0.000131767
0.000132296
0.000132803
0.000133267
0.000133636
0.000133808
0.000133561
0.000132189
0.000134495
0.000137714
0.000134288
0.000138393
0.000137983
0.000135166
0.00013679
0.000139522
0.000136432
0.000137695
0.000136792
0.000139595
0.000138977
0.00014037
0.000139494
0.000138202
0.000139807
0.000139227
0.000139187
0.00013898
0.000138669
0.0001383
0.000137858
0.000137342
0.000136751
0.000136078
0.000135323
0.000134479
0.000133547
0.000132523
0.000131407
0.000130269
0.000129037
0.000127658
0.000126207
0.000124677
0.000123079
0.000121431
0.000119682
0.000117837
0.000116143
0.000113816
0.000111202
0.00010971
0.000108412
0.000107124
0.000105826
0.000104515
0.000103212
0.000101885
0.000100635
9.935e-05
9.80247e-05
9.67905e-05
9.55179e-05
9.42663e-05
9.30359e-05
9.18165e-05
9.0612e-05
8.94308e-05
8.82843e-05
8.71707e-05
8.60836e-05
8.50246e-05
8.3996e-05
8.29996e-05
8.20324e-05
8.10965e-05
8.01906e-05
7.93151e-05
7.84679e-05
7.76493e-05
7.68541e-05
7.60872e-05
7.53275e-05
7.46082e-05
7.38443e-05
7.31362e-05
7.24177e-05
7.09764e-05
6.95549e-05
9.18375e-06
7.51281e-05
0.00015299
0.000215501
0.000263211
0.000299046
0.000324322
0.000338773
0.000340315
0.000323742
0.00028201
0.000215923
0.00019814
0.000195538
0.000199757
0.000205546
0.000208793
0.000211532
0.000218394
0.000233642
0.000263147
0.000307558
0.000325955
0.000336508
0.000346809
0.000358519
0.000371685
0.000386076
0.000401439
0.000417791
0.000434937
0.000452712
0.000470982
0.000489591
0.000508406
0.00052728
0.000546098
0.000564735
0.000583109
0.000601119
0.00061871
0.000635892
0.000652644
0.000668932
0.000684756
0.000700098
0.00071497
0.000729362
0.000743296
0.000756765
0.000769794
0.000782379
0.000794545
0.000806285
0.000817625
0.000828559
0.000839111
0.000849275
0.000859079
0.000868522
0.000877636
0.000886438
0.000894864
0.00090289
0.000910533
0.000917773
0.00092463
0.000931087
0.000937166
0.000942856
0.000948182
0.000953142
0.000957764
0.000962056
0.00096605
0.000969757
0.000973213
0.000976435
0.000979468
0.00098234
0.000985098
0.000987774
0.000990429
0.0009931
0.000995849
0.00099871
0.00100174
0.001005
0.00100854
0.00101245
0.00101681
0.00102165
0.00102702
0.00103298
0.00103958
0.00104692
0.00105513
0.00106439
0.00107496
0.00108736
0.00109583
0.00110165
0.00111769
0.00111353
0.00111781
0.00112951
0.00113488
0.00113983
0.00115291
0.00115527
0.00117048
0.00117853
0.00118518
0.00118609
0.0011904
0.00120064
0.00120668
0.0012114
0.00121946
0.00122457
0.00122908
0.00123272
0.00123543
0.00123715
0.00123785
0.00123735
0.00123568
0.00123277
0.0012286
0.00122318
0.00121665
0.00120924
0.00120068
0.00119115
0.00118069
0.00116938
0.00115736
0.00114462
0.00113099
0.00111746
0.00110274
0.00108349
0.00106272
0.0010413
0.00101965
0.00099801
0.000976499
0.000955277
0.000934313
0.00091377
0.000893645
0.000873779
0.000854512
0.000836058
0.000818349
0.000801068
0.000784125
0.000767664
0.000751738
0.000736367
0.000721431
0.000706911
0.000692848
0.00067926
0.000666111
0.000653386
0.000641097
0.000629226
0.00061775
0.000606661
0.000595914
0.000585525
0.000575362
0.000565572
0.000555768
0.000546167
0.000537135
0.000522644
0.000507893
0.000455765
1.6723e-05
0.000107917
0.000212116
0.000298882
0.000367849
0.000420876
0.00046004
0.000486598
0.000500769
0.000502304
0.000492019
0.000474951
0.000467028
0.000467528
0.000473594
0.000482616
0.00049321
0.000506522
0.000524817
0.000549675
0.000580643
0.00061312
0.000639272
0.000663808
0.000689317
0.00071659
0.000745692
0.000776821
0.000810602
0.0008457
0.000881749
0.000918481
0.000955682
0.000993139
0.00103064
0.00106799
0.001105
0.00114149
0.00117737
0.00121257
0.00124702
0.00128068
0.00131354
0.00134556
0.00137675
0.00140708
0.00143659
0.00146527
0.00149313
0.0015202
0.00154648
0.001572
0.00159678
0.00162082
0.00164415
0.00166678
0.00168871
0.00170996
0.00173055
0.00175047
0.00176974
0.00178837
0.00180633
0.00182362
0.00184024
0.00185619
0.00187148
0.0018861
0.00190007
0.00191338
0.00192605
0.00193809
0.00194953
0.00196037
0.00197065
0.00198038
0.00198962
0.00199838
0.00200671
0.00201466
0.00202228
0.00202963
0.00203676
0.00204374
0.00205065
0.00205754
0.0020645
0.0020716
0.00207894
0.00208661
0.00209472
0.00210335
0.00211256
0.00212242
0.00213303
0.00214443
0.00215666
0.00216963
0.00218304
0.00219615
0.00220733
0.00221854
0.00223134
0.00223689
0.00224849
0.00226211
0.00227284
0.00228508
0.00229977
0.00231085
0.00232694
0.00233866
0.00235054
0.00236148
0.00237183
0.00238375
0.00239218
0.00240011
0.00240887
0.00241549
0.00242055
0.00242385
0.00242524
0.00242461
0.00242184
0.00241684
0.00240957
0.00239995
0.002388
0.00237377
0.00235741
0.00233914
0.00231884
0.00229669
0.00227284
0.00224744
0.00222068
0.0021927
0.0021635
0.00213363
0.0021026
0.0020683
0.002032
0.00199465
0.00195686
0.00191901
0.00188133
0.00184402
0.00180719
0.00177097
0.00173571
0.00170128
0.00166776
0.00163599
0.00160573
0.00157605
0.00154669
0.00151828
0.00149087
0.0014645
0.00143876
0.00141366
0.00138933
0.00136585
0.00134305
0.00132095
0.00129957
0.00127888
0.00125883
0.00123938
0.00122048
0.00120211
0.00118411
0.00116659
0.00114906
0.00113175
0.00111443
0.00109393
0.00107275
0.00100118
2.53573e-05
0.000141542
0.000268122
0.000374489
0.000460025
0.000527026
0.00057819
0.000615953
0.000642444
0.000659653
0.00066985
0.000676208
0.00068282
0.000691665
0.000703357
0.000717935
0.000735414
0.000756142
0.000780634
0.000809154
0.000841318
0.00087593
0.000911821
0.000949539
0.000989554
0.00103201
0.0010769
0.00112382
0.00117189
0.00122108
0.00127116
0.00132179
0.00137287
0.0014242
0.00147558
0.00152682
0.00157786
0.00162813
0.00167759
0.00172615
0.00177376
0.00182037
0.00186595
0.00191046
0.00195391
0.00199629
0.00203761
0.00207787
0.0021171
0.00215531
0.00219252
0.00222874
0.002264
0.00229832
0.0023317
0.00236418
0.00239575
0.00242644
0.00245625
0.0024852
0.00251327
0.00254049
0.00256685
0.00259235
0.00261699
0.00264077
0.0026637
0.00268577
0.00270699
0.00272737
0.00274692
0.00276566
0.00278359
0.00280074
0.00281713
0.00283279
0.00284775
0.00286204
0.00287571
0.0028888
0.00290137
0.00291346
0.00292515
0.0029365
0.00294756
0.00295842
0.00296916
0.00297984
0.00299056
0.0030014
0.00301246
0.00302381
0.00303551
0.00304762
0.00306017
0.00307318
0.00308657
0.00310019
0.00311376
0.00312691
0.00313939
0.0031518
0.00316403
0.00317463
0.00318747
0.0032009
0.00321367
0.00322719
0.0032413
0.00325455
0.00326891
0.00328212
0.00329646
0.00331008
0.00332106
0.00333046
0.00333877
0.00334676
0.00335387
0.00335907
0.00336228
0.00336328
0.00336188
0.00335792
0.00335126
0.00334179
0.00332952
0.00331425
0.00329603
0.00327492
0.00325107
0.00322466
0.00319567
0.00316431
0.00313076
0.00309521
0.0030579
0.00301902
0.00297876
0.00293738
0.00289471
0.00284989
0.00280338
0.00275584
0.00270781
0.00265968
0.00261173
0.00256419
0.00251722
0.00247098
0.00242575
0.00238157
0.00233848
0.00229689
0.00225683
0.00221797
0.00218065
0.00214501
0.00211073
0.00207799
0.00204581
0.00201434
0.00198395
0.00195467
0.00192619
0.00189855
0.00187186
0.001846
0.0018209
0.00179654
0.00177282
0.00174973
0.0017271
0.00170495
0.00168291
0.00166105
0.00163897
0.00161466
0.00159394
0.00152222
3.44872e-05
0.000171494
0.000319374
0.000444013
0.000544892
0.000624819
0.000687011
0.000734716
0.000770866
0.000798176
0.00081926
0.000836705
0.000852956
0.000869901
0.000888813
0.000910457
0.000935266
0.000963506
0.000995357
0.00103089
0.00106999
0.00111237
0.00115771
0.00120595
0.00125697
0.00131057
0.00136645
0.00142424
0.00148349
0.00154393
0.00160531
0.00166739
0.00172981
0.00179226
0.00185452
0.00191634
0.0019775
0.00203788
0.00209738
0.0021559
0.00221339
0.00226978
0.00232505
0.00237915
0.00243208
0.00248383
0.0025344
0.0025838
0.00263204
0.00267914
0.00272511
0.00276997
0.00281374
0.00285644
0.00289809
0.00293869
0.00297827
0.00301683
0.00305438
0.00309094
0.0031265
0.00316107
0.00319465
0.00322724
0.00325884
0.00328945
0.00331906
0.00334768
0.00337531
0.00340195
0.0034276
0.00345228
0.00347598
0.00349872
0.00352053
0.00354141
0.00356139
0.00358049
0.00359876
0.00361623
0.00363294
0.00364894
0.00366427
0.003679
0.00369319
0.00370689
0.00372018
0.00373312
0.00374579
0.00375826
0.0037706
0.00378288
0.00379514
0.00380743
0.0038198
0.00383223
0.00384468
0.00385705
0.0038692
0.00388101
0.00389254
0.00390394
0.00391511
0.003926
0.0039376
0.00394942
0.00396117
0.0039732
0.00398529
0.00399703
0.00400924
0.00402238
0.00403578
0.0040468
0.0040552
0.00406255
0.00406959
0.00407566
0.00408039
0.00408325
0.00408401
0.00408242
0.00407826
0.00407134
0.00406148
0.00404856
0.00403251
0.00401318
0.00399059
0.00396479
0.00393587
0.00390399
0.00386923
0.00383176
0.00379181
0.00374961
0.00370542
0.00365948
0.00361199
0.00356315
0.00351296
0.00346117
0.00340804
0.00335401
0.00329951
0.00324491
0.0031905
0.00313652
0.00308316
0.00303058
0.00297902
0.00292857
0.00287932
0.00283149
0.00278514
0.00274019
0.00269677
0.00265499
0.0026148
0.002577
0.00254061
0.00250566
0.00247213
0.00243999
0.00240851
0.00237796
0.00234854
0.00232
0.00229225
0.00226532
0.00223905
0.00221354
0.00218852
0.00216398
0.00213967
0.00211556
0.0020913
0.0020655
0.00204356
0.00198217
4.34973e-05
0.000198892
0.000366156
0.00050781
0.000622978
0.000715246
0.000788065
0.000845229
0.000890112
0.000925772
0.000955004
0.00098036
0.00100409
0.00102807
0.0010537
0.00108198
0.00111351
0.00114863
0.00118751
0.00123016
0.00127652
0.00132643
0.00137968
0.00143604
0.00149528
0.00155706
0.00162106
0.0016869
0.0017542
0.00182266
0.00189195
0.0019618
0.00203189
0.00210197
0.00217179
0.00224114
0.00230985
0.00237778
0.00244481
0.00251086
0.00257585
0.00263972
0.00270244
0.00276396
0.00282428
0.00288339
0.00294127
0.00299794
0.0030534
0.00310766
0.00316074
0.00321266
0.00326342
0.00331304
0.00336155
0.00340894
0.00345524
0.00350046
0.00354459
0.00358765
0.00362964
0.00367055
0.0037104
0.00374916
0.00378684
0.00382344
0.00385894
0.00389333
0.00392662
0.00395879
0.00398984
0.00401977
0.00404857
0.00407624
0.0041028
0.00412824
0.00415258
0.00417584
0.00419802
0.00421917
0.0042393
0.00425845
0.00427666
0.00429397
0.00431043
0.00432609
0.00434099
0.00435521
0.0043688
0.00438182
0.00439434
0.0044064
0.00441808
0.00442939
0.00444036
0.00445099
0.00446129
0.00447122
0.00448074
0.00448985
0.00449866
0.00450725
0.00451558
0.00452374
0.00453203
0.00454036
0.00454861
0.00455705
0.00456529
0.00457354
0.00458267
0.00459296
0.0046011
0.00460748
0.00461234
0.00461698
0.00462094
0.00462389
0.00462548
0.00462538
0.00462332
0.00461902
0.00461227
0.00460282
0.00459048
0.00457508
0.00455649
0.0045346
0.00450937
0.0044808
0.00444898
0.00441402
0.00437603
0.00433522
0.0042918
0.004246
0.00419808
0.00414828
0.00409684
0.00404395
0.00398972
0.00393417
0.00387753
0.00382009
0.00376222
0.00370424
0.00364641
0.00358898
0.00353214
0.00347609
0.00342101
0.00336703
0.00331425
0.0032628
0.00321278
0.00316418
0.0031171
0.0030716
0.0030277
0.00298573
0.00294546
0.00290747
0.00287138
0.0028371
0.00280429
0.00277283
0.0027427
0.00271333
0.00268468
0.0026569
0.00262969
0.0026032
0.0025772
0.00255166
0.00252644
0.00250147
0.0024765
0.00245058
0.00242771
0.00237341
5.21091e-05
0.000223438
0.000407859
0.000565073
0.00069356
0.000797651
0.000880858
0.000947358
0.00100081
0.00104449
0.00108129
0.00111383
0.00114434
0.00117471
0.00120644
0.0012406
0.00127792
0.00131883
0.00136352
0.00141204
0.00146431
0.00152016
0.00157938
0.0016417
0.00170682
0.00177441
0.00184411
0.00191557
0.00198844
0.0020624
0.00213713
0.00221235
0.00228779
0.00236321
0.00243838
0.00251311
0.00258724
0.00266063
0.00273318
0.00280478
0.00287537
0.00294489
0.00301329
0.00308053
0.00314659
0.00321147
0.00327514
0.00333761
0.00339888
0.00345896
0.00351786
0.00357559
0.00363216
0.00368758
0.00374188
0.00379504
0.0038471
0.00389804
0.00394788
0.00399661
0.00404423
0.00409074
0.00413613
0.00418039
0.00422351
0.00426547
0.00430626
0.00434585
0.00438424
0.0044214
0.00445732
0.00449198
0.00452536
0.00455744
0.00458823
0.00461771
0.00464587
0.00467271
0.00469825
0.00472247
0.00474541
0.00476707
0.00478748
0.00480666
0.00482465
0.00484148
0.0048572
0.00487185
0.00488548
0.00489815
0.0049099
0.00492078
0.00493086
0.00494016
0.00494871
0.00495657
0.00496373
0.00497024
0.00497609
0.00498134
0.00498612
0.00499053
0.00499452
0.0049981
0.00500155
0.00500491
0.00500783
0.00501134
0.00501564
0.00501904
0.00502216
0.00502545
0.0050279
0.00502949
0.00503043
0.00503093
0.00503084
0.00502993
0.00502791
0.00502453
0.0050195
0.00501257
0.00500347
0.00499196
0.00497782
0.00496083
0.00494082
0.00491765
0.00489123
0.00486153
0.00482856
0.00479243
0.00475326
0.00471123
0.00466656
0.00461947
0.00457018
0.00451895
0.004466
0.00441154
0.00435574
0.00429875
0.00424077
0.00418205
0.00412291
0.00406361
0.00400441
0.00394556
0.00388726
0.00382969
0.00377303
0.00371742
0.00366295
0.00360975
0.0035579
0.00350744
0.00345845
0.00341098
0.00336508
0.0033209
0.00327839
0.0032378
0.00319947
0.00316351
0.00312965
0.0030976
0.00306716
0.00303793
0.0030097
0.00298239
0.00295541
0.00292908
0.0029032
0.00287776
0.00285267
0.00282786
0.00280317
0.00277802
0.0027549
0.00270829
6.00709e-05
0.000244777
0.000443988
0.000615138
0.000755893
0.000871166
0.000964424
0.0010401
0.00110205
0.00115365
0.00119789
0.00123738
0.00127439
0.0013108
0.00134813
0.00138753
0.00142981
0.00147546
0.00152474
0.00157772
0.00163435
0.00169447
0.00175784
0.0018242
0.00189323
0.00196462
0.00203801
0.00211308
0.00218949
0.00226693
0.00234511
0.00242377
0.00250266
0.00258155
0.00266025
0.00273857
0.00281637
0.00289353
0.00296992
0.00304547
0.00312008
0.00319371
0.00326631
0.00333783
0.00340826
0.00347756
0.00354573
0.00361277
0.00367867
0.00374343
0.00380705
0.00386956
0.00393095
0.00399123
0.00405042
0.00410851
0.00416551
0.00422142
0.00427624
0.00432996
0.00438258
0.00443408
0.00448445
0.00453367
0.00458172
0.00462856
0.00467419
0.00471856
0.00476164
0.0048034
0.00484381
0.00488283
0.00492043
0.00495659
0.00499126
0.00502442
0.00505606
0.00508614
0.00511465
0.00514159
0.00516694
0.00519071
0.0052129
0.00523352
0.00525258
0.00527012
0.00528616
0.00530073
0.00531387
0.00532563
0.00533606
0.0053452
0.0053531
0.0053598
0.00536537
0.00536983
0.00537323
0.00537562
0.00537705
0.00537755
0.00537735
0.00537667
0.00537533
0.00537307
0.00537057
0.00536834
0.00536545
0.00536277
0.00535999
0.00535683
0.00535353
0.00535011
0.00534636
0.00534229
0.00533798
0.00533345
0.00532863
0.00532334
0.00531737
0.00531048
0.00530243
0.00529294
0.00528174
0.00526858
0.0052532
0.00523535
0.00521481
0.00519139
0.00516494
0.00513536
0.00510264
0.00506684
0.00502807
0.0049865
0.00494232
0.00489571
0.00484689
0.00479607
0.00474347
0.00468932
0.00463381
0.00457711
0.00451945
0.00446106
0.00440219
0.00434312
0.00428407
0.00422528
0.00416697
0.00410931
0.00405249
0.00399664
0.00394186
0.00388825
0.00383591
0.00378489
0.00373528
0.00368713
0.00364048
0.00359542
0.00355198
0.00351027
0.0034705
0.00343319
0.00339864
0.00336633
0.0033359
0.00330696
0.00327925
0.0032526
0.00322665
0.0032014
0.00317642
0.00315184
0.00312757
0.00310358
0.00307978
0.00305587
0.00303313
0.00299327
6.71775e-05
0.000262702
0.000474269
0.000657588
0.000809429
0.000935072
0.00103789
0.00112244
0.00119268
0.00125205
0.00130357
0.00134984
0.00139311
0.00143525
0.00147779
0.0015219
0.00156843
0.00161795
0.00167076
0.00172699
0.00178663
0.00184953
0.00191549
0.00198426
0.00205554
0.00212903
0.00220441
0.00228136
0.00235959
0.00243882
0.00251877
0.00259921
0.00267991
0.00276067
0.00284131
0.00292168
0.00300164
0.00308105
0.00315984
0.00323789
0.00331514
0.00339153
0.003467
0.00354152
0.00361506
0.0036876
0.00375911
0.00382959
0.00389903
0.00396744
0.0040348
0.00410114
0.00416645
0.00423073
0.004294
0.00435625
0.00441748
0.00447768
0.00453685
0.00459498
0.00465205
0.00470804
0.00476293
0.00481668
0.00486926
0.00492064
0.00497078
0.00501962
0.00506713
0.00511324
0.00515792
0.00520111
0.00524275
0.0052828
0.0053212
0.00535791
0.00539288
0.00542607
0.00545743
0.00548695
0.00551458
0.00554032
0.00556415
0.00558605
0.00560604
0.00562411
0.00564029
0.00565459
0.00566704
0.00567769
0.00568658
0.00569374
0.00569923
0.00570311
0.00570542
0.00570622
0.00570555
0.00570349
0.00570013
0.00569527
0.00568944
0.00568311
0.00567597
0.00566767
0.00565887
0.00564957
0.00563982
0.00562987
0.00561971
0.00560931
0.00559881
0.00558827
0.00557773
0.00556724
0.00555688
0.00554667
0.00553657
0.00552647
0.00551621
0.00550561
0.00549443
0.00548241
0.00546928
0.00545475
0.00543854
0.00542037
0.0054
0.00537712
0.00535155
0.00532313
0.00529178
0.00525752
0.00522043
0.00518065
0.00513836
0.00509368
0.00504677
0.00499782
0.00494705
0.00489466
0.00484085
0.00478582
0.00472978
0.00467295
0.00461559
0.00455792
0.00450018
0.0044426
0.00438537
0.00432871
0.0042728
0.00421776
0.00416369
0.00411069
0.00405885
0.00400826
0.00395899
0.0039111
0.00386464
0.00381968
0.00377625
0.00373445
0.00369442
0.00365651
0.0036217
0.00358948
0.00355934
0.00353088
0.00350382
0.00347792
0.00345294
0.00342876
0.00340514
0.00338196
0.003359
0.00333625
0.00331369
0.00329124
0.00326938
0.00323508
7.32664e-05
0.000277127
0.000498613
0.000692206
0.000853798
0.00098872
0.00110058
0.00119354
0.00127169
0.00133852
0.00139703
0.00144981
0.00149904
0.00154658
0.00159392
0.00164225
0.00169243
0.00174507
0.00180054
0.00185901
0.00192052
0.00198497
0.0020522
0.00212199
0.00219409
0.00226821
0.00234408
0.00242143
0.00249997
0.00257947
0.00265969
0.00274041
0.00282144
0.00290261
0.00298375
0.00306474
0.00314544
0.00322574
0.00330555
0.00338479
0.00346336
0.00354123
0.00361833
0.00369463
0.00377009
0.00384469
0.00391842
0.00399126
0.00406321
0.00413426
0.00420441
0.00427365
0.00434201
0.00440947
0.00447604
0.00454172
0.0046065
0.00467037
0.00473332
0.00479532
0.00485636
0.0049164
0.00497542
0.00503336
0.00509018
0.00514584
0.00520027
0.00525341
0.0053052
0.00535557
0.00540445
0.00545177
0.00549744
0.0055414
0.00558357
0.00562388
0.00566226
0.00569864
0.00573296
0.00576516
0.0057952
0.00582303
0.00584861
0.00587193
0.00589296
0.00591169
0.00592812
0.00594226
0.00595413
0.00596376
0.00597119
0.00597645
0.00597961
0.00598071
0.00597981
0.00597699
0.00597224
0.00596545
0.00595714
0.0059472
0.00593607
0.00592385
0.00591021
0.0058954
0.00587966
0.00586315
0.00584602
0.00582845
0.00581055
0.00579244
0.00577427
0.00575619
0.00573834
0.00572085
0.00570384
0.00568739
0.00567151
0.00565618
0.00564129
0.0056267
0.00561223
0.00559762
0.00558257
0.0055668
0.00555001
0.00553189
0.00551219
0.00549049
0.00546652
0.00544008
0.00541101
0.00537926
0.0053449
0.00530801
0.00526876
0.00522718
0.00518337
0.00513749
0.00508972
0.00504026
0.00498931
0.00493705
0.00488369
0.00482945
0.00477458
0.00471929
0.00466379
0.00460831
0.00455306
0.00449825
0.0044441
0.0043907
0.00433816
0.00428655
0.00423599
0.00418656
0.00413838
0.0040915
0.00404596
0.00400182
0.00395915
0.00391801
0.00387855
0.00384106
0.00380658
0.00377484
0.00374528
0.00371748
0.00369116
0.00366609
0.00364207
0.00361895
0.00359655
0.00357476
0.0035534
0.00353214
0.003511
0.00349008
0.00346938
0.00343968
7.82443e-05
0.00028812
0.0005172
0.000719222
0.000889328
0.00103238
0.00115221
0.00125281
0.00133826
0.00141202
0.00147705
0.00153587
0.00159064
0.00164312
0.0016948
0.00174683
0.00180008
0.00185518
0.00191254
0.00197238
0.00203479
0.00209974
0.0021671
0.00223671
0.00230836
0.00238181
0.00245684
0.0025332
0.00261066
0.00268902
0.00276808
0.00284767
0.00292762
0.00300778
0.00308804
0.00316826
0.00324835
0.0033282
0.00340772
0.00348683
0.00356545
0.00364352
0.003721
0.00379785
0.00387404
0.00394955
0.00402436
0.00409847
0.00417186
0.00424454
0.00431649
0.00438772
0.00445823
0.00452804
0.00459714
0.00466553
0.0047332
0.00480013
0.00486631
0.00493169
0.00499626
0.00505998
0.0051228
0.00518466
0.00524552
0.00530529
0.00536392
0.00542131
0.00547738
0.00553205
0.00558522
0.00563679
0.00568666
0.00573473
0.0057809
0.00582507
0.00586715
0.00590703
0.00594463
0.00597987
0.00601267
0.00604296
0.00607069
0.0060958
0.00611826
0.00613803
0.0061551
0.00616946
0.00618112
0.00619011
0.00619643
0.00620014
0.00620129
0.00619994
0.00619616
0.00618994
0.00618123
0.00617042
0.00615749
0.00614274
0.0061262
0.00610791
0.00608797
0.00606655
0.00604386
0.00602009
0.00599544
0.00597012
0.00594434
0.00591827
0.00589216
0.00586621
0.00584067
0.00581573
0.0057916
0.00576843
0.00574632
0.00572533
0.00570541
0.00568648
0.00566849
0.00565111
0.00563406
0.00561703
0.00559973
0.0055818
0.00556278
0.00554235
0.00552036
0.00549648
0.00547046
0.00544219
0.0054117
0.00537897
0.0053438
0.00530631
0.00526659
0.00522477
0.005181
0.00513545
0.00508831
0.00503974
0.00498996
0.00493917
0.00488764
0.00483554
0.00478307
0.00473045
0.00467791
0.00462567
0.00457398
0.00452293
0.00447258
0.00442301
0.00437435
0.00432672
0.00428023
0.00423495
0.00419092
0.0041482
0.00410686
0.00406699
0.00402875
0.00399244
0.00395902
0.0039282
0.00389948
0.00387252
0.00384706
0.00382289
0.00379983
0.00377774
0.00375648
0.00373594
0.003716
0.00369634
0.00367665
0.00365722
0.00363783
0.00361195
8.20667e-05
0.000295815
0.000530244
0.000738771
0.000915842
0.00106574
0.00119242
0.00129971
0.00139161
0.00147153
0.00154237
0.00160658
0.00166624
0.00172307
0.00177847
0.00183357
0.00188923
0.0019461
0.00200459
0.00206498
0.0021274
0.00219187
0.00225832
0.00232664
0.00239666
0.00246822
0.00254112
0.00261517
0.00269019
0.00276602
0.00284253
0.00291959
0.00299703
0.00307478
0.00315273
0.0032308
0.00330891
0.00338695
0.00346485
0.00354252
0.00361987
0.00369685
0.00377342
0.00384956
0.00392524
0.00400045
0.00407518
0.00414942
0.00422317
0.00429642
0.00436917
0.00444142
0.00451317
0.00458447
0.00465532
0.00472572
0.00479563
0.00486504
0.00493392
0.00500224
0.00506995
0.00513703
0.00520341
0.00526903
0.0053338
0.00539765
0.00546048
0.0055222
0.0055827
0.00564186
0.00569957
0.0057557
0.00581011
0.00586269
0.0059133
0.00596181
0.00600809
0.00605201
0.00609346
0.00613231
0.00616848
0.00620185
0.00623234
0.00625988