/*--------------------------------*- C++ -*----------------------------------*\
  =========                 |
  \\      /  F ield         | OpenFOAM: The Open Source CFD Toolbox
   \\    /   O peration     | Website:  https://openfoam.org
    \\  /    A nd           | Version:  8
     \\/     M anipulation  |
\*---------------------------------------------------------------------------*/
FoamFile
{
    version     2.0;
    format      ascii;
    class       volScalarField;
    location    "95";
    object      p;
}
// * * * * * * * * * * * * * * * * * * * * * * * * * * * * * * * * * * * * * //

dimensions      [0 2 -2 0 0 0 0];

internalField   nonuniform List<scalar> 
12225
(
-2.10035
-4.28798
-5.38703
-5.70632
-5.88585
-6.0526
-6.18137
-6.27309
-6.34527
-6.4069
-6.45969
-6.5053
-6.54255
-6.57096
-6.58872
-6.58261
-6.57087
-6.40893
-5.26279
-6.03118
-6.19079
-6.09716
-6.0829
-6.14854
-6.22328
-6.28559
-6.34082
-6.39261
-6.44014
-6.482
-6.51777
-6.5458
-6.56594
-6.56737
-6.57165
-6.51552
-5.66346
-5.64889
-5.77536
-5.85236
-5.94559
-6.06359
-6.168
-6.24946
-6.31698
-6.37689
-6.43019
-6.47644
-6.51619
-6.54834
-6.57394
-6.58678
-6.60743
-6.61372
-5.54212
-5.4851
-5.72574
-5.88279
-5.98288
-6.08692
-6.18187
-6.2586
-6.32321
-6.38113
-6.43326
-6.47918
-6.51947
-6.55359
-6.58317
-6.60638
-6.63926
-6.68104
-5.53228
-5.55626
-5.78338
-5.92369
-6.00564
-6.09555
-6.18413
-6.25865
-6.32225
-6.3796
-6.43173
-6.47834
-6.52011
-6.55714
-6.59146
-6.62393
-6.66645
-6.72437
-5.59051
-5.63893
-5.81228
-5.93489
-6.01478
-6.10056
-6.18607
-6.25953
-6.32278
-6.37995
-6.4323
-6.47978
-6.52313
-6.563
-6.60158
-6.64106
-6.68998
-6.75412
-5.65101
-5.69477
-5.82904
-5.9441
-6.02634
-6.10851
-6.19001
-6.26179
-6.32444
-6.38133
-6.43384
-6.48215
-6.52701
-6.56944
-6.6116
-6.65606
-6.70877
-6.77404
-5.70471
-5.74193
-5.85102
-5.95813
-6.03972
-6.11744
-6.19459
-6.26446
-6.32642
-6.38302
-6.43566
-6.48476
-6.53103
-6.57565
-6.62063
-6.66835
-6.72281
-6.78658
-5.75467
-5.78743
-5.87754
-5.9744
-6.05316
-6.12679
-6.19988
-6.26769
-6.3288
-6.38502
-6.43774
-6.48748
-6.53495
-6.58128
-6.62824
-6.67779
-6.73247
-6.79345
-5.80203
-5.83094
-5.90571
-5.99191
-6.06691
-6.1369
-6.20618
-6.27166
-6.33169
-6.38741
-6.44007
-6.49025
-6.53858
-6.5861
-6.63424
-6.68446
-6.73829
-6.79597
-5.84672
-5.87192
-5.93444
-6.01071
-6.08131
-6.14778
-6.21344
-6.27644
-6.33518
-6.39025
-6.44268
-6.49306
-6.54189
-6.59005
-6.63865
-6.68868
-6.74099
-6.79532
-5.88517
-5.90722
-5.96081
-6.02887
-6.09504
-6.15825
-6.22077
-6.28145
-6.33885
-6.39316
-6.4452
-6.49549
-6.54447
-6.59277
-6.64123
-6.69052
-6.74111
-6.7925
-5.92077
-5.9402
-5.9865
-6.04724
-6.10894
-6.16894
-6.22848
-6.28688
-6.34285
-6.39629
-6.44776
-6.49775
-6.54657
-6.59471
-6.64267
-6.69091
-6.7396
-6.78828
-5.95821
-5.97515
-6.01475
-6.06825
-6.12497
-6.18139
-6.23773
-6.29356
-6.34782
-6.40014
-6.45079
-6.50013
-6.54846
-6.59603
-6.64312
-6.68988
-6.73639
-6.78217
-5.99629
-6.01088
-6.04458
-6.0913
-6.14281
-6.19536
-6.24836
-6.30137
-6.35362
-6.40453
-6.45407
-6.50237
-6.54973
-6.59627
-6.64208
-6.68703
-6.73112
-6.77399
-6.0331
-6.0456
-6.07436
-6.11513
-6.16155
-6.21016
-6.25982
-6.30995
-6.35989
-6.40911
-6.45722
-6.50417
-6.55006
-6.59512
-6.6392
-6.68217
-6.72375
-6.76386
-6.06576
-6.07659
-6.10152
-6.13749
-6.17945
-6.22439
-6.27096
-6.31834
-6.36589
-6.41314
-6.45961
-6.50493
-6.54908
-6.59221
-6.63431
-6.67511
-6.71433
-6.7518
-6.08994
-6.09962
-6.12202
-6.15471
-6.19345
-6.23556
-6.27968
-6.32481
-6.37027
-6.41559
-6.46032
-6.50393
-6.54626
-6.58739
-6.62741
-6.66606
-6.70308
-6.73827
-6.09871
-6.10799
-6.1295
-6.16103
-6.1986
-6.23953
-6.28247
-6.32642
-6.37063
-6.41461
-6.45795
-6.50009
-6.54084
-6.5802
-6.61835
-6.65506
-6.69014
-6.72341
-6.08423
-6.09417
-6.11716
-6.1507
-6.19028
-6.2327
-6.27665
-6.32121
-6.36579
-6.40977
-6.45283
-6.4944
-6.53449
-6.57297
-6.61013
-6.64564
-6.6795
-6.71154
-6.0585
-6.06948
-6.09519
-6.1327
-6.17608
-6.2214
-6.26747
-6.31382
-6.35962
-6.40439
-6.44766
-6.48933
-6.52922
-6.56755
-6.60417
-6.63915
-6.67217
-6.70364
-6.02411
-6.03613
-6.06595
-6.11005
-6.15895
-6.20775
-6.25654
-6.30536
-6.35316
-6.3991
-6.44301
-6.48495
-6.52502
-6.56331
-6.59973
-6.63428
-6.66688
-6.69787
-5.98416
-5.99626
-6.0312
-6.08499
-6.14121
-6.19399
-6.24579
-6.2973
-6.34708
-6.3943
-6.43903
-6.4815
-6.52194
-6.56028
-6.59666
-6.63089
-6.66328
-6.69402
-5.94089
-5.95207
-5.99433
-6.05925
-6.12212
-6.17967
-6.23621
-6.29112
-6.3426
-6.39068
-6.43604
-6.479
-6.51968
-6.55811
-6.59429
-6.62837
-6.66049
-6.69109
-5.89428
-5.89995
-5.96313
-6.04184
-6.10443
-6.16351
-6.22563
-6.2851
-6.33882
-6.38805
-6.43423
-6.47776
-6.5187
-6.55714
-6.59319
-6.6271
-6.65906
-6.68962
-5.85121
-5.81498
-5.92501
-6.03657
-6.0995
-6.15552
-6.21864
-6.27954
-6.33399
-6.38387
-6.43072
-6.47478
-6.51601
-6.55455
-6.59063
-6.62454
-6.65653
-6.68707
-5.86544
-5.70667
-5.83606
-5.99071
-6.08162
-6.15374
-6.22351
-6.28552
-6.33954
-6.38898
-6.43539
-6.47895
-6.51955
-6.55746
-6.59292
-6.62626
-6.65783
-6.6881
-5.98822
-5.80843
-5.82317
-5.8958
-5.98493
-6.08498
-6.17653
-6.25139
-6.31429
-6.37055
-6.422
-6.46907
-6.51221
-6.55195
-6.58867
-6.6229
-6.65524
-6.68666
-5.69557
-6.2873
-6.37674
-6.25303
-6.19939
-6.22734
-6.27521
-6.31956
-6.36232
-6.4056
-6.44819
-6.48881
-6.52715
-6.56318
-6.59677
-6.62816
-6.65781
-6.68781
-2.70734
-4.47032
-5.47549
-5.77525
-5.92511
-6.06946
-6.18438
-6.26647
-6.33191
-6.38984
-6.44215
-6.48943
-6.53251
-6.57205
-6.60835
-6.6413
-6.671
-6.69599
-8.0593
-8.05635
-8.05301
-8.05431
-8.05776
-8.06224
-8.06792
-8.07431
-8.08086
-8.08756
-8.09466
-8.10217
-8.11021
-8.11851
-8.12692
-8.13664
-8.15019
-8.16708
-8.1866
-8.20578
-8.21803
-8.22578
-8.24164
-8.26547
-8.29263
-8.32312
-8.35696
-8.39404
-8.43427
-8.4774
-8.5232
-8.57125
-8.62115
-8.6724
-8.72451
-8.77698
-8.82929
-8.88103
-8.93171
-8.98106
-9.02866
-9.07439
-9.11793
-9.15926
-9.19814
-9.23465
-9.26861
-9.30019
-9.32921
-9.35591
-9.38012
-9.40217
-9.42187
-9.43953
-9.45499
-9.46861
-9.48022
-9.49016
-9.49819
-9.5048
-9.50971
-9.51337
-9.51547
-9.51653
-9.51618
-9.51497
-9.51249
-9.50928
-9.50492
-9.49996
-9.49397
-9.48742
-9.47988
-9.47184
-9.46285
-9.45345
-9.44302
-9.43195
-9.4196
-9.40634
-9.39133
-9.37469
-9.35548
-9.33385
-9.30869
-9.28015
-9.24705
-9.20904
-9.16472
-9.11327
-9.05476
-8.98834
-8.91303
-8.82758
-8.73079
-8.6212
-8.49732
-8.35737
-8.19963
-8.02217
-7.82341
-7.60181
-7.35577
-7.08393
-6.78511
-6.458
-6.10108
-5.71362
-5.29461
-4.84365
-4.36041
-3.84519
-3.29846
-2.72133
-2.11498
-1.48126
-0.822295
-0.140961
0.559553
1.2756
2.00342
2.73895
3.47802
4.21629
4.94939
5.67302
6.38311
7.07589
7.74788
8.39613
9.01801
9.61145
10.1748
10.7068
11.2069
11.6748
12.1107
12.5153
12.8897
13.2356
13.5546
13.8483
14.1176
14.3633
14.5865
14.7886
14.9712
15.1356
15.2834
15.4158
15.5344
15.6403
15.7347
15.8187
15.8933
15.9595
16.018
16.0697
16.1152
16.1552
16.1903
16.2209
16.2476
16.2708
16.2909
16.3082
16.3233
16.3364
16.3477
16.3579
16.3672
16.3762
16.3857
16.3969
16.4113
16.4319
16.4655
16.5188
16.6189
16.7549
-8.05971
-8.05739
-8.05503
-8.05671
-8.06046
-8.06465
-8.069
-8.07352
-8.07766
-8.08131
-8.0846
-8.08828
-8.0925
-8.0974
-8.10286
-8.10984
-8.11824
-8.12679
-8.13456
-8.14092
-8.14789
-8.16304
-8.18715
-8.21155
-8.23768
-8.26685
-8.29952
-8.33574
-8.37547
-8.4185
-8.46457
-8.51325
-8.56407
-8.61647
-8.66983
-8.7236
-8.77717
-8.83008
-8.88182
-8.93206
-8.98043
-9.02675
-9.07077
-9.11243
-9.15156
-9.1882
-9.22224
-9.2538
-9.28277
-9.30932
-9.33341
-9.3552
-9.37465
-9.39195
-9.40706
-9.42022
-9.43136
-9.4407
-9.44821
-9.45412
-9.45838
-9.46124
-9.46262
-9.4628
-9.46169
-9.45956
-9.45629
-9.45216
-9.44703
-9.44116
-9.43443
-9.42706
-9.41889
-9.41016
-9.40072
-9.39076
-9.38002
-9.36862
-9.3563
-9.34312
-9.32861
-9.31269
-9.29478
-9.27467
-9.25157
-9.22526
-9.19494
-9.15998
-9.11904
-9.07173
-9.01743
-8.95538
-8.8844
-8.80326
-8.71069
-8.60529
-8.48559
-8.35
-8.19698
-8.02495
-7.83236
-7.61756
-7.37943
-7.11648
-6.82704
-6.50964
-6.16318
-5.7863
-5.3783
-4.93859
-4.46695
-3.96348
-3.42851
-2.86282
-2.26767
-1.64472
-0.996043
-0.324205
0.367729
1.07629
1.79783
2.52835
3.26379
3.99978
4.732
5.45611
6.16799
6.86372
7.53981
8.19305
8.82074
9.42062
9.99091
10.5303
11.038
11.5137
11.9574
12.3698
12.7516
13.1043
13.429
13.7277
14.0018
14.2524
14.4808
14.6882
14.876
15.0456
15.1984
15.3357
15.459
15.5695
15.6682
15.7563
15.8348
15.9047
15.9666
16.0216
16.0702
16.113
16.1508
16.1839
16.213
16.2383
16.2605
16.2798
16.2966
16.3113
16.3243
16.3359
16.3466
16.357
16.3679
16.3802
16.3959
16.4173
16.4496
16.4979
16.5865
16.6978
-8.05564
-8.05526
-8.05451
-8.05658
-8.05994
-8.06298
-8.06539
-8.0673
-8.06878
-8.06995
-8.07105
-8.0723
-8.07383
-8.07576
-8.07837
-8.08224
-8.08752
-8.09361
-8.10013
-8.10709
-8.11545
-8.128
-8.14666
-8.16941
-8.19601
-8.22654
-8.26091
-8.29889
-8.34024
-8.38457
-8.43146
-8.48042
-8.53094
-8.5825
-8.6346
-8.68679
-8.7386
-8.78966
-8.83958
-8.88807
-8.93483
-8.97969
-9.02243
-9.06296
-9.10113
-9.13693
-9.17026
-9.20119
-9.22963
-9.25569
-9.27933
-9.30068
-9.31973
-9.3366
-9.35131
-9.364
-9.37468
-9.38351
-9.39051
-9.39584
-9.39952
-9.40173
-9.40248
-9.40195
-9.40017
-9.39731
-9.39338
-9.38853
-9.38278
-9.37625
-9.36896
-9.36101
-9.35241
-9.34324
-9.33349
-9.32323
-9.31234
-9.30083
-9.28858
-9.27555
-9.26146
-9.24616
-9.2293
-9.21054
-9.18931
-9.1652
-9.13765
-9.1058
-9.06877
-9.02574
-8.9764
-8.91974
-8.85442
-8.77938
-8.69313
-8.59442
-8.48164
-8.35335
-8.20793
-8.04396
-7.85997
-7.65451
-7.4263
-7.17377
-6.89533
-6.5893
-6.25462
-5.88997
-5.49464
-5.06788
-4.60946
-4.11922
-3.59753
-3.04503
-2.46292
-1.85263
-1.21612
-0.555781
0.12547
0.824392
1.53742
2.2607
2.99023
3.7217
4.45087
5.17332
5.88497
6.58178
7.2602
7.91686
8.54905
9.15431
9.73085
10.2773
10.7928
11.277
11.7299
12.1521
12.5443
12.9076
13.2433
13.5528
13.8374
14.0981
14.3361
14.5526
14.7492
14.9271
15.0877
15.2325
15.3627
15.4797
15.5844
15.6782
15.762
15.8367
15.9033
15.9624
16.015
16.0615
16.1026
16.1389
16.1708
16.1989
16.2236
16.2452
16.2642
16.2809
16.2957
16.309
16.3213
16.3332
16.3454
16.359
16.3756
16.3974
16.4285
16.4718
16.5449
16.6187
-8.04282
-8.04615
-8.04877
-8.05244
-8.0564
-8.0595
-8.0615
-8.06252
-8.06272
-8.06233
-8.06163
-8.06093
-8.06045
-8.06041
-8.06114
-8.06311
-8.06668
-8.07194
-8.079
-8.0881
-8.09984
-8.11516
-8.13477
-8.15842
-8.1859
-8.21707
-8.25176
-8.28975
-8.33078
-8.37448
-8.42047
-8.46828
-8.51747
-8.56759
-8.61817
-8.66878
-8.71898
-8.76842
-8.81674
-8.86367
-8.90893
-8.95234
-8.99371
-9.03293
-9.06988
-9.10452
-9.13678
-9.16667
-9.19415
-9.21929
-9.24206
-9.26257
-9.2808
-9.29688
-9.31082
-9.32274
-9.33267
-9.34075
-9.34702
-9.35161
-9.35458
-9.35606
-9.35612
-9.35491
-9.35247
-9.34897
-9.34446
-9.33907
-9.33286
-9.32595
-9.31837
-9.31023
-9.30156
-9.29243
-9.28285
-9.27284
-9.26236
-9.25137
-9.23979
-9.22752
-9.21438
-9.20018
-9.18465
-9.16745
-9.14811
-9.12618
-9.10112
-9.07221
-9.0384
-8.99936
-8.95425
-8.90212
-8.84182
-8.77204
-8.69154
-8.59883
-8.49247
-8.3709
-8.23263
-8.07619
-7.90015
-7.70307
-7.48345
-7.23976
-6.9703
-6.67358
-6.34836
-5.99351
-5.6081
-5.19142
-4.74308
-4.26297
-3.75134
-3.2088
-2.63635
-2.03534
-1.40764
-0.755582
-0.0819473
0.610139
1.3172
2.03549
2.76099
3.48948
4.21668
4.9382
5.6499
6.3477
7.02797
7.6873
8.32287
8.93222
9.51353
10.0654
10.5872
11.0783
11.5389
11.9692
12.37
12.7421
13.0867
13.4048
13.6977
13.9664
14.212
14.436
14.6397
14.8244
14.9915
15.1424
15.2784
15.4008
15.5107
15.6093
15.6976
15.7765
15.8469
15.9097
15.9656
16.0152
16.0592
16.0982
16.1326
16.163
16.1898
16.2135
16.2343
16.2527
16.2691
16.2838
16.2974
16.3104
16.3236
16.3378
16.3545
16.3756
16.404
16.4403
16.4963
16.5373
-8.01967
-8.02718
-8.03469
-8.04124
-8.0468
-8.05088
-8.05341
-8.05466
-8.05489
-8.05436
-8.05339
-8.05233
-8.05153
-8.05134
-8.05215
-8.05436
-8.05834
-8.0644
-8.07279
-8.08387
-8.09805
-8.11574
-8.13721
-8.16241
-8.19126
-8.22355
-8.25908
-8.29758
-8.33874
-8.38221
-8.4276
-8.47451
-8.52252
-8.5712
-8.62014
-8.66896
-8.71727
-8.76476
-8.81111
-8.85609
-8.89944
-8.941
-8.9806
-9.01813
-9.05347
-9.0866
-9.11741
-9.14594
-9.17212
-9.19603
-9.21762
-9.237
-9.25415
-9.26917
-9.28209
-9.29302
-9.30198
-9.30911
-9.31445
-9.31814
-9.32023
-9.32086
-9.3201
-9.3181
-9.31492
-9.31073
-9.30558
-9.29963
-9.29295
-9.28567
-9.27785
-9.26959
-9.26096
-9.25203
-9.24282
-9.23337
-9.22364
-9.21359
-9.20316
-9.19224
-9.18065
-9.16821
-9.15466
-9.13967
-9.12281
-9.10362
-9.08161
-9.05599
-9.0261
-8.99094
-8.9504
-8.90298
-8.84778
-8.78339
-8.70868
-8.62208
-8.52221
-8.40744
-8.27633
-8.12736
-7.95901
-7.76982
-7.55806
-7.32228
-7.06066
-6.77193
-6.45458
-6.1077
-5.73003
-5.32107
-4.88019
-4.40745
-3.90285
-3.36703
-2.80073
-2.20538
-1.58271
-0.9351
-0.265219
0.423844
1.12864
1.84548
2.57025
3.29882
4.0267
4.74966
5.46328
6.16366
6.84688
7.50971
8.14908
8.76273
9.3487
9.90579
10.433
10.93
11.3966
11.8332
12.2403
12.6187
12.9694
13.2935
13.5921
13.8663
14.1174
14.3465
14.5552
14.7447
14.9165
15.0718
15.2121
15.3385
15.4523
15.5545
15.6462
15.7283
15.8017
15.8673
15.9258
15.9778
16.0241
16.0651
16.1015
16.1336
16.1621
16.1872
16.2095
16.2292
16.2467
16.2624
16.2769
16.2905
16.304
16.3183
16.3344
16.3536
16.378
16.4066
16.447
16.4618
-7.98933
-8.00131
-8.01488
-8.02525
-8.03323
-8.03907
-8.04293
-8.04521
-8.04629
-8.04654
-8.04632
-8.04602
-8.04608
-8.04691
-8.04893
-8.05253
-8.05812
-8.06599
-8.07645
-8.08976
-8.1062
-8.12599
-8.14928
-8.17603
-8.20616
-8.23948
-8.27572
-8.31461
-8.35579
-8.39892
-8.44361
-8.48949
-8.53618
-8.58331
-8.63051
-8.67745
-8.7238
-8.76927
-8.8136
-8.85656
-8.89794
-8.93758
-8.9753
-9.01104
-9.04466
-9.07614
-9.10538
-9.1324
-9.15713
-9.17965
-9.19991
-9.21799
-9.23389
-9.24771
-9.25944
-9.26923
-9.27707
-9.28312
-9.2874
-9.29006
-9.29116
-9.29084
-9.28917
-9.28631
-9.28234
-9.2774
-9.2716
-9.26508
-9.25793
-9.25028
-9.24224
-9.23392
-9.22539
-9.21673
-9.208
-9.19924
-9.19044
-9.18157
-9.17257
-9.16334
-9.15371
-9.14351
-9.13248
-9.12028
-9.10651
-9.0907
-9.07235
-9.05081
-9.025
-8.99486
-8.9591
-8.91704
-8.86734
-8.80888
-8.7403
-8.66022
-8.5671
-8.45943
-8.33568
-8.19428
-8.0337
-7.85224
-7.64828
-7.42008
-7.16609
-6.88478
-6.57483
-6.23501
-5.86427
-5.46185
-5.02732
-4.56047
-4.06134
-3.53032
-2.96821
-2.37633
-1.75645
-1.11088
-0.442276
0.246294
0.951396
1.66923
2.39573
3.12657
3.85732
4.58354
5.30088
6.00525
6.6928
7.36019
8.00442
8.62317
9.2145
9.77708
10.3099
10.8124
11.2845
11.7265
12.1389
12.5223
12.8779
13.2066
13.5095
13.7878
14.0428
14.2758
14.4882
14.6813
14.8565
15.0152
15.1587
15.2882
15.4049
15.5099
15.6043
15.689
15.7648
15.8327
15.8932
15.9473
15.9953
16.038
16.0759
16.1095
16.1392
16.1655
16.1888
16.2095
16.2278
16.2443
16.2592
16.2731
16.2866
16.3003
16.3151
16.3318
16.3516
16.3723
16.3992
16.3929
-7.95663
-7.97283
-7.99245
-8.00678
-8.01749
-8.02556
-8.0313
-8.03519
-8.03775
-8.03941
-8.04062
-8.04183
-8.04349
-8.04603
-8.04991
-8.0555
-8.06321
-8.07329
-8.08605
-8.10167
-8.12035
-8.14218
-8.16721
-8.19539
-8.2266
-8.26064
-8.29727
-8.3362
-8.3771
-8.41966
-8.46349
-8.50827
-8.55364
-8.59926
-8.64481
-8.68997
-8.73447
-8.77804
-8.82043
-8.86146
-8.90091
-8.93866
-8.97454
-9.00847
-9.04035
-9.07013
-9.09773
-9.12316
-9.14637
-9.1674
-9.18621
-9.2029
-9.21743
-9.2299
-9.24033
-9.24884
-9.25543
-9.26026
-9.26336
-9.26487
-9.26486
-9.26348
-9.26081
-9.25701
-9.25217
-9.24645
-9.23996
-9.23286
-9.22524
-9.21727
-9.20906
-9.20072
-9.19237
-9.18409
-9.17597
-9.16804
-9.16033
-9.15282
-9.14547
-9.13819
-9.13082
-9.12319
-9.11505
-9.10606
-9.09582
-9.08389
-9.06975
-9.05263
-9.03192
-9.00673
-8.97658
-8.94033
-8.89664
-8.84452
-8.78248
-8.70923
-8.62316
-8.52278
-8.40652
-8.27272
-8.11986
-7.94603
-7.74969
-7.5289
-7.28231
-7.00809
-6.7051
-6.37183
-6.00747
-5.61098
-5.18204
-4.72013
-4.22536
-3.69792
-3.13872
-2.54894
-1.93042
-1.28536
-0.616424
0.0732864
0.780327
1.50077
2.23054
2.9651
3.70009
4.43081
5.15302
5.86241
6.55528
7.22807
7.87798
8.5024
9.09951
9.6677
10.2061
10.714
11.1913
11.6382
12.0553
12.4432
12.8028
13.1353
13.4418
13.7235
13.9818
14.2179
14.4332
14.6291
14.8071
14.9684
15.1144
15.2464
15.3654
15.4727
15.5692
15.6559
15.7337
15.8035
15.8658
15.9215
15.9711
16.0153
16.0545
16.0893
16.1201
16.1473
16.1715
16.1928
16.2117
16.2286
16.2438
16.2577
16.2708
16.2835
16.2966
16.3103
16.3253
16.3383
16.3536
16.3304
-7.92635
-7.946
-7.97085
-7.98876
-8.00209
-8.01246
-8.02029
-8.02607
-8.03041
-8.03384
-8.03686
-8.03994
-8.04355
-8.04812
-8.0541
-8.06185
-8.07174
-8.08401
-8.09892
-8.1166
-8.1372
-8.16074
-8.18722
-8.21654
-8.24858
-8.28313
-8.31995
-8.35876
-8.39926
-8.44114
-8.48407
-8.52773
-8.57179
-8.61596
-8.65993
-8.70342
-8.74616
-8.78794
-8.82852
-8.86771
-8.90535
-8.94129
-8.9754
-9.0076
-9.03778
-9.0659
-9.09188
-9.11574
-9.1374
-9.15692
-9.17426
-9.18948
-9.20258
-9.21365
-9.22269
-9.22983
-9.23509
-9.2386
-9.24041
-9.24067
-9.23945
-9.23691
-9.23314
-9.22832
-9.22254
-9.21598
-9.20876
-9.20105
-9.19297
-9.1847
-9.17635
-9.16808
-9.16001
-9.15223
-9.14485
-9.13793
-9.13151
-9.12559
-9.12013
-9.11506
-9.11025
-9.10551
-9.1006
-9.09521
-9.08891
-9.08126
-9.07174
-9.05965
-9.04413
-9.02478
-9.0006
-8.97051
-8.93337
-8.88792
-8.83286
-8.76672
-8.68798
-8.5951
-8.48641
-8.36032
-8.21502
-8.04881
-7.85982
-7.64639
-7.40679
-7.13949
-6.84298
-6.51599
-6.15743
-5.7664
-5.34223
-4.88449
-4.39309
-3.86832
-3.31095
-2.72221
-2.10388
-1.45813
-0.787653
-0.0955485
0.614611
1.33887
2.07297
2.81238
3.5525
4.28872
5.01659
5.73187
6.43074
7.10965
7.76561
8.39604
8.99896
9.57279
10.1165
10.6295
11.1117
11.5632
11.9845
12.3763
12.7395
13.0754
13.3849
13.6695
13.9304
14.169
14.3868
14.585
14.7652
14.9287
15.0768
15.2108
15.3318
15.4409
15.5392
15.6276
15.707
15.7783
15.8421
15.8993
15.9502
15.9957
16.036
16.0719
16.1036
16.1317
16.1566
16.1785
16.1979
16.215
16.2301
16.2438
16.2562
16.2678
16.2789
16.2894
16.2994
16.3051
16.3105
16.2737
-7.90195
-7.92417
-7.95293
-7.97363
-7.98917
-8.0016
-8.01137
-8.01902
-8.02519
-8.03045
-8.03537
-8.04037
-8.04598
-8.05257
-8.0606
-8.07037
-8.08224
-8.09642
-8.11314
-8.13248
-8.15457
-8.17938
-8.20689
-8.23698
-8.26952
-8.30429
-8.34106
-8.37958
-8.41955
-8.46069
-8.50268
-8.54523
-8.58804
-8.63083
-8.67332
-8.71526
-8.75641
-8.79654
-8.83545
-8.87298
-8.90895
-8.94324
-8.97571
-9.00629
-9.03488
-9.06144
-9.08587
-9.10821
-9.12837
-9.14641
-9.16227
-9.17604
-9.1877
-9.19733
-9.20495
-9.21067
-9.21452
-9.21664
-9.21709
-9.21601
-9.21349
-9.20971
-9.20476
-9.19883
-9.19203
-9.18457
-9.17656
-9.16821
-9.15965
-9.15108
-9.14263
-9.13448
-9.12675
-9.11959
-9.1131
-9.10735
-9.10241
-9.09829
-9.09497
-9.09239
-9.09042
-9.08888
-9.08755
-9.0861
-9.08411
-9.08114
-9.07665
-9.06991
-9.06031
-9.04686
-9.02914
-9.00565
-8.9754
-8.93702
-8.88927
-8.83057
-8.75944
-8.67426
-8.57331
-8.45497
-8.31726
-8.15858
-7.97686
-7.77062
-7.53785
-7.27723
-6.98695
-6.66591
-6.31268
-5.92652
-5.50643
-5.05213
-4.56329
-4.04034
-3.48389
-2.89528
-2.27615
-1.62874
-0.955737
-0.260279
0.453917
1.18288
1.92213
2.66718
3.41318
4.15565
4.88988
5.61175
6.31712
7.00256
7.66479
8.30135
8.91003
9.48939
10.0383
10.5561
11.0428
11.4984
11.9235
12.3188
12.6852
13.0239
13.3361
13.6231
13.8862
14.127
14.3468
14.547
14.7291
14.8944
15.0443
15.1799
15.3025
15.4132
15.513
15.6028
15.6836
15.7562
15.8214
15.8797
15.9319
15.9784
16.0198
16.0566
16.0892
16.1181
16.1436
16.166
16.1856
16.2029
16.218
16.2312
16.2428
16.253
16.2619
16.2691
16.2743
16.2733
16.27
16.2223
-7.88565
-7.90953
-7.94055
-7.96302
-7.98012
-7.99412
-8.00549
-8.01473
-8.02252
-8.02946
-8.0361
-8.04288
-8.05027
-8.05866
-8.06845
-8.07993
-8.09343
-8.10911
-8.1272
-8.14774
-8.17085
-8.19647
-8.22458
-8.25504
-8.28771
-8.3224
-8.35889
-8.39692
-8.43621
-8.47652
-8.51753
-8.55899
-8.6006
-8.6421
-8.68324
-8.72377
-8.76347
-8.80214
-8.83957
-8.87561
-8.91009
-8.9429
-8.9739
-9.00302
-9.03016
-9.05527
-9.07828
-9.09919
-9.11792
-9.13453
-9.14897
-9.16131
-9.17152
-9.17971
-9.18587
-9.19014
-9.19253
-9.19321
-9.19221
-9.18973
-9.18584
-9.18073
-9.17451
-9.16739
-9.15951
-9.15106
-9.14221
-9.13318
-9.12411
-9.11523
-9.10669
-9.09869
-9.09138
-9.08491
-9.07941
-9.07498
-9.07169
-9.06958
-9.06862
-9.06877
-9.06991
-9.07188
-9.07443
-9.07725
-9.07993
-9.08198
-9.08288
-9.08196
-9.07825
-9.07147
-9.06029
-9.04382
-9.02073
-8.9898
-8.9496
-8.89863
-8.83533
-8.758
-8.66495
-8.5543
-8.42427
-8.27294
-8.09854
-7.89924
-7.67331
-7.41902
-7.1348
-6.81919
-6.47094
-6.08898
-5.67246
-5.22087
-4.73399
-4.21209
-3.6559
-3.06664
-2.44602
-1.79624
-1.12001
-0.420589
0.29829
1.03247
1.77749
2.52871
3.28129
4.03052
4.77174
5.50057
6.21285
6.90497
7.57364
8.21626
8.83066
9.4153
9.9691
10.4915
10.9822
11.4416
11.8701
12.2684
12.6376
12.9788
13.2933
13.5824
13.8475
14.0901
14.3116
14.5135
14.6971
14.864
15.0153
15.1524
15.2764
15.3885
15.4896
15.5807
15.6627
15.7365
15.8028
15.8622
15.9153
15.9629
16.0052
16.0429
16.0764
16.1059
16.1319
16.1548
16.1747
16.192
16.2069
16.2195
16.2302
16.2389
16.2455
16.2494
16.25
16.2429
16.2322
16.1756
-7.87841
-7.90298
-7.93445
-7.95765
-7.9756
-7.99055
-8.00299
-8.01339
-8.02244
-8.0307
-8.03872
-8.04691
-8.05574
-8.06553
-8.07669
-8.08944
-8.10411
-8.12082
-8.1398
-8.16107
-8.18473
-8.21071
-8.239
-8.26945
-8.30194
-8.33627
-8.37223
-8.40959
-8.44809
-8.48748
-8.5275
-8.56787
-8.60834
-8.64865
-8.68855
-8.72782
-8.76625
-8.80363
-8.83977
-8.87451
-8.9077
-8.93922
-8.96893
-8.99676
-9.02261
-9.04642
-9.06813
-9.08771
-9.10511
-9.12036
-9.13341
-9.14434
-9.15312
-9.15985
-9.16453
-9.1673
-9.16819
-9.16734
-9.16484
-9.16085
-9.15549
-9.14897
-9.1414
-9.133
-9.12395
-9.11445
-9.1047
-9.09493
-9.08532
-9.0761
-9.06748
-9.05966
-9.05281
-9.04711
-9.04271
-9.03973
-9.03824
-9.03831
-9.03992
-9.04303
-9.04754
-9.05327
-9.06
-9.06737
-9.075
-9.08239
-9.08899
-9.09404
-9.09689
-9.09661
-9.09247
-9.08322
-9.06753
-9.04422
-9.01177
-8.96868
-8.9133
-8.84385
-8.75865
-8.65563
-8.53317
-8.3891
-8.22188
-8.02934
-7.80998
-7.56171
-7.28318
-6.97258
-6.62884
-6.25059
-5.83717
-5.38779
-4.90241
-4.38111
-3.82474
-3.23443
-2.61192
-1.95941
-1.27965
-0.575939
0.147996
0.887817
1.63912
2.39697
3.15665
3.91306
4.66163
5.39762
6.11699
6.81577
7.49085
8.13936
8.75928
9.34895
9.90735
10.4339
10.9284
11.3911
11.8226
12.2237
12.5953
12.9386
13.255
13.5459
13.8127
14.0568
14.2798
14.4831
14.6682
14.8364
14.989
15.1274
15.2527
15.3659
15.4682
15.5605
15.6436
15.7185
15.7858
15.8462
15.9003
15.9487
15.9919
16.0304
16.0646
16.0948
16.1214
16.1446
16.1647
16.182
16.1966
16.2087
16.2183
16.2255
16.2298
16.2305
16.2268
16.2141
16.197
16.1331
-7.87997
-7.90422
-7.93464
-7.9576
-7.97566
-7.99088
-8.00378
-8.01481
-8.0246
-8.03371
-8.04265
-8.05179
-8.06158
-8.07231
-8.08434
-8.09789
-8.11324
-8.13051
-8.1499
-8.17143
-8.19519
-8.22112
-8.2492
-8.2793
-8.3113
-8.34502
-8.38026
-8.4168
-8.4544
-8.49284
-8.53185
-8.57117
-8.61055
-8.64976
-8.68855
-8.7267
-8.76401
-8.80028
-8.83531
-8.86896
-8.90106
-8.93148
-8.96009
-8.98681
-9.01154
-9.0342
-9.05473
-9.0731
-9.08925
-9.10319
-9.1149
-9.12443
-9.13177
-9.13702
-9.14019
-9.14141
-9.14071
-9.13826
-9.13415
-9.12857
-9.12164
-9.11359
-9.10456
-9.09479
-9.08446
-9.07383
-9.0631
-9.05253
-9.04233
-9.03277
-9.02405
-9.01642
-9.01008
-9.00522
-9.00201
-9.00058
-9.00105
-9.00345
-9.00781
-9.01408
-9.02217
-9.0319
-9.04303
-9.05523
-9.06805
-9.08102
-9.09355
-9.10488
-9.11423
-9.12094
-9.12392
-9.12195
-9.11381
-9.09815
-9.0735
-9.03829
-8.99075
-8.92914
-8.85153
-8.75611
-8.6409
-8.50407
-8.34365
-8.15778
-7.94455
-7.70215
-7.42886
-7.12309
-6.78346
-6.40877
-5.99813
-5.55091
-5.06685
-4.54613
-3.98945
-3.39798
-2.77341
-2.11793
-1.43432
-0.725887
0.00348821
0.749476
1.50743
2.2724
3.0394
3.80332
4.55929
5.30256
6.02887
6.73428
7.4155
8.06972
8.69481
9.28917
9.85178
10.3821
10.8799
11.3456
11.7797
12.1831
12.5567
12.9019
13.2199
13.5123
13.7805
14.0261
14.2504
14.4549
14.6412
14.8106
14.9645
15.104
15.2304
15.3448
15.4482
15.5415
15.6257
15.7016
15.7698
15.8312
15.8862
15.9355
15.9795
16.0188
16.0537
16.0845
16.1116
16.1351
16.1554
16.1726
16.187
16.1985
16.2071
16.2126
16.2147
16.2124
16.2047
16.187
16.1644
16.0945
-7.88923
-7.91227
-7.94056
-7.96242
-7.97987
-7.99468
-8.0074
-8.01846
-8.02845
-8.03786
-8.04718
-8.05675
-8.06698
-8.07813
-8.09053
-8.10436
-8.11991
-8.13726
-8.15661
-8.17797
-8.20143
-8.22694
-8.25448
-8.28393
-8.3152
-8.3481
-8.38247
-8.41809
-8.45474
-8.49219
-8.5302
-8.56851
-8.60689
-8.64509
-8.6829
-8.72008
-8.75643
-8.79175
-8.82586
-8.85858
-8.88976
-8.91926
-8.94695
-8.97272
-8.99647
-9.01811
-9.03757
-9.05482
-9.06979
-9.08249
-9.09288
-9.10102
-9.10689
-9.11061
-9.11219
-9.11175
-9.10935
-9.10518
-9.09932
-9.09201
-9.08336
-9.07365
-9.063
-9.05171
-9.03997
-9.02807
-9.01624
-9.00477
-8.99389
-8.98392
-8.97506
-8.96762
-8.96178
-8.95781
-8.95584
-8.95606
-8.95857
-8.96346
-8.97072
-8.98034
-8.9922
-9.00612
-9.02188
-9.03909
-9.05733
-9.07609
-9.09472
-9.11251
-9.1287
-9.1423
-9.15254
-9.15795
-9.15737
-9.1494
-9.13256
-9.10519
-9.06541
-9.01153
-8.94143
-8.85348
-8.74544
-8.61571
-8.462
-8.28268
-8.07548
-7.83884
-7.5707
-7.2697
-6.93412
-6.56296
-6.15505
-5.70988
-5.22697
-4.7066
-4.14932
-3.55635
-2.92929
-2.27036
-1.58241
-0.868812
-0.133632
0.61883
1.38363
2.15589
2.93024
3.70167
4.4649
5.21529
5.94824
6.65997
7.34694
8.00648
8.63632
9.23495
9.80133
10.3349
10.8357
11.304
11.7403
12.1455
12.5209
12.8676
13.1871
13.4808
13.7502
13.9969
14.2224
14.4281
14.6155
14.786
14.9409
15.0815
15.209
15.3245
15.4289
15.5233
15.6085
15.6854
15.7546
15.8169
15.8728
15.9229
15.9678
16.0079
16.0434
16.0748
16.1023
16.1262
16.1466
16.1638
16.1779
16.1887
16.1963
16.2004
16.2003
16.1951
16.1837
16.1616
16.1341
16.0595
-7.90472
-7.92594
-7.95137
-7.97142
-7.98761
-8.00137
-8.01328
-8.02375
-8.03333
-8.04246
-8.05159
-8.06102
-8.07114
-8.08216
-8.09441
-8.10804
-8.12331
-8.14029
-8.15918
-8.17997
-8.20278
-8.22754
-8.25426
-8.28282
-8.31316
-8.34509
-8.37848
-8.41311
-8.44875
-8.4852
-8.5222
-8.55954
-8.59696
-8.63426
-8.6712
-8.70754
-8.74309
-8.77762
-8.81096
-8.84292
-8.87334
-8.90206
-8.92895
-8.95388
-8.97674
-8.99744
-9.01588
-9.03203
-9.0458
-9.05721
-9.06622
-9.07286
-9.07714
-9.07916
-9.07893
-9.07663
-9.07232
-9.06619
-9.05837
-9.04908
-9.0385
-9.02686
-9.01438
-9.00134
-8.98798
-8.97462
-8.96153
-8.94901
-8.93736
-8.92686
-8.91784
-8.91054
-8.90524
-8.90218
-8.90154
-8.90354
-8.90824
-8.91579
-8.92615
-8.93936
-8.95521
-8.97364
-8.99426
-9.01679
-9.04074
-9.06553
-9.09062
-9.11513
-9.13819
-9.1592
-9.17675
-9.18976
-9.19687
-9.19672
-9.18777
-9.16823
-9.13631
-9.09002
-9.02754
-8.94685
-8.84609
-8.72322
-8.5763
-8.40324
-8.2021
-7.97092
-7.70789
-7.41129
-7.07961
-6.71155
-6.30606
-5.86242
-5.38026
-4.85971
-4.30137
-3.70635
-3.0763
-2.4135
-1.72086
-1.00191
-0.260736
0.498165
1.26988
2.04923
2.83084
3.60941
4.37962
5.13661
5.87576
6.59314
7.28528
7.94942
8.58339
9.18563
9.75518
10.2916
10.7947
11.265
11.7031
12.11
12.4867
12.8347
13.1554
13.4502
13.7207
13.9684
14.1949
14.4016
14.5901
14.7617
14.9177
15.0593
15.1879
15.3044
15.4099
15.5053
15.5916
15.6694
15.7396
15.8029
15.8597
15.9107
15.9564
15.9972
16.0335
16.0654
16.0934
16.1176
16.1382
16.1554
16.1691
16.1794
16.186
16.1886
16.1865
16.1787
16.1639
16.1379
16.1062
16.0277
-7.92487
-7.94388
-7.96605
-7.98377
-7.99813
-8.01025
-8.02073
-8.02999
-8.03853
-8.04675
-8.05506
-8.06375
-8.07318
-8.08353
-8.09511
-8.10803
-8.12255
-8.13872
-8.15673
-8.1766
-8.19842
-8.22214
-8.24779
-8.27526
-8.30447
-8.33528
-8.36753
-8.40103
-8.4356
-8.471
-8.50701
-8.5434
-8.57995
-8.61642
-8.65258
-8.68818
-8.72303
-8.75689
-8.78957
-8.82088
-8.85064
-8.87867
-8.90482
-8.92895
-8.95093
-8.97066
-8.98803
-9.003
-9.01548
-9.02546
-9.03292
-9.03789
-9.04038
-9.04047
-9.03824
-9.03382
-9.02734
-9.01897
-9.0089
-8.99732
-8.98447
-8.97063
-8.95604
-8.94103
-8.92586
-8.91089
-8.8964
-8.88274
-8.87022
-8.8592
-8.84998
-8.8429
-8.83822
-8.83618
-8.83709
-8.84099
-8.84818
-8.8586
-8.87241
-8.88943
-8.90969
-8.93285
-8.95875
-8.98691
-9.01686
-9.04808
-9.07985
-9.11134
-9.1418
-9.1701
-9.19529
-9.21598
-9.23086
-9.23854
-9.23746
-9.22568
-9.20144
-9.16259
-9.10749
-9.03389
-8.94013
-8.82387
-8.68338
-8.51626
-8.32078
-8.09466
-7.83629
-7.54365
-7.21539
-6.84991
-6.44631
-6.00367
-5.52176
-5.00056
-4.44074
-3.84334
-3.21009
-2.54335
-1.84604
-1.12187
-0.374857
0.390244
1.16855
1.95455
2.74292
3.52793
4.30442
5.06713
5.81164
6.53374
7.23014
7.89797
8.53519
9.14025
9.71223
10.2507
10.7557
11.2275
11.667
12.0751
12.4529
12.8019
13.1235
13.4193
13.6907
13.9395
14.167
14.3747
14.5643
14.7369
14.894
15.0367
15.1664
15.284
15.3906
15.4871
15.5744
15.6534
15.7246
15.7888
15.8466
15.8986
15.9451
15.9867
16.0237
16.0562
16.0847
16.1093
16.1301
16.1472
16.1607
16.1704
16.1761
16.1774
16.1734
16.1631
16.1454
16.116
16.0805
15.9989
-7.94923
-7.96591
-7.98471
-7.99974
-8.01169
-8.02154
-8.02991
-8.03724
-8.04402
-8.0506
-8.0574
-8.06466
-8.07273
-8.08175
-8.09202
-8.10362
-8.11681
-8.13162
-8.14824
-8.16668
-8.18706
-8.20931
-8.23348
-8.25946
-8.28722
-8.3166
-8.34748
-8.37969
-8.41304
-8.44731
-8.4823
-8.51776
-8.55345
-8.58913
-8.62457
-8.65952
-8.69375
-8.72701
-8.75912
-8.78983
-8.81896
-8.8463
-8.87171
-8.89499
-8.91603
-8.9347
-8.95087
-8.96451
-8.9755
-8.98387
-8.98954
-8.9926
-8.99302
-8.99096
-8.98641
-8.97964
-8.97066
-8.95982
-8.94717
-8.93311
-8.91776
-8.90152
-8.88465
-8.86749
-8.85036
-8.83363
-8.81762
-8.80277
-8.78939
-8.7779
-8.7686
-8.76188
-8.75797
-8.75727
-8.75985
-8.76604
-8.77598
-8.78968
-8.80723
-8.82852
-8.85348
-8.88183
-8.91332
-8.94744
-8.98378
-9.02175
-9.06052
-9.09931
-9.1371
-9.17303
-9.20583
-9.23417
-9.25676
-9.27219
-9.27873
-9.27454
-9.25758
-9.22601
-9.1778
-9.11108
-9.02376
-8.91385
-8.77917
-8.61766
-8.42719
-8.20575
-7.95137
-7.66226
-7.33676
-6.97346
-6.57122
-6.1293
-5.64732
-5.12537
-4.56401
-3.96433
-3.32808
-2.65763
-1.95602
-1.22692
-0.47457
0.296244
1.08035
1.87223
2.66627
3.45677
4.23831
5.0057
5.75434
6.48011
7.17963
7.85017
8.48967
9.09668
9.67033
10.2102
10.7164
11.1893
11.6298
12.0388
12.4175
12.7674
13.0899
13.3866
13.659
13.9087
14.1372
14.3461
14.5368
14.7106
14.8688
15.0128
15.1436
15.2625
15.3703
15.468
15.5566
15.6366
15.709