/*--------------------------------*- C++ -*----------------------------------*\
  =========                 |
  \\      /  F ield         | OpenFOAM: The Open Source CFD Toolbox
   \\    /   O peration     | Website:  https://openfoam.org
    \\  /    A nd           | Version:  8
     \\/     M anipulation  |
\*---------------------------------------------------------------------------*/
FoamFile
{
    version     2.0;
    format      ascii;
    class       volVectorField;
    location    "95";
    object      U;
}
// * * * * * * * * * * * * * * * * * * * * * * * * * * * * * * * * * * * * * //

dimensions      [0 1 -1 0 0 0 0];

internalField   nonuniform List<vector> 
12225
(
(9.85699 -0.886603 0)
(9.66623 -0.74071 0)
(9.4556 -0.429388 0)
(9.22413 -0.222107 0)
(9.00584 -0.106334 0)
(8.81333 -0.0457303 0)
(8.64589 -0.01503 0)
(8.50315 0.000631674 0)
(8.38061 0.00859719 0)
(8.2769 0.012547 0)
(8.18703 0.0143408 0)
(8.10912 0.0154908 0)
(8.03972 0.0160824 0)
(7.97719 0.0166229 0)
(7.9179 0.0174114 0)
(7.86393 0.0189165 0)
(7.78718 0.0226698 0)
(7.77814 0.0341482 0)
(10.0545 0.2277 0)
(10.1213 0.326997 0)
(10.1196 0.261687 0)
(10.0854 0.18666 0)
(10.0432 0.134789 0)
(9.99629 0.101267 0)
(9.94336 0.0794885 0)
(9.88423 0.0648214 0)
(9.82248 0.0545996 0)
(9.75934 0.047125 0)
(9.6972 0.0415333 0)
(9.63638 0.0372386 0)
(9.57786 0.0339831 0)
(9.52184 0.0318005 0)
(9.46745 0.0303806 0)
(9.41797 0.0322393 0)
(9.36341 0.0324968 0)
(9.33766 0.0585132 0)
(10.0035 0.058167 0)
(10.0305 0.0559836 0)
(10.0559 0.0338407 0)
(10.0701 0.0329839 0)
(10.0766 0.0407812 0)
(10.0773 0.0467358 0)
(10.0718 0.0496199 0)
(10.0603 0.050657 0)
(10.0447 0.0506784 0)
(10.0257 0.0501353 0)
(10.0045 0.0493359 0)
(9.98136 0.0485336 0)
(9.95702 0.0478839 0)
(9.93181 0.0477159 0)
(9.90558 0.0480359 0)
(9.8797 0.0506512 0)
(9.8524 0.0539505 0)
(9.83075 0.0681454 0)
(9.99771 0.0109655 0)
(10.011 0.0266667 0)
(10.0349 0.0372056 0)
(10.0523 0.048195 0)
(10.064 0.0556261 0)
(10.0728 0.0584321 0)
(10.0787 0.0586967 0)
(10.0813 0.0580783 0)
(10.0812 0.0571951 0)
(10.0792 0.0562269 0)
(10.0754 0.055276 0)
(10.0703 0.0545143 0)
(10.0638 0.0540108 0)
(10.0564 0.0540671 0)
(10.0479 0.0547632 0)
(10.0392 0.0573352 0)
(10.0304 0.0611232 0)
(10.0244 0.07022 0)
(9.99935 0.00712331 0)
(10.0089 0.0317589 0)
(10.0274 0.0440187 0)
(10.0416 0.0500811 0)
(10.0524 0.053845 0)
(10.0623 0.0555595 0)
(10.0707 0.0559571 0)
(10.0772 0.0558197 0)
(10.0819 0.0554796 0)
(10.0853 0.0550515 0)
(10.0874 0.0546263 0)
(10.0886 0.0543579 0)
(10.0889 0.0543451 0)
(10.0884 0.0548396 0)
(10.0873 0.0559829 0)
(10.0863 0.0585055 0)
(10.0857 0.0621375 0)
(10.0873 0.0680252 0)
(10.0003 0.00917985 0)
(10.0082 0.0312926 0)
(10.0226 0.041086 0)
(10.0347 0.0456004 0)
(10.0447 0.0493311 0)
(10.0542 0.0517746 0)
(10.0629 0.0528955 0)
(10.0703 0.0533088 0)
(10.0764 0.0534127 0)
(10.0815 0.0533697 0)
(10.0858 0.0532933 0)
(10.0893 0.0533309 0)
(10.0922 0.0535989 0)
(10.0946 0.0542977 0)
(10.0966 0.0555666 0)
(10.0988 0.0577961 0)
(10.1017 0.0608144 0)
(10.1063 0.0646668 0)
(10.0004 0.00896156 0)
(10.0071 0.0272109 0)
(10.019 0.0365866 0)
(10.0299 0.0416449 0)
(10.0392 0.0457695 0)
(10.0481 0.0485624 0)
(10.0565 0.0499923 0)
(10.0638 0.050668 0)
(10.0703 0.0510114 0)
(10.076 0.0511936 0)
(10.081 0.0513293 0)
(10.0855 0.051551 0)
(10.0895 0.0519743 0)
(10.0932 0.0527486 0)
(10.0967 0.0539807 0)
(10.1004 0.0558466 0)
(10.1049 0.0581834 0)
(10.1106 0.0606836 0)
(10.0004 0.00794603 0)
(10.0059 0.0235051 0)
(10.016 0.0329382 0)
(10.0261 0.038402 0)
(10.0348 0.0425147 0)
(10.0431 0.0453432 0)
(10.051 0.0469356 0)
(10.0582 0.0478003 0)
(10.0646 0.0483217 0)
(10.0704 0.0486691 0)
(10.0758 0.0489552 0)
(10.0806 0.0492981 0)
(10.0852 0.0498027 0)
(10.0895 0.0505749 0)
(10.0938 0.051681 0)
(10.0983 0.0531695 0)
(10.1034 0.0548732 0)
(10.1094 0.0564199 0)
(10.0004 0.00700387 0)
(10.005 0.0205597 0)
(10.0136 0.0296843 0)
(10.0227 0.035206 0)
(10.0309 0.0391911 0)
(10.0387 0.0420158 0)
(10.0461 0.0437501 0)
(10.0531 0.0447785 0)
(10.0594 0.0454419 0)
(10.0652 0.0459137 0)
(10.0707 0.0463055 0)
(10.0757 0.0467216 0)
(10.0805 0.047251 0)
(10.0852 0.0479651 0)
(10.0898 0.0488939 0)
(10.0947 0.0500178 0)
(10.1001 0.0511751 0)
(10.106 0.0520392 0)
(10.0004 0.00618423 0)
(10.0043 0.0180058 0)
(10.0115 0.0265333 0)
(10.0197 0.0319681 0)
(10.0274 0.0358436 0)
(10.0347 0.0386502 0)
(10.0418 0.0404833 0)
(10.0485 0.0416347 0)
(10.0547 0.0424042 0)
(10.0604 0.0429656 0)
(10.0658 0.0434268 0)
(10.071 0.0438782 0)
(10.0759 0.0443914 0)
(10.0807 0.0450117 0)
(10.0856 0.045743 0)
(10.0906 0.0465353 0)
(10.096 0.0472456 0)
(10.1017 0.0476221 0)
(10.0003 0.0054336 0)
(10.0036 0.0157097 0)
(10.0098 0.0235195 0)
(10.0171 0.0287706 0)
(10.0242 0.0325195 0)
(10.0311 0.0352653 0)
(10.0379 0.0371386 0)
(10.0443 0.0383689 0)
(10.0503 0.0392118 0)
(10.056 0.0398327 0)
(10.0613 0.0403327 0)
(10.0665 0.0407889 0)
(10.0715 0.0412572 0)
(10.0764 0.0417648 0)
(10.0813 0.0423002 0)
(10.0863 0.0428053 0)
(10.0915 0.0431649 0)
(10.097 0.0431981 0)
(10.0003 0.00477591 0)
(10.0031 0.0137838 0)
(10.0085 0.0208968 0)
(10.0151 0.0258942 0)
(10.0217 0.0294892 0)
(10.0282 0.0321417 0)
(10.0346 0.0340073 0)
(10.0408 0.0352734 0)
(10.0466 0.0361557 0)
(10.0522 0.0368062 0)
(10.0575 0.0373182 0)
(10.0626 0.0377571 0)
(10.0676 0.0381672 0)
(10.0725 0.0385651 0)
(10.0774 0.0389333 0)
(10.0824 0.0392181 0)
(10.0875 0.03933 0)
(10.0926 0.0391445 0)
(10.0003 0.0041685 0)
(10.0027 0.0120246 0)
(10.0074 0.018416 0)
(10.0133 0.0230822 0)
(10.0195 0.0264865 0)
(10.0256 0.029017 0)
(10.0317 0.0308388 0)
(10.0376 0.0321082 0)
(10.0433 0.0330038 0)
(10.0488 0.0336618 0)
(10.054 0.0341666 0)
(10.0591 0.0345735 0)
(10.064 0.0349169 0)
(10.0689 0.0352075 0)
(10.0738 0.0354281 0)
(10.0786 0.0355339 0)
(10.0835 0.035459 0)
(10.0884 0.035118 0)
(10.0002 0.00354123 0)
(10.0024 0.0101954 0)
(10.0064 0.0157537 0)
(10.0116 0.0199636 0)
(10.0173 0.0230929 0)
(10.023 0.0254398 0)
(10.0288 0.027164 0)
(10.0344 0.0283946 0)
(10.0399 0.029272 0)
(10.0452 0.029911 0)
(10.0504 0.0303867 0)
(10.0554 0.0307437 0)
(10.0603 0.0310074 0)
(10.0651 0.0311848 0)
(10.0698 0.0312632 0)
(10.0745 0.0312106 0)
(10.0791 0.0309846 0)
(10.0838 0.0305288 0)
(10.0002 0.00288932 0)
(10.002 0.00829209 0)
(10.0055 0.0129153 0)
(10.0101 0.0165368 0)
(10.0152 0.0192862 0)
(10.0205 0.0213697 0)
(10.0259 0.0229257 0)
(10.0313 0.0240587 0)
(10.0365 0.0248719 0)
(10.0417 0.0254554 0)
(10.0467 0.0258715 0)
(10.0516 0.0261567 0)
(10.0564 0.0263292 0)
(10.061 0.0263937 0)
(10.0656 0.0263432 0)
(10.0701 0.0261604 0)
(10.0746 0.025823 0)
(10.0789 0.0252969 0)
(10.0002 0.002211 0)
(10.0017 0.00631497 0)
(10.0047 0.00990609 0)
(10.0087 0.0128018 0)
(10.0134 0.0150476 0)
(10.0183 0.0167694 0)
(10.0233 0.0180701 0)
(10.0283 0.0190296 0)
(10.0334 0.0197191 0)
(10.0383 0.0202014 0)
(10.0432 0.0205231 0)
(10.0479 0.0207138 0)
(10.0525 0.0207869 0)
(10.0571 0.0207465 0)
(10.0615 0.0205904 0)
(10.0658 0.0203123 0)
(10.0699 0.0199061 0)
(10.074 0.019351 0)
(10.0002 0.00150178 0)
(10.0015 0.00424791 0)
(10.0041 0.00670582 0)
(10.0077 0.00873551 0)
(10.0118 0.0103398 0)
(10.0163 0.0115831 0)
(10.021 0.012528 0)
(10.0258 0.0132257 0)
(10.0306 0.0137205 0)
(10.0353 0.0140491 0)
(10.04 0.0142409 0)
(10.0446 0.014316 0)
(10.049 0.0142851 0)
(10.0533 0.0141516 0)
(10.0576 0.0139165 0)
(10.0616 0.0135797 0)
(10.0655 0.0131445 0)
(10.0693 0.0125967 0)
(10.0001 0.00074366 0)
(10.0013 0.00203694 0)
(10.0036 0.00323851 0)
(10.0069 0.00425212 0)
(10.0108 0.00506436 0)
(10.015 0.00569706 0)
(10.0194 0.00617329 0)
(10.024 0.00651347 0)
(10.0285 0.00673592 0)
(10.0331 0.00685492 0)
(10.0376 0.00688145 0)
(10.0419 0.00682357 0)
(10.0462 0.00668657 0)
(10.0503 0.00647248 0)
(10.0543 0.00618278 0)
(10.0582 0.00581915 0)
(10.0619 0.00538734 0)
(10.0654 0.00487595 0)
(10.0001 -0.000108916 0)
(10.0013 -0.000441934 0)
(10.0035 -0.000673933 0)
(10.0066 -0.00084925 0)
(10.0104 -0.000981895 0)
(10.0145 -0.00108771 0)
(10.0188 -0.00118424 0)
(10.0232 -0.00128554 0)
(10.0276 -0.00139938 0)
(10.0321 -0.00153442 0)
(10.0364 -0.00169767 0)
(10.0406 -0.00189591 0)
(10.0447 -0.00213239 0)
(10.0487 -0.00241036 0)
(10.0525 -0.00273077 0)
(10.0562 -0.0030945 0)
(10.0597 -0.0034975 0)
(10.063 -0.0039526 0)
(10.0001 -0.000929478 0)
(10.0013 -0.0028218 0)
(10.0037 -0.00444106 0)
(10.0071 -0.00575537 0)
(10.011 -0.00677585 0)
(10.0152 -0.00756312 0)
(10.0196 -0.00817957 0)
(10.0241 -0.00866776 0)
(10.0286 -0.00906455 0)
(10.033 -0.00940169 0)
(10.0373 -0.00970706 0)
(10.0415 -0.0099993 0)
(10.0456 -0.0102923 0)
(10.0495 -0.0105935 0)
(10.0532 -0.0109098 0)
(10.0568 -0.0112447 0)
(10.0602 -0.0115995 0)
(10.0634 -0.0119864 0)
(10.0002 -0.00163828 0)
(10.0015 -0.0048992 0)
(10.0041 -0.00773199 0)
(10.0079 -0.0099757 0)
(10.0121 -0.0116643 0)
(10.0167 -0.0129488 0)
(10.0213 -0.0139361 0)
(10.026 -0.0146842 0)
(10.0306 -0.0152516 0)
(10.0351 -0.0156962 0)
(10.0395 -0.016066 0)
(10.0437 -0.0163912 0)
(10.0477 -0.0166933 0)
(10.0516 -0.016984 0)
(10.0553 -0.0172742 0)
(10.0588 -0.0175699 0)
(10.0621 -0.0178751 0)
(10.0653 -0.0182014 0)
(10.0002 -0.0023112 0)
(10.0017 -0.00694941 0)
(10.0048 -0.011016 0)
(10.0091 -0.0140975 0)
(10.0139 -0.0163044 0)
(10.0188 -0.0179487 0)
(10.0237 -0.0191912 0)
(10.0286 -0.020106 0)
(10.0334 -0.0207731 0)
(10.0381 -0.0212736 0)
(10.0425 -0.0216648 0)
(10.0467 -0.0219877 0)
(10.0508 -0.0222676 0)
(10.0547 -0.022525 0)
(10.0583 -0.0227712 0)
(10.0618 -0.0230177 0)
(10.0652 -0.0232662 0)
(10.0683 -0.0235297 0)
(10.0002 -0.00294036 0)
(10.0018 -0.00902325 0)
(10.0055 -0.0143195 0)
(10.0106 -0.018138 0)
(10.016 -0.0208103 0)
(10.0214 -0.02276 0)
(10.0266 -0.0241438 0)
(10.0318 -0.0250895 0)
(10.0368 -0.0257518 0)
(10.0416 -0.0262403 0)
(10.0461 -0.026612 0)
(10.0505 -0.0269041 0)
(10.0546 -0.0271453 0)
(10.0584 -0.0273578 0)
(10.0621 -0.027557 0)
(10.0656 -0.027753 0)
(10.0689 -0.0279494 0)
(10.072 -0.0281555 0)
(10.0001 -0.00349364 0)
(10.0018 -0.0114943 0)
(10.0063 -0.0177855 0)
(10.0124 -0.0218258 0)
(10.0185 -0.0248342 0)
(10.0243 -0.0271868 0)
(10.03 -0.0287692 0)
(10.0355 -0.0297243 0)
(10.0407 -0.0303237 0)
(10.0456 -0.0307339 0)
(10.0502 -0.0310248 0)
(10.0546 -0.0312353 0)
(10.0588 -0.0313994 0)
(10.0627 -0.0315397 0)
(10.0663 -0.0316725 0)
(10.0698 -0.0318047 0)
(10.0731 -0.0319406 0)
(10.0761 -0.0320828 0)
(9.99991 -0.00334598 0)
(10.0016 -0.0149389 0)
(10.0074 -0.0226529 0)
(10.0143 -0.0261172 0)
(10.0208 -0.0286543 0)
(10.0271 -0.030973 0)
(10.0334 -0.0326523 0)
(10.0395 -0.0337 0)
(10.045 -0.034359 0)
(10.0501 -0.0347837 0)
(10.0549 -0.0350467 0)
(10.0593 -0.035202 0)
(10.0634 -0.0352956 0)
(10.0673 -0.0353589 0)
(10.0708 -0.0354104 0)
(10.0741 -0.0354607 0)
(10.0772 -0.0355133 0)
(10.08 -0.0355728 0)
(9.99859 -0.000360641 0)
(9.99905 -0.0157615 0)
(10.0076 -0.027371 0)
(10.0167 -0.0323951 0)
(10.0239 -0.0347347 0)
(10.0309 -0.0360526 0)
(10.0379 -0.03677 0)
(10.0445 -0.0372069 0)
(10.0504 -0.0375268 0)
(10.0557 -0.0377457 0)
(10.0603 -0.0378642 0)
(10.0645 -0.0379067 0)
(10.0683 -0.0379053 0)
(10.0716 -0.0378823 0)
(10.0745 -0.0378525 0)
(10.077 -0.037825 0)
(10.0793 -0.0378015 0)
(10.0813 -0.0377853 0)
(9.99488 0.00142016 0)
(9.99289 -0.00809839 0)
(10.0061 -0.020285 0)
(10.0203 -0.0321918 0)
(10.0308 -0.0403743 0)
(10.0395 -0.0440229 0)
(10.047 -0.0449096 0)
(10.0533 -0.0447414 0)
(10.0583 -0.0442529 0)
(10.0623 -0.0436368 0)
(10.0654 -0.0429727 0)
(10.0677 -0.0423167 0)
(10.0693 -0.0417049 0)
(10.0702 -0.0411466 0)
(10.0707 -0.0406507 0)
(10.0707 -0.0402156 0)
(10.0703 -0.0398374 0)
(10.0697 -0.0394904 0)
(9.99471 -0.0305682 0)
(9.99945 -0.0228313 0)
(10.0147 -0.00258823 0)
(10.0305 -0.00184792 0)
(10.0436 -0.0115802 0)
(10.0535 -0.0208299 0)
(10.0597 -0.0271722 0)
(10.0622 -0.0313819 0)
(10.062 -0.0341401 0)
(10.0597 -0.035821 0)
(10.0557 -0.0367382 0)
(10.0506 -0.0371592 0)
(10.0444 -0.0372729 0)
(10.0375 -0.0371992 0)
(10.0301 -0.0370279 0)
(10.0223 -0.0368173 0)
(10.0143 -0.0366307 0)
(10.0062 -0.0364362 0)
(10.0274 -0.183001 0)
(10.0766 -0.288315 0)
(10.0871 -0.247801 0)
(10.0778 -0.186529 0)
(10.0664 -0.140277 0)
(10.0539 -0.108182 0)
(10.0367 -0.0858234 0)
(10.0148 -0.070354 0)
(9.98975 -0.0595707 0)
(9.96282 -0.0517815 0)
(9.93497 -0.045948 0)
(9.90677 -0.0414442 0)
(9.87873 -0.0378838 0)
(9.85117 -0.0350029 0)
(9.82431 -0.0326337 0)
(9.79828 -0.0307068 0)
(9.77334 -0.0291849 0)
(9.74947 -0.0283674 0)
(9.93576 0.689544 0)
(9.8683 0.609602 0)
(9.76466 0.380623 0)
(9.62678 0.217434 0)
(9.48615 0.119273 0)
(9.35759 0.0632004 0)
(9.24323 0.0315939 0)
(9.14183 0.013647 0)
(9.05236 0.00329863 0)
(8.97359 -0.00275493 0)
(8.9039 -0.00630264 0)
(8.84193 -0.00841869 0)
(8.78645 -0.0096641 0)
(8.73656 -0.0104173 0)
(8.69135 -0.0109028 0)
(8.6502 -0.0111756 0)
(8.61222 -0.0113928 0)
(8.57705 -0.0120291 0)
(0.0113934 -0.0148289 -5.6177e-19)
(0.0331482 -0.026997 2.67852e-19)
(0.0526725 -0.02899 0)
(0.0731793 -0.0251583 0)
(0.0893216 -0.0181499 0)
(0.0993863 -0.0096073 -1.06028e-19)
(0.103697 -0.000677711 0)
(0.102428 0.0077638 0)
(0.0957944 0.0149791 0)
(0.0846014 0.0204734 0)
(0.0697039 0.0243999 7.57931e-20)
(0.0517055 0.0270622 0)
(0.0310853 0.0287163 0)
(0.00845455 0.0293264 0)
(-0.0169663 0.0279899 0)
(-0.0429249 0.0265663 5.68897e-20)
(-0.0678543 0.0272671 0)
(-0.0933951 0.0333095 0)
(-0.122513 0.0471766 0)
(-0.15651 0.0717454 0)
(-0.193334 0.104925 0)
(-0.243085 0.101077 0)
(-0.309105 0.0484903 0)
(-0.348653 0.0496617 1.2809e-19)
(-0.401402 0.0550081 -1.15993e-19)
(-0.459613 0.0596027 1.05725e-19)
(-0.521734 0.0629703 9.69553e-20)
(-0.586675 0.0653558 0)
(-0.653611 0.0669461 0)
(-0.721818 0.0678598 -7.72729e-20)
(-0.790648 0.0681368 -7.23829e-20)
(-0.859495 0.0678367 0)
(-0.927832 0.0670003 0)
(-0.995196 0.0657059 -6.11703e-20)
(-1.06122 0.0640153 0)
(-1.12558 0.0620232 0)
(-1.18808 0.0597943 5.35898e-20)
(-1.24854 0.0574199 0)
(-1.30688 0.0549535 4.98548e-20)
(-1.36308 0.0524709 9.65479e-20)
(-1.41714 0.0500065 0)
(-1.46912 0.0476126 0)
(-1.5191 0.0453019 0)
(-1.56717 0.043108 0)
(-1.61344 0.0410283 0)
(-1.65802 0.0390843 8.27394e-20)
(-1.70105 0.0372636 8.10118e-20)
(-1.74263 0.0355799 7.93884e-20)
(-1.78288 0.034016 0)
(-1.82192 0.0325813 -7.64055e-20)
(-1.85986 0.0312544 0)
(-1.8968 0.0300435 7.36949e-20)
(-1.93285 0.0289307 7.24197e-20)
(-1.9681 0.027923 0)
(-2.00265 0.0270007 0)
(-2.03657 0.026173 0)
(-2.06996 0.025425 6.76884e-20)
(-2.10289 0.0247651 0)
(-2.13542 0.0241759 0)
(-2.16764 0.0236668 0)
(-2.1996 0.0232245 0)
(-2.23138 0.022857 0)
(-2.26303 0.0225509 0)
(-2.29461 0.0223148 0)
(-2.32618 0.022136 0)
(-2.3578 0.0220217 -5.81883e-20)
(-2.38952 0.0219621 0)
(-2.4214 0.0219629 0)
(-2.45348 0.0220174 5.52057e-20)
(-2.48581 0.0221289 5.42263e-20)
(-2.51844 0.022294 0)
(-2.55141 0.0225114 -5.22922e-20)
(-2.58476 0.0227793 5.13378e-20)
(-2.61852 0.0230922 0)
(-2.65274 0.0234521 -4.94559e-20)
(-2.68743 0.023854 0)
(-2.7226 0.024303 0)
(-2.75824 0.02479 4.67224e-20)
(-2.79435 0.0253116 0)
(-2.83092 0.0258473 -4.49831e-20)
(-2.86791 0.0263936 0)
(-2.9053 0.0269205 4.3332e-20)
(-2.94302 0.0274145 4.25445e-20)
(-2.98104 0.0278376 4.17839e-20)
(-3.01927 0.0281834 8.2102e-20)
(-3.05762 0.0284204 -8.06929e-20)
(-3.09597 0.028547 0)
(-3.13416 0.0285253 0)
(-3.17197 0.0283591 0)
(-3.20925 0.0280015 -7.56233e-20)
(-3.24592 0.0274339 -7.44947e-20)
(-3.2818 0.0266696 7.3424e-20)
(-3.31663 0.025722 0)
(-3.3501 0.0246205 -7.14658e-20)
(-3.38191 0.023383 -7.05861e-20)
(-3.41172 0.0220233 -6.9778e-20)
(-3.43918 0.0205215 0)
(-3.46389 0.0188062 0)
(-3.48535 0.0166672 0)
(-3.50285 0.0134725 -6.72753e-20)
(-3.51566 0.0108591 0)
(-3.52399 0.0106397 0)
(-3.52834 0.0085494 6.56681e-20)
(-3.52788 0.00488622 0)
(-3.52283 0.00408044 0)
(-3.51349 0.00195676 6.38054e-20)
(-3.49878 -0.00181629 0)
(-3.47871 -0.00327355 0)
(-3.45353 -0.00565441 -6.11455e-20)
(-3.42254 -0.00868436 -5.99231e-20)
(-3.38584 -0.0112628 0)
(-3.34293 -0.0151409 5.69785e-20)
(-3.29369 -0.0186808 0)
(-3.23813 -0.0221775 -5.28954e-20)
(-3.17624 -0.0255862 0)
(-3.10816 -0.0290658 -4.722e-20)
(-3.03363 -0.033125 -4.36825e-20)
(-2.95277 -0.0371711 0)
(-2.86573 -0.0412676 0)
(-2.7726 -0.0454422 0)
(-2.67364 -0.0496196 0)
(-2.56911 -0.0537795 0)
(-2.45929 -0.057862 0)
(-2.34446 -0.0618336 0)
(-2.22499 -0.0656397 1.02654e-20)
(-2.10131 -0.0692532 -2.13009e-20)
(-1.97388 -0.0726327 0)
(-1.84322 -0.0757575 0)
(-1.70984 -0.078606 0)
(-1.57431 -0.0811676 0)
(-1.43713 -0.0834338 -1.94771e-19)
(-1.29888 -0.0854147 0)
(-1.16003 -0.0871599 2.81034e-19)
(-1.02106 -0.0886588 -3.31551e-19)
(-0.882414 -0.0899491 0)
(-0.744522 -0.0910542 0)
(-0.607758 -0.0920053 0)
(-0.472573 -0.0927655 6.05458e-19)
(-0.33899 -0.0933604 7.00108e-19)
(-0.207944 -0.0940046 0)
(-0.0772154 -0.0933767 8.78682e-19)
(0.0556391 -0.0901296 8.56243e-19)
(0.18612 -0.0854612 -8.15517e-19)
(0.312634 -0.0805554 0)
(0.434838 -0.0757793 0)
(0.552391 -0.0712099 -7.29652e-19)
(0.665202 -0.0668762 0)
(0.773269 -0.0627716 0)
(0.87664 -0.058887 0)
(0.975439 -0.0552478 0)
(1.06976 -0.0518248 6.46493e-19)
(1.15976 -0.0485971 6.34567e-19)
(1.24559 -0.0455816 0)
(1.32742 -0.0427549 6.13447e-19)
(1.40544 -0.0401049 0)
(1.47977 -0.0376207 0)
(1.55058 -0.0352937 5.87412e-19)
(1.61801 -0.0331068 0)
(1.68222 -0.0310549 5.72979e-19)
(1.74338 -0.0291344 0)
(1.80162 -0.0273398 0)
(1.85709 -0.0256549 5.54611e-19)
(1.9099 -0.0240731 0)
(1.96019 -0.0225891 5.44175e-19)
(2.00806 -0.0211912 0)
(2.05363 -0.0198742 0)
(2.09699 -0.01864 0)
(2.13822 -0.0174662 -5.26808e-19)
(2.17741 -0.016348 0)
(2.21458 -0.0152796 5.19693e-19)
(2.24974 -0.0142329 0)
(2.28283 -0.013179 0)
(2.3137 -0.0121082 0)
(2.34202 -0.0109467 0)
(2.36735 -0.00958545 0)
(2.38808 -0.00785284 0)
(2.40402 -0.00486988 0)
(2.40211 0.00110755 -1.02379e-18)
(2.38711 0.0141294 0)
(2.26744 0.0319267 0)
(0.0140745 -0.068778 1.25757e-18)
(0.035836 -0.0750315 -5.16864e-19)
(0.0472586 -0.0640087 0)
(0.0560354 -0.0497496 1.49814e-19)
(0.0606156 -0.0341583 0)
(0.0609668 -0.0181236 5.60449e-20)
(0.0574798 -0.00244299 -1.04304e-19)
(0.0503512 0.0122731 -9.90439e-20)
(0.0396119 0.0255707 0)
(0.025219 0.0372043 -9.35449e-20)
(0.00722388 0.047178 -4.63082e-20)
(-0.0143621 0.055625 0)
(-0.0395088 0.0627159 0)
(-0.0682298 0.0686092 0)
(-0.100753 0.0732632 0)
(-0.137206 0.0765594 -4.20219e-20)
(-0.178366 0.0799295 0)
(-0.224422 0.0856849 7.83537e-20)
(-0.275198 0.0955059 0)
(-0.329034 0.109978 0)
(-0.383562 0.128352 -8.02549e-20)
(-0.444535 0.143568 0)
(-0.511758 0.150006 8.34403e-20)
(-0.582359 0.156776 -4.02188e-20)
(-0.651519 0.163293 3.82943e-20)
(-0.7197 0.168633 -3.64781e-20)
(-0.7874 0.172481 -3.47974e-20)
(-0.854554 0.174743 0)
(-0.920895 0.175448 0)
(-0.986078 0.174674 3.05315e-20)
(-1.04979 0.172549 -2.90705e-20)
(-1.11178 0.169257 0)
(-1.17188 0.164994 0)
(-1.22995 0.159979 2.63597e-20)
(-1.28594 0.154407 0)
(-1.33985 0.148476 0)
(-1.39169 0.142343 -2.40929e-20)
(-1.44152 0.13616 0)
(-1.48943 0.130038 2.26739e-20)
(-1.5355 0.124079 -4.47052e-20)
(-1.57984 0.118343 0)
(-1.62256 0.11289 0)
(-1.66377 0.107741 -8.35598e-20)
(-1.70358 0.102923 -8.19893e-20)
(-1.74211 0.0984317 -8.05177e-20)
(-1.77946 0.0942746 3.93978e-20)
(-1.81573 0.0904333 -3.9074e-20)
(-1.85103 0.0869058 -1.15026e-19)
(-1.88543 0.0836673 7.53948e-20)
(-1.91903 0.080712 3.72765e-20)
(-1.95192 0.0780116 0)
(-1.98417 0.075559 -3.61954e-20)
(-2.01585 0.0733283 3.54166e-20)
(-2.04704 0.0713143 0)
(-2.0778 0.0694921 0)
(-2.1082 0.0678582 0)
(-2.1383 0.0663915 -3.37496e-20)
(-2.16815 0.0650915 0)
(-2.1978 0.0639378 6.54443e-20)
(-2.22732 0.0629302 0)
(-2.25674 0.0620514 6.36625e-20)
(-2.28612 0.0613033 0)
(-2.3155 0.0606705 -6.19139e-20)
(-2.34493 0.0601544 0)
(-2.37444 0.0597403 6.01929e-20)
(-2.40407 0.0594287 -2.95622e-20)
(-2.43386 0.0592064 0)
(-2.46385 0.0590719 -5.76563e-20)
(-2.49404 0.0590126 -2.85255e-20)
(-2.52447 0.059023 -2.81143e-20)
(-2.55516 0.0590921 0)
(-2.58611 0.0592099 -2.70548e-20)
(-2.61735 0.0593652 -2.69005e-20)
(-2.64887 0.0595419 0)
(-2.68066 0.059729 2.61093e-20)
(-2.71273 0.0599097 -5.11633e-20)
(-2.74505 0.0600797 0)
(-2.77759 0.0602226 -2.49587e-20)
(-2.81031 0.0603316 0)
(-2.84316 0.0603845 7.23575e-20)
(-2.87609 0.0603797 0)
(-2.90903 0.060293 -7.02454e-20)
(-2.94188 0.0601157 -2.32017e-20)
(-2.97455 0.0598107 2.25012e-20)
(-3.00694 0.0593693 4.43608e-20)
(-3.0389 0.0587564 -4.37468e-20)
(-3.07032 0.0579669 0)
(-3.101 0.0569662 0)
(-3.13073 0.0557432 0)
(-3.15932 0.0542461 1.26536e-19)
(-3.18663 0.0524167 4.20018e-20)
(-3.21253 0.0502209 -4.15565e-20)
(-3.23679 0.0476391 0)
(-3.2592 0.0446686 -3.99604e-20)
(-3.27952 0.0412911 4.03695e-20)
(-3.29755 0.0375013 4.0028e-20)
(-3.3131 0.0332793 0)
(-3.32601 0.0286296 0)
(-3.33618 0.0235589 0)
(-3.34372 0.018126 3.88864e-20)
(-3.34878 0.0123916 0)
(-3.35103 0.00651043 -7.6047e-20)
(-3.3498 0.000599262 -1.13571e-19)
(-3.34494 -0.0055379 7.48016e-20)
(-3.3357 -0.0118581 0)
(-3.32137 -0.0182468 3.65692e-20)
(-3.30236 -0.0248993 0)
(-3.27818 -0.0317908 7.18556e-20)
(-3.2482 -0.0387888 -3.52269e-20)
(-3.21263 -0.0459572 -3.46003e-20)
(-3.17106 -0.0532745 0)
(-3.1234 -0.0606734 -9.94313e-20)
(-3.0696 -0.0680773 6.42846e-20)
(-3.00941 -0.0753953 3.09e-20)
(-2.94287 -0.0826785 0)
(-2.86979 -0.0899173 2.77978e-20)
(-2.79021 -0.096963 7.83189e-20)
(-2.70427 -0.103891 0)
(-2.612 -0.110597 4.35613e-20)
(-2.51354 -0.117001 3.8293e-20)
(-2.40914 -0.123066 3.24054e-20)
(-2.29907 -0.128758 0)
(-2.18361 -0.134008 0)
(-2.06311 -0.138781 0)
(-1.93797 -0.143021 -2.23945e-21)
(-1.80862 -0.146705 4.93066e-21)
(-1.67559 -0.1498 0)
(-1.53939 -0.152296 2.81343e-20)
(-1.40059 -0.15418 3.96466e-20)
(-1.25975 -0.155457 0)
(-1.11743 -0.156156 6.82588e-20)
(-0.974206 -0.156317 1.56655e-19)
(-0.830597 -0.155976 -9.63105e-20)
(-0.687111 -0.155181 -1.03544e-19)
(-0.544222 -0.153995 0)
(-0.40234 -0.15246 0)
(-0.261852 -0.150667 0)
(-0.122753 -0.148787 -1.75378e-19)
(0.0152351 -0.147049 1.78134e-19)
(0.151134 -0.145521 3.79105e-19)
(0.283101 -0.143085 -2.00338e-19)
(0.410248 -0.138775 2.00415e-19)
(0.53283 -0.133187 2.13592e-19)
(0.651514 -0.127112 0)
(0.766406 -0.120912 0)
(0.877391 -0.114761 -2.25071e-19)
(0.984389 -0.108744 0)
(1.08736 -0.102918 0)
(1.1863 -0.0973032 4.83131e-19)
(1.28127 -0.0919302 0)
(1.37231 -0.0868087 2.46851e-19)
(1.45952 -0.0819301 -2.54038e-19)
(1.54301 -0.0772948 0)
(1.62287 -0.0729135 2.55824e-19)
(1.69923 -0.0687764 0)
(1.77218 -0.0648569 0)
(1.84188 -0.0611491 -2.6524e-19)
(1.90845 -0.0576486 5.31212e-19)
(1.97205 -0.0543515 -2.6839e-19)
(2.03278 -0.0512533 0)
(2.09077 -0.0483361 0)
(2.14615 -0.0455818 2.70109e-19)
(2.19903 -0.0429822 0)
(2.24953 -0.0405328 2.72291e-19)
(2.29775 -0.0382217 0)
(2.34379 -0.036036 0)
(2.38775 -0.0339694 0)
(2.4297 -0.0320025 2.76933e-19)
(2.46971 -0.0301157 0)
(2.50782 -0.0282847 -2.78077e-19)
(2.54403 -0.0264695 0)
(2.57827 -0.0246149 0)
(2.61042 -0.0226446 5.58701e-19)
(2.64021 -0.0204286 -5.60211e-19)
(2.6672 -0.0177032 0)
(2.69043 -0.01407 0)
(2.70888 -0.00805591 0)
(2.72058 0.0025033 1.72077e-18)
(2.73207 0.0239617 0)
(2.71561 0.0626446 -1.18883e-18)
(0.00750187 -0.110704 -6.55539e-22)
(0.0198163 -0.100455 5.23801e-19)
(0.0218884 -0.0765193 0)
(0.021566 -0.0525921 -2.26865e-19)
(0.0177617 -0.0291362 0)
(0.0106299 -0.00619586 0)
(0.000471167 0.0159994 -7.02524e-23)
(-0.0126515 0.0371817 7.27978e-20)
(-0.0288729 0.0571396 6.96258e-20)
(-0.048392 0.0757125 6.72785e-20)
(-0.0714035 0.0928215 0)
(-0.0980951 0.108544 0)
(-0.128648 0.123067 -6.34157e-20)
(-0.163242 0.136683 -1.24568e-19)
(-0.20206 0.149728 1.21938e-19)
(-0.245299 0.162566 0)
(-0.292969 0.175861 1.15236e-19)
(-0.344597 0.190586 -5.59678e-20)
(-0.39893 0.207149 0)
(-0.454387 0.224911 1.04747e-19)
(-0.509672 0.241819 5.11234e-20)
(-0.565507 0.254551 -9.91896e-20)
(-0.623249 0.262563 -4.81556e-20)
(-0.682818 0.26928 0)
(-0.742568 0.274676 8.90347e-20)
(-0.801754 0.278314 8.57161e-20)
(-0.86005 0.279958 0)
(-0.91725 0.27954 7.95492e-20)
(-0.973177 0.277136 0)
(-1.0277 0.272925 7.40089e-20)
(-1.08074 0.26715 3.5868e-20)
(-1.13228 0.260085 0)
(-1.18229 0.252016 0)
(-1.23077 0.243224 0)
(-1.27776 0.233964 0)
(-1.32329 0.224468 0)
(-1.36739 0.214927 0)
(-1.41012 0.205503 5.8633e-20)
(-1.45153 0.196321 -8.60675e-20)
(-1.49166 0.187482 0)
(-1.53059 0.179052 0)
(-1.56835 0.171079 0)
(-1.60502 0.163587 1.97042e-22)
(-1.64066 0.15659 5.21236e-20)
(-1.67532 0.150084 1.02284e-19)
(-1.70907 0.14406 -1.00609e-19)
(-1.74197 0.138501 -4.94202e-20)
(-1.77409 0.133388 4.88395e-20)
(-1.80547 0.128698 -1.69637e-22)
(-1.83618 0.124407 4.72512e-20)
(-1.86628 0.12049 0)
(-1.89583 0.116925 4.59396e-20)
(-1.92488 0.113687 -1.53421e-22)
(-1.95349 0.110756 0)
(-1.9817 0.108111 0)
(-2.00958 0.105734 -4.35307e-20)
(-2.03717 0.103607 0)
(-2.06451 0.101717 0)
(-2.09165 0.100046 4.17049e-20)
(-2.11864 0.0985821 8.25915e-20)
(-2.14551 0.0973121 -4.08905e-20)
(-2.17231 0.0962256 0)
(-2.19907 0.0953098 3.9821e-20)
(-2.22583 0.0945547 0)
(-2.25262 0.0939482 3.84905e-20)
(-2.27948 0.0934799 3.82506e-20)
(-2.30643 0.0931382 -7.51815e-20)
(-2.33351 0.0929115 -3.69283e-20)
(-2.36072 0.092787 0)
(-2.3881 0.0927504 7.21159e-20)
(-2.41565 0.0927869 0)
(-2.4434 0.092879 1.05332e-19)
(-2.47134 0.09301 6.91218e-20)
(-2.49948 0.0931575 6.81422e-20)
(-2.52782 0.0933026 -6.71732e-20)
(-2.55636 0.0934224 9.95076e-20)
(-2.58507 0.0934996 0)
(-2.61393 0.093509 0)
(-2.64292 0.0934294 -6.34297e-20)
(-2.67199 0.0932322 -9.40057e-20)
(-2.70109 0.0928981 0)
(-2.73016 0.0923962 3.06215e-20)
(-2.75914 0.0917026 0)
(-2.78794 0.0907816 -8.9033e-20)
(-2.81648 0.08961 -4.72663e-22)
(-2.84464 0.0881515 4.88356e-22)
(-2.87232 0.0863841 5.70222e-20)
(-2.89937 0.084274 0)
(-2.92562 0.0817954 -5.57397e-20)
(-2.95092 0.0789002 -5.3144e-22)
(-2.97515 0.0755398 0)
(-2.9982 0.0716822 0)
(-3.0199 0.0673155 0)
(-3.04005 0.0624336 5.36724e-20)
(-3.05846 0.057035 0)
(-3.07495 0.0511178 0)
(-3.08932 0.0446835 0)
(-3.10139 0.0377351 0)
(-3.11097 0.0302755 0)
(-3.11791 0.0223165 5.1092e-20)
(-3.12196 0.0139605 0)
(-3.12267 0.00528538 5.07534e-20)
(-3.11964 -0.00393084 5.03432e-20)
(-3.11275 -0.0137321 -4.98855e-20)
(-3.10146 -0.023833 0)
(-3.08551 -0.0342572 -4.89207e-20)
(-3.06478 -0.045135 0)
(-3.03886 -0.0562444 -4.7581e-20)
(-3.00744 -0.0676025 4.67692e-20)
(-2.97042 -0.0792217 1.37319e-19)
(-2.92748 -0.0910315 0)
(-2.87855 -0.102986 1.3045e-19)
(-2.82346 -0.114994 4.22628e-20)
(-2.76209 -0.126905 0)
(-2.69439 -0.138674 7.73327e-20)
(-2.62019 -0.15028 7.31876e-20)
(-2.53956 -0.161606 -1.0214e-19)
(-2.45259 -0.172607 0)
(-2.35932 -0.183201 -2.77692e-20)
(-2.25994 -0.193264 -2.42914e-20)
(-2.15468 -0.202714 -6.3343e-20)
(-2.04382 -0.21147 0)
(-1.92768 -0.219441 0)
(-1.80661 -0.226551 0)
(-1.68105 -0.23273 -4.31251e-21)
(-1.55145 -0.23793 0)
(-1.41834 -0.242113 0)
(-1.28226 -0.245259 -1.70031e-20)
(-1.14379 -0.24736 -2.37853e-20)
(-1.00349 -0.248431 0)
(-0.861935 -0.248506 0)
(-0.719694 -0.247654 -9.17668e-20)
(-0.577309 -0.245937 0)
(-0.435279 -0.243434 1.23647e-19)
(-0.294063 -0.240246 1.35353e-19)
(-0.154035 -0.236506 0)
(-0.0153332 -0.232413 0)
(0.121419 -0.22794 -1.77733e-19)
(0.255363 -0.222872 -4.70264e-21)
(0.385998 -0.21721 -4.56788e-21)
(0.512833 -0.211046 0)
(0.635563 -0.204258 -4.44448e-19)
(0.754263 -0.196774 0)
(0.86911 -0.188824 0)
(0.98013 -0.180651 0)
(1.08728 -0.172426 2.59908e-19)
(1.19052 -0.164263 0)
(1.28984 -0.156245 -5.44024e-19)
(1.38526 -0.148424 -2.82048e-19)
(1.47684 -0.14085 0)
(1.56464 -0.133551 -2.94662e-19)
(1.64874 -0.126539 0)
(1.72925 -0.119817 0)
(1.80626 -0.113398 -9.27176e-19)
(1.87989 -0.107291 6.25905e-19)
(1.95027 -0.101487 0)
(2.01755 -0.0959748 6.42799e-19)
(2.08184 -0.090747 -3.26843e-19)
(2.14328 -0.0857965 0)
(2.20198 -0.0811185 0)
(2.25807 -0.0766945 0)
(2.31166 -0.0725068 -1.01477e-18)
(2.36288 -0.0685446 0)
(2.41183 -0.0647973 -3.44107e-19)
(2.45862 -0.0612519 0)
(2.50334 -0.0578931 0)
(2.54608 -0.0547054 0)
(2.58693 -0.0516663 0)
(2.62595 -0.0487456 0)
(2.66318 -0.0459001 0)
(2.69861 -0.0430732 -7.13128e-19)
(2.73221 -0.0401851 0)
(2.76386 -0.037111 -3.6047e-19)
(2.79335 -0.0336554 1.08524e-18)
(2.82033 -0.0294744 0)
(2.84412 -0.0239606 0)
(2.8641 -0.0158148 -7.37452e-19)
(2.87829 -0.00284702 -7.45907e-19)
(2.89127 0.0205779 7.50399e-19)
(2.89218 0.0640193 7.71462e-19)
(-0.00248704 -0.126585 -1.59964e-18)
(-0.000283732 -0.100748 -6.42251e-19)
(-0.0065071 -0.0696643 -2.51648e-19)
(-0.0147887 -0.0393761 -9.23469e-20)
(-0.0255777 -0.0100573 0)
(-0.0388416 0.018449 1.33388e-19)
(-0.0545292 0.0461451 -6.06363e-20)
(-0.0726941 0.0729698 0)
(-0.0934921 0.098817 -5.38564e-20)
(-0.117115 0.12357 0)
(-0.143768 0.14715 1.01314e-19)
(-0.173639 0.169561 0)
(-0.20687 0.190895 4.84721e-20)
(-0.243516 0.211306 9.49481e-20)
(-0.283523 0.230967 -9.2776e-20)
(-0.326722 0.250044 0)
(-0.372816 0.268778 -8.76267e-20)
(-0.42123 0.28739 0)
(-0.471103 0.305781 0)
(-0.521522 0.323365 -7.87641e-20)
(-0.571856 0.339056 0)
(-0.622079 0.351617 -4.9836e-23)
(-0.672546 0.36069 0)
(-0.72329 0.366999 0)
(-0.773871 0.370819 -4.8698e-23)
(-0.823888 0.372208 -6.34491e-20)
(-0.87307 0.371213 -6.11769e-20)
(-0.921251 0.367944 -5.91447e-20)
(-0.968351 0.362588 0)
(-1.01434 0.35541 -1.10637e-19)
(-1.05923 0.346715 0)
(-1.10301 0.336813 -5.19962e-20)
(-1.1457 0.326003 0)
(-1.18733 0.314567 0)
(-1.22791 0.302763 4.78748e-20)
(-1.26747 0.290813 0)
(-1.30601 0.278907 -4.55792e-20)
(-1.34356 0.267204 -7.98258e-23)
(-1.38014 0.255829 8.72624e-20)
(-1.41577 0.244877 -8.53945e-20)
(-1.45048 0.234419 0)
(-1.48429 0.224502 0)
(-1.51723 0.215154 -4.0264e-20)
(-1.54933 0.206386 0)
(-1.58063 0.1982 -3.9073e-20)
(-1.61117 0.190587 3.84498e-20)
(-1.64098 0.183532 3.78565e-20)
(-1.67011 0.177013 0)
(-1.6986 0.171008 -3.67458e-20)
(-1.72649 0.165491 -3.62227e-20)
(-1.75383 0.160436 7.1291e-20)
(-1.78067 0.155816 -3.52286e-20)
(-1.80704 0.151607 -3.47534e-20)
(-1.83299 0.147783 0)
(-1.85857 0.144321 0)
(-1.88381 0.1412 3.33942e-20)
(-1.90876 0.138398 0)
(-1.93346 0.135896 0)
(-1.95795 0.133678 -6.42123e-20)
(-1.98227 0.131724 -6.33755e-20)
(-2.00645 0.13002 0)
(-2.03052 0.128551 0)
(-2.05453 0.127301 0)
(-2.07851 0.126256 0)
(-2.10248 0.125402 -5.93019e-20)
(-2.12648 0.124723 5.83281e-20)
(-2.15053 0.124205 5.77124e-20)
(-2.17466 0.123831 1.13661e-19)