/*--------------------------------*- C++ -*----------------------------------*\
  =========                 |
  \\      /  F ield         | OpenFOAM: The Open Source CFD Toolbox
   \\    /   O peration     | Website:  https://openfoam.org
    \\  /    A nd           | Version:  8
     \\/     M anipulation  |
\*---------------------------------------------------------------------------*/
FoamFile
{
    version     2.0;
    format      ascii;
    class       volScalarField;
    location    "85";
    object      epsilon;
}
// * * * * * * * * * * * * * * * * * * * * * * * * * * * * * * * * * * * * * //

dimensions      [0 2 -3 0 0 0 0];

internalField   nonuniform List<scalar> 
12225
(
285.508
270.717
257.9
243.831
232.44
223.126
216.78
212.747
212.794
214.044
217.389
221.086
228.508
233.072
242.278
246.614
258.943
265.901
52.4893
91.8969
106.971
114.787
124.871
136.888
152.811
170.15
191.483
211.444
236.072
256.484
282.767
301.168
328.063
342.556
372.469
380.519
20.3208
34.8619
44.6708
50.4824
55.398
59.6398
64.6858
69.7141
76.4094
83.3629
91.6814
99.7077
108.677
117.765
126.529
137.048
144.712
158.126
15.347
19.6994
24.1101
27.5743
30.4969
32.8827
35.1622
37.3203
39.5269
41.9769
44.4018
47.3277
49.8256
53.2951
55.7231
59.7455
62.1728
66.8642
14.6504
15.8628
17.3661
19.0765
20.6377
22.0319
23.2484
24.4436
25.4529
26.6199
27.547
28.8074
29.6861
31.0801
31.9299
33.4477
34.3372
36.0449
14.7067
14.8769
15.2011
15.8679
16.566
17.2895
17.9243
18.5902
19.1231
19.7457
20.2041
20.821
21.2329
21.8638
22.2491
22.9032
23.2838
24.0129
14.7421
14.6201
14.6248
14.737
14.9294
15.2202
15.4913
15.8116
16.0726
16.3879
16.6233
16.9305
17.1426
17.4464
17.6399
17.9484
18.1287
18.4742
14.7626
14.5866
14.4637
14.3812
14.3667
14.3901
14.4381
14.5346
14.619
14.7386
14.8329
14.9608
15.0529
15.1849
15.2721
15.4087
15.4918
15.6512
14.7666
14.5908
14.4345
14.2963
14.1848
14.1043
14.0394
14.0067
13.9812
13.9788
13.9813
13.9927
14.0057
14.0325
14.0514
14.0862
14.1126
14.1604
14.7663
14.594
14.4319
14.282
14.1428
14.0217
13.9111
13.819
13.7365
13.6693
13.6097
13.5629
13.5178
13.4873
13.4523
13.4356
13.4054
13.4057
14.7658
14.5945
14.4321
14.2803
14.136
14.0031
13.8779
13.764
13.6576
13.5621
13.4726
13.3942
13.3187
13.2549
13.1905
13.14
13.0834
13.0455
14.7657
14.5943
14.4321
14.2798
14.1352
13.9997
13.8712
13.7514
13.6379
13.5329
13.4332
13.3419
13.2544
13.1756
13.0987
13.0312
12.9632
12.9061
14.7657
14.5941
14.432
14.2794
14.1349
13.9988
13.8697
13.7482
13.6327
13.5243
13.4212
13.3247
13.2326
13.147
13.0647
12.9889
12.9154
12.8485
14.7657
14.594
14.4318
14.279
14.1346
13.9982
13.869
13.747
13.6312
13.5218
13.4178
13.3196
13.2261
13.1379
13.0538
12.9745
12.8988
12.8276
14.7657
14.5938
14.4317
14.2787
14.1342
13.9977
13.8685
13.7463
13.6305
13.5208
13.4167
13.318
13.2243
13.1354
13.0508
12.9706
12.8943
12.8218
14.7657
14.5938
14.4316
14.2785
14.1339
13.9973
13.8681
13.7458
13.6299
13.5201
13.416
13.3172
13.2234
13.1344
13.0497
12.9693
12.8928
12.8201
14.7657
14.5937
14.4315
14.2783
14.1337
13.997
13.8677
13.7453
13.6294
13.5195
13.4154
13.3165
13.2227
13.1336
13.049
12.9685
12.892
12.8191
14.7657
14.5937
14.4314
14.2782
14.1336
13.9968
13.8675
13.745
13.6291
13.5192
13.415
13.3161
13.2223
13.1331
13.0485
12.968
12.8915
12.8186
14.7657
14.5936
14.4314
14.2782
14.1335
13.9967
13.8674
13.7449
13.629
13.519
13.4149
13.316
13.2222
13.133
13.0484
12.9678
12.8914
12.8185
14.7657
14.5936
14.4314
14.2782
14.1336
13.9968
13.8675
13.745
13.6292
13.5193
13.4152
13.3163
13.2226
13.1334
13.0489
12.9683
12.892
12.8191
14.7657
14.5937
14.4315
14.2784
14.1337
13.9971
13.8678
13.7455
13.6296
13.5199
13.4158
13.3172
13.2235
13.1347
13.0503
12.9702
12.894
12.8217
14.7657
14.5937
14.4316
14.2785
14.1341
13.9975
13.8686
13.7466
13.6314
13.5224
13.4195
13.322
13.23
13.1427
13.0605
12.9823
12.9088
12.8385
14.7658
14.5937
14.4318
14.2788
14.1354
14.0003
13.8743
13.7562
13.6466
13.5438
13.449
13.3596
13.2777
13.1999
13.129
13.061
12.9998
12.9396
14.7655
14.5928
14.4328
14.2844
14.1516
14.0322
13.9291
13.8376
13.7594
13.6895
13.6307
13.577
13.5327
13.4903
13.457
13.4224
13.398
13.3681
14.7592
14.5932
14.4603
14.3602
14.3029
14.2766
14.2804
14.2919
14.3206
14.3525
14.3948
14.4331
14.4804
14.5191
14.5685
14.6047
14.6563
14.6876
14.7213
14.691
14.754
14.9176
15.1825
15.4607
15.7467
16.0108
16.2703
16.5012
16.7323
16.9338
17.1443
17.323
17.5208
17.6814
17.8738
18.0181
14.7477
15.5124
16.5471
17.6839
18.7033
19.5663
20.3343
20.9934
21.6135
22.159
22.7082
23.1979
23.7222
24.183
24.705
25.1496
25.6834
26.1167
15.9871
20.9922
25.0233
27.7597
29.7821
31.3548
32.7694
34.0479
35.3429
36.5953
37.9437
39.2582
40.7066
42.0809
43.6293
45.067
46.7446
48.1955
29.9028
47.2168
54.8658
58.6669
61.602
64.4133
67.5503
70.9334
74.6741
78.6247
82.8626
87.1832
91.6966
96.1882
100.775
105.234
109.707
114.03
165.798
160.075
154.899
149.564
144.478
139.678
135.612
132.106
129.264
126.963
125.304
124.018
123.305
122.773
122.766
122.883
123.164
123.691
6.0089
3.17176
4.51459
5.66777
6.65645
7.48683
8.1488
8.59979
8.73216
8.10658
7.9349
8.31274
8.89385
39.2899
41.3216
7.2897
6.55636
6.49101
6.69046
7.08561
7.9135
39.4217
45.617
52.6185
59.8851
68.2173
77.8493
88.8641
101.221
114.855
129.711
145.678
162.622
180.412
198.89
217.927
237.349
257.074
276.948
296.929
316.891
336.831
356.647
376.367
395.914
415.341
434.578
453.702
472.644
491.506
510.209
528.874
547.416
565.971
584.452
603.005
621.53
640.193
658.883
677.786
696.765
716.028
735.426
755.182
775.115
795.469
816.039
837.078
858.371
880.165
902.243
924.829
947.711
971.083
994.723
1018.81
1043.11
1067.8
1092.63
1117.76
1142.91
1168.22
1193.39
1218.54
1243.32
1267.89
1291.85
1315.41
1338.26
1360.48
1382.06
1402.83
1423.01
1442.55
1460.63
1477.07
1491.59
1504.32
1515.61
1525.22
1544.36
1543.03
1552.03
1559.43
1569.55
1566.46
1563.73
1556.86
1547.73
1534.97
1519.46
1500.94
1479.45
1455.03
1427.72
1397.76
1365.5
1331.08
1294.68
1256.54
1216.96
1176.31
1134.92
1092.2
1048.31
1004.71
961.503
918.942
877.259
836.532
797.33
759.749
723.926
695.633
671.909
649.445
627.789
606.862
586.737
567.343
548.782
530.955
514.059
497.642
481.95
466.547
451.819
437.902
424.775
412.416
400.647
389.451
378.839
368.812
359.351
350.451
342.052
334.112
326.606
319.517
312.833
306.527
300.573
294.948
289.639
284.626
279.891
275.413
271.176
267.153
263.335
259.658
256.18
252.655
249.473
245.627
242.671
237.636
233.267
215.986
11.675
8.06383
7.62386
7.71698
7.97233
8.33022
8.76402
9.27717
9.90432
10.7133
11.6399
12.6422
14.7112
18.8494
20.7301
19.1855
19.7947
21.7804
24.7508
28.6893
33.9875
41.7431
47.9465
54.255
60.7647
67.6095
74.7097
82.0882
89.7523
97.664
105.799
114.087
122.469
130.931
139.442
147.94
156.415
164.863
173.278
181.663
190.013
198.335
206.625
214.889
223.128
231.348
239.548
247.738
255.916
264.093
272.265
280.446
288.632
296.838
305.059
313.311
321.587
329.906
338.262
346.671
355.126
363.647
372.219
380.863
389.561
398.334
407.159
416.058
425.005
434.02
443.074
452.181
461.307
470.464
479.614
488.761
497.865
506.934
515.921
524.826
533.598
542.234
550.678
558.92
566.907
574.647
582.094
589.273
596.144
602.776
609.134
615.302
621.36
627.434
633.533
639.147
644.372
649.261
653.885
658.22
662.312
664.566
667.494
669.498
670.052
670.95
670.221
668.261
665.627
661.719
656.846
650.896
643.875
635.767
626.579
616.337
605.101
592.873
579.538
565.387
550.514
535.042
519.068
502.605
485.724
468.743
451.742
434.831
418.092
401.602
385.469
369.768
354.541
340.704
328.035
316.047
304.547
293.49
282.877
272.695
262.947
253.61
244.723
236.107
227.752
219.687
211.977
204.648
197.687
191.105
184.865
178.945
173.333
168.024
163.011
158.286
153.829
149.622
145.65
141.899
138.359
135.02
131.867
128.888
126.075
123.417
120.905
118.529
116.281
114.151
112.136
110.214
108.41
106.648
105.055
103.42
102.014
101.273
101.23
103.212
22.1624
13.564
11.6442
11.0961
11.0419
11.2499
11.6723
12.2968
13.1373
14.2204
15.5004
16.9931
18.9271
21.3239
23.8399
26.4318
29.4899
33.0592
37.0705
41.4748
46.2851
51.5158
56.8062
62.2152
67.8176
73.5776
79.5267
85.6396
91.887
98.2577
104.659
111.063
117.549
124.121
130.768
137.472
144.225
151.021
157.851
164.71
171.591
178.49
185.402
192.324
199.252
206.185
213.12
220.056
226.993
233.931
240.868
247.805
254.742
261.679
268.615
275.551
282.485
289.418
296.347
303.273
310.192
317.118
324.037
330.946
337.841
344.719
351.573
358.401
365.195
371.951
378.66
385.317
391.91
398.433
404.875
411.228
417.479
423.624
429.651
435.554
441.324
446.962
452.466
457.819
463.003
468.025
472.891
477.615
482.216
486.715
491.14
495.511
499.842
504.143
508.35
512.376
516.232
519.923
523.433
526.723
529.752
532.308
534.718
536.659
537.794
538.344
538.337
537.625
536.281
534.088
531.085
527.21
522.438
516.746
510.127
502.588
494.157
484.859
474.724
463.856
452.336
440.256
427.699
414.742
401.477
388.048
374.543
361.048
347.63
334.355
321.287
308.512
296.139
284.447
273.431
262.944
252.888
243.232
233.967
225.088
216.59
208.456
200.703
193.275
186.151
179.325
172.808
166.578
160.598
154.916
149.522
144.396
139.522
134.9
130.528
126.395
122.487
118.794
115.302
112.001
108.882
105.935
103.148
100.513
98.0204
95.6616
93.4286
91.3136
89.31
87.4095
85.6088
83.896
82.2797
80.7313
79.2979
77.917
76.6862
75.7376
75.4217
75.9811
34.0437
19.3941
16.061
14.981
14.707
14.8561
15.3054
16.0154
16.9794
18.2037
19.7302
21.6156
23.8703
26.5247
29.5466
32.91
36.6118
40.6072
44.8331
49.247
53.8362
58.5898
63.4705
68.4746
73.6066
78.8659
84.2601
89.7874
95.4395
101.2
107.096
113.155
119.351
125.676
132.101
138.612
145.199
151.853
158.566
165.331
172.14
178.986
185.864
192.767
199.689
206.627
213.576
220.531
227.491
234.45
241.406
248.357
255.299
262.229
269.144
276.041
282.915
289.762
296.578
303.355
310.084
316.78
323.427
330.019
336.549
343.01
349.397
355.703
361.92
368.042
374.061
379.972
385.766
391.437
396.98
402.389
407.658
412.786
417.769
422.606
427.297
431.845
436.253
440.523
444.66
448.677
452.584
456.4
460.138
463.824
467.468
471.084
474.682
478.262
481.782
485.216
488.56
491.802
494.918
497.873
500.623
503.117
505.361
507.23
508.642
509.286
509.536
509.253
508.351
506.719
504.313
501.08
496.98
491.984
486.076
479.258
471.549
462.978
453.592
443.463
432.67
421.298
409.433
397.168
384.6
371.836
358.966
346.069
333.216
320.486
307.965
295.739
283.895
272.549
261.717
251.353
241.413
231.874
222.73
213.974
205.6
197.577
189.931
182.64
175.683
169.046
162.723
156.7
150.957
145.497
140.31
135.368
130.642
126.153
121.897
117.856
114.027
110.399
106.963
103.71
100.631
97.7161
94.9561
92.3419
89.8657
87.5192
85.2949
83.1856
81.1848
79.2854
77.4832
75.7705
74.1492
72.6069
71.1635
69.7997
68.5725
67.4928
66.8304
66.9004
46.1817
25.4575
20.7969
19.2365
18.7821
18.8835
19.3664
20.1624
21.255
22.6528
24.3791
26.4614
28.9186
31.7553
34.9514
38.4683
42.2559
46.2551
50.4126
54.6953
59.0925
63.6051
68.2385
73.0026
77.9093
82.9686
88.1895
93.5765
99.131
104.852
110.743
116.802
123.017
129.37
135.859
142.475
149.207
156.043
162.975
169.99
177.078
184.23
191.435
198.685
205.971
213.286
220.621
227.97
235.326
242.683
250.035
257.376
264.7
272.003
279.278
286.518
293.72
300.875
307.978
315.023
322.008
328.922
335.756
342.504
349.157
355.706
362.144
368.464
374.656
380.715
386.632
392.402
398.018
403.475
408.768
413.895
418.853
423.644
428.268
432.725
437.017
441.15
445.132
448.971
452.676
456.261
459.739
463.124
466.433
469.678
472.877
476.035
479.164
482.261
485.316
488.32
491.268
494.143
496.927
499.59
502.098
504.417
506.507
508.304
509.739
510.445
510.775
510.639
509.92
508.517
506.359
503.387
499.546
494.802
489.129
482.522
474.991
466.567
457.293
447.237
436.474
425.09
413.179
400.836
388.165
375.262
362.223
349.136
336.095
323.19
310.508
298.123
286.112
274.535
263.417
252.747
242.506
232.683
223.273
214.27
205.666
197.431
189.598
182.141
175.041
168.282
161.853
155.739
149.924
144.399
139.152
134.164
129.417
124.905
120.618
116.525
112.638
108.946
105.441
102.116
98.9614
95.9694
93.1311
90.4385
87.8839
85.4596
83.1585
80.9738
78.899
76.9278
75.0555
73.2746
71.5854
69.9827
68.4757
67.0605
65.7733
64.6218
63.7574
63.411
58.0591
31.8228
25.7837
23.739
23.1074
23.1515
23.651
24.5056
25.6814
27.1751
28.9965
31.158
33.6652
36.5102
39.6691
43.1033
46.7665
50.6119
54.6027
58.7181
62.9542
67.3184
71.8246
76.4884
81.3249
86.3463
91.5618
96.9764
102.592
108.408
114.423
120.63
127.023
133.59
140.325
147.217
154.257
161.432
168.731
176.141
183.653
191.252
198.928
206.67
214.466
222.307
230.181
238.08
245.995
253.916
261.836
269.747
277.639
285.506
293.34
301.132
308.875
316.561
324.18
331.726
339.189
346.56
353.829
360.987
368.023
374.928
381.694
388.309
394.767
401.058
407.175
413.111
418.86
424.417
429.777
434.937
439.896
444.654
449.21
453.571
457.745
461.738
465.559
469.219
472.728
476.099
479.346
482.483
485.523
488.485
491.378
494.216
497.002
499.743
502.442
505.101
507.714
510.273
512.76
515.153
517.423
519.537
521.455
523.126
524.475
525.223
525.536
525.381
524.707
523.369
521.285
518.383
514.604
509.898
504.235
497.599
489.996
481.449
472.003
461.721
450.679
438.967
426.682
413.925
400.801
387.415
373.878
360.296
346.769
333.391
320.246
307.408
294.94
282.891
271.285
260.126
249.411
239.134
229.293
219.881
210.893
202.315
194.143
186.367
178.971
171.938
165.255
158.906
152.875
147.149
141.714
136.553
131.649
126.992
122.568
118.359
114.359
110.548
106.918
103.466
100.183
97.0626
94.0967
91.2779
88.5993
86.0537
83.6344
81.335
79.1492
77.071
75.0956
73.2169
71.4343
69.7443
68.152
66.6592
65.2898
64.0567
63.0494
62.3781
69.2089
38.0514
30.7349
28.2358
27.4337
27.4161
27.9056
28.7825
29.9895
31.5083
33.3364
35.4749
37.9212
40.6635
43.6805
46.9421
50.4155
54.0703
57.885
61.8491
65.9639
70.2385
74.6868
79.3231
84.1612
89.2115
94.482
99.9768
105.698
111.645
117.814
124.203
130.803
137.609
144.612
151.802
159.17
166.704
174.392
182.223
190.182
198.259
206.438
214.709
223.057
231.47
239.937
248.446
256.984
265.543
274.11
282.676
291.23
299.763
308.264
316.724
325.132
333.478
341.751
349.942
358.039
366.031
373.905
381.652
389.259
396.714
404.008
411.128
418.065
424.808
431.35
437.681
443.795
449.686
455.348
460.778
465.975
470.939
475.67
480.175
484.457
488.525
492.387
496.052
499.53
502.835
505.979
508.976
511.842
514.591
517.241
519.806
522.298
524.728
527.103
529.429
531.705
533.926
536.081
538.152
540.116
541.942
543.593
545.022
546.137
546.71
546.877
546.645
545.867
544.437
542.269
539.281
535.406
530.586
524.78
517.966
510.14
501.323
491.556
480.9
469.432
457.245
444.436
431.117
417.404
403.418
389.278
375.097
360.979
347.021
333.305
319.904
306.875
294.265
282.1
270.392
259.143
248.353
238.021
228.142
218.709
209.713
201.145
192.992
185.239
177.872
170.874
164.229
157.92
151.932
146.249
140.855
135.734
130.871
126.254
121.865
117.695
113.727
109.952
106.351
102.918
99.6452
96.5273
93.5584
90.7324
88.0431
85.4843
83.0497
80.7333
78.5294
76.4333
74.4399
72.547
70.7529
69.0604
67.4735
66.0086
64.6806
63.5461
62.6216
79.3127
43.85
35.3732
32.4533
31.484
31.402
31.8689
32.7416
33.9426
35.44
37.2216
39.2821
41.6158
44.2129
47.0586
50.1341
53.42
56.8996
60.5622
64.4041
68.429
72.645
77.0635
81.6957
86.5523
91.6417
96.9704
102.542
108.359
114.422
120.728
127.276
134.06
141.076
148.316
155.772
163.436
171.296
179.341
187.561
195.941
204.468
213.13
221.912
230.8
239.78
248.84
257.965
267.142
276.359
285.604
294.863
304.125
313.379
322.611
331.81
340.963
350.059
359.084
368.026
376.872
385.608
394.22
402.696
411.021
419.182
427.164
434.957
442.546
449.92
457.068
463.98
470.647
477.061
483.215
489.106
494.729
500.083
505.169
509.989
514.548
518.85
522.904
526.717
530.298
533.658
536.811
539.769
542.548
545.166
547.64
549.988
552.227
554.37
556.429
558.412
560.322
562.157
563.912
565.576
567.129
568.546
569.794
570.828
571.522
571.771
571.634
571.099
570.028
568.319
565.882
562.632
558.493
553.4
547.305
540.176
532.005
522.806
512.616
501.495
489.519
476.784
463.399
449.485
435.17
420.58
405.838
391.06
376.353
361.813
347.522
333.553
319.963
306.796
294.082
281.836
270.065
258.771
247.954
237.61
227.733
218.314
209.342
200.804
192.686
184.97
177.641
170.682
164.075
157.803
151.851
146.201
140.837
135.744
130.906
126.31
121.942
117.788
113.836
110.072
106.481
103.047
99.7665
96.6361
93.6516
90.8077
88.0987
85.5187
83.0619
80.723
78.4972
76.3799
74.3687
72.462
70.6617
68.9719
67.4041
65.9719
64.7151
63.5846
88.034
48.9573
39.4587
36.1571
35.0304
34.8852
35.3238
36.181
37.3613
38.8216
40.5424
42.5147
44.7331
47.1917
49.8831
52.798
55.9275
59.2643
62.8049
66.5493
70.5016
74.6685
79.0585
83.68
88.5413
93.6491
99.0091
104.625
110.5
116.636
123.033
129.69
136.605
143.775
151.194
158.855
166.752
174.874
183.213
191.758
200.496
209.416
218.505
227.747
237.129
246.636
256.254
265.967
275.763
285.626
295.542
305.499
315.482
325.477
335.47
345.447
355.395
365.298
375.141
384.911
394.591
404.165
413.618
422.933
432.094
441.085
449.89
458.493
466.879
475.033
482.941
490.59
497.97
505.069
511.878
518.391
524.601
530.505
536.102
541.391
546.374
551.056
555.44
559.533
563.343
566.878
570.15
573.171
575.958
578.524
580.893
583.081
585.109
586.991
588.742
590.37
591.881
593.278
594.558
595.716
596.74
597.607
598.294
598.717
598.803
598.505
597.87
596.804
595.206
592.988
590.055
586.326
581.718
576.163
569.606
562.012
553.363
543.669
532.964
521.307
508.782
495.488
481.544
467.073
452.208
437.075
421.799
406.494
391.269
376.217
361.422
346.953
332.869
319.214
306.02
293.304
281.075
269.337
258.089
247.329
237.052
227.247
217.905
209.012
200.552
192.509
184.866
177.605
170.71
164.162
157.944
152.04
146.433
141.106
136.045
131.234
126.661
122.311
118.172
114.229
110.47
106.875
103.429
100.135
96.9889
93.9878
91.1259
88.3977
85.7978
83.321
80.9626
78.7185
76.586
74.5636
72.6522
70.8556
69.1816
67.6411
66.2632
64.9629
95.1301
53.18
42.8154
39.177
37.9079
37.7064
38.1212
38.9665
40.1319
41.5644
43.2392
45.1448
47.2764
49.6316
52.2083
55.0041
58.0171
61.2459
64.6909
68.3543
72.2402
76.3541
80.7024
85.2918
90.129
95.22
100.571
106.185
112.068
118.222
124.65
131.353
138.332
145.586
153.112
160.903
168.955
177.26
185.81
194.596
203.611
212.845
222.284
231.915
241.723
251.693
261.81
272.06
282.427
292.897
303.455
314.086
324.775
335.506
346.263
357.031
367.794
378.535
389.237
399.883
410.454
420.933
431.301
441.539
451.628
461.548
471.28
480.806
490.106
499.162
507.959
516.478
524.706
532.628
540.232
547.507
554.446
561.041
567.288
573.184
578.729
583.923
588.769
593.27
597.432
601.261
604.766
607.957
610.846
613.453
615.792
617.886
619.753
621.411
622.87
624.142
625.232
626.146
626.881
627.436
627.815
627.98
627.895
627.499
626.804
625.762
624.34
622.469
620.071
617.064
613.363
608.888
603.56
597.308
590.079
581.836
572.553
562.239
550.933
538.695
525.613
511.789
497.34
482.39
467.067
451.497
435.8
420.091
404.471
389.034
373.859
359.014
344.555
330.532
316.976
303.903
291.324
279.242
267.657
256.568
245.969
235.852
226.207
217.019
208.272
199.95
192.035
184.511
177.361
170.565
164.108
157.971
152.139
146.594
141.321
136.306
131.535
126.994
122.67
118.55
114.62
110.862
107.254
103.799
100.497
97.3425
94.3315
91.4587
88.7188
86.1068
83.6182
81.2491
78.9967
76.8596
74.8379
72.9344
71.1542
69.5054
68.0089
66.5623
100.455
56.3953
45.3397
41.4197
40.0304
39.7845
40.1873
41.0343
42.2025
43.6312
45.2903
47.166
49.2532
51.5508
54.0598
56.7814
59.7177
62.8702
66.2419
69.8358
73.6562
77.708
81.9969
86.5286
91.3096
96.346
101.644
107.209
113.048
119.163
125.559
132.242
139.215
146.483
154.049
161.895
170.019
178.42
187.091
196.021
205.222
214.682
224.387
234.325
244.48
254.837
265.38
276.098
286.974
297.994
309.144
320.406
331.765
343.205
354.707
366.255
377.831
389.416
400.991
412.536
424.031
435.455
446.786
458.003
469.082
480.002
490.74
501.273
511.578
521.634
531.42
540.915
550.1
558.959
567.473
575.63
583.417
590.823
597.841
604.466
610.693
616.52
621.948
626.976
631.606
635.842
639.69
643.155
646.249
648.984
651.377
653.448
655.213
656.689
657.885
658.81
659.469
659.868
659.995
659.849
659.442
658.745
657.737
656.392
654.695
652.611
650.106
647.128
643.615
639.498
634.707
629.173
622.826
615.598
607.443
598.341
588.253
577.196
565.211
552.363
538.733
524.423
509.544
494.214
478.555
462.687
446.723
430.769
414.922
399.27
383.886
368.831
354.158
339.929
326.168
312.891
300.106
287.815
276.02
264.72
253.909
243.582
233.728
224.331
215.377
206.848
198.728
191
183.648
176.653
169.999
163.669
157.645
151.912
146.455
141.259
136.311
131.596
127.102
122.815
118.723
114.806
111.044
107.439
103.99
100.693
97.5422
94.5338
91.6622
88.9227
86.3109
83.8231
81.4564
79.2093
77.0815
75.0746
73.1915
71.4376
69.8274
68.2536
103.961
58.5555
47.0042
42.8706
41.3896
41.1146
41.5201
42.3847
43.5767
45.0286
46.7057
48.5909
50.677
52.9626
55.449
58.1386
61.0346
64.1401
67.4588
70.9943
74.7514
78.7347
82.9501
87.4037
92.1024
97.0533
102.264
107.742
113.494
119.528
125.838
132.436
139.333
146.541
154.067
161.884
170.002
178.42
187.135
196.137
205.452
215.062
224.955
235.121
245.545
256.212
267.099
278.207
289.521
301.026
312.705
324.544
336.524
348.629
360.84
373.139
385.506
397.92
410.36
422.804
435.229
447.613
459.929
472.153
484.259
496.221
508.013
519.607
530.978
542.1
552.947
563.494
573.718
583.597
593.11
602.238
610.965
619.278
627.164
634.614
641.621
648.181
654.289
659.944
665.142
669.884
674.171
678.004
681.39
684.339
686.861
688.974
690.694
692.031
692.995
693.584
693.799
693.642
693.106
692.195
690.902
689.217
687.127
684.615
681.666
678.258
674.364
669.953
664.981
659.4
653.16
646.218
638.518
630.004
620.637
610.361
599.188
587.185
574.395
560.877
546.707
531.972
516.771
501.209
485.394
469.43
453.419
437.453
421.619
405.993
390.64
375.612
360.945
346.707
332.934
319.636
306.819
294.486
282.636
271.268
260.381
249.97
240.024
230.528
221.467
212.824
204.582
196.728
189.245
182.116
175.325
168.854
162.687
156.81
151.207
145.865
140.77
135.91
131.27
126.838
122.6
118.536
114.636
110.898
107.319
103.895
100.62
97.49
94.5001
91.6453
88.9216
86.3253
83.8538
81.5051
79.2786
77.175
75.1954
73.3428
71.6265
69.9419
105.76
59.7136
47.8696
43.5943
42.0516
41.7632
42.1836
43.0745
44.306
45.8047
47.5295
49.4585
51.5811
53.8941
56.3976
59.093
61.983
65.0704
68.359
71.8526
75.556
79.4744
83.6144
87.9829
92.5881
97.4389
102.545
107.914
113.558
119.475
125.659
132.135
138.915
146.009
153.42
161.149
169.205
177.588
186.298
195.334
204.697
214.383
224.387
234.702
245.318
256.222
267.394
278.84
290.524
302.445
314.59
326.945
339.492
352.211
365.085
378.093
391.213
404.424
417.702
431.024
444.364
457.696
470.992
484.224
497.362
510.378
523.24
535.918
548.381
560.6
572.544
584.184
595.491
606.439
617.003
627.158
636.885
646.164
654.98
663.32
671.173
678.533
685.39
691.74
697.577
702.895
707.69
711.959
715.703
718.923
721.63
723.832
725.543
726.769
727.511
727.767
727.527
726.783
725.528
723.762
721.476
718.664
715.313
711.418
706.966
701.949
696.351
690.166
683.37
675.95
667.877
659.116
649.496
639.168
628.161
616.508
604.304
591.443
577.951
563.874
549.28
534.243
518.851
503.19
487.357
471.441
455.53
439.704
424.039
408.6
393.444
378.612
364.13
350.128
336.589
323.507
310.884
298.721
287.014
275.77
264.962
254.613
244.712
235.245
226.194
217.545
209.281
201.393
193.865
186.681
179.824
173.279
167.03
161.063
155.364
149.921
144.721
139.751
134.999
130.45
126.089
121.906
117.892
114.045
110.359
106.829
103.45
100.218
97.127
94.1734
91.353
88.6624
86.0989
83.6604
81.346
79.1554
77.0883
75.1462
73.3336
71.5542
105.787
59.8567
47.948
43.6264
42.0657
41.7856
42.2378
43.1784
44.4763
46.0498
47.853
49.8575
52.0431
54.4151
56.9711
59.7089
62.629
65.7328
69.0231
72.5034
76.1786
80.0544
84.138
88.4375
92.963
97.7266
102.739
108.007
113.528
119.283
125.311
131.628
138.263
145.222
152.511
160.136
168.105
176.421
185.09
194.113
203.492
213.227
223.315
233.755
244.54
255.659
267.096
278.838
290.85
303.132
315.687
328.505
341.565
354.847
368.333
382.001
395.828
409.79
423.864
438.022
452.238
466.482
480.725
494.934
509.078
523.122
537.033
550.777
564.319
577.624
590.658
603.387
615.779
627.8
639.422
650.615
661.354
671.616
681.379
690.629
699.351
707.533
715.166
722.239
728.742
734.665
739.998
744.729
748.855
752.372
755.279
757.583
759.287
760.393
760.894
760.792
760.055
758.656
756.596
753.864
750.449
746.342
741.535
736.023
729.805
722.879
715.245
706.938
697.946
688.137
677.595
666.386
654.897
642.905
630.416
617.509
604.011
590.05
575.678
560.944
545.9
530.605
515.121
499.517
483.86
468.217
452.655
437.233
422.008
407.031
392.342
377.972
363.914
350.302
337.125
324.384
312.081
300.214
288.78
277.788
267.223
257.109
247.421
238.138
229.243
220.722
212.553
204.736
197.26
190.11
183.271
176.728
170.466
164.473
158.737
153.246
147.99
142.954
138.129
133.497
129.051
124.786
120.693
116.766
113.001
109.393
105.935
102.624
99.4543
96.4223
93.5241
90.7567
88.1173
85.6039
83.2151
80.9501
78.8074
76.7872
74.8904
73.0321
104.826
59.4205
47.5433
43.2079
41.6431
41.3827
41.8808
42.886
44.2558
45.912
47.808
49.9127
52.1989
54.673
57.3257
60.1523
63.151
66.3214
69.6649
73.1839
76.8834
80.7702
84.8514
89.1342
93.6278
98.3425
103.289
108.475
113.906
119.59
125.54
131.77
138.312
145.176
152.377
159.925
167.83
176.101
184.744
193.764
203.167
212.952
223.122
233.674
244.603
255.902
267.56
279.56
291.882
304.52
317.471
330.72
344.251
358.048
372.097
386.373
400.853
415.51
430.319
445.252
460.279
475.37
490.492
505.61
520.69
535.694
550.585
565.326
579.878
594.203
608.263
622.019
635.434
648.472
661.099
673.279
684.983
696.181
706.85
716.969
726.52
735.488
743.86
751.623
758.761
765.26
771.098
776.263
780.737
784.512
787.58
789.935
791.576
792.496
792.675
792.147
790.796
788.622
785.614
781.75
777.017
771.4
764.898
757.5
749.229
740.085
730.053
718.989
707.119
694.721
681.943
668.773
654.978
640.773
626.251
611.483
596.491
581.333
566.053
550.692
535.282
519.86
504.458
489.115
473.865
458.749
443.802
429.06
414.556
400.321
386.382
372.761
359.475
346.563
334.039
321.911
310.181
298.847
287.906
277.361
267.183
257.416
248.038
239.034
230.391
222.093
214.122
206.495
199.186
192.177
185.454
179.004
172.812
166.863
161.155
155.677
150.42
145.368
140.514
135.851
131.37
127.067
122.934
118.966
115.156
111.5
107.993
104.63
101.407
98.3204
95.3667
92.543
89.8468
87.2761
84.8292
82.5048
80.3007
78.2162
76.2488
74.3277
102.258
58.0727
46.4582
42.2171
40.7167
40.5233
41.1071
42.2189
43.7194
45.528
47.5986
49.8866
52.354
55.0008
57.8232
60.8172
63.9793
67.3066
70.7981
74.4544
78.2778
82.2716
86.4419
90.7967
95.3455
100.099
105.067
110.262
115.698
121.388
127.349
133.6
140.162
147.049
154.276
161.856
169.803
178.126
186.837
195.941
205.446
215.356
225.672
236.394
247.52
259.045
270.962
283.262
295.932
308.96
322.332
336.035
350.052
364.365
378.953
393.798
408.879
424.173
439.649
455.28
471.034
486.88
502.782
518.704
534.61
550.459
566.213
581.829
597.268
612.487
627.445
642.102
656.416
670.347
683.855
696.902
709.453
721.473
732.932
743.806
754.073
763.715
772.716
781.058
788.722
795.685
801.919
807.398
812.101
816.007
819.1
821.362
822.779
823.337
823.062
821.885
819.703
816.516
812.298
807.023
800.669
793.217
784.674
775.013
764.116
752.045
738.952
725.243
710.813
695.846
680.139
663.964
647.442
630.731
613.969
597.265
580.696
564.322
548.183
532.302
516.686
501.338
486.254
471.434
456.875
442.58
428.551
414.794
401.317
388.128
375.236
362.65
350.378
338.435
326.831
315.569
304.654
294.083
283.854
273.969
264.418
255.207
246.332
237.783
229.551
221.622
213.975
206.628
199.565
192.771
186.236
179.949
173.895
168.063
162.459
157.062
151.867
146.867
142.053
137.421
132.961
128.668
124.54
120.57
116.754
113.085
109.561
106.177
102.929
99.8137
96.8287
93.9714
91.2395
88.6309
86.1439
83.7769
81.5269
79.3932
77.37
75.4024
98.7539
56.1719
45.0369
41.0238
39.6809
39.6338
40.3835
41.6853
43.4102
45.4588
47.7726
50.3035
53.0471
55.9941
59.1321
62.4505
65.9416
69.5989
73.4186
77.3982
81.5374
85.8383
90.3055
94.9462
99.7694
104.786
110.008
115.449
121.126
127.056
133.257
139.747
146.544
153.667
161.132
168.955
177.151
185.732
194.708
204.089
213.883
224.093
234.722
245.771
257.238
269.117
281.402
294.083
307.149
320.586
334.381
348.519
362.982
377.755
392.818
408.147
423.715
439.499
455.474
471.614
487.889
504.267
520.714
537.193
553.663
570.085
586.418
602.619
618.647
634.458
650.012
665.264
680.172
694.693
708.786
722.407
735.515
748.073
760.044
771.399
782.112
792.163
801.531
810.196
818.134
825.31
831.69
837.237
841.916
845.702
848.561
850.463
851.376
851.327
850.332
848.176
844.847
840.317
834.545
827.499
819.156
809.473
798.277
785.692
771.951
757.186
741.472
724.6
706.846
688.405
669.425
650.126
630.72
611.421
592.414
573.847
555.825
538.411
521.635
505.492
489.955
474.984
460.532
446.552
433.001
419.84
407.037
394.565
382.405
370.542
358.967
347.674
336.66
325.926
315.475
305.306
295.421
285.819
276.499
267.46
258.698
250.213
242.004
234.065
226.389
218.969
211.794
204.864
198.174
191.711
185.47
179.444
173.617
167.979
162.541
157.293
152.229
147.344
142.631
138.086
133.698
129.472
125.401
121.478
117.699
114.061
110.558
107.189
103.949
100.836
97.8486
94.9845
92.2418
89.6185
87.1128
84.7231
82.446
80.281
78.2195
76.2232
95.1237
54.2202
43.6549
39.968
38.8846
39.1106
40.1554
41.7631
43.7846
46.1559
48.8414
51.8116
55.0387
58.5041
62.1903
66.0821
70.1672
74.4347
78.876
83.4848
88.2578
93.1941
98.2959
103.568
109.018
114.654
120.489
126.536
132.812
139.332
146.115
153.179
160.543
168.225
176.244
184.614
193.349
202.462
211.962
221.858
232.156
242.861
253.973
265.491
277.415
289.736
302.444
315.53
328.98
342.78
356.917
371.374
386.136
401.183
416.495
432.056
447.843
463.832
480.001
496.324
512.774
529.322
545.934
562.573
579.201
595.778
612.263
628.615
644.792
660.754
676.457
691.861
706.923
721.601
735.85
749.625
762.884
775.581
787.675
799.132
809.92
820.016
829.397
838.04
845.912
852.975
859.177
864.471
868.815
872.17
874.482
875.71
875.837
874.98
872.854
869.415
864.625
858.435
850.799
841.623
830.811
818.396
804.631
789.429
772.941
754.986
735.792
715.489
694.296
672.46
650.238
627.916
605.784
584.113
563.132
543.017
523.882
505.783
488.725