/*--------------------------------*- C++ -*----------------------------------*\
  =========                 |
  \\      /  F ield         | OpenFOAM: The Open Source CFD Toolbox
   \\    /   O peration     | Website:  https://openfoam.org
    \\  /    A nd           | Version:  8
     \\/     M anipulation  |
\*---------------------------------------------------------------------------*/
FoamFile
{
    version     2.0;
    format      ascii;
    class       volScalarField;
    location    "85";
    object      k;
}
// * * * * * * * * * * * * * * * * * * * * * * * * * * * * * * * * * * * * * //

dimensions      [0 2 -2 0 0 0 0];

internalField   nonuniform List<scalar> 
12225
(
0.362819
0.344014
0.327726
0.309846
0.295371
0.283535
0.27547
0.270343
0.270401
0.272001
0.276206
0.281021
0.290247
0.296386
0.307449
0.314604
0.327373
0.332541
0.440275
0.468744
0.461617
0.448407
0.450401
0.458415
0.474588
0.499017
0.524688
0.552979
0.581549
0.607626
0.6355
0.656278
0.682998
0.696779
0.726737
0.731415
0.390409
0.417855
0.42024
0.41683
0.411638
0.407824
0.408039
0.410098
0.414644
0.421589
0.431038
0.440082
0.4519
0.461926
0.474271
0.48527
0.4965
0.510961
0.377044
0.387166
0.391465
0.391342
0.390261
0.387885
0.38567
0.384088
0.382908
0.382934
0.383426
0.384486
0.386487
0.388673
0.391344
0.39485
0.397565
0.402755
0.374434
0.376093
0.378427
0.378664
0.378274
0.377196
0.37549
0.373731
0.372014
0.370451
0.369272
0.368118
0.367427
0.366872
0.366544
0.366526
0.366771
0.36726
0.37378
0.372704
0.372659
0.372364
0.371771
0.370811
0.369551
0.368071
0.366565
0.364962
0.363519
0.362049
0.360744
0.359529
0.358399
0.357463
0.356513
0.355941
0.373775
0.371739
0.370388
0.369281
0.368234
0.367107
0.365909
0.364575
0.363226
0.36179
0.360402
0.358999
0.357647
0.356353
0.355085
0.353938
0.352772
0.351808
0.373819
0.371559
0.369635
0.367974
0.366499
0.365102
0.363769
0.362418
0.361093
0.359747
0.358426
0.357115
0.355826
0.354581
0.353352
0.352197
0.351044
0.350004
0.373832
0.371553
0.369449
0.367524
0.365774
0.364148
0.362638
0.361188
0.359803
0.358454
0.357145
0.355872
0.354629
0.35343
0.352255
0.351137
0.350034
0.349009
0.373831
0.37156
0.369418
0.367404
0.365527
0.363768
0.362126
0.360575
0.359108
0.35771
0.356371
0.355089
0.353853
0.352667
0.35152
0.350425
0.349359
0.348356
0.373829
0.371561
0.369413
0.367378
0.365457
0.363642
0.361932
0.360315
0.358787
0.357337
0.355958
0.354646
0.353393
0.352197
0.35105
0.349959
0.348905
0.347911
0.373828
0.371559
0.369409
0.36737
0.365438
0.363606
0.361871
0.360227
0.358667
0.357188
0.355782
0.354446
0.353173
0.351962
0.350805
0.349705
0.348649
0.347651
0.373827
0.371557
0.369405
0.367365
0.365429
0.363592
0.361847
0.360191
0.358618
0.357123
0.355701
0.354349
0.353062
0.351838
0.35067
0.34956
0.348498
0.347491
0.373827
0.371555
0.369402
0.36736
0.365422
0.363582
0.361835
0.360174
0.358595
0.357093
0.355664
0.354304
0.353008
0.351775
0.3506
0.349481
0.348413
0.347397
0.373826
0.371553
0.369399
0.367355
0.365416
0.363574
0.361825
0.360162
0.358581
0.357076
0.355645
0.354281
0.352983
0.351746
0.350567
0.349443
0.348372
0.34735
0.373826
0.371552
0.369396
0.367351
0.36541
0.363568
0.361817
0.360153
0.35857
0.357065
0.355631
0.354267
0.352967
0.351729
0.350548
0.349423
0.348349
0.347326
0.373825
0.371551
0.369394
0.367348
0.365406
0.363562
0.361811
0.360145
0.358562
0.357055
0.355621
0.354256
0.352956
0.351716
0.350535
0.349409
0.348335
0.347311
0.373825
0.371551
0.369393
0.367346
0.365404
0.363559
0.361806
0.36014
0.358556
0.357049
0.355615
0.354248
0.352948
0.351708
0.350527
0.3494
0.348327
0.347301
0.373825
0.37155
0.369393
0.367346
0.365403
0.363557
0.361805
0.360138
0.358554
0.357047
0.355613
0.354246
0.352946
0.351706
0.350525
0.349398
0.348325
0.3473
0.373825
0.37155
0.369394
0.367346
0.365405
0.363559
0.361808
0.360141
0.358558
0.35705
0.355618
0.354251
0.352952
0.351712
0.350533
0.349406
0.348335
0.34731
0.373825
0.371551
0.369394
0.367349
0.365407
0.363564
0.361812
0.360149
0.358565
0.357061
0.355628
0.354265
0.352966
0.351731
0.350551
0.349429
0.348358
0.347338
0.373826
0.371552
0.369397
0.367352
0.365413
0.363572
0.361824
0.360164
0.358588
0.357089
0.355665
0.354309
0.35302
0.351791
0.350622
0.349507
0.348445
0.347431
0.373826
0.371554
0.369399
0.36736
0.365429
0.363604
0.361878
0.360244
0.358696
0.357227
0.355833
0.354505
0.353242
0.352036
0.350888
0.349788
0.348741
0.347734
0.373828
0.371551
0.369412
0.367418
0.365557
0.363821
0.362192
0.360655
0.359195
0.357802
0.356466
0.355184
0.353951
0.352764
0.351622
0.350521
0.349465
0.348444
0.373823
0.371554
0.369604
0.367894
0.36634
0.364894
0.363498
0.362127
0.360767
0.359422
0.358091
0.356782
0.355503
0.354255
0.353048
0.351878
0.350759
0.349674
0.37378
0.37199
0.371112
0.370266
0.369361
0.368314
0.367051
0.365634
0.364126
0.362582
0.361038
0.359531
0.358083
0.356692
0.355392
0.354152
0.35302
0.351934
0.374298
0.375565
0.377779
0.377858
0.377291
0.375887
0.373834
0.371643
0.369504
0.367481
0.36566
0.364076
0.362699
0.361518
0.360587
0.359786
0.359248
0.358745
0.378732
0.394395
0.398298
0.39657
0.392563
0.387612
0.383637
0.380451
0.378247
0.376828
0.376447
0.37669
0.377317
0.378583
0.380289
0.382231
0.384585
0.386848
0.408343
0.427534
0.422418
0.411037
0.402216
0.397884
0.398503
0.401038
0.405856
0.412853
0.420738
0.42949
0.4384
0.447655
0.456647
0.465773
0.474387
0.483108
0.366033
0.353411
0.341987
0.330209
0.318981
0.308382
0.299404
0.291669
0.285392
0.280311
0.27665
0.273811
0.27224
0.271067
0.271057
0.271327
0.271926
0.273112
0.0200949
0.0491445
0.0702836
0.0885326
0.10438
0.117978
0.129277
0.137737
0.142423
0.141197
0.144417
0.150254
0.151609
0.138638
0.135693
0.142922
0.158578
0.173754
0.186212
0.2022
0.200177
0.150872
0.159462
0.174141
0.190411
0.208099
0.227432
0.248261
0.270468
0.293811
0.31818
0.34324
0.368844
0.394695
0.420672
0.446549
0.47221
0.497519
0.522402
0.546792
0.570649
0.593954
0.616687
0.638864
0.660477
0.681568
0.702134
0.722237
0.741867
0.761107
0.779931
0.798438
0.816591
0.834497
0.852115
0.869558
0.886769
0.903876
0.920812
0.937718
0.954504
0.97133
0.988089
1.00496
1.0218
1.0388
1.05581
1.07304
1.09029
1.10779
1.12534
1.14315
1.16102
1.17913
1.19728
1.21565
1.23403
1.25258
1.27109
1.28971
1.30821
1.32674
1.34505
1.36327
1.3811
1.39872
1.41581
1.43256
1.44872
1.46436
1.47943
1.49377
1.50749
1.52059
1.53314
1.54455
1.55493
1.56422
1.5723
1.57858
1.58002
1.58727
1.60271
1.60315
1.60322
1.60884
1.60543
1.60225
1.59634
1.58881
1.57883
1.56696
1.55297
1.53692
1.51875
1.49853
1.47636
1.45246
1.4268
1.39951
1.37074
1.3407
1.30964
1.27765
1.244
1.20953
1.17481
1.13992
1.10513
1.0705
1.03629
1.0029
0.970034
0.939559
0.915924
0.894502
0.873762
0.853454
0.833648
0.814337
0.795553
0.777311
0.759699
0.742699
0.726039
0.709799
0.693828
0.67848
0.66381
0.649854
0.636463
0.623575
0.611212
0.599397
0.588124
0.577408
0.567203
0.557462
0.548169
0.539307
0.530875
0.522849
0.515207
0.507924
0.500992
0.494389
0.488103
0.482107
0.476389
0.470917
0.465684
0.460618
0.455777
0.450904
0.446385
0.441187
0.436841
0.430182
0.425523
0.402012
0.0394534
0.0824428
0.114332
0.137587
0.156045
0.171307
0.184191
0.19519
0.205018
0.215052
0.223182
0.229532
0.235985
0.242184
0.252637
0.271958
0.293128
0.315368
0.33786
0.359402
0.377684
0.393558
0.417695
0.446496
0.478016
0.511451
0.546622
0.583417
0.621791
0.661626
0.70278
0.745021
0.788096
0.831748
0.875781
0.91997
0.964127
1.00806
1.05164
1.09472
1.13721
1.17904
1.22015
1.26052
1.30009
1.33883
1.37674
1.41382
1.4501
1.48559
1.52032
1.55432
1.58762
1.62025
1.65224
1.68364
1.71447
1.74478
1.77459
1.80396
1.83291
1.86151
1.88977
1.91777
1.94552
1.9731
2.00052
2.02785
2.0551
2.08236
2.10962
2.13697
2.16439
2.19197
2.21968
2.24759
2.27568
2.30402
2.33257
2.3614
2.39047
2.41981
2.44938
2.47919
2.50915
2.53927
2.56945
2.5997
2.6299
2.66008
2.69006
2.71967
2.74869
2.77692
2.80435
2.83133
2.85771
2.8834
2.90826
2.93218
2.95472
2.97686
2.99748
3.0149
3.03032
3.04314
3.04975
3.06156
3.06324
3.06613
3.06274
3.05563
3.04443
3.02901
3.00926
2.98503
2.95612
2.92282
2.88533
2.84384
2.79861
2.75
2.69836
2.64409
2.58754
2.52921
2.46956
2.40899
2.34786
2.28652
2.22523
2.16437
2.10443
2.0454
1.98773
1.93124
1.87594
1.822
1.76958
1.71878
1.66964
1.6222
1.57643
1.53218
1.48879
1.44694
1.40673
1.3683
1.33163
1.29668
1.26317
1.23096
1.20013
1.17071
1.14267
1.116
1.09058
1.0663
1.04313
1.02104
0.999999
0.979945
0.960813
0.942558
0.925145
0.908527
0.892657
0.87749
0.862981
0.849081
0.835746
0.822917
0.810566
0.798566
0.787045
0.775464
0.764895
0.752152
0.742916
0.710313
0.0745815
0.129374
0.166667
0.193642
0.215264
0.233634
0.249914
0.264927
0.279393
0.293866
0.308143
0.322546
0.338231
0.356206
0.377764
0.403545
0.432129
0.462716
0.494474
0.52665
0.558959
0.592437
0.628892
0.66828
0.71003
0.753739
0.799222
0.846423
0.895344
0.945884
0.997883
1.05108
1.1052
1.16001
1.21527
1.27074
1.32621
1.38148
1.4364
1.49082
1.54464
1.59777
1.65014
1.70171
1.75243
1.80229
1.85127
1.89938
1.94662
1.99301
2.03856
2.08329
2.12723
2.1704
2.21281
2.25449
2.29548
2.33578
2.37542
2.41443
2.45283
2.49064
2.52788
2.56459
2.60078
2.63649
2.67172
2.7065
2.74087
2.77484
2.80843
2.84167
2.87458
2.90719
2.9395
2.97155
3.00333
3.0349
3.06626
3.09743
3.12844
3.15932
3.19006
3.2207
3.25124
3.2817
3.3121
3.34245
3.37281
3.40319
3.4336
3.46402
3.49435
3.52456
3.5545
3.5842
3.61352
3.64237
3.6706
3.69802
3.72429
3.74938
3.77273
3.79389
3.81288
3.829
3.84053
3.85047
3.85426
3.85561
3.85192
3.84331
3.82951
3.8103
3.78553
3.75512
3.71905
3.67746
3.63057
3.57865
3.52203
3.46113
3.3964
3.32835
3.2575
3.18442
3.1096
3.03356
2.9567
2.87946
2.80216
2.7253
2.64953
2.57524
2.5026
2.43153
2.36205
2.29431
2.22843
2.16454
2.10272
2.04299
1.98538
1.9298
1.87608
1.82432
1.77457
1.72685
1.68118
1.63748
1.59543
1.55483
1.51592
1.47872
1.4432
1.40935
1.37697
1.34597
1.31634
1.28805
1.26106
1.23529
1.21065
1.18711
1.16462
1.14313
1.12256
1.10289
1.08404
1.06596
1.04861
1.03192
1.01586
1.00033
0.985395
0.970775
0.957122
0.94261
0.932603
0.905467
0.114552
0.180118
0.222678
0.253769
0.278955
0.300641
0.320187
0.33854
0.356463
0.374595
0.393444
0.413588
0.4357
0.460366
0.488036
0.518832
0.552413
0.588245
0.625769
0.664604
0.704747
0.746593
0.790612
0.83693
0.885487
0.9362
0.989012
1.04386
1.10064
1.15917
1.21922
1.28055
1.34292
1.40607
1.46977
1.53378
1.59787
1.66187
1.72561
1.78895
1.85176
1.91396
1.97546
2.03621
2.09615
2.15525
2.21348
2.27083
2.32728
2.38285
2.43752
2.49129
2.54419
2.5962
2.64734
2.69763
2.74706
2.79564
2.84338
2.8903
2.93639
2.98166
3.02612
3.06978
3.11264
3.15471
3.196
3.23651
3.27626
3.31525
3.35349
3.39101
3.42781
3.4639
3.49932
3.53406
3.56817
3.60166
3.63456
3.66693
3.69878
3.73017
3.76114
3.79172
3.82198
3.85195
3.8817
3.91129
3.94077
3.97022
3.99966
4.0291
4.05852
4.08787
4.1171
4.14615
4.17494
4.20335
4.23123
4.25836
4.28448
4.30936
4.33261
4.35388
4.37285
4.38906
4.40152
4.40961
4.41338
4.41346
4.40852
4.39817
4.38208
4.35997
4.33163
4.29697
4.25598
4.20874
4.15549
4.0965
4.03216
3.96291
3.88927
3.81181
3.73111
3.64779
3.56241
3.4755
3.38756
3.29915
3.21082
3.12313
3.03664
2.95174
2.8686
2.7873
2.7079
2.63054
2.55533
2.48239
2.41179
2.34359
2.27779
2.21435
2.1532
2.09435
2.03779
1.98349
1.93142
1.88155
1.83371
1.78777
1.74371
1.70153
1.66118
1.62262
1.5856
1.55004
1.51599
1.48345
1.45236
1.42258
1.39407
1.36679
1.34069
1.31571
1.29177
1.26884
1.24685
1.22573
1.20545
1.18595
1.16718
1.14909
1.13171
1.11492
1.09911
1.08335
1.07199
1.04877
0.155576
0.231451
0.27975
0.315482
0.344598
0.369768
0.392523
0.413946
0.434912
0.456182
0.478439
0.502304
0.528326
0.55692
0.588328
0.622573
0.659471
0.698708
0.739973
0.783079
0.828029
0.874982
0.924148
0.975665
1.02959
1.0859
1.14455
1.20543
1.26837
1.3332
1.39966
1.46754
1.53658
1.60654
1.67718
1.74827
1.81962
1.89105
1.96238
2.03347
2.10419
2.17443
2.24411
2.31313
2.38143
2.44895
2.51565
2.58148
2.64643
2.71046
2.77356
2.83571
2.8969
2.95712
3.01635
3.0746
3.13185
3.18809
3.24332
3.29753
3.3507
3.40283
3.45391
3.50393
3.55287
3.60074
3.64752
3.6932
3.73779
3.78128
3.82367
3.86496
3.90516
3.94429
3.98235
4.01937
4.05537
4.09037
4.12443
4.15757
4.18985
4.22133
4.25207
4.28212
4.31155
4.34044
4.36887
4.39689
4.42462
4.4521
4.47943
4.50663
4.53372
4.5607
4.58756
4.61425
4.64072
4.66686
4.69255
4.71758
4.74173
4.76476
4.78631
4.80604
4.82355
4.83844
4.84989
4.85621
4.85933
4.85811
4.85175
4.8398
4.82182
4.79748
4.76653
4.7288
4.68425
4.63295
4.57509
4.51095
4.44092
4.36548
4.28517
4.20059
4.11238
4.02115
3.92755
3.83217
3.7357
3.63875
3.54196
3.44589
3.35106
3.25785
3.16652
3.07718
2.98997
2.905
2.82242
2.74232
2.66478
2.58985
2.51755
2.44785
2.38072
2.31614
2.25407
2.19447
2.13729
2.08248
2.02992
1.97949
1.93115
1.88482
1.84046
1.79801
1.75732
1.7183
1.68092
1.64512
1.61086
1.57795
1.54635
1.51608
1.48708
1.45927
1.43257
1.40696
1.38237
1.35873
1.33601
1.31416
1.29313
1.27291
1.25349
1.23487
1.2173
1.20039
1.18714
1.16629
0.195783
0.280736
0.335719
0.376611
0.409945
0.438714
0.464632
0.488916
0.512543
0.536352
0.561084
0.587376
0.615752
0.646584
0.680087
0.716307
0.755169
0.796519
0.840214
0.886172
0.934413
0.985023
1.03812
1.09378
1.15203
1.21286
1.27618
1.34185
1.40971
1.47955
1.55116
1.62432
1.69879
1.77435
1.85078
1.92788
2.00546
2.08332
2.16132
2.23928
2.31709
2.3946
2.4717
2.5483
2.62431
2.69964
2.77424
2.84803
2.92097
2.99301
3.06411
3.13423
3.20335
3.27144
3.33846
3.40439
3.46921
3.53288
3.59539
3.6567
3.7168
3.77565
3.83323
3.88951
3.94447
3.99807
4.0503
4.10113
4.15055
4.19854
4.24508
4.29017
4.33382
4.37601
4.41675
4.45607
4.49398
4.53051
4.5657
4.59958
4.63223
4.66369
4.69403
4.72332
4.75164
4.77908
4.80572
4.83165
4.85695
4.88176
4.90614
4.93018
4.95393
4.97744
5.00073
5.02379
5.04661
5.06912
5.09121
5.11275
5.13353
5.15333
5.17186
5.18876
5.20366
5.2161
5.22523
5.22993
5.23133
5.22839
5.22039
5.2068
5.18711
5.16093
5.12793
5.08789
5.04071
4.98642
4.92515
4.85719
4.78291
4.70278
4.61736
4.52725
4.43313
4.33567
4.2356
4.13364
4.03052
3.92692
3.82347
3.72075
3.61928
3.51943
3.4215
3.32568
3.23212
3.14098
3.05237
2.9664
2.88316
2.8027
2.72502
2.65015
2.57803
2.50865
2.44196
2.37791
2.31643
2.25746
2.2009
2.14664
2.09462
2.04475
1.99696
1.95116
1.90727
1.86518
1.82483
1.78616
1.7491
1.71354
1.67942
1.64668
1.61528
1.58507
1.55603
1.52812
1.50129
1.47546
1.45062
1.42671
1.4037
1.38159
1.36039
1.34013
1.32101
1.30295
1.28787
1.26803
0.233607
0.327095
0.388697
0.434805
0.472401
0.504759
0.533756
0.560711
0.58668
0.612554
0.639112
0.667016
0.696809
0.728893
0.763531
0.800852
0.840888
0.88361
0.928982
0.976987
1.02765
1.081
1.13711
1.19598
1.2576
1.32192
1.38883
1.45819
1.52983
1.60356
1.6792
1.75653
1.83535
1.91546
1.99667
2.07878
2.1616
2.24497
2.32872
2.41269
2.49672
2.58069
2.66447
2.74793
2.83096
2.91348
2.99538
3.07659
3.15703
3.23664
3.31535
3.39311
3.46987
3.54557
3.62016
3.69362
3.76588
3.8369
3.90665
3.97507
4.04212
4.10776
4.17193
4.2346
4.29572
4.35524
4.41313
4.46934
4.52384
4.57659
4.62757
4.67675
4.72412
4.76967
4.81338
4.85528
4.89536
4.93366
4.97019
5.00501
5.03817
5.06971
5.09971
5.12825
5.15539
5.18124
5.20588
5.2294
5.25195
5.2736
5.29451
5.31476
5.33446
5.3537
5.37252
5.39099
5.40909
5.42684
5.44416
5.46096
5.47712
5.49242
5.50665
5.51947
5.53059
5.53952
5.54518
5.54741
5.54625
5.54097
5.53088
5.51535
5.49386
5.46591
5.43113
5.38921
5.34
5.28345
5.21967
5.14889
5.07145
4.98781
4.89851
4.80419
4.70556
4.6034
4.49849
4.3916
4.28347
4.1748
4.06623
3.95836
3.85168
3.74661
3.64347
3.54248
3.44385
3.34772
3.25423
3.16349
3.07559
2.99058
2.90849
2.82932
2.75306
2.67965
2.60907
2.54125
2.47612
2.4136
2.35362
2.29608
2.24088
2.18793
2.13716
2.08847
2.04178
1.99698
1.95401
1.91278
1.87322
1.83526
1.79882
1.76384
1.73025
1.69795
1.66688
1.637
1.6082
1.58045
1.55373
1.52799
1.50322
1.47941
1.4566
1.43485
1.41431
1.39505
1.37831
1.35794
0.267971
0.368889
0.436591
0.487646
0.529348
0.565185
0.597157
0.626661
0.654804
0.682516
0.710607
0.739771
0.770589
0.803519
0.838896
0.87694
0.917779
0.961476
1.00806
1.05755
1.10997
1.16531
1.22359
1.28477
1.3488
1.41561
1.48507
1.55705
1.6314
1.70795
1.78654
1.86697
1.94908
2.03269
2.11763
2.20371
2.29077
2.37864
2.46716
2.55617
2.64551
2.73505
2.82463
2.91413
3.00343
3.0924
3.18095
3.26896
3.35635
3.44302
3.5289
3.6139
3.69796
3.78101
3.86297
3.94378
4.02338
4.10171
4.17869
4.25427
4.32837
4.40094
4.47189
4.54118
4.60873
4.67448
4.73835
4.80031
4.86027
4.9182
4.97405
5.02776
5.07932
5.12868
5.17583
5.22075
5.26346
5.30394
5.34224
5.37837
5.41238
5.44432
5.47425
5.50224
5.52836
5.55271
5.57539
5.59649
5.61614
5.63448
5.65164
5.66776
5.68297
5.69738
5.7111
5.72421
5.73676
5.74879
5.7603
5.77126
5.78159
5.79116
5.79981
5.80725
5.81328
5.81712
5.81843
5.81689
5.81221
5.80372
5.79075
5.77269
5.74895
5.719
5.68237
5.63869
5.58774
5.52941
5.46373
5.39087
5.31114
5.22498
5.13293
5.03567
4.93396
4.82861
4.72041
4.61014
4.49854
4.38631
4.2741
4.16251
4.05203
3.9431
3.83606
3.73119
3.6287
3.52875
3.43149
3.33704
3.24548
3.15688
3.07126
2.98865
2.90902
2.83234
2.75856
2.68762
2.61946
2.55399
2.49113
2.4308
2.37288
2.3173
2.26397
2.21278
2.16366
2.1165
2.07122
2.02774
1.98598
1.94587
1.90734
1.87032
1.83474
1.80051
1.76757
1.73586
1.7053
1.67586
1.64748
1.6201
1.59375
1.56842
1.54415
1.52101
1.49914
1.47867
1.46041
1.43936
0.297756
0.404712
0.477673
0.533136
0.578603
0.617711
0.652543
0.684541
0.71484
0.744392
0.774026
0.804459
0.83631
0.870084
0.906181
0.94489
0.986414
1.03088
1.07836
1.12888
1.18247
1.2391
1.29876
1.36137
1.42689
1.4952
1.56621
1.63979
1.71581
1.79412
1.87458
1.95705
2.04137
2.1274
2.21497
2.30395
2.39416
2.48547
2.5777
2.67071
2.76434
2.85845
2.95289
3.04751
3.1422
3.23681
3.33123
3.42533
3.51901
3.61215
3.70467
3.79645
3.88742
3.97747
4.06653
4.1545
4.24129
4.32683
4.41103
4.4938
4.57505
4.65469
4.73263
4.80878
4.88306
4.95537
5.02562
5.09373
5.15962
5.2232
5.28442
5.34319
5.39947
5.4532
5.50434
5.55285
5.59873
5.64196
5.68255
5.72051
5.75588
5.78868
5.81897
5.84682
5.87229
5.89546
5.91643
5.93531
5.95223
5.96731
5.98072
5.9926
6.00313
6.01245
6.02066
6.02789
6.03425
6.03981
6.04464
6.04876
6.05216
6.05481
6.05662
6.05725
6.05654
6.05419
6.04981
6.04308
6.03353
6.02059
6.00364
5.9821
5.95534
5.92279
5.8839
5.83825
5.78554
5.72559
5.65836
5.58397
5.5027
5.41496
5.32132
5.22242
5.11902
5.01193
4.90197
4.78985
4.67632
4.56205
4.4477
4.33384
4.22099
4.10958
4.00002
3.89257
3.78747
3.6849
3.58501
3.48792
3.39373
3.30251
3.2143
3.12911
3.04694
2.96774
2.89148
2.81811
2.74754
2.67971
2.61454
2.55193
2.49178
2.43402
2.37854
2.32526
2.27407
2.2249
2.17765
2.13223
2.08856
2.04657
2.0062
1.96737
1.93
1.89403
1.85938
1.826
1.79382
1.7628
1.73289
1.70407
1.67631
1.64961
1.62402
1.5996
1.57648
1.55482
1.53512
1.5133
0.322151
0.43362
0.510777
0.569916
0.618667
0.660755
0.698303
0.732768
0.765291
0.796821
0.828186
0.86011
0.893225
0.928063
0.965057
1.00454
1.04676
1.09189
1.14001
1.19119
1.24543
1.30271
1.36301
1.42625
1.49237
1.56128
1.63287
1.70706
1.78373
1.86277
1.94407
2.0275
2.11295
2.20029
2.2894
2.38014
2.4724
2.56601
2.66084
2.75675
2.85358
2.9512
3.04946
3.14821
3.24733
3.34667
3.44609
3.54548
3.6447
3.74364
3.84217
3.94018
4.03755
4.13419
4.22998
4.32482
4.41859
4.5112
4.60252
4.69246
4.78089
4.86771
4.95279
5.03603
5.1173
5.19649
5.27348
5.34816
5.42041
5.49014
5.55724
5.62162
5.68319
5.74187
5.79761
5.85033
5.9
5.9466
5.9901
6.0305
6.06781
6.10206
6.13329
6.16153
6.18686
6.20934
6.22905
6.24611
6.26063
6.27275
6.28262
6.29041
6.29631
6.30049
6.30305
6.30408
6.30385
6.30241
6.29986
6.2963
6.2918
6.28638
6.28001
6.27255
6.2639
6.25386
6.24217
6.22852
6.21251
6.19361
6.17127
6.14493
6.11403
6.07795
6.03603
5.98785
5.93305
5.87139
5.80279
5.72732
5.64522
5.55686
5.46273
5.36344
5.25967
5.15227
5.04204
4.92963
4.81572
4.70097
4.58602
4.47141
4.35767
4.24524
4.13455
4.0259
3.91952
3.81559
3.71427
3.61569
3.51996
3.42715
3.33733
3.25049
3.16664
3.08575
3.00778
2.93268
2.86039
2.79084
2.72394
2.65961
2.59776
2.53829
2.48113
2.42617
2.37332
2.3225
2.27362
2.22659
2.18132
2.13775
2.0958
2.0554
2.01649
1.97898
1.94282
1.90795
1.8743
1.84185
1.81056
1.7804
1.75136
1.72344
1.69665
1.67106
1.64678
1.62397
1.60293
1.5803
0.340654
0.455113
0.535328
0.59732
0.648793
0.693499
0.733568
0.770448
0.80526
0.838928
0.872258
0.905951
0.940627
0.976811
1.01494
1.05537
1.09835
1.14408
1.19266
1.24417
1.29862
1.356
1.41629
1.47943
1.54536
1.61401
1.68532
1.75919
1.83556
1.91435
1.99547
2.07883
2.16434
2.25192
2.34146
2.43286
2.52601
2.6208
2.7171
2.81477
2.91368
3.01371
3.1147
3.21653
3.31906
3.42215
3.52565
3.62944
3.73338
3.83733
3.94117
4.04475
4.14795
4.25065
4.35272
4.45404
4.55448
4.6539
4.75218
4.84917
4.94474
5.03875
5.13106
5.22152
5.30998
5.39631
5.48034
5.56195
5.64097
5.71729
5.79076
5.86126
5.92867
5.99289
6.05381
6.11135
6.16545
6.21605
6.2631
6.30658
6.3465
6.38284
6.41563
6.4449
6.4707
6.49307
6.51209
6.52786
6.54048
6.55007
6.55681
6.5608
6.56232
6.56156
6.5585
6.55334
6.54628
6.53745
6.52702
6.51513
6.50191
6.48743
6.47178
6.45494
6.43692
6.41762
6.39691
6.37456
6.35033
6.32373
6.29429
6.2615
6.22474
6.18344
6.13702
6.08519
6.02758
5.96391
5.89403
5.81795
5.73581
5.64788
5.55455
5.45633
5.35377
5.24772
5.13876
5.02761
4.91491
4.80128
4.68731
4.57355
4.46047
4.3485
4.23819
4.12978
4.02351
3.91957
3.8181
3.71924
3.62311
3.52982
3.43942
3.35193
3.26734
3.18563
3.10677
3.03073
2.95745
2.88685
2.81888
2.75343
2.69043
2.62979
2.57143
2.51526
2.46119
2.40913
2.359
2.31071
2.26418
2.21933
2.1761
2.13442
2.09421
2.05541
2.01795
1.98179
1.94688
1.91317
1.88064
1.84928
1.81908
1.79005
1.7622
1.73554
1.71019
1.68629
1.66404
1.64061
0.353088
0.469128
0.55131
0.615335
0.668926
0.715827
0.758152
0.79732
0.834411
0.870307
0.905765
0.941445
0.977923
1.01569
1.05517
1.09668
1.14049
1.18678
1.23569
1.28727
1.34158
1.3986
1.45834
1.52076
1.58582
1.65349
1.72372
1.79646
1.87167
1.94932
2.02934
2.11167
2.19626
2.28304
2.37195
2.46293
2.55589
2.65073
2.74737
2.84569
2.94557
3.04689
3.14953
3.25337
3.35826
3.46408
3.5707
3.67796
3.78573
3.89386
4.00221
4.11063
4.21899
4.32713
4.43492
4.54224
4.64892
4.75482
4.85976
4.96359
5.06614
5.16726
5.26676
5.36448
5.46024
5.55385
5.64514
5.73393
5.82004
5.90331
5.98355
6.06062
6.13435
6.20461
6.27126
6.3342
6.39331
6.44851
6.49974
6.54694
6.59009
6.62917
6.66417
6.6951
6.722
6.74489
6.76383
6.77888
6.79016
6.79777
6.80183
6.80263
6.80018
6.79465
6.78615
6.77486
6.76093
6.74456
6.72592
6.70521
6.68259
6.65823
6.63228
6.60486
6.57606
6.54594
6.5145
6.48158
6.44687
6.40971
6.37032
6.32843
6.28366
6.23553
6.18408
6.12832
6.06776
6.00206
5.93103
5.85457
5.77274
5.68572
5.59379
5.49734
5.39686
5.29358
5.18771
5.07972
4.97018
4.85965
4.74864
4.63767
4.52717
4.4175
4.30915
4.20252
4.09783
3.99527
3.895
3.79715
3.70183
3.60922
3.51936
3.43226
3.34792
3.26633
3.18747
3.11131
3.03782
2.96693
2.89857
2.83266
2.76913
2.7079
2.64888
2.592
2.53718
2.48433
2.43337
2.38421
2.33678
2.29101
2.24682
2.20415
2.16293
2.1231
2.0846
2.04739
2.01142
1.97665
1.94308
1.91068
1.87947
1.84945
1.82064
1.79303
1.76671
1.74183
1.71848
1.69433
0.359726
0.476132
0.55927
0.624494
0.679569
0.728192
0.772432
0.813662
0.852906
0.890984
0.928598
0.966346
1.00474
1.04423
1.08516
1.12785
1.17252
1.21935
1.26846
1.31994
1.37383
1.43016
1.48893
1.55015
1.61381
1.6799
1.74842
1.81934
1.89267
1.9684
2.04652
2.12704
2.20982
2.29486
2.38218
2.47173
2.56347
2.65734
2.75327
2.85117
2.95095
3.05251
3.15575
3.26054
3.36677
3.47432
3.58305
3.69282
3.8035
3.91493
4.02696
4.13944
4.2522
4.36504
4.47791
4.59064
4.70305
4.81496
4.92617
5.0365
5.14575
5.25374
5.36029
5.46518
5.56819
5.66912
5.76774
5.86385
5.95724
6.04769
6.13499
6.21895
6.29937
6.37608
6.44891
6.51771
6.58233
6.64266
6.69861
6.75008
6.79704
6.83942
6.87722
6.91041
6.93899
6.96298
6.9824
6.99731
7.00778
7.01393
7.01592
7.01391
7.00791
6.99802
6.98436
6.96709
6.94637
6.92239
6.89534
6.86544
6.83291
6.79797
6.76081
6.72173
6.68086
6.63828
6.59348
6.54712
6.49927
6.45114
6.4017
6.35067
6.29782
6.24298
6.18505
6.12397
6.0594
5.991
5.91853
5.84179
5.76072
5.67536
5.58588
5.49247
5.39536
5.29553
5.19331
5.08911
4.98343
4.87676
4.76957
4.66231
4.55538
4.44909
4.34446
4.2414
4.14005
4.04057
3.94311
3.84779
3.75468
3.66398
3.57582
3.49022
3.40719
3.3267
3.24875
3.17337
3.10051
3.03012
2.96212
2.89645
2.83304
2.77183
2.71274
2.65571
2.60065
2.54749
2.49615
2.44656
2.39863
2.35231
2.30751
2.26419
2.22227
2.18171
2.14245
2.10444
2.06766
2.03207
1.99766
1.96442
1.93236
1.9015
1.87186
1.84341
1.81626
1.79051
1.7662
1.74142
0.360336
0.476306
0.559649
0.625489
0.681544
0.731442
0.777217
0.820197
0.861344
0.901388
0.941012
0.980753
1.02105
1.06224
1.10465
1.1485
1.19401
1.24133
1.29058
1.34183
1.39514
1.45055
1.50809
1.56779
1.62968
1.69379
1.76019
1.82877
1.89961
1.97278
2.04834
2.12637
2.20674
2.28947
2.37457
2.46201
2.5518
2.6439
2.73827
2.83485
2.93359
3.0344
3.13721
3.24191
3.34842
3.45662
3.56639
3.67762
3.79015
3.90385
4.01856
4.13412
4.25036
4.36713
4.48438
4.60187
4.71939
4.83674
4.9537
5.07005
5.18555
5.30005
5.41334
5.52515
5.63523
5.74333
5.8492
5.95261
6.05329
6.15099
6.24548
6.3365
6.42382
6.50724
6.58654
6.66152
6.73201
6.79786
6.85893
6.91511
6.96631
7.01248
7.05354
7.08946
7.12022
7.14579
7.16617
7.18137
7.19147
7.19656
7.19689
7.19262
7.18347
7.16956
7.151
7.12793
7.1005
7.06888
7.03327
6.99387
6.95099
6.90485
6.85567
6.80327
6.74822
6.69092
6.63294
6.57385
6.51408
6.45278
6.39059
6.3276
6.2638
6.19906
6.13301
6.0654
5.99592
5.92424
5.85002
5.77301
5.693
5.60988
5.52366
5.43441
5.34235
5.24783
5.1512
5.0528
4.95302
4.85224
4.75087
4.64929
4.54783
4.44669
4.34668
4.24796
4.15072
4.05513
3.96133
3.86944
3.77955
3.69213
3.60703
3.52423
3.44372
3.36549
3.28953
3.21586
3.14451
3.07544
3.00858
2.9439
2.88131
2.82077
2.76223
2.70563
2.65089
2.59795
2.54673
2.49716
2.44917
2.4027
2.35769
2.31408
2.27181
2.23084
2.19112
2.15261
2.11528
2.07911
2.04409
2.01022
1.97752
1.946
1.91567
1.88653
1.85868
1.83222
1.80711
1.78184
0.357825
0.47232
0.555081
0.620825
0.677081
0.727492
0.774075
0.818135
0.860604
0.902196
0.943588
0.985148
1.02721
1.07002
1.11381
1.15874
1.20501
1.25276
1.30209
1.35307
1.40575
1.46021
1.5164
1.57439
1.63428
1.69616
1.76017
1.82627
1.89451
1.96494
2.03759
2.11246
2.18958
2.26908
2.35103
2.43546
2.52238
2.61182
2.70376
2.79817
2.89502
2.99426
3.09584
3.19968
3.3057
3.4138
3.52389
3.63584
3.74953
3.86482
3.98156
4.09959
4.21872
4.33874
4.4595
4.58082
4.70254
4.82445
4.94632
5.06794
5.18908
5.30959
5.42915
5.54746
5.66423
5.77914
5.89196
6.00242
6.11021
6.21503
6.3166
6.41462
6.50884
6.599
6.68485
6.76614
6.84266
6.9142
6.98061
7.04173
7.09744
7.14764
7.19226
7.23122
7.26445
7.2919
7.31353
7.32931
7.33928
7.34353
7.3426
7.33637
7.32434
7.30661
7.28328
7.25446
7.22029
7.18093
7.13655
7.08719
7.03298
6.97429
6.91165
6.84609
6.77791
6.70763
6.63473
6.56019
6.48456
6.40812
6.33137
6.25471
6.17841
6.10257
6.02712
5.95192
5.87673
5.80121
5.72501
5.64776
5.56912
5.48883
5.40668
5.32259
5.23653
5.14863
5.05904
4.96797
4.87567
4.78242
4.68853
4.59431
4.50004
4.40604
4.31269
4.22026
4.12896
4.03897
3.95045
3.8635
3.77813
3.69477
3.61342
3.53411
3.45683
3.38158
3.30833
3.23737
3.16853
3.10173
3.03693
2.97407
2.9131
2.85394
2.79661
2.74105
2.68722
2.63505
2.58446
2.5354
2.48781
2.44164
2.39683
2.35333
2.31108
2.27005
2.2302
2.1915
2.15391
2.11744
2.08207
2.04781
2.01468
1.98268
1.95184
1.9222
1.89383
1.86682
1.84109
1.81547
0.350007
0.462413
0.543992
0.609165
0.665349
0.7161
0.763398
0.808501
0.852273
0.895318
0.938071
0.980984
1.02437
1.06844
1.11335
1.15922
1.20624
1.25445
1.30389
1.35461
1.40669
1.46022
1.51517
1.57161
1.62964
1.68931
1.75065
1.81372
1.87869
1.94568
2.01481
2.08619
2.15988
2.23597
2.31453
2.39564
2.47933
2.56566
2.65466
2.74632
2.84065
2.93764
3.03724
3.13942
3.24411
3.35124
3.46072
3.57245
3.68632
3.8022
3.91995
4.03941
4.16043
4.28282
4.40642
4.53107
4.65653
4.78258
4.909
5.03551
5.16182
5.28765
5.41276
5.53688
5.65969
5.78089
5.90028
6.01745
6.13204
6.24373
6.35216
6.45697
6.55792
6.65471
6.74703
6.83459
6.91713
6.99438
7.06616
7.13226
7.19254
7.24685
7.29509
7.33715
7.37292
7.40229
7.42518
7.44151
7.45127
7.45444
7.45252
7.4443
7.42928
7.40754
7.37908
7.344
7.30237
7.25433
7.20011
7.14016
7.07475
7.00412
6.9288
6.84953
6.76602
6.67919
6.58957
6.49796
6.40515
6.3119
6.219
6.12716
6.03696
5.9488
5.86289
5.77926
5.69777
5.61814
5.53995
5.46275
5.38604
5.30936
5.2323
5.15451
5.07577
4.99593
4.91494
4.83283
4.74969
4.66568
4.58098
4.49584
4.41047
4.32513
4.24009
4.15559
4.07184
3.98903
3.90729
3.82676
3.74754
3.66983
3.59371
3.51926
3.44649
3.37543
3.30604
3.2385
3.1728
3.10888
3.04673
2.98631
2.92756
2.87046
2.81507
2.76128
2.70902
2.65825
2.60889
2.5609
2.51421
2.4688
2.42462
2.38164
2.33981
2.29909
2.25945
2.22088
2.18334
2.14684
2.11138
2.07697
2.04362
2.01136
1.98023
1.9503
1.9216
1.89421
1.86804
1.84224
0.338663
0.448841
0.52881
0.592885
0.648408
0.698895
0.746295
0.79184
0.836371
0.880485
0.924602
0.968989
1.01385
1.05933
1.10553
1.1525
1.20029
1.24897
1.2986
1.34921
1.40082
1.45345
1.50714
1.562
1.61812
1.67562
1.73465
1.79528
1.85762
1.9218
1.98795
2.0562
2.12667
2.19948
2.27473
2.35251
2.43292
2.51603
2.60189
2.69055
2.78203
2.87634
2.97348
3.07344
3.17617
3.28161
3.38972
3.50039
3.61353
3.72903
3.84676
3.96658
4.08834
4.21189
4.33704
4.46361
4.59139
4.72016
4.84967
4.97967
5.10987
5.24003
5.36982
5.49892
5.62698
5.75362
5.87843
6.00109
6.12129
6.23866
6.35284
6.46351
6.57034
6.67294
6.77095
6.86405
6.95191
7.03422
7.11075
7.18128
7.24559
7.30352
7.35491
7.39962
7.43749
7.46836
7.4921
7.50855
7.51766
7.51975
7.51644
7.50573
7.48718
7.46088
7.4269
7.38531
7.3362
7.27973
7.21613
7.1458
7.06853
6.98486
6.8953
6.80042
6.70066
6.59679
6.48966
6.38028
6.26971
6.15906
6.04945
5.94194
5.83746
5.73673
5.64023
5.54821
5.46063
5.37725
5.29762
5.22115
5.14721
5.07508
5.00414
4.93379
4.86355
4.79301
4.72192
4.65009
4.57747
4.50407
4.42996
4.35527
4.28017
4.20484
4.12948
4.05429
3.97944
3.90513
3.83148
3.75862
3.68669
3.61581
3.5461
3.47764
3.41048
3.34466
3.28022
3.21723
3.15571
3.09567
3.0371
2.97998
2.92428
2.86995
2.81706
2.76555
2.71537
2.6665
2.61886
2.57243
2.52715
2.48303
2.44
2.39802
2.35705
2.31708
2.27806
2.24
2.20287
2.16667
2.13143
2.09715