/*--------------------------------*- C++ -*----------------------------------*\
  =========                 |
  \\      /  F ield         | OpenFOAM: The Open Source CFD Toolbox
   \\    /   O peration     | Website:  https://openfoam.org
    \\  /    A nd           | Version:  8
     \\/     M anipulation  |
\*---------------------------------------------------------------------------*/
FoamFile
{
    version     2.0;
    format      ascii;
    class       volScalarField;
    location    "85";
    object      nut;
}
// * * * * * * * * * * * * * * * * * * * * * * * * * * * * * * * * * * * * * //

dimensions      [0 2 -1 0 0 0 0];

internalField   nonuniform List<scalar> 
12225
(
4.1496e-05
3.93441e-05
3.74812e-05
3.5436e-05
3.37806e-05
3.24268e-05
3.15045e-05
3.09179e-05
3.09243e-05
3.11085e-05
3.15843e-05
3.21484e-05
3.318e-05
3.39209e-05
3.51135e-05
3.61204e-05
3.72497e-05
3.74295e-05
0.000332369
0.000215186
0.000179283
0.00015765
0.000146211
0.000138164
0.000132655
0.000131717
0.000129394
0.000130157
0.000128935
0.000129556
0.000128542
0.000128709
0.000127975
0.000127556
0.000127616
0.00012653
0.00067506
0.000450758
0.000355806
0.000309756
0.000275283
0.000250987
0.000231653
0.000217119
0.00020251
0.000191888
0.000182387
0.000174816
0.000169119
0.000163069
0.000159995
0.000154646
0.000153312
0.000148598
0.000833688
0.000684833
0.000572044
0.000499863
0.000449466
0.000411795
0.000380713
0.000355762
0.000333841
0.000314398
0.000297992
0.000281117
0.000269812
0.000255108
0.000247357
0.000234856
0.000228801
0.000218338
0.000861282
0.000802514
0.000742171
0.000676475
0.000624015
0.000581201
0.000545817
0.000514273
0.000489355
0.00046398
0.000445513
0.000423364
0.00040929
0.000389752
0.000378701
0.000361481
0.000352587
0.00033678
0.000854987
0.000840347
0.000822222
0.000786428
0.000750888
0.000715754
0.000685723
0.000655878
0.000632393
0.000607106
0.000588648
0.000566598
0.00055161
0.000532091
0.000519591
0.000502121
0.000491291
0.000474847
0.000852911
0.000850685
0.000844242
0.000832813
0.000817424
0.000796909
0.000777859
0.000756558
0.000738772
0.000718838
0.000703233
0.000685108
0.000671545
0.000655083
0.000643296
0.000628161
0.000617821
0.000602957
0.000851925
0.00085181
0.000850178
0.000847383
0.000841452
0.000833694
0.000824867
0.000813313
0.000802721
0.000790278
0.000779499
0.000767189
0.000757004
0.000745177
0.000735797
0.000724518
0.00071592
0.000704433
0.000851753
0.000851538
0.000851039
0.000850331
0.000848881
0.000846149
0.000843022
0.000838252
0.00083335
0.000827254
0.000821075
0.000814571
0.00080814
0.000801153
0.000794762
0.000787776
0.000781369
0.000774178
0.000851772
0.000851387
0.000851049
0.000850628
0.000850248
0.000849357
0.000848398
0.000846756
0.000844925
0.000842477
0.000839847
0.000836689
0.000833643
0.000829946
0.000826694
0.000822575
0.000819419
0.000814704
0.000851788
0.000851357
0.000851014
0.000850611
0.000850328
0.000849899
0.000849519
0.000848915
0.000848284
0.000847364
0.000846424
0.000845118
0.00084391
0.000842243
0.000840854
0.000838846
0.000837408
0.000835059
0.000851789
0.000851359
0.000850997
0.000850604
0.000850291
0.000849934
0.00084964
0.000849271
0.000848941
0.000848485
0.000848072
0.000847471
0.000846951
0.000846181
0.000845563
0.000844619
0.000843937
0.000842821
0.000851786
0.000851363
0.000850986
0.000850604
0.000850268
0.000849923
0.000849626
0.000849306
0.000849032
0.000848714
0.000848443
0.000848101
0.000847813
0.000847426
0.00084711
0.000846668
0.00084632
0.00084582
0.000851783
0.000851364
0.000850979
0.000850602
0.000850256
0.000849915
0.000849604
0.000849295
0.000849015
0.00084873
0.000848475
0.000848207
0.000847968
0.000847709
0.000847479
0.000847223
0.000846995
0.000846739
0.000851781
0.000851365
0.000850973
0.000850598
0.000850246
0.000849908
0.00084959
0.000849284
0.000848996
0.000848717
0.000848455
0.000848201
0.000847962
0.000847729
0.00084751
0.000847296
0.000847093
0.000846894
0.00085178
0.000851364
0.000850969
0.000850594
0.000850239
0.000849901
0.00084958
0.000849274
0.000848983
0.000848705
0.00084844
0.000848186
0.000847945
0.000847714
0.000847494
0.000847284
0.000847083
0.000846891
0.000851779
0.000851363
0.000850967
0.000850591
0.000850234
0.000849895
0.000849573
0.000849266
0.000848973
0.000848694
0.000848428
0.000848175
0.000847933
0.000847701
0.000847481
0.00084727
0.000847069
0.000846876
0.000851779
0.000851362
0.000850965
0.000850589
0.000850231
0.000849891
0.000849568
0.00084926
0.000848967
0.000848687
0.000848421
0.000848167
0.000847924
0.000847693
0.000847472
0.000847261
0.000847059
0.000846866
0.000851779
0.000851362
0.000850965
0.000850588
0.00085023
0.00084989
0.000849566
0.000849258
0.000848965
0.000848685
0.000848419
0.000848164
0.000847922
0.000847691
0.00084747
0.000847259
0.000847057
0.000846865
0.000851779
0.000851362
0.000850965
0.000850589
0.000850231
0.000849892
0.000849569
0.000849261
0.000848969
0.00084869
0.000848424
0.00084817
0.000847928
0.000847697
0.000847477
0.000847266
0.000847065
0.000846873
0.000851779
0.000851363
0.000850967
0.000850592
0.000850235
0.000849897
0.000849574
0.000849269
0.000848976
0.000848699
0.000848432
0.000848179
0.000847933
0.0008477
0.000847471
0.000847256
0.000847041
0.000846841
0.000851778
0.000851366
0.000850968
0.000850599
0.000850241
0.000849908
0.000849582
0.000849277
0.00084897
0.000848679
0.000848375
0.000848085
0.000847773
0.000847477
0.00084715
0.000846845
0.000846497
0.000846185
0.000851777
0.000851374
0.000850971
0.000850615
0.000850242
0.000849891
0.000849482
0.000849059
0.000848538
0.00084799
0.000847318
0.000846627
0.000845797
0.000844979
0.000844006
0.000843094
0.000841998
0.000841038
0.000851802
0.00085141
0.00085097
0.00085055
0.000849862
0.000848971
0.000847615
0.000845991
0.000843923
0.000841664
0.000838996
0.000836271
0.000833192
0.000830211
0.000826888
0.000823835
0.000820374
0.000817407
0.000852138
0.000851403
0.000850234
0.000848254
0.000844477
0.000839369
0.000832733
0.000825796
0.000817967
0.000810073
0.000801718
0.000793759
0.000785503
0.000777919
0.000770007
0.000763016
0.000755502
0.000749239
0.000854143
0.000847719
0.000840127
0.000827126
0.000808729
0.000789674
0.000770028
0.000751488
0.000733415
0.000717031
0.000701121
0.000687004
0.000673116
0.000661008
0.00064879
0.000638418
0.000627518
0.000618666
0.000854973
0.000818339
0.000776243
0.000726644
0.000684981
0.000649904
0.000618545
0.000592122
0.000568532
0.000548483
0.000529924
0.000514255
0.000499094
0.000486399
0.000473672
0.000463232
0.000452252
0.000443502
0.000807491
0.000666882
0.000570576
0.000509879
0.0004657
0.000431253
0.000404217
0.000382604
0.000364327
0.000349223
0.000336132
0.000325297
0.000314768
0.000306534
0.000298327
0.000291767
0.00028477
0.000279459
0.000501858
0.000348407
0.000292702
0.000259186
0.000236355
0.000221197
0.000211582
0.000204062
0.000198525
0.000195108
0.000192268
0.000190421
0.000188639
0.000187503
0.000186231
0.000185539
0.000184619
0.00018421
7.27286e-05
7.0223e-05
6.79538e-05
6.56133e-05
6.33826e-05
6.12764e-05
5.94921e-05
5.79562e-05
5.67084e-05
5.56988e-05
5.49719e-05
5.44078e-05
5.40963e-05
5.38634e-05
5.38623e-05
5.3918e-05
5.4033e-05
5.42734e-05
6.04813e-06
6.8532e-05
9.84764e-05
0.000124462
0.000147311
0.00016732
0.000184583
0.000198544
0.000209064
0.000221338
0.000236558
0.000244429
0.000232596
4.40275e-05
4.01035e-05
0.000252192
0.000345197
0.000418603
0.000466446
0.000519313
0.000455723
5.19667e-05
5.01682e-05
5.18688e-05
5.44889e-05
5.71333e-05
5.97985e-05
6.24212e-05
6.50434e-05
6.76439e-05
7.02442e-05
7.27854e-05
7.52917e-05
7.77142e-05
8.00786e-05
8.23511e-05
8.45521e-05
8.6657e-05
8.8686e-05
9.06222e-05
9.24848e-05
9.42619e-05
9.59695e-05
9.75993e-05
9.91647e-05
0.00010066
0.000102097
0.000103474
0.0001048
0.000106073
0.000107302
0.000108486
0.000109631
0.000110738
0.000111813
0.000112854
0.000113868
0.000114855
0.000115818
0.00011676
0.000117682
0.000118589
0.00011948
0.000120361
0.000121229
0.000122092
0.000122944
0.000123795
0.000124639
0.000125485
0.000126325
0.00012717
0.00012801
0.000128857
0.000129699
0.000130548
0.00013139
0.00013224
0.000133082
0.00013393
0.000134769
0.000135611
0.000136439
0.000137266
0.000138074
0.000138874
0.000139651
0.000140413
0.000141148
0.000141856
0.000142529
0.000143154
0.000143728
0.000144256
0.000144832
0.00014536
0.000145887
0.000146385
0.0001468
0.000147042
0.000145486
0.00014695
0.000148954
0.000148328
0.000147384
0.000148714
0.000148342
0.000148406
0.000148183
0.000148008
0.000147647
0.00014723
0.000146712
0.000146107
0.000145403
0.000144591
0.00014366
0.000142642
0.000141515
0.000140287
0.000138955
0.000137526
0.000136012
0.000134512
0.000132861
0.00013105
0.00012919
0.000127263
0.000125297
0.000123292
0.000121218
0.000119148
0.000116983
0.000114212
0.00011237
0.000110882
0.00010945
0.000108022
0.000106602
0.000105197
0.000103796
0.000102418
0.000101044
9.9759e-05
9.84373e-05
9.7189e-05
9.58918e-05
9.46105e-05
9.33622e-05
9.21593e-05
9.0997e-05
8.98602e-05
8.87505e-05
8.76729e-05
8.66286e-05
8.56211e-05
8.46499e-05
8.37109e-05
8.28033e-05
8.19259e-05
8.10802e-05
8.02651e-05
7.94796e-05
7.87217e-05
7.79913e-05
7.7287e-05
7.66083e-05
7.5953e-05
7.53207e-05
7.47088e-05
7.41166e-05
7.35398e-05
7.29799e-05
7.24239e-05
7.1885e-05
7.132e-05
7.07738e-05
7.00866e-05
6.98611e-05
6.73435e-05
1.19993e-05
7.58589e-05
0.000154312
0.000220774
0.000274887
0.000317058
0.000348397
0.000369609
0.000381944
0.000388514
0.000385132
0.000375066
0.000340694
0.000280049
0.000277099
0.000346955
0.000390669
0.000410973
0.000415075
0.000405213
0.000377728
0.000333945
0.000327495
0.000330702
0.000338436
0.000348212
0.000359947
0.000373182
0.000387691
0.000403397
0.000420147
0.000437868
0.000456429
0.000475538
0.000495041
0.000514879
0.00053485
0.000554747
0.000574422
0.00059372
0.000612548
0.000630808
0.000648461
0.000665471
0.000681772
0.000697318
0.000712121
0.000726174
0.000739504
0.000752117
0.000764049
0.00077531
0.000785941
0.000795953
0.000805391
0.000814268
0.000822629
0.000830487
0.000837889
0.00084485
0.000851418
0.000857613
0.000863497
0.000869092
0.000874457
0.000879617
0.000884631
0.000889527
0.000894364
0.000899172
0.000904013
0.00090892
0.000913952
0.000919145
0.000924553
0.000930211
0.000936168
0.000942458
0.000949137
0.000956241
0.000963815
0.000971895
0.000980523
0.000989722
0.000999504
0.00100986
0.00102078
0.00103222
0.00104417
0.00105652
0.00106918
0.0010819
0.00109434
0.00110612
0.00111722
0.00112881
0.00114063
0.00115248
0.00116415
0.00117558
0.00118635
0.00120011
0.00121146
0.00122191
0.00123342
0.00124221
0.00124897
0.00126235
0.00126874
0.00127864
0.00128528
0.00129102
0.00129555
0.00129881
0.00130072
0.00130113
0.00129974
0.00129683
0.00129286
0.00128738
0.00128044
0.00127209
0.00126246
0.0012519
0.00124059
0.00122823
0.00121504
0.00120113
0.00118663
0.00117165
0.00115612
0.00114019
0.00112421
0.00110515
0.00108402
0.00106209
0.00103998
0.001018
0.000996289
0.000975001
0.000954158
0.000933867
0.000913938
0.000894861
0.000875888
0.000857706
0.000840192
0.000823373
0.000807295
0.000791842
0.000776803
0.000762098
0.000747861
0.000734125
0.00072089
0.000708162
0.000695852
0.00068392
0.000672374
0.000661225
0.00065048
0.000640101
0.000630065
0.000620361
0.000610987
0.000601926
0.000593156
0.000584661
0.000576415
0.000568409
0.00056059
0.000552989
0.000545445
0.000538158
0.000530669
0.000523313
0.000516165
0.000502759
0.000490694
0.000439957
2.25885e-05
0.000111057
0.000214701
0.000304139
0.000377697
0.000436682
0.00048158
0.000513694
0.000534773
0.000546549
0.00055132
0.000551002
0.000543984
0.000535524
0.000538738
0.000554497
0.000569897
0.00058288
0.00059361
0.000601869
0.000607521
0.000613176
0.000626613
0.000646045
0.000669041
0.000694926
0.000722878
0.000752911
0.000785178
0.000819505
0.000856296
0.000895245
0.000935204
0.000975706
0.00101645
0.00105716
0.00109755
0.00113735
0.00117638
0.00121444
0.00125142
0.00128724
0.00132182
0.00135513
0.00138714
0.00141786
0.0014473
0.00147547
0.00150242
0.00152817
0.00155278
0.00157628
0.00159872
0.00162014
0.00164059
0.00166012
0.00167877
0.0016966
0.00171365
0.00172997
0.0017456
0.00176053
0.00177485
0.00178864
0.00180194
0.0018148
0.00182729
0.00183946
0.00185137
0.00186308
0.00187465
0.00188613
0.0018976
0.00190912
0.00192074
0.00193252
0.00194453
0.00195682
0.00196945
0.00198246
0.00199591
0.00200982
0.0020242
0.00203915
0.00205473
0.00207095
0.00208779
0.00210521
0.00212317
0.0021416
0.00216042
0.00217946
0.00219858
0.00221767
0.00223685
0.00225652
0.00227646
0.00229653
0.00231662
0.00233668
0.00235644
0.00237684
0.00239568
0.00241386
0.00243294
0.00245106
0.00246587
0.00248194
0.00249305
0.00250504
0.00251439
0.00252156
0.00252635
0.00252861
0.00252824
0.0025251
0.00251908
0.00251028
0.00249892
0.00248484
0.00246812
0.00244891
0.00242741
0.00240393
0.00237877
0.00235189
0.00232354
0.00229394
0.0022633
0.0022318
0.00219955
0.00216669
0.00213345
0.00209834
0.00206147
0.00202367
0.00198561
0.00194771
0.00191023
0.00187337
0.00183724
0.00180203
0.00176757
0.00173417
0.00170168
0.00167033
0.00164008
0.00161115
0.0015839
0.00155776
0.00153212
0.0015068
0.00148236
0.00145881
0.00143612
0.00141433
0.00139315
0.00137252
0.00135251
0.00133317
0.0013145
0.0012964
0.00127884
0.00126183
0.00124536
0.0012294
0.00121391
0.00119886
0.00118422
0.00116996
0.00115599
0.00114234
0.0011288
0.00111555
0.00110205
0.00108855
0.00107513
0.00105583
0.00103786
0.00097114
3.46905e-05
0.000150552
0.00027786
0.000386881
0.000476197
0.000547566
0.000602844
0.000644059
0.000673518
0.000693757
0.000706116
0.000712213
0.000715747
0.000719116
0.000725503
0.000736154
0.000750151
0.000766931
0.00078609
0.000807214
0.000830299
0.000856227
0.000886334
0.000920644
0.000958717
0.00100021
0.00104478
0.00109222
0.00114236
0.00119496
0.00124921
0.00130425
0.00135992
0.00141581
0.00147176
0.00152745
0.00158258
0.00163688
0.00169012
0.00174214
0.0017928
0.00184199
0.00188967
0.00193578
0.0019803
0.00202325
0.00206462
0.00210446
0.00214278
0.00217964
0.00221508
0.00224914
0.00228187
0.00231333
0.00234357
0.00237265
0.00240061
0.00242752
0.00245343
0.00247843
0.00250259
0.00252581
0.00254823
0.00256991
0.00259091
0.00261129
0.00263109
0.00265039
0.00266923
0.00268768
0.0027058
0.00272364
0.00274127
0.00275875
0.00277613
0.00279348
0.00281084
0.00282828
0.00284584
0.00286359
0.00288158
0.00289983
0.00291838
0.00293729
0.00295658
0.00297626
0.00299632
0.00301674
0.0030375
0.00305857
0.0030799
0.00310142
0.00312302
0.00314463
0.00316646
0.00318858
0.00321089
0.00323328
0.00325568
0.003278
0.0033001
0.00332199
0.00334302
0.00336348
0.00338345
0.00340426
0.00342195
0.00343644
0.00344842
0.00345966
0.00346839
0.0034744
0.00347748
0.00347743
0.0034741
0.00346736
0.00345712
0.0034434
0.00342627
0.00340573
0.00338189
0.00335492
0.00332503
0.00329253
0.0032577
0.0032207
0.00318183
0.00314133
0.0030995
0.00305659
0.00301281
0.00296834
0.00292329
0.00287709
0.00282977
0.0027818
0.00273369
0.00268584
0.00263851
0.00259192
0.00254624
0.0025019
0.00245853
0.00241624
0.00237511
0.00233527
0.00229674
0.0022596
0.00222404
0.00218988
0.00215683
0.00212495
0.00209464
0.0020655
0.00203744
0.00201059
0.00198435
0.00195866
0.00193376
0.0019097
0.0018865
0.00186394
0.001842
0.00182073
0.00180014
0.00178016
0.00176073
0.00174184
0.00172343
0.00170546
0.00168785
0.0016706
0.00165353
0.00163672
0.00161978
0.00160278
0.00158552
0.00156503
0.00154756
0.00147969
4.71691e-05
0.000189384
0.000338675
0.000465657
0.000569014
0.000651658
0.00071602
0.000764872
0.000800912
0.000826794
0.00084504
0.000858147
0.000868697
0.000879048
0.000891285
0.000906818
0.000926289
0.000949893
0.000977543
0.00100903
0.00104424
0.0010833
0.00112641
0.00117356
0.00122456
0.00127911
0.00133689
0.00139751
0.00146059
0.00152564
0.00159211
0.00165947
0.00172738
0.00179552
0.00186342
0.00193073
0.00199718
0.00206253
0.0021266
0.00218924
0.00225034
0.00230981
0.0023676
0.00242369
0.00247805
0.00253069
0.00258163
0.0026309
0.00267851
0.00272452
0.00276896
0.00281189
0.00285334
0.00289338
0.00293204
0.00296939
0.00300546
0.00304031
0.00307399
0.00310653
0.00313796
0.00316833
0.00319772
0.00322617
0.00325373
0.00328046
0.0033064
0.00333161
0.00335614
0.00338003
0.00340333
0.00342611
0.0034484
0.00347027
0.00349176
0.00351292
0.00353379
0.00355441
0.00357482
0.00359509
0.00361528
0.00363543
0.00365556
0.00367571
0.00369592
0.00371618
0.00373653
0.00375697
0.0037775
0.00379815
0.00381892
0.00383978
0.00386072
0.00388171
0.00390284
0.0039241
0.00394544
0.0039668
0.00398811
0.00400929
0.00403021
0.00405073
0.0040706
0.00408972
0.00410799
0.00412766
0.00414455
0.00415647
0.00416768
0.00417706
0.0041839
0.00418789
0.00418879
0.00418638
0.00418046
0.00417088
0.00415754
0.00414042
0.00411951
0.00409487
0.00406659
0.00403483
0.00399982
0.00396183
0.00392114
0.00387801
0.00383274
0.00378563
0.003737
0.00368713
0.00363628
0.00358467
0.00353241
0.00347943
0.0034258
0.00337181
0.00331782
0.00326416
0.00321107
0.00315877
0.00310744
0.00305758
0.00300859
0.00296076
0.0029142
0.00286901
0.00282524
0.00278294
0.0027422
0.00270296
0.00266507
0.00262853
0.00259348
0.0025598
0.00252746
0.00249692
0.0024675
0.00243909
0.0024117
0.00238532
0.0023599
0.00233504
0.00231081
0.00228734
0.00226466
0.00224259
0.0022211
0.00220019
0.0021798
0.00215986
0.00214033
0.00212121
0.00210235
0.00208374
0.00206513
0.00204652
0.00202762
0.00200684
0.00198938
0.00193059
5.94186e-05
0.000222895
0.000393413
0.000537735
0.00065455
0.000748213
0.000821508
0.000877903
0.000920628
0.000952735
0.000977128
0.000996564
0.00101362
0.00103057
0.00104934
0.00107135
0.00109748
0.00112819
0.00116361
0.00120367
0.00124823
0.00129718
0.0013504
0.00140768
0.00146876
0.00153328
0.00160085
0.00167103
0.00174336
0.00181736
0.00189254
0.00196847
0.00204475
0.00212103
0.00219694
0.00227219
0.00234652
0.00241973
0.00249164
0.00256212
0.00263105
0.00269836
0.002764
0.00282792
0.0028901
0.00295055
0.00300926
0.00306625
0.00312155
0.00317517
0.00322716
0.00327755
0.00332638
0.00337368
0.00341951
0.00346389
0.00350687
0.00354849
0.00358879
0.00362779
0.00366555
0.0037021
0.00373748
0.00377174
0.00380491
0.00383703
0.00386814
0.00389827
0.00392747
0.00395577
0.00398321
0.00400982
0.00403566
0.00406074
0.00408513
0.00410885
0.00413194
0.00415446
0.00417645
0.00419792
0.00421889
0.00423941
0.0042595
0.00427919
0.00429852
0.00431751
0.0043362
0.00435462
0.00437281
0.00439081
0.00440865
0.0044264
0.0044441
0.00446178
0.00447943
0.00449706
0.00451464
0.00453216
0.00454958
0.00456683
0.00458384
0.00460047
0.00461656
0.00463195
0.00464661
0.0046622
0.00467575
0.00468554
0.00469408
0.00470078
0.00470515
0.00470687
0.00470567
0.00470127
0.00469347
0.00468208
0.00466696
0.00464803
0.00462527
0.00459868
0.00456834
0.00453439
0.00449702
0.00445647
0.00441301
0.00436695
0.00431859
0.00426824
0.00421623
0.00416286
0.00410841
0.00405311
0.00399716
0.00394065
0.00388374
0.00382665
0.00376967
0.00371304
0.00365701
0.00360176
0.00354747
0.00349436
0.00344239
0.00339166
0.00334224
0.00329422
0.00324763
0.00320253
0.00315895
0.0031169
0.00307629
0.00303711
0.0029994
0.00296312
0.00292822
0.00289487
0.00286284
0.00283228
0.00280309
0.00277516
0.0027484
0.00272258
0.00269765
0.0026736
0.00265039
0.00262768
0.00260551
0.00258394
0.00256285
0.0025422
0.00252195
0.00250208
0.00248249
0.00246316
0.00244394
0.00242481
0.00240553
0.00238524
0.00236757
0.00231989
7.09666e-05
0.000253058
0.000442418
0.000602602
0.000732117
0.000836383
0.000918832
0.000983088
0.00103294
0.00107178
0.00110275
0.00112874
0.00115236
0.00117589
0.00120118
0.00122966
0.00126228
0.00129959
0.00134181
0.00138895
0.00144086
0.00149734
0.00155812
0.00162289
0.00169129
0.00176292
0.00183735
0.00191412
0.00199279
0.00207289
0.00215401
0.00223574
0.00231773
0.00239962
0.00248114
0.00256201
0.00264201
0.00272095
0.00279866
0.00287503
0.00294994
0.00302331
0.00309509
0.00316521
0.00323367
0.00330043
0.0033655
0.00342887
0.00349055
0.00355056
0.00360892
0.00366564
0.00372076
0.00377429
0.00382628
0.00387673
0.00392569
0.00397317
0.00401921
0.00406383
0.00410705
0.00414891
0.00418943
0.00422863
0.00426654
0.00430318
0.00433857
0.00437272
0.00440568
0.00443745
0.00446805
0.00449752
0.00452587
0.00455312
0.00457931
0.00460446
0.0046286
0.00465175
0.00467394
0.0046952
0.00471555
0.00473502
0.00475366
0.00477149
0.00478855
0.00480489
0.00482056
0.00483559
0.00485006
0.00486402
0.00487753
0.00489067
0.0049035
0.00491605
0.00492838
0.0049405
0.00495246
0.00496426
0.00497592
0.00498742
0.00499872
0.00500977
0.00502045
0.00503065
0.00504061
0.00505162
0.00506038
0.00506662
0.00507171
0.00507536
0.0050771
0.0050766
0.00507357
0.00506771
0.00505877
0.00504652
0.00503078
0.00501141
0.00498834
0.00496152
0.00493098
0.00489681
0.00485916
0.00481823
0.00477429
0.00472765
0.00467861
0.00462748
0.00457458
0.00452019
0.00446462
0.00440812
0.00435092
0.00429319
0.00423514
0.004177
0.00411899
0.00406134
0.00400427
0.00394795
0.00389254
0.00383821
0.00378503
0.0037331
0.00368247
0.00363322
0.0035854
0.00353905
0.0034942
0.00345085
0.00340897
0.00336855
0.00332958
0.00329204
0.00325591
0.00322122
0.00318789
0.00315592
0.00312529
0.0030962
0.00306854
0.00304217
0.00301695
0.00299279
0.00296958
0.0029471
0.00292526
0.00290404
0.00288318
0.00286268
0.00284257
0.00282278
0.00280327
0.00278404
0.002765
0.00274614
0.00272729
0.00270799
0.00269061
0.0026502
8.14847e-05
0.000279296
0.000484974
0.000659467
0.000801004
0.000915517
0.00100706
0.00107946
0.0011369
0.00118297
0.00122097
0.00125384
0.00128419
0.00131427
0.00134592
0.00138054
0.0014191
0.00146221
0.00151013
0.00156291
0.0016204
0.00168237
0.00174849
0.00181842
0.00189174
0.00196805
0.0020469
0.00212787
0.00221054
0.00229449
0.00237935
0.00246475
0.00255037
0.00263593
0.00272116
0.00280583
0.00288974
0.00297272
0.00305462
0.00313531
0.00321468
0.00329266
0.00336916
0.00344414
0.00351756
0.00358939
0.00365961
0.00372822
0.00379519
0.00386053
0.00392425
0.00398634
0.00404682
0.0041057
0.00416299
0.00421871
0.00427285
0.00432545
0.0043765
0.00442602
0.00447402
0.0045205
0.00456548
0.00460896
0.00465094
0.00469144
0.00473045
0.00476798
0.00480403
0.00483861
0.00487171
0.00490335
0.00493353
0.00496226
0.00498955
0.00501541
0.00503985
0.00506289
0.00508455
0.00510485
0.00512381
0.00514147
0.00515786
0.00517302
0.005187
0.00519984
0.0052116
0.00522235
0.00523216
0.00524109
0.00524924
0.00525668
0.00526351
0.0052698
0.00527561
0.00528103
0.00528613
0.00529099
0.00529567
0.0053002
0.00530463
0.00530895
0.00531315
0.00531714
0.00532172
0.00532644
0.00533011
0.00533227
0.00533371
0.00533412
0.00533318
0.00533058
0.00532602
0.00531917
0.00530973
0.00529741
0.00528201
0.00526331
0.00524117
0.00521548
0.0051862
0.00515335
0.00511703
0.0050774
0.00503472
0.00498928
0.00494139
0.00489133
0.00483938
0.00478583
0.00473097
0.00467506
0.00461836
0.00456108
0.00450345
0.00444572
0.0043881
0.0043308
0.00427402
0.00421793
0.00416268
0.00410843
0.00405528
0.00400332
0.00395264
0.0039033
0.00385535
0.00380883
0.00376377
0.00372019
0.00367806
0.00363738
0.00359814
0.00356031
0.00352388
0.00348884
0.00345514
0.00342276
0.00339167
0.00336194
0.00333366
0.00330701
0.00328183
0.00325788
0.00323501
0.003213
0.00319172
0.00317109
0.00315096
0.00313126
0.00311192
0.00309278
0.00307391
0.00305531
0.00303694
0.00301881
0.00300084
0.00298283
0.00296609
0.00293244
9.06386e-05
0.000301104
0.000520427
0.000707498
0.000860118
0.000984399
0.00108491
0.00116563
0.00123094
0.00128462
0.00132998
0.00136997
0.00140717
0.00144377
0.00148156
0.00152191
0.0015658
0.00161385
0.00166637
0.00172344
0.00178493
0.00185063
0.00192021
0.00199331
0.00206955
0.00214852
0.00222982
0.00231304
0.00239781
0.00248377
0.00257057
0.0026579
0.00274549
0.00283307
0.00292043
0.00300737
0.00309371
0.0031793
0.003264
0.00334767
0.0034302
0.0035115
0.00359149
0.00367013
0.00374736
0.00382314
0.00389745
0.00397026
0.00404155
0.00411129
0.00417947
0.00424609
0.00431113
0.00437459
0.00443646
0.00449674
0.00455542
0.0046125
0.00466797
0.00472182
0.00477405
0.00482464
0.00487358
0.00492086
0.00496647
0.00501039
0.0050526
0.00509309
0.00513184
0.00516884
0.00520407
0.00523751
0.00526916
0.005299
0.00532704
0.00535325
0.00537766
0.00540025
0.00542103
0.00544003
0.00545726
0.00547275
0.00548653
0.00549865
0.00550915
0.00551808
0.00552552
0.00553153
0.00553619
0.00553959
0.00554183
0.005543
0.00554322
0.0055426
0.00554123
0.00553922
0.00553674
0.0055339
0.00553081
0.00552759
0.00552431
0.00552113
0.00551808
0.00551534
0.00551325
0.00551172
0.00550959
0.00550716
0.00550449
0.00550142
0.00549768
0.00549301
0.00548711
0.00547962
0.00547015
0.00545837
0.00544403
0.00542686
0.00540662
0.00538313
0.00535627
0.00532599
0.00529231
0.00525534
0.00521528
0.00517246
0.00512717
0.00507963
0.00503008
0.0049788
0.00492605
0.00487211
0.00481723
0.00476163
0.00470561
0.00464939
0.00459322
0.0045373
0.0044818
0.00442689
0.00437274
0.00431948
0.00426724
0.00421612
0.00416622
0.00411759
0.00407031
0.0040244
0.0039799
0.00393683
0.00389519
0.00385496
0.00381615
0.00377872
0.00374267
0.00370797
0.00367459
0.00364248
0.00361164
0.00358205
0.00355378
0.00352713
0.00350226
0.0034788
0.00345649
0.00343514
0.00341458
0.00339471
0.00337539
0.00335655
0.00333812
0.00332002
0.0033022
0.00328458
0.00326719
0.00325005
0.00323318
0.00321657
0.00320077
0.00317267
9.81845e-05
0.000318209
0.00054841
0.000746162
0.000908712
0.0010421
0.00115124
0.00124018
0.00131343
0.00137481
0.00142765
0.00147483
0.00151887
0.00156185
0.0016055
0.00165114
0.00169974
0.00175194
0.00180807
0.00186825
0.00193241
0.00200036
0.00207183
0.00214648
0.00222398
0.00230395
0.00238604
0.00246989
0.00255517
0.00264158
0.00272881
0.00281659
0.00290467
0.00299283
0.00308089
0.00316872
0.00325617
0.00334309
0.00342935
0.00351482
0.00359933
0.00368279
0.00376513
0.00384629
0.00392624
0.00400494
0.00408235
0.00415842
0.00423312
0.00430641
0.00437825
0.00444861
0.00451748
0.00458483
0.00465064
0.00471489
0.00477755
0.0048386
0.00489801
0.00495576
0.00501182
0.00506615
0.00511872
0.00516951
0.00521847
0.00526557
0.00531077
0.00535403
0.00539532
0.0054346
0.00547183
0.00550698
0.00554002
0.00557091
0.00559964
0.00562618
0.00565052
0.00567264
0.00569255
0.00571024
0.00572574
0.00573905
0.00575022
0.00575927
0.00576626
0.00577125
0.0057743
0.0057755
0.00577492
0.00577267
0.00576886
0.00576357
0.005757
0.00574927
0.00574045
0.00573063
0.00572022
0.00570926
0.00569796
0.00568649
0.00567493
0.00566366
0.00565296
0.0056431
0.00563379
0.00562509
0.00561686
0.00560912
0.0056019
0.00559501
0.00558824
0.00558135
0.00557413
0.00556619
0.00555694
0.00554606
0.00553328
0.00551827
0.00550069
0.00548027
0.0054568
0.00543013
0.00540019
0.005367
0.00533066
0.00529158
0.00525011
0.00520629
0.00516033
0.00511246
0.00506297
0.00501211
0.00496013
0.00490719
0.00485371
0.00479991
0.00474604
0.0046923
0.00463886
0.00458589
0.00453354
0.00448198
0.00443133
0.00438171
0.00433322
0.00428592
0.00423989
0.00419517
0.0041518
0.00410981
0.00406919
0.00402995
0.00399209
0.00395559
0.00392042
0.00388658
0.00385402
0.00382271
0.00379263
0.00376376
0.00373613
0.00370998
0.00368577
0.00366304
0.0036415
0.00362096
0.00360123
0.0035822
0.00356375
0.00354581
0.00352831
0.00351121
0.00349447
0.00347807
0.00346183
0.00344582
0.00343013
0.0034149
0.00340021
0.00337668
0.000103968
0.00033055
0.000568857
0.000775266
0.00094638
0.00108798
0.00120513
0.00130191
0.00138285
0.00145176
0.00151191
0.00156611
0.00161675
0.00166582
0.00171495
0.00176541
0.00181812
0.00187373
0.0019326
0.0019949
0.00206061
0.0021296
0.00220166
0.00227652
0.00235389
0.00243345
0.00251491
0.00259798
0.00268238
0.00276786
0.00285419
0.00294111
0.00302837
0.00311573
0.00320298
0.00329035
0.00337765
0.00346471
0.0035514
0.00363768
0.0037231
0.00380758
0.00389114
0.00397374
0.00405536
0.00413597
0.00421554
0.00429398
0.00437125
0.00444727
0.00452201
0.00459541
0.00466744
0.00473805
0.00480722
0.00487491
0.00494108
0.00500568
0.00506866
0.00512998
0.00518958
0.00524742
0.00530343
0.00535757
0.00540978
0.00546
0.00550816
0.00555421
0.00559808
0.00563971
0.00567905
0.00571604
0.00575063
0.00578276
0.00581239
0.00583948
0.00586399
0.00588591
0.00590521
0.00592188
0.00593592
0.00594735
0.00595618
0.00596245
0.00596621
0.00596751
0.00596643
0.00596305
0.00595746
0.00594978
0.00594013
0.00592851
0.00591528
0.00590061
0.00588438
0.00586689
0.0058484
0.00582911
0.00580941
0.00578954
0.00576962
0.00575004
0.0057311
0.005713
0.00569587
0.00567984
0.00566498
0.00565135
0.00563908
0.00562794
0.00561775
0.00560826
0.0055991
0.00558991
0.00558022
0.00556982
0.00555858
0.00554602
0.00553168
0.00551517
0.00549615
0.00547434
0.00544953
0.00542161
0.00539051
0.0053567
0.00532013
0.00528107
0.00523969
0.00519624
0.00515095
0.00510412
0.00505598
0.00500649
0.00495634
0.00490573
0.00485489
0.00480402
0.00475331
0.0047029
0.00465295
0.00460366
0.00455516
0.00450757
0.004461
0.00441552
0.00437122
0.00432816
0.00428638
0.00424591
0.00420675
0.00416893
0.00413243
0.00409725
0.00406339
0.0040308
0.00399947
0.00396937
0.00394046
0.00391275
0.00388625
0.00386121
0.00383803
0.00381627
0.00379569
0.00377607
0.00375726
0.00373914
0.0037216
0.00370457
0.003688
0.00367185
0.00365612
0.0036408
0.0036258
0.00361092
0.0035964
0.00358247
0.00356896
0.00354918
0.000107929
0.000338265
0.000581965
0.000794889
0.000972988
0.00112166
0.00124594
0.00134989
0.00143797
0.00151391
0.0015809
0.00164164
0.0016984
0.00175306
0.00180714
0.00186183
0.00191801
0.00197632
0.00203714
0.00210067
0.00216697
0.00223597
0.00230751
0.00238141
0.00245743
0.00253534
0.00261488
0.00269583
0.00277797
0.00286113
0.00294536
0.00303034
0.00311569
0.00320118
0.00328657
0.00337241
0.00345837
0.00354431
0.00363014
0.00371585
0.00380076
0.00388502
0.00396861
0.00405151
0.00413371
0.00421522
0.00429611
0.0043761
0.00445513
0.00453314
0.00461006
0.00468583
0.00476039
0.00483368
0.00490568
0.00497636
0.00504564
0.00511346
0.00517973
0.00524439
0.00530737
0.0053686
0.005428
0.00548549
0.005541
0.00559443
0.0056457
0.00569472
0.0057414
0.00578567
0.00582743
0.0058666
0.00590311
0.00593688
0.00596785
0.00599594
0.00602112
0.00604332
0.00606252
0.00607869
0.00609181
0.00610189
0.00610892