/*--------------------------------*- C++ -*----------------------------------*\
  =========                 |
  \\      /  F ield         | OpenFOAM: The Open Source CFD Toolbox
   \\    /   O peration     | Website:  https://openfoam.org
    \\  /    A nd           | Version:  8
     \\/     M anipulation  |
\*---------------------------------------------------------------------------*/
FoamFile
{
    version     2.0;
    format      ascii;
    class       volScalarField;
    location    "85";
    object      p;
}
// * * * * * * * * * * * * * * * * * * * * * * * * * * * * * * * * * * * * * //

dimensions      [0 2 -2 0 0 0 0];

internalField   nonuniform List<scalar> 
12225
(
-2.05065
-4.23788
-5.3361
-5.6541
-5.83204
-5.9966
-6.12271
-6.21154
-6.28018
-6.33736
-6.38496
-6.425
-6.45591
-6.47651
-6.48441
-6.46604
-6.43993
-6.2551
-5.21311
-5.98113
-6.13993
-6.04496
-6.02908
-6.09257
-6.16467
-6.22403
-6.2757
-6.32305
-6.36546
-6.40177
-6.43122
-6.45149
-6.46204
-6.45143
-6.44225
-6.36806
-5.61383
-5.59896
-5.72456
-5.80019
-5.89182
-6.00773
-6.10955
-6.18801
-6.25195
-6.30751
-6.35584
-6.39663
-6.43012
-6.45466
-6.47104
-6.47283
-6.48146
-6.47435
-5.49256
-5.4352
-5.67489
-5.83069
-5.92922
-6.03117
-6.12354
-6.19726
-6.25833
-6.31205
-6.35939
-6.39996
-6.43409
-6.46086
-6.48182
-6.49512
-6.51776
-6.54888
-5.48282
-5.50642
-5.73268
-5.87179
-5.95212
-6.03994
-6.12598
-6.19754
-6.25767
-6.31095
-6.35842
-6.39979
-6.43557
-6.46562
-6.49201
-6.51574
-6.54957
-6.59917
-5.5412
-5.58925
-5.76181
-5.88314
-5.96144
-6.04516
-6.1282
-6.19878
-6.25865
-6.31185
-6.35967
-6.40209
-6.43973
-6.4731
-6.50449
-6.53632
-6.57785
-6.63534
-5.60191
-5.64532
-5.77878
-5.89256
-5.97329
-6.05348
-6.13254
-6.20154
-6.26091
-6.31395
-6.3621
-6.4056
-6.44513
-6.48159
-6.51727
-6.55503
-6.60143
-6.66105
-5.65587
-5.69274
-5.80103
-5.90692
-5.9871
-6.06287
-6.13763
-6.20483
-6.26367
-6.31657
-6.36508
-6.40969
-6.45105
-6.49024
-6.52942
-6.57129
-6.62032
-6.67932
-5.70617
-5.73859
-5.82793
-5.92364
-6.00104
-6.07279
-6.14359
-6.20886
-6.26702
-6.31976
-6.36861
-6.41422
-6.45721
-6.49866
-6.54048
-6.58495
-6.63501
-6.69195
-5.75394
-5.78253
-5.85658
-5.94168
-6.01536
-6.08359
-6.15073
-6.21383
-6.2711
-6.32358
-6.37269
-6.41912
-6.46344
-6.50662
-6.55027
-6.59613
-6.64603
-6.70033
-5.79914
-5.82404
-5.88587
-5.96113
-6.03049
-6.09532
-6.15902
-6.21983
-6.27601
-6.32811
-6.37734
-6.42438
-6.46971
-6.51411
-6.55884
-6.60517
-6.65419
-6.7057
-5.83814
-5.8599
-5.91285
-5.98001
-6.04502
-6.1067
-6.16742
-6.22611
-6.28119
-6.33281
-6.38196
-6.4293
-6.47524
-6.52032
-6.56551
-6.61166
-6.65947
-6.70852
-5.87439
-5.89353
-5.93925
-5.99917
-6.05982
-6.11844
-6.17634
-6.23294
-6.28687
-6.33795
-6.38686
-6.43426
-6.48046
-6.52595
-6.57123
-6.6169
-6.66331
-6.71007
-5.9127
-5.92937
-5.96847
-6.02124
-6.07707
-6.13232
-6.18721
-6.24145
-6.29401
-6.34442
-6.39297
-6.44012
-6.48629
-6.53179
-6.57691
-6.6218
-6.66661
-6.71095
-5.95194
-5.9663
-5.99961
-6.04571
-6.0965
-6.14817
-6.2
-6.25166
-6.30256
-6.35211
-6.40017
-6.4468
-6.49249
-6.53752
-6.5821
-6.62598
-6.66911
-6.71114
-5.99028
-6.00262
-6.03111
-6.07143
-6.11732
-6.16537
-6.21427
-6.2634
-6.31235
-6.36078
-6.40811
-6.45412
-6.49891
-6.54306
-6.58658
-6.62936
-6.67084
-6.71088
-6.02495
-6.03569
-6.06051
-6.09626
-6.13794
-6.18264
-6.22893
-6.27583
-6.32286
-6.36984
-6.41628
-6.46149
-6.50534
-6.54822
-6.59046
-6.63186
-6.67194
-6.71026
-6.0517
-6.06138
-6.08383
-6.1166
-6.15537
-6.19758
-6.24195
-6.28723
-6.33275
-6.37838
-6.42381
-6.4682
-6.51113
-6.55279
-6.59369
-6.63373
-6.67253
-6.70953
-6.06359
-6.07299
-6.09478
-6.12669
-6.16468
-6.20615
-6.24985
-6.2946
-6.33958
-6.38456
-6.42933
-6.47308
-6.51533
-6.55612
-6.59599
-6.63491
-6.67262
-6.70859
-6.05186
-6.06201
-6.08546
-6.11962
-6.15995
-6.20329
-6.24839
-6.2942
-6.34012
-6.38568
-6.43075
-6.47449
-6.51672
-6.55733
-6.59699
-6.63539
-6.6725
-6.70779
-6.02807
-6.03932
-6.06561
-6.1039
-6.14822
-6.19473
-6.24221
-6.29013
-6.33766
-6.38447
-6.43006
-6.47422
-6.5166
-6.55761
-6.59725
-6.63566
-6.67225
-6.70733
-5.99515
-6.00747
-6.03796
-6.08296
-6.13298
-6.18314
-6.2335
-6.28409
-6.33396
-6.38229
-6.42879
-6.47338
-6.51621
-6.55755
-6.59742
-6.63569
-6.67207
-6.70684
-5.95628
-5.96871
-6.00439
-6.05915
-6.11665
-6.17095
-6.2244
-6.27779
-6.32985
-6.37969
-6.42719
-6.47245
-6.5159
-6.55763
-6.59775
-6.63587
-6.67213
-6.70674
-5.91379
-5.92532
-5.96837
-6.03428
-6.09852
-6.15772
-6.21605
-6.27298
-6.32688
-6.37766
-6.42581
-6.47169
-6.51559
-6.55767
-6.59777
-6.63584
-6.67189
-6.7065
-5.86773
-5.87375
-5.93778
-6.01755
-6.08151
-6.14223
-6.20621
-6.2679
-6.3242
-6.37618
-6.42516
-6.47169
-6.51599
-6.55821
-6.59826
-6.63619
-6.67211
-6.70683
-5.82502
-5.78913
-5.90001
-6.01276
-6.07717
-6.13477
-6.1997
-6.26286
-6.32
-6.37269
-6.4224
-6.46955
-6.51426
-6.55665
-6.59671
-6.6346
-6.67058
-6.70539
-5.83946
-5.68109
-5.81126
-5.96706
-6.05959
-6.13341
-6.20497
-6.2692
-6.32591
-6.37817
-6.42746
-6.47418
-6.51837
-6.56021
-6.59964
-6.63689
-6.6724
-6.70694
-5.96238
-5.78296
-5.79862
-5.87225
-5.96292
-6.06476
-6.15818
-6.2353
-6.3009
-6.35997
-6.41427
-6.46449
-6.5113
-6.55507
-6.59585
-6.63396
-6.67017
-6.70584
-5.66979
-6.26181
-6.35224
-6.22964
-6.17748
-6.20714
-6.25688
-6.30355
-6.34908
-6.39519
-6.44058
-6.48429
-6.52631
-6.56646
-6.60422
-6.63953
-6.67301
-6.70721
-2.68161
-4.44498
-5.45094
-5.75192
-5.9033
-6.04929
-6.16604
-6.25047
-6.31872
-6.3795
-6.43455
-6.48486
-6.53157
-6.57526
-6.61575
-6.65264
-6.68613
-6.71522
-8.10369
-8.09724
-8.08977
-8.09059
-8.09484
-8.1011
-8.11026
-8.12143
-8.13311
-8.14403
-8.15352
-8.1623
-8.17121
-8.17998
-8.18811
-8.19519
-8.2029
-8.21387
-8.22966
-8.24737
-8.26253
-8.27636
-8.29756
-8.32502
-8.35621
-8.39144
-8.43115
-8.47576
-8.52554
-8.58066
-8.64106
-8.70662
-8.7769
-8.85156
-8.92981
-9.01113
-9.09447
-9.17934
-9.26462
-9.34999
-9.43448
-9.518
-9.59978
-9.67993
-9.75785
-9.83389
-9.90759
-9.97944
-10.049
-10.1169
-10.1827
-10.2471
-10.3098
-10.3714
-10.4314
-10.4906
-10.5486
-10.606
-10.6622
-10.7181
-10.7731
-10.8277
-10.8814
-10.9349
-10.9873
-11.0394
-11.0904
-11.141
-11.19
-11.2382
-11.2842
-11.3285
-11.3698
-11.4082
-11.4426
-11.4728
-11.4974
-11.5161
-11.5273
-11.5308
-11.5249
-11.5093
-11.4823
-11.4436
-11.3914
-11.3248
-11.2413
-11.139
-11.0147
-10.866
-10.6919
-10.4901
-10.2584
-9.99472
-9.69732
-9.36477
-8.99562
-8.58861
-8.14274
-7.65736
-7.13219
-6.56725
-5.96308
-5.32077
-4.64192
-3.92874
-3.18406
-2.41146
-1.61496
-0.79913
0.0311162
0.870558
1.71382
2.5555
3.39025
4.21293
5.0186
5.80272
6.56136
7.29129
7.98979
8.65459
9.28389
9.87653
10.4319
10.95
11.4312
11.8765
12.2869
12.6641
13.0099
13.3264
13.6161
13.8813
14.1234
14.3433
14.5423
14.7219
14.8835
15.029
15.1596
15.2767
15.3816
15.4754
15.5593
15.6343
15.7014
15.7614
15.8151
15.8632
15.9063
15.945
15.9798
16.0112
16.0394
16.065
16.0882
16.1094
16.1287
16.1464
16.1626
16.1776
16.1915
16.2045
16.2165
16.2277
16.2384
16.2486
16.2583
16.268
16.2779
16.2881
16.2995
16.3131
16.3303
16.354
16.3906
16.4463
16.5472
16.6826
-8.10707
-8.10193
-8.09769
-8.10027
-8.10735
-8.11652
-8.12653
-8.13639
-8.14435
-8.15052
-8.15514
-8.15909
-8.16234
-8.16521
-8.16743
-8.16983
-8.17351
-8.17994
-8.1886
-8.19804
-8.2082
-8.22244
-8.24239
-8.26517
-8.29145
-8.3222
-8.35824
-8.40006
-8.44799
-8.50223
-8.56274
-8.62936
-8.70156
-8.77868
-8.85968
-8.94371
-9.02961
-9.1166
-9.20366
-9.29025
-9.37559
-9.45944
-9.54127
-9.62107
-9.69848
-9.77371
-9.84655
-9.9173
-9.98579
-10.0524
-10.1171
-10.1802
-10.2417
-10.3019
-10.3608
-10.4187
-10.4756
-10.5318
-10.587
-10.6418
-10.6959
-10.7496
-10.8027
-10.8554
-10.9074
-10.9592
-11.0101
-11.0605
-11.1099
-11.1584
-11.2055
-11.2509
-11.294
-11.3346
-11.3717
-11.4051
-11.4334
-11.4562
-11.4723
-11.4808
-11.4805
-11.4704
-11.4492
-11.4159
-11.369
-11.3072
-11.2285
-11.1309
-11.0113
-10.8684
-10.7004
-10.5057
-10.2826
-10.0289
-9.74297
-9.42283
-9.0669
-8.67383
-8.24244
-7.77193
-7.26182
-6.71215
-6.1232
-5.49576
-4.83127
-4.13186
-3.40024
-2.63971
-1.85406
-1.04771
-0.225362
0.607812
1.4466
2.28555
3.11941
3.94292
4.75115
5.53938
6.30362
7.04036
7.7468
8.42036
9.05918
9.66177
10.2275
10.756
11.2477
11.7034
12.124
12.5109
12.8659
13.1909
13.4878
13.7588
14.006
14.2312
14.4356
14.6207
14.7878
14.9385
15.0743
15.1965
15.3061
15.4045
15.4928
15.572
15.643
15.7067
15.7638
15.8151
15.8613
15.9029
15.9404
15.9741
16.0047
16.0324
16.0576
16.0806
16.1017
16.1209
16.1386
16.1549
16.1701
16.1841
16.1971
16.2094
16.2209
16.2319
16.2426
16.2529
16.2632
16.2743
16.2864
16.3007
16.3186
16.3425
16.3771
16.4276
16.5174
16.6289
-8.10956
-8.1069
-8.10425
-8.10642
-8.1121
-8.1188
-8.12536
-8.1312
-8.13574
-8.13879
-8.1405
-8.14116
-8.14092
-8.1401
-8.13913
-8.13882
-8.14002
-8.14325
-8.14857
-8.15568
-8.16424
-8.17513
-8.19048
-8.21096
-8.23745
-8.27055
-8.31039
-8.35685
-8.40966
-8.46845
-8.53277
-8.60209
-8.67566
-8.75273
-8.83248
-8.91425
-8.99718
-9.0807
-9.16406
-9.24687
-9.32854
-9.40886
-9.48742
-9.56418
-9.63887
-9.71158
-9.78216
-9.85081
-9.91744
-9.98231
-10.0454
-10.107
-10.1671
-10.226
-10.2837
-10.3404
-10.3963
-10.4515
-10.5059
-10.5599
-10.6134
-10.6665
-10.7191
-10.7715
-10.8233
-10.8749
-10.9259
-10.9763
-11.026
-11.0748
-11.1224
-11.1685
-11.2128
-11.2548
-11.294
-11.3297
-11.3611
-11.3875
-11.4078
-11.4213
-11.4267
-11.4228
-11.4086
-11.3825
-11.3432
-11.2891
-11.2186
-11.1292
-11.0188
-10.8853
-10.7277
-10.5441
-10.3325
-10.0913
-9.81845
-9.5122
-9.17086
-8.79297
-8.37732
-7.92294
-7.42931
-6.89619
-6.32375
-5.71263
-5.06407
-4.38003
-3.66311
-2.9164
-2.14346
-1.34853
-0.536117
0.288726
1.12092
1.95505
2.78594
3.60825
4.41701
5.20742
5.9754
6.71724
7.42996
8.11076
8.75769
9.36907
9.94424
10.4827
10.985
11.4515
11.8834
12.282
12.649
12.986
13.2952
13.5782
13.837
14.0731
14.2879
14.4827
14.6591
14.8185
14.9625
15.0922
15.209
15.3141
15.4085
15.4934
15.5698
15.6384
15.7001
15.7557
15.8058
15.851
15.8917
15.9286
15.962
15.9924
16.02
16.0453
16.0683
16.0895
16.1089
16.1268
16.1434
16.1587
16.173
16.1864
16.1989
16.2109
16.2223
16.2335
16.2446
16.2564
16.2691
16.2838
16.302
16.3256
16.3586
16.4036
16.478
16.5525
-8.10189
-8.10472
-8.10568
-8.10881
-8.11401
-8.11934
-8.12377
-8.12703
-8.12883
-8.12916
-8.12809
-8.12593
-8.12295
-8.11963
-8.11655
-8.11451
-8.11431
-8.11665
-8.12189
-8.13019
-8.14158
-8.15648
-8.1757
-8.19987
-8.2296
-8.26532
-8.30724
-8.35529
-8.40924
-8.46867
-8.53305
-8.60175
-8.67405
-8.7493
-8.82677
-8.90584
-8.98577
-9.06606
-9.14608
-9.22549
-9.3038
-9.38084
-9.45623
-9.52997
-9.60181
-9.67183
-9.73991
-9.80621
-9.87067
-9.93352
-9.99474
-10.0546
-10.1131
-10.1705
-10.2269
-10.2825
-10.3372
-10.3915
-10.4452
-10.4987
-10.5517
-10.6046
-10.6572
-10.7097
-10.762
-10.814
-10.8658
-10.9171
-10.9678
-11.0178
-11.0668
-11.1146
-11.1606
-11.2047
-11.2461
-11.2844
-11.3188
-11.3485
-11.3727
-11.3904
-11.4006
-11.4022
-11.3938
-11.3741
-11.3415
-11.2946
-11.2315
-11.1503
-11.0484
-10.9244
-10.7766
-10.6032
-10.4024
-10.1722
-9.91068
-9.61611
-9.28674
-8.92106
-8.51777
-8.07588
-7.5947
-7.07391
-6.51356
-5.9142
-5.27697
-4.60369
-3.89685
-3.15941
-2.39486
-1.60724
-0.801056
0.0188394
0.847323
1.67912
2.50894
3.33148
4.14166
4.93469
5.70633
6.45277
7.17079
7.85753
8.51083
9.12912
9.71161
10.2579
10.7684
11.2437
11.6849
12.0931
12.47
12.817
13.1359
13.4284
13.6963
13.9409
14.1638
14.3663
14.55
14.7164
14.867
15.0029
15.1255
15.236
15.3356
15.4253
15.506
15.5788
15.6444
15.7036
15.7569
15.8051
15.8487
15.8882
15.9241
15.9567
15.9863
16.0135
16.0383
16.061
16.0819
16.1011
16.1189
16.1354
16.1507
16.1651
16.1785
16.1912
16.2033
16.215
16.2268
16.2389
16.2518
16.2665
16.2842
16.3066
16.3365
16.3744
16.4315
16.4739
-8.07525
-8.08394
-8.0905
-8.09633
-8.10263
-8.10822
-8.1123
-8.11477
-8.11562
-8.11496
-8.11296
-8.10998
-8.10644
-8.10295
-8.10015
-8.09883
-8.0997
-8.10344
-8.1105
-8.12126
-8.13599
-8.15502
-8.17872
-8.20745
-8.24148
-8.281
-8.32599
-8.37636
-8.43179
-8.49191
-8.55618
-8.62408
-8.69492
-8.76814
-8.84304
-8.91911
-8.99572
-9.07246
-9.1488
-9.22448
-9.29908
-9.37247
-9.44434
-9.5147
-9.58333
-9.65034
-9.71559
-9.77926
-9.84128
-9.90187
-9.96102
-10.019
-10.0757
-10.1316
-10.1865
-10.2408
-10.2945
-10.3478
-10.4008
-10.4536
-10.5063
-10.5589
-10.6116
-10.6643
-10.7171
-10.7699
-10.8226
-10.8751
-10.9274
-10.9791
-11.0301
-11.08
-11.1286
-11.1754
-11.2198
-11.2614
-11.2994
-11.3331
-11.3617
-11.3841
-11.3995
-11.4066
-11.4042
-11.3909
-11.3652
-11.3255
-11.2703
-11.1972
-11.1043
-10.9894
-10.8515
-10.688
-10.4973
-10.2773
-10.0261
-9.74179
-9.42261
-9.067
-8.67357
-8.24126
-7.76924
-7.25713
-6.70488
-6.11301
-5.48261
-4.81541
-4.1138
-3.38063
-2.61946
-1.83418
-1.02941
-0.209839
0.619222
1.45264
2.28484
3.11062
3.92465
4.72226
5.49889
6.25084
6.97447
7.66715
8.32639
8.95099
9.53984
10.093
10.6103
11.0928
11.5411
11.9565
12.3403
12.6942
13.0196
13.3185
13.5923
13.8427
14.0709
14.2787
14.4674
14.6386
14.7937
14.934
15.0607
15.1752
15.2784
15.3716
15.4557
15.5316
15.6
15.6618
15.7177
15.7682
15.814
15.8555
15.8933
15.9275
15.9588
15.9873
16.0135
16.0374
16.0594
16.0797
16.0984
16.1158
16.1319
16.1469
16.161
16.1742
16.1868
16.1989
16.2109
16.223
16.2359
16.2501
16.2667
16.2869
16.3125
16.3424
16.384
16.4008
-8.03106
-8.04645
-8.06098
-8.07137
-8.08024
-8.08745
-8.09252
-8.09553
-8.09674
-8.09644
-8.09493
-8.09267
-8.09019
-8.08813
-8.08721
-8.08814
-8.09161
-8.0982
-8.10841
-8.1226
-8.14109
-8.16415
-8.19203
-8.22493
-8.26291
-8.30598
-8.35394
-8.40655
-8.46341
-8.52412
-8.58814
-8.65502
-8.72415
-8.79507
-8.8672
-8.94013
-9.01333
-9.08648
-9.15914
-9.2311
-9.30203
-9.37182
-9.44021
-9.50724
-9.57271
-9.63673
-9.69918
-9.76025
-9.81985
-9.87823
-9.93535
-9.99145
-10.0466
-10.1009
-10.1545
-10.2077
-10.2604
-10.3129
-10.3653
-10.4177
-10.4701
-10.5228
-10.5756
-10.6288
-10.6822
-10.7359
-10.7898
-10.8438
-10.8978
-10.9516
-11.005
-11.0576
-11.1092
-11.1593
-11.2074
-11.253
-11.2954
-11.3338
-11.3674
-11.3953
-11.4165
-11.4298
-11.4339
-11.4276
-11.4093
-11.3773
-11.3302
-11.2659
-11.1817
-11.0766
-10.9482
-10.7948
-10.614
-10.404
-10.1626
-9.88803
-9.57831
-9.23179
-8.84705
-8.42284
-7.95829
-7.45288
-6.90652
-6.31968
-5.69341
-5.02942
-4.32995
-3.59789
-2.83669
-2.05043
-1.24358
-0.421096
0.411828
1.24975
2.08713
2.91847
3.7385
4.5423
5.32535
6.08367
6.81374
7.51269
8.17833
8.80929
9.40468
9.96426
10.4881
10.9767
11.431
11.8522
12.2415
12.6006
12.931
13.2345
13.5126
13.767
13.9991
14.2105
14.4029
14.5775
14.7359
14.8794
15.0092
15.1265
15.2325
15.3283
15.4148
15.493
15.5637
15.6276
15.6854
15.7378
15.7853
15.8284
15.8676
15.9032
15.9358
15.9655
15.9927
16.0176
16.0405
16.0616
16.0811
16.0991
16.1158
16.1313
16.1458
16.1595
16.1723
16.1846
16.1966
16.2086
16.221
16.2344
16.2494
16.2668
16.2876
16.3095
16.3376
16.3338
-7.97586
-7.99836
-8.02164
-8.03739
-8.04964
-8.05934
-8.06636
-8.07098
-8.07363
-8.07478
-8.07491
-8.07454
-8.07429
-8.07483
-8.07685
-8.08102
-8.08799
-8.09827
-8.11232
-8.13046
-8.15297
-8.18001
-8.21171
-8.24814
-8.28923
-8.33487
-8.3848
-8.43874
-8.49625
-8.55696
-8.62033
-8.68597
-8.75332
-8.822
-8.89151
-8.96152
-9.03156
-9.10141
-9.17068
-9.23922
-9.30673
-9.37317
-9.43832
-9.50221
-9.56469
-9.62588
-9.68567
-9.74425
-9.80156
-9.85782
-9.913
-9.96737
-10.0209
-10.0739
-10.1264
-10.1785
-10.2304
-10.2824
-10.3343
-10.3865
-10.4389
-10.4918
-10.5451
-10.5989
-10.6533
-10.7082
-10.7636
-10.8194
-10.8755
-10.9317
-10.9878
-11.0436
-11.0986
-11.1526
-11.2049
-11.255
-11.3023
-11.346
-11.3854
-11.4193
-11.4469
-11.467
-11.4784
-11.4795
-11.469
-11.4453
-11.4067
-11.3511
-11.2765
-11.1806
-11.0621
-10.9185
-10.7475
-10.5472
-10.3154
-10.05
-9.7492
-9.4111
-9.03422
-8.61714
-8.15893
-7.65893
-7.11704
-6.53363
-5.90976
-5.24706
-4.5477
-3.8146
-3.05118
-2.26164
-1.45045
-0.622779
0.216172
1.06062
1.90502
2.74358
3.57106
4.38224
5.17272
5.93817
6.67532
7.38104
8.05355
8.69107
9.29301
9.85867
10.3885
10.8826
11.3422
11.7682
12.1622
12.5255
12.8599
13.167
13.4484
13.7059
13.941
14.1553
14.3504
14.5277
14.6886
14.8345
14.9666
15.0861
15.1943
15.2921
15.3806
15.4607
15.5331
15.5986
15.658
15.7118
15.7607
15.8051
15.8455
15.8823
15.9159
15.9466
15.9748
16.0005
16.0242
16.0459
16.066
16.0846
16.1017
16.1177
16.1325
16.1464
16.1594
16.1718
16.1836
16.1953
16.207
16.2192
16.2323
16.2465
16.2623
16.2765
16.2931
16.2726
-7.9187
-7.94723
-7.97853
-7.9995
-8.01527
-8.02782
-8.03731
-8.04413
-8.04887
-8.05217
-8.05463
-8.05684
-8.05946
-8.06314
-8.06856
-8.07632
-8.08702
-8.1011
-8.11897
-8.14089
-8.16706
-8.19758
-8.23248
-8.27171
-8.31515
-8.3626
-8.41376
-8.46836
-8.52594
-8.58618
-8.64857
-8.71276
-8.77827
-8.84476
-8.91178
-8.97906
-9.04622
-9.11305
-9.17924
-9.24467
-9.30909
-9.37249
-9.43467
-9.4957
-9.55545
-9.61404
-9.6714
-9.7277
-9.78289
-9.83721
-9.89065
-9.94343
-9.99558
-10.0474
-10.0988
-10.1502
-10.2015
-10.253
-10.3047
-10.3569
-10.4096
-10.4629
-10.517
-10.5718
-10.6274
-10.6839
-10.7411
-10.7991
-10.8577
-10.9167
-10.976
-11.0352
-11.0942
-11.1523
-11.2093
-11.2645
-11.3173
-11.3668
-11.4124
-11.4529
-11.4875
-11.5149
-11.5339
-11.5431
-11.5409
-11.5258
-11.4961
-11.4497
-11.3843
-11.2983
-11.1895
-11.0556
-10.8943
-10.7035
-10.4809
-10.2244
-9.93198
-9.60175
-9.23199
-8.82128
-8.36847
-7.87289
-7.33432
-6.75312
-6.13028
-5.46737
-4.76659
-4.03077
-3.2635
-2.46891
-1.65174
-0.817138
0.0293319
0.881864
1.73455
2.58163
3.41756
4.23717
5.03576
5.80917
6.55389
7.26702
7.94649
8.59067
9.19874
9.77022
10.3053
10.8044
11.2686
11.6988
12.0966
12.4635
12.8011
13.1111
13.3952
13.6552
13.8926
14.1092
14.3064
14.4858
14.6487
14.7965
14.9304
15.0518
15.1617
15.2612
15.3512
15.4328
15.5066
15.5735
15.6342
15.6892
15.7392
15.7847
15.8262
15.8639
15.8984
15.93
15.9589
15.9854
16.0097
16.0321
16.0527
16.0717
16.0893
16.1056
16.1207
16.1348
16.1478
16.1601
16.1717
16.1828
16.1937
16.2045
16.2154
16.2263
16.2371
16.2442
16.2508
16.217
-7.86701
-7.89971
-7.93733
-7.9627
-7.98167
-7.99693
-8.00888
-8.01803
-8.0251
-8.03079
-8.03582
-8.0408
-8.04642
-8.05326
-8.062
-8.07315
-8.08727
-8.10471
-8.12587
-8.1509
-8.18
-8.21319
-8.25044
-8.29165
-8.33662
-8.38516
-8.43693
-8.49165
-8.54889
-8.60835
-8.66956
-8.73221
-8.79586
-8.86023
-8.92492
-8.9897
-9.05423
-9.11835
-9.18179
-9.24445
-9.30614
-9.36684
-9.42641
-9.48491
-9.54224
-9.59855
-9.65375
-9.70804
-9.76139
-9.81401
-9.8659
-9.91733
-9.96829
-10.0191
-10.0697
-10.1204
-10.1713
-10.2226
-10.2743
-10.3268
-10.3799
-10.434
-10.489
-10.5451
-10.6023
-10.6606
-10.72
-10.7805
-10.8418
-10.9041
-10.9669
-11.0301
-11.0933
-11.1562
-11.2182
-11.2789
-11.3375
-11.3934
-11.4456
-11.4932
-11.5352
-11.5704
-11.5975
-11.615
-11.6215
-11.6153
-11.5949
-11.5579
-11.5023
-11.4259
-11.327
-11.2028
-11.0511
-10.8696
-10.656
-10.4081
-10.1237
-9.80084
-9.43765
-9.03262
-8.58447
-8.09246
-7.55628
-6.97627
-6.35333
-5.689
-4.9855
-4.24563
-3.47314
-2.67214
-1.84767
-1.00487
-0.149697
0.712005
1.57402
2.43056
3.27579
4.10461
4.91199
5.69397
6.4466
7.16735
7.85367
8.50437
9.11817
9.69507
10.2349
10.7384
11.2064
11.6403
12.0412
12.411
12.7511
13.0635
13.3498
13.6118
13.8511
14.0695
14.2685
14.4495
14.614
14.7634
14.8989
15.0217
15.133
15.2339
15.3253
15.4081
15.4831
15.5512
15.613
15.6691
15.7201
15.7665
15.8088
15.8474
15.8827
15.915
15.9446
15.9717
15.9967
16.0196
16.0407
16.0602
16.0782
16.0948
16.1101
16.1242
16.1373
16.1494
16.1606
16.1711
16.181
16.1902
16.1989
16.2064
16.2124
16.2128
16.2109
16.1664
-7.82579
-7.86092
-7.90255
-7.93096
-7.95231
-7.96974
-7.98377
-7.99499
-8.0042
-8.01216
-8.01961
-8.02716
-8.03549
-8.04514
-8.05674
-8.07073
-8.08763
-8.10772
-8.13136
-8.15866
-8.18978
-8.2247
-8.26338
-8.30567
-8.35137
-8.40027
-8.45202
-8.50637
-8.56288
-8.6213
-8.68116
-8.7422
-8.80402
-8.86638
-8.9289
-8.9914
-9.05357
-9.11529
-9.1763
-9.23656
-9.29587
-9.35424
-9.41154
-9.46786
-9.52312
-9.57747
-9.63085
-9.68344
-9.73522
-9.78642
-9.83705
-9.88734
-9.93735
-9.98734
-10.0374
-10.0877
-10.1383
-10.1896
-10.2416
-10.2944
-10.3483
-10.4033
-10.4595
-10.5171
-10.5761
-10.6365
-10.6984
-10.7616
-10.8261
-10.8918
-10.9585
-11.026
-11.0939
-11.1618
-11.2293
-11.2958
-11.3607
-11.4232
-11.4824
-11.5374
-11.5872
-11.6304
-11.6659
-11.6921
-11.7076
-11.7106
-11.6996
-11.6723
-11.6264
-11.5601
-11.4709
-11.3564
-11.2142
-11.0418
-10.837
-10.5974
-10.3207
-10.0047
-9.64758
-9.24759
-8.80343
-8.31422
-7.77963
-7.19992
-6.57595
-5.90923
-5.20193
-4.45703
-3.67821
-2.86991
-2.0371
-1.18533
-0.320565
0.550965
1.42307
2.28967
3.14492
3.98339
4.80007
5.59065
6.35143
7.07953
7.77266
8.42936
9.04865
9.63031
10.1744
10.6817
11.1531
11.5899
11.9935
12.3656
12.7078
13.0221
13.3101
13.5737
13.8146
14.0344
14.2348
14.4171
14.583
14.7336
14.8704
14.9945
15.107
15.2091
15.3016
15.3855
15.4617
15.5308
15.5935
15.6506
15.7025
15.7497
15.7928
15.8322
15.8682
15.9011
15.9314
15.9591
15.9846
16.0081
16.0297
16.0496
16.068
16.0848
16.1003
16.1146
16.1276
16.1395
16.1503
16.1601
16.1688
16.1765
16.1828
16.187
16.1884
16.1828
16.1736
16.1203
-7.79783
-7.83406
-7.87669
-7.9066
-7.92931
-7.94807
-7.96352
-7.97627
-7.98714
-7.99691
-8.00631
-8.01592
-8.0264
-8.03822
-8.05198
-8.06805
-8.0869
-8.10878
-8.13401
-8.16266
-8.19489
-8.23063
-8.26986
-8.31242
-8.3581
-8.40669
-8.45788
-8.51139
-8.56684
-8.62396
-8.68233
-8.74172
-8.80172
-8.86216
-8.92267
-8.9831
-9.04317
-9.10277
-9.16168
-9.21985
-9.27712
-9.3335
-9.3889
-9.4434
-9.49694
-9.54966
-9.60152
-9.65272
-9.70323
-9.75328
-9.80288
-9.85231
-9.90159
-9.95101
-10.0006
-10.0507
-10.1014
-10.1528
-10.2052
-10.2587
-10.3134
-10.3696
-10.4272
-10.4865
-10.5475
-10.6102
-10.6747
-10.7409
-10.8088
-10.8783
-10.9491
-11.0211
-11.0939
-11.1672
-11.2405
-11.3131
-11.3845
-11.454
-11.5205
-11.5831
-11.6408
-11.6924
-11.7364
-11.7715
-11.796
-11.8084
-11.8069
-11.7892
-11.7532
-11.6966
-11.6172
-11.5122
-11.3792
-11.2158
-11.0194
-10.7876
-10.5181
-10.2085
-9.85683
-9.46125
-9.02041
-8.53333
-7.99966
-7.41955
-6.79382
-6.12399
-5.41222
-4.66165
-3.87594
-3.05979
-2.21819
-1.35704
-0.482274
0.399574
1.28227
2.15934
3.02496
3.8732
4.69924
5.4983
6.26703
7.0021
7.70165
8.36382
8.9881
9.57389
10.1218
10.6322
11.1064
11.5455
11.9512
12.3251
12.669
12.9847
13.2742
13.5391
13.7812
14.0022
14.2037
14.3873
14.5542
14.706
14.8439
14.9691
15.0827
15.1858
15.2794
15.3644
15.4415
15.5116
15.5752
15.6332
15.6859
15.7339
15.7778
15.8179
15.8546
15.8882
15.919
15.9473
15.9734
15.9974
16.0195
16.0398
16.0585
16.0756
16.0913
16.1056
16.1185
16.1302
16.1406
16.1496
16.1572
16.1632
16.1672
16.1682
16.1654
16.1542
16.1387
16.0783
-7.78404
-7.81975
-7.86078
-7.89055
-7.91352
-7.93265
-7.94867
-7.96218
-7.97402
-7.98492
-7.99558
-8.00654
-8.01841
-8.03161
-8.04669
-8.06397
-8.08389
-8.10666
-8.13257
-8.16169
-8.19416
-8.2299
-8.26891
-8.31101
-8.35603
-8.40376
-8.4539
-8.50621
-8.5603
-8.61593
-8.6727
-8.73039
-8.78863
-8.84724
-8.90588
-8.96444
-9.02263
-9.08037
-9.13746
-9.19386
-9.24943
-9.30419
-9.35805
-9.41107
-9.46321
-9.5146
-9.56524
-9.6153
-9.66478
-9.71391
-9.76274
-9.81151
-9.86028
-9.90934
-9.95876
-10.0088
-10.0596
-10.1114
-10.1643
-10.2186
-10.2743
-10.3317
-10.3909
-10.4521
-10.5152
-10.5805
-10.6478
-10.7172
-10.7887
-10.8621
-10.9372
-11.014
-11.0919
-11.1707
-11.2499
-11.3289
-11.407
-11.4835
-11.5574
-11.6278
-11.6936
-11.7535
-11.8061
-11.85
-11.8835
-11.9051
-11.913
-11.9048
-11.8784
-11.8314
-11.7614
-11.6656
-11.5414
-11.3863
-11.1978
-10.9734
-10.7105
-10.4068
-10.0601
-9.6684
-9.23039
-8.74503
-8.21187
-7.63102
-7.00325
-6.33005
-5.61372
-4.85728
-4.06462
-3.24033
-2.38977
-1.51882
-0.63378
0.258799
1.15226
2.04005
2.9159
3.77393
4.6089
5.41623
6.19228
6.93398
7.63921
8.30641
8.9349
9.52436
10.0753
10.5883
11.0646
11.5056
11.9128
12.2881
12.6333
12.9501
13.2406
13.5065
13.7497
13.9717
14.1742
14.3587
14.5266
14.6794
14.8183
14.9445
15.0592
15.1633
15.2579
15.3439
15.422
15.493
15.5575
15.6163
15.6699
15.7187
15.7633
15.8041
15.8414
15.8757
15.9071
15.936
15.9626
15.9872
16.0097
16.0305
16.0495
16.0669
16.0827
16.0971
16.11
16.1214
16.1313
16.1396
16.1461
16.1504
16.1521
16.1501
16.1433
16.1273
16.1063
16.0401
-7.78309
-7.81663
-7.85423
-7.88244
-7.9046
-7.92309
-7.93875
-7.9522
-7.9642
-7.97542
-7.98654
-7.99803
-8.01047
-8.0242
-8.03974
-8.05736
-8.07749
-8.10029
-8.12606
-8.15483
-8.18678
-8.22182
-8.25995
-8.30103
-8.34489
-8.39132
-8.44007
-8.49088
-8.5434
-8.59739
-8.65249
-8.70849
-8.76503
-8.82193
-8.87889
-8.93577
-8.99233
-9.04848
-9.10402
-9.15894
-9.21308
-9.26648
-9.31905
-9.37085
-9.42183
-9.47214
-9.52176
-9.57091
-9.61959
-9.66804
-9.71626
-9.76456
-9.81297
-9.8618
-9.91112
-9.96126
-10.0123
-10.0645
-10.118
-10.1732
-10.23
-10.2888
-10.3497
-10.4128
-10.4782
-10.546
-10.6162
-10.689
-10.7641
-10.8416
-10.9212
-11.0028
-11.086
-11.1704
-11.2556
-11.341
-11.4259
-11.5095
-11.5909
-11.6691
-11.7428
-11.8109
-11.872
-11.9245
-11.9668
-11.9973
-12.0142
-12.0153
-11.9981
-11.9603
-11.8992
-11.8121
-11.6963
-11.5492
-11.3683
-11.1508
-10.8942
-10.5961
-10.254
-9.86606
-9.43075
-8.94702
-8.41428
-7.83258
-7.20268
-6.52597
-5.80482
-5.0422
-4.24223
-3.40948
-2.54964
-1.66862
-0.773114
0.130259
1.0344
1.93271
2.81842
3.68578
4.52906
5.34407
6.12665
6.87423
7.58429
8.25581
8.88768
9.48016
10.0333
10.5484
11.0262
11.4685
11.8768
12.2531
12.5991
12.9168
13.2081
13.4749
13.7188
13.9417
14.145
14.3304
14.4993
14.653
14.7929
14.9201
15.0358
15.141
15.2366
15.3235
15.4026
15.4745
15.54
15.5996
15.654
15.7037
15.749
15.7906
15.8286
15.8635
15.8956
15.9251
15.9523
15.9773
16.0004
16.0215
16.0409
16.0586
16.0746
16.089
16.1019
16.113
16.1225
16.13
16.1354
16.1381
16.1377
16.1328
16.1223
16.102
16.0763
16.0054
-7.79245
-7.8227
-7.85573
-7.88125
-7.90157
-7.91852
-7.93292
-7.94541
-7.95669
-7.96738
-7.97809
-7.98925
-8.00139
-8.01481
-8.02999
-8.04714
-8.0667
-8.08877
-8.11368
-8.14145
-8.17227
-8.20604
-8.24281
-8.28241
-8.32473
-8.36955
-8.41661
-8.46568
-8.51643
-8.56866
-8.62201
-8.67629
-8.73117
-8.78647
-8.84188
-8.89728
-8.95242
-9.0072
-9.06143
-9.11509
-9.16802
-9.22026
-9.27171
-9.32245
-9.37243
-9.4218
-9.47054
-9.51886
-9.56678
-9.61456
-9.66222
-9.71004
-9.75809
-9.8067
-9.85593
-9.90613
-9.95739
-10.0101
-10.0643
-10.1203
-10.1783
-10.2385
-10.3011
-10.3662
-10.4339
-10.5043
-10.5776
-10.6538
-10.7327
-10.8143
-10.8985
-10.985
-11.0736
-11.1638
-11.2552
-11.3471
-11.4389
-11.5297
-11.6186
-11.7046
-11.7862
-11.8626
-11.9319
-11.9929
-12.0439
-12.0831
-12.109
-12.119
-12.1107
-12.0818
-12.0293
-11.9505
-11.8427
-11.7033
-11.5296
-11.3187
-11.0681
-10.7751
-10.4373
-10.0528
-9.61978
-9.13721
-8.6044
-8.02132
-7.38863
-6.70786
-5.98128
-5.21212
-4.40441
-3.5631
-2.69381
-1.80285
-0.896946
0.0168433
0.931315
1.83942
2.73436
3.60997
4.46075
5.28217
6.07037
6.82254
7.53652
8.2111
8.84556
9.43999
9.99478
10.511
10.9898
11.4328
11.8418
12.2187
12.5652
12.8836
13.1755
13.4429
13.6876
13.9111
14.1153
14.3015
14.4713
14.626
14.7668
14.8951
15.0118
15.118
15.2147
15.3027
15.3828
15.4557
15.5221
15.5827
15.638
15.6885
15.7347
15.777
15.8158
15.8514
15.8842
15.9143
15.9421
15.9677
15.9913
16.0129
16.0326
16.0506
16.0668
16.0813
16.0941
16.1051
16.114
16.1209
16.1252
16.1264
16.1239
16.1164
16.1026
16.0784
16.0485
15.9739
-7.80923
-7.83554
-7.86339
-7.88542
-7.90307
-7.91765
-7.92998
-7.94068
-7.95042
-7.95971
-7.96915
-7.9791
-7.99009
-8.00235
-8.01637
-8.0323
-8.05058
-8.07129
-8.09475
-8.12099
-8.15017
-8.18222
-8.21719
-8.25492
-8.2953
-8.33812
-8.38317
-8.43023
-8.47902
-8.52934
-8.58088
-8.63344
-8.6867
-8.74045
-8.79442
-8.84844
-8.9023
-8.95585
-9.00895
-9.0615
-9.1134
-9.16463
-9.21512
-9.26492
-9.31401
-9.36249
-9.41038
-9.45786
-9.50501
-9.55204
-9.59908
-9.64637
-9.69404
-9.74237
-9.79151
-9.84175
-9.89329
-9.94638
-10.0012
-10.0581
-10.1172
-10.1788
-10.243
-10.3101
-10.3802
-10.4534
-10.5299
-10.6095
-10.6923
-10.7783
-10.8672
-10.9588
-11.0529
-11.149
-11.2468
-11.3453
-11.4441
-11.5422
-11.6388
-11.7324
-11.8223
-11.9066
-11.9843
-12.0536
-12.1129
-12.1608
-12.1952
-12.2138
-12.2142
-12.1935
-12.1491
-12.0781
-11.9777
-11.8453
-11.6781
-11.4732
-11.2278
-10.9392
-10.6049
-10.2229
-9.79143
-9.30921
-8.77558
-8.19046
-7.5545
-6.8693
-6.13712
-5.36136
-4.54603
-3.69632
-2.81789
-1.9174
-1.00172
-0.0783636
0.845411
1.76201
2.66481
3.54716
4.40399
5.23026
6.02265
6.77793
7.49454
8.17088
8.80684
9.40214
9.95772
10.4743
10.9535
11.3967
11.806
12.183
12.5299
12.8487
13.1411
13.4091
13.6545
13.8788
14.0838
14.2709
14.4416
14.5974
14.7393
14.8687
14.9865
15.0939
15.1918
15.2809
15.3621
15.4361
15.5036
15.5652
15.6214
15.6729
15.72
15.7632
15.8028
15.8392
15.8727
15.9036
15.932
15.9582
15.9823
16.0044
16.0245
16.0428
16.0593
16.0739
16.0867
16.0975
16.106
16.1122
16.1155
16.1153
16.1109
16.1009
16.0842
16.0566
16.0231
15.9455
-7.83193
-7.85405
-7.8766
-7.89463
-7.90885
-7.92025
-7.92966
-7.93769
-7.94498
-7.95198
-7.95926
-7.96712
-7.97607
-7.9863
-7.99829
-8.01217
-8.02837
-8.04696
-8.06825
-8.09223
-8.1191
-8.14879
-8.18135
-8.21665
-8.25462
-8.29507
-8.33783
-8.38269
-8.42939
-8.47774
-8.52741
-8.57823
-8.62985
-8.6821
-8.73466
-8.78739
-8.84004
-8.89246
-8.94449
-8.99602
-9.04694
-9.09722
-9.14677
-9.19565
-9.24381
-9.2914
-9.3384
-9.38506
-9.43136
-9.47767
-9.52399
-9.57074
-9.61789
-9.66595
-9.71487
-9.7652
-9.81689
-9.87049
-9.92593
-9.98378
-10.044
-10.107
-10.173
-10.2422
-10.3148
-10.3909
-10.4705
-10.5537
-10.6405
-10.7309
-10.8247
-10.9216
-11.0214
-11.1237
-11.2277
-11.333
-11.4389
-11.5445
-11.6486
-11.7501
-11.8477
-11.9401
-12.0258
-12.1031
-12.1706
-12.2266
-12.2691
-12.2957
-12.3039
-12.2908
-12.2537
-12.1896
-12.0959
-11.9697
-11.8081
-11.6082
-11.367
-11.0818
-10.7501
-10.3698
-9.93912
-9.45668
-8.92179
-8.33437
-7.69514
-7.00557
-6.26809
-5.48599
-4.66355
-3.80594
-2.91924
-2.01021
-1.08615
-0.154687
0.776509
1.69989
2.60844
3.49581
4.35657
5.18607
5.98072
6.73771
7.4553
8.1323
8.76844
9.36381
9.91919
10.4356
10.9146
11.3577
11.7668
12.1439
12.491
12.8101
13.1031
13.3717
13.6178
13.843
14.0489
14.2371
14.409
14.566
14.7092
14.8399
14.9591
15.0678
15.1669
15.2574
15.3398
15.4151
15.4838
15.5466
15.6039
15.6565
15.7046
15.7488
15.7894
15.8267
15.861
15.8926
15.9218
15.9486
15.9733
15.9959
16.0165
16.0352
16.052
16.0668
16.0796
16.0902
16.0984
16.1039
16.1063
16.1048