/*--------------------------------*- C++ -*----------------------------------*\
  =========                 |
  \\      /  F ield         | OpenFOAM: The Open Source CFD Toolbox
   \\    /   O peration     | Website:  https://openfoam.org
    \\  /    A nd           | Version:  8
     \\/     M anipulation  |
\*---------------------------------------------------------------------------*/
FoamFile
{
    version     2.0;
    format      ascii;
    class       surfaceScalarField;
    location    "85";
    object      phi;
}
// * * * * * * * * * * * * * * * * * * * * * * * * * * * * * * * * * * * * * //

dimensions      [0 3 -1 0 0 0 0];

internalField   nonuniform List<scalar> 
24170
(
3.12886e-06
5.95429e-08
3.04655e-06
8.2315e-08
2.97335e-06
7.32e-08
2.90455e-06
6.87951e-08
2.84002e-06
6.4535e-08
2.78242e-06
5.75946e-08
2.73277e-06
4.96468e-08
2.69042e-06
4.23521e-08
2.65425e-06
3.61644e-08
2.62319e-06
3.10548e-08
2.59623e-06
2.69668e-08
2.57243e-06
2.37963e-08
2.55103e-06
2.13948e-08
2.53123e-06
1.98072e-08
2.51231e-06
1.89193e-08
2.49191e-06
2.04127e-08
2.46978e-06
2.21404e-08
4.49171e-08
2.42486e-06
3.45314e-06
2.36574e-08
3.457e-06
7.84577e-08
3.45048e-06
7.9716e-08
3.43896e-06
8.03224e-08
3.42408e-06
7.94179e-08
3.40669e-06
7.49777e-08
3.38728e-06
6.90561e-08
3.36652e-06
6.3119e-08
3.34506e-06
5.76166e-08
3.3235e-06
5.26166e-08
3.30229e-06
4.81765e-08
3.28169e-06
4.44015e-08
3.26185e-06
4.12359e-08
3.24273e-06
3.89229e-08
3.22445e-06
3.72119e-08
3.20666e-06
3.82117e-08
3.18997e-06
3.88411e-08
5.39025e-08
3.18099e-06
3.66825e-06
1.79267e-08
3.67914e-06
6.75653e-08
3.68531e-06
7.35404e-08
3.68927e-06
7.63654e-08
3.69075e-06
7.79344e-08
3.68963e-06
7.60916e-08
3.68631e-06
7.23824e-08
3.68122e-06
6.81995e-08
3.67477e-06
6.40692e-08
3.66725e-06
6.01334e-08
3.65892e-06
5.64994e-08
3.65001e-06
5.33126e-08
3.64065e-06
5.05946e-08
3.63095e-06
4.86201e-08
3.62086e-06
4.73094e-08
3.61093e-06
4.81504e-08
3.6001e-06
4.96723e-08
5.78751e-08
3.59612e-06
3.92586e-06
1.74605e-08
3.93586e-06
5.75635e-08
3.94244e-06
6.69624e-08
3.94788e-06
7.09254e-08
3.95216e-06
7.36532e-08
3.95494e-06
7.33135e-08
3.9564e-06
7.09237e-08
3.95677e-06
6.78253e-08
3.95624e-06
6.45995e-08
3.95494e-06
6.14356e-08
3.95298e-06
5.84563e-08
3.95047e-06
5.58244e-08
3.94746e-06
5.36024e-08
3.94405e-06
5.20374e-08
3.94019e-06
5.1167e-08
3.93647e-06
5.18793e-08
3.93262e-06
5.35293e-08
5.80441e-08
3.93246e-06
4.20817e-06
1.64148e-08
4.21592e-06
4.98169e-08
4.22154e-06
6.13392e-08
4.22653e-06
6.59308e-08
4.23113e-06
6.90483e-08
4.23492e-06
6.95245e-08
4.23786e-06
6.79797e-08
4.24006e-06
6.56212e-08
4.24162e-06
6.30384e-08
4.24262e-06
6.04407e-08
4.24311e-06
5.79592e-08
4.24318e-06
5.57555e-08
4.24286e-06
5.39204e-08
4.24224e-06
5.2653e-08
4.24138e-06
5.20344e-08
4.24072e-06
5.25374e-08
4.24043e-06
5.38235e-08
5.62595e-08
4.24221e-06
4.51067e-06
1.48362e-08
4.51681e-06
4.36723e-08
4.52198e-06
5.61741e-08
4.52667e-06
6.12349e-08
4.53123e-06
6.44912e-08
4.53528e-06
6.54712e-08
4.53872e-06
6.45443e-08
4.54159e-06
6.2747e-08
4.54397e-06
6.06588e-08
4.54591e-06
5.85017e-08
4.54745e-06
5.64159e-08
4.54866e-06
5.45522e-08
4.54956e-06
5.30147e-08
4.55026e-06
5.1952e-08
4.55086e-06
5.14402e-08
4.55171e-06
5.16938e-08
4.55305e-06
5.24773e-08
5.36019e-08
4.55571e-06
4.83428e-06
1.32721e-08
4.83955e-06
3.84004e-08
4.84459e-06
5.11342e-08
4.84917e-06
5.66543e-08
4.85364e-06
6.0019e-08
4.85775e-06
6.13554e-08
4.86138e-06
6.09171e-08
4.86455e-06
5.95752e-08
4.86731e-06
5.78899e-08
4.86972e-06
5.60944e-08
4.8718e-06
5.43333e-08
4.8736e-06
5.27457e-08
4.87518e-06
5.14344e-08
4.87663e-06
5.05048e-08
4.87806e-06
5.0007e-08
4.87975e-06
5.00044e-08
4.88193e-06
5.02983e-08
5.05536e-08
4.88498e-06
5.18101e-06
1.1846e-08
5.18568e-06
3.37323e-08
5.19059e-06
4.62214e-08
5.19511e-06
5.21314e-08
5.19953e-06
5.56017e-08
5.20368e-06
5.7205e-08
5.20742e-06
5.71729e-08
5.21077e-06
5.62226e-08
5.21378e-06
5.48838e-08
5.21648e-06
5.33979e-08
5.2189e-06
5.19122e-08
5.22109e-06
5.05522e-08
5.22311e-06
4.94122e-08
5.22505e-06
4.85626e-08
5.22704e-06
4.80248e-08
5.22926e-06
4.77828e-08
5.23189e-06
4.76627e-08
4.73422e-08
5.2351e-06
5.55266e-06
1.0525e-08
5.55681e-06
2.95784e-08
5.56153e-06
4.15009e-08
5.56601e-06
4.76495e-08
5.5704e-06
5.12051e-08
5.5746e-06
5.3008e-08
5.57845e-06
5.33178e-08
5.58195e-06
5.27151e-08
5.58515e-06
5.16846e-08
5.58807e-06
5.04737e-08
5.59076e-06
4.92268e-08
5.59325e-06
4.80587e-08
5.59561e-06
4.70493e-08
5.59793e-06
4.62451e-08
5.60031e-06
4.56453e-08
5.60289e-06
4.51987e-08
5.60579e-06
4.476e-08
4.40644e-08
5.60906e-06
5.95101e-06
9.29173e-09
5.95471e-06
2.5882e-08
5.95919e-06
3.7017e-08
5.96362e-06
4.32229e-08
5.968e-06
4.68261e-08
5.97224e-06
4.87705e-08
5.97619e-06
4.93603e-08
5.97984e-06
4.90634e-08
5.98322e-06
4.83091e-08
5.98635e-06
4.73431e-08
5.98927e-06
4.63073e-08
5.99202e-06
4.53027e-08
5.99468e-06
4.4397e-08
5.9973e-06
4.36198e-08
5.99999e-06
4.29579e-08
6.00283e-06
4.23526e-08
6.0059e-06
4.1688e-08
4.07706e-08
6.0092e-06
6.37796e-06
8.14782e-09
6.38127e-06
2.25673e-08
6.38551e-06
3.27727e-08
6.38987e-06
3.886e-08
6.39423e-06
4.24626e-08
6.39851e-06
4.44955e-08
6.40256e-06
4.53034e-08
6.40636e-06
4.52673e-08
6.40991e-06
4.47576e-08
6.41324e-06
4.40099e-08
6.41638e-06
4.31602e-08
6.41939e-06
4.22988e-08
6.4223e-06
4.14805e-08
6.4252e-06
4.07255e-08
6.42814e-06
4.00179e-08
6.43118e-06
3.93031e-08
6.43437e-06
3.85002e-08
3.74648e-08
6.43767e-06
5.74174e-06
7.24401e-09
5.74428e-06
2.00261e-08
5.74768e-06
2.93727e-08
5.7513e-06
3.52328e-08
5.75498e-06
3.87896e-08
5.75861e-06
4.08608e-08
5.76211e-06
4.1804e-08
5.76542e-06
4.19507e-08
5.76856e-06
4.16224e-08
5.77152e-06
4.10382e-08
5.77435e-06
4.03291e-08
5.77708e-06
3.95751e-08
5.77973e-06
3.88242e-08
5.78236e-06
3.80922e-08
5.78501e-06
3.73631e-08
5.78772e-06
3.65952e-08
5.79049e-06
3.57264e-08
3.46578e-08
5.79329e-06
6.99911e-06
6.28746e-09
7.0018e-06
1.73325e-08
7.00549e-06
2.56797e-08
7.00955e-06
3.11707e-08
7.01374e-06
3.46048e-08
7.01793e-06
3.66693e-08
7.02201e-06
3.77169e-08
7.02593e-06
3.80305e-08
7.02967e-06
3.78787e-08
7.03325e-06
3.74594e-08
7.03669e-06
3.68919e-08
7.04001e-06
3.62507e-08
7.04325e-06
3.5574e-08
7.04647e-06
3.48767e-08
7.04968e-06
3.41484e-08
7.05291e-06
3.33592e-08
7.05616e-06
3.2474e-08
3.14149e-08
7.05939e-06
8.53185e-06
5.28222e-09
8.53467e-06
1.45139e-08
8.53863e-06
2.1717e-08
8.54312e-06
2.66736e-08
8.54784e-06
2.98802e-08
8.55264e-06
3.18712e-08
8.55738e-06
3.29726e-08
8.56199e-06
3.34193e-08
8.56644e-06
3.34284e-08
8.57073e-06
3.31646e-08
8.57488e-06
3.27404e-08
8.57891e-06
3.22147e-08
8.58286e-06
3.1626e-08
8.58674e-06
3.09842e-08
8.5906e-06
3.02898e-08
8.59442e-06
2.9525e-08
8.59822e-06
2.86753e-08
2.76831e-08
8.60194e-06
1.04003e-05
4.23645e-09
1.04032e-05
1.1585e-08
1.04074e-05
1.75e-08
1.04123e-05
2.17408e-08
1.04176e-05
2.45847e-08
1.04231e-05
2.64134e-08
1.04286e-05
2.74946e-08
1.04339e-05
2.80234e-08
1.04392e-05
2.81602e-08
1.04443e-05
2.80403e-08
1.04493e-05
2.77507e-08
1.04542e-05
2.73513e-08
1.04589e-05
2.68662e-08
1.04636e-05
2.63142e-08
1.04682e-05
2.5695e-08
1.04727e-05
2.50094e-08
1.04771e-05
2.4253e-08
2.33851e-08
1.04814e-05
1.26779e-05
3.14902e-09
1.26809e-05
8.53728e-09
1.26854e-05
1.30167e-08
1.26908e-05
1.63502e-08
1.26967e-05
1.86714e-08
1.27029e-05
2.02196e-08
1.27092e-05
2.11912e-08
1.27155e-05
2.17302e-08
1.27217e-05
2.19528e-08
1.27278e-05
2.19504e-08
1.27337e-05
2.17944e-08
1.27395e-05
2.15266e-08
1.27452e-05
2.11742e-08
1.27508e-05
2.07474e-08
1.27562e-05
2.02571e-08
1.27615e-05
1.9705e-08
1.27667e-05
1.91021e-08
1.84097e-08
1.27716e-05
1.54543e-05
2.00561e-09
1.54575e-05
5.31459e-09
1.54624e-05
8.19437e-09
1.54683e-05
1.04211e-08
1.54749e-05
1.20371e-08
1.5482e-05
1.31669e-08
1.54892e-05
1.39227e-08
1.54966e-05
1.43929e-08
1.55039e-05
1.46467e-08
1.55111e-05
1.47381e-08
1.55182e-05
1.47089e-08
1.55251e-05
1.45893e-08
1.55319e-05
1.43969e-08
1.55385e-05
1.41421e-08
1.55449e-05
1.38321e-08
1.55511e-05
1.34738e-08
1.55571e-05
1.30785e-08
1.26153e-08
1.55629e-05
1.88389e-05
7.57922e-10
1.88424e-05
1.78379e-09
1.88478e-05
2.84098e-09
1.88544e-05
3.73489e-09
1.8862e-05
4.44909e-09
1.88702e-05
5.01082e-09
1.88787e-05
5.44353e-09
1.88873e-05
5.76929e-09
1.88959e-05
6.00811e-09
1.89045e-05
6.1742e-09
1.89129e-05
6.27838e-09
1.89212e-05
6.3298e-09
1.89292e-05
6.33544e-09
1.89371e-05
6.29912e-09
1.89447e-05
6.22458e-09
1.8952e-05
6.11537e-09
1.89591e-05
5.98083e-09
5.79183e-09
1.89659e-05
2.29648e-05
-7.08663e-10
2.29689e-05
-2.35714e-09
2.29753e-05
-3.48554e-09
2.29832e-05
-4.21911e-09
2.29923e-05
-4.61231e-09
2.30021e-05
-4.75554e-09
2.30122e-05
-4.72964e-09
2.30226e-05
-4.59418e-09
2.3033e-05
-4.3797e-09
2.30433e-05
-4.12419e-09
2.30534e-05
-3.84845e-09
2.30633e-05
-3.57752e-09
2.30729e-05
-3.31513e-09
2.30823e-05
-3.07261e-09
2.30914e-05
-2.84628e-09
2.31001e-05
-2.64495e-09
2.31086e-05
-2.45936e-09
-2.32255e-09
2.31167e-05
1.68119e-05
-1.87219e-09
1.68151e-05
-5.59564e-09
1.68201e-05
-8.43911e-09
1.68262e-05
-1.03977e-08
1.68332e-05
-1.15673e-08
1.68406e-05
-1.21693e-08
1.68483e-05
-1.23982e-08
1.6856e-05
-1.23493e-08
1.68638e-05
-1.21134e-08
1.68714e-05
-1.17467e-08
1.68789e-05
-1.13174e-08
1.68861e-05
-1.08495e-08
1.68932e-05
-1.03794e-08
1.69e-05
-9.90553e-09
1.69066e-05
-9.45087e-09
1.6913e-05
-9.00776e-09
1.69191e-05
-8.59075e-09
-8.21102e-09
1.6925e-05
1.46357e-05
-2.99164e-09
1.46388e-05
-8.75233e-09
1.46437e-05
-1.32793e-08
1.46496e-05
-1.6328e-08
1.46562e-05
-1.80979e-08
1.4663e-05
-1.90397e-08
1.467e-05
-1.94175e-08
1.46771e-05
-1.93772e-08
1.4684e-05
-1.90413e-08
1.46908e-05
-1.8532e-08
1.46974e-05
-1.79182e-08
1.47038e-05
-1.72557e-08
1.471e-05
-1.65685e-08
1.4716e-05
-1.58823e-08
1.47217e-05
-1.5204e-08
1.47272e-05
-1.45489e-08
1.47326e-05
-1.3914e-08
-1.33272e-08
1.47377e-05
1.27412e-05
-4.0417e-09
1.27444e-05
-1.19477e-08
1.27493e-05
-1.82328e-08
1.27552e-05
-2.21536e-08
1.27614e-05
-2.43134e-08
1.27678e-05
-2.54855e-08
1.27743e-05
-2.59312e-08
1.27808e-05
-2.58017e-08
1.2787e-05
-2.5304e-08
1.27931e-05
-2.46007e-08
1.2799e-05
-2.37837e-08
1.28046e-05
-2.291e-08
1.28101e-05
-2.20103e-08
1.28153e-05
-2.11156e-08
1.28203e-05
-2.02321e-08
1.28252e-05
-1.93805e-08
1.28298e-05
-1.85539e-08
-1.77777e-08
1.28342e-05
1.10918e-05
-4.92189e-09
1.10951e-05
-1.52334e-08
1.11003e-05
-2.34772e-08
1.11061e-05
-2.79497e-08
1.11121e-05
-3.02684e-08
1.11182e-05
-3.15637e-08
1.11242e-05
-3.19709e-08
1.11301e-05
-3.16705e-08
1.11357e-05
-3.09622e-08
1.11412e-05
-3.00423e-08
1.11464e-05
-2.9007e-08
1.11514e-05
-2.79113e-08
1.11562e-05
-2.68032e-08
1.11608e-05
-2.57011e-08
1.11652e-05
-2.46322e-08
1.11694e-05
-2.35935e-08
1.11734e-05
-2.25997e-08
-2.16523e-08
1.11773e-05
9.65585e-06
-5.55683e-09
9.65934e-06
-1.87224e-08
9.66479e-06
-2.89307e-08
9.67044e-06
-3.3605e-08
9.6762e-06
-3.60286e-08
9.682e-06
-3.73664e-08
9.68761e-06
-3.75855e-08
9.69296e-06
-3.70181e-08
9.69806e-06
-3.6063e-08
9.70293e-06
-3.49134e-08
9.70758e-06
-3.36519e-08
9.71201e-06
-3.23376e-08
9.71623e-06
-3.1017e-08
9.72024e-06
-2.97202e-08
9.72408e-06
-2.8461e-08
9.72773e-06
-2.72507e-08
9.73122e-06
-2.60901e-08
-2.49823e-08
9.73454e-06
8.40533e-06
-5.53465e-09
8.40972e-06
-2.31172e-08
8.41506e-06
-3.42678e-08
8.42022e-06
-3.87724e-08
8.42576e-06
-4.15737e-08
8.43139e-06
-4.29906e-08
8.43672e-06
-4.29232e-08
8.44171e-06
-4.20089e-08
8.44639e-06
-4.07471e-08
8.45079e-06
-3.93149e-08
8.45492e-06
-3.77831e-08
8.4588e-06
-3.62156e-08
8.46245e-06
-3.46601e-08
8.46587e-06
-3.31452e-08
8.46909e-06
-3.16848e-08
8.47213e-06
-3.0288e-08
8.475e-06
-2.89551e-08
-2.7693e-08
8.4777e-06
7.31453e-06
-2.77928e-09
7.32127e-06
-2.98589e-08
7.32691e-06
-3.99114e-08
7.33198e-06
-4.38463e-08
7.33753e-06
-4.71252e-08
7.34304e-06
-4.84998e-08
7.34813e-06
-4.80197e-08
7.35279e-06
-4.66697e-08
7.35704e-06
-4.50004e-08
7.36089e-06
-4.31695e-08
7.36437e-06
-4.12633e-08
7.3675e-06
-3.93482e-08
7.37032e-06
-3.7486e-08
7.37287e-06
-3.56943e-08
7.37517e-06
-3.3988e-08
7.37725e-06
-3.23726e-08
7.37915e-06
-3.08475e-08
-2.94113e-08
7.38087e-06
6.36246e-06
4.82812e-09
6.37196e-06
-3.93666e-08
6.37946e-06
-4.74141e-08
6.38621e-06
-5.05879e-08
6.39262e-06
-5.35411e-08
6.39809e-06
-5.39722e-08
6.40256e-06
-5.24994e-08
6.40625e-06
-5.03602e-08
6.40928e-06
-4.80341e-08
6.41172e-06
-4.5612e-08
6.41363e-06
-4.31683e-08
6.41506e-06
-4.07913e-08
6.4161e-06
-3.85248e-08
6.41679e-06
-3.63891e-08
6.41719e-06
-3.43946e-08
6.41736e-06
-3.25396e-08
6.41734e-06
-3.0828e-08
-2.92334e-08
6.41717e-06
5.54131e-06
8.98109e-09
5.55037e-06
-4.84333e-08
5.55844e-06
-5.54847e-08
5.56623e-06
-5.83785e-08
5.5728e-06
-6.01096e-08
5.57725e-06
-5.84283e-08
5.57964e-06
-5.48931e-08
5.58037e-06
-5.10925e-08
5.5798e-06
-4.7475e-08
5.57823e-06
-4.4038e-08
5.57587e-06
-4.08083e-08
5.5729e-06
-3.78291e-08
5.56948e-06
-3.51072e-08
5.56572e-06
-3.26329e-08
5.56172e-06
-3.04008e-08
5.55757e-06
-2.83988e-08
5.55337e-06
-2.66225e-08
-2.50296e-08
5.54917e-06
4.86019e-06
-2.36058e-08
4.8654e-06
-5.36445e-08
4.86528e-06
-5.53694e-08
4.86227e-06
-5.53694e-08
4.85717e-06
-5.50154e-08
4.84976e-06
-5.10262e-08
4.84019e-06
-4.53217e-08
4.82893e-06
-3.98423e-08
4.81651e-06
-3.5061e-08
4.80342e-06
-3.0943e-08
4.79002e-06
-2.74149e-08
4.77661e-06
-2.44182e-08
4.76336e-06
-2.18674e-08
4.75042e-06
-1.96949e-08
4.73786e-06
-1.78511e-08
4.72576e-06
-1.63055e-08
4.71424e-06
-1.50957e-08
-1.47412e-08
4.70395e-06
4.17907e-06
4.12543e-06
4.07006e-06
4.01469e-06
3.95967e-06
3.90864e-06
3.86332e-06
3.82348e-06
3.78842e-06
3.75747e-06
3.73006e-06
3.70564e-06
3.68377e-06
3.66407e-06
3.64622e-06
3.62992e-06
3.61482e-06
3.60008e-06
2.61873e-08
-2.64292e-08
6.65152e-08
-4.054e-08
1.07758e-07
-4.14353e-08
1.46037e-07
-3.83462e-08
1.78924e-07
-3.30406e-08
2.05301e-07
-2.64266e-08
2.2466e-07
-1.95224e-08
2.38357e-07
-1.38014e-08
2.49101e-07
-1.09974e-08
2.55668e-07
-6.86447e-09
2.45761e-07
9.62769e-09
2.27379e-07
1.81811e-08
2.05995e-07
2.12277e-08
1.82162e-07
2.37289e-08
1.57701e-07
2.42825e-08
1.33724e-07
2.38859e-08
1.06184e-07
2.71976e-08
7.6128e-08
2.99539e-08
4.25379e-08
3.31581e-08
4.24935e-09
3.81467e-08
-4.20514e-08
4.58779e-08
-9.72083e-08
5.50911e-08
-1.60181e-07
6.26776e-08
-2.28516e-07
6.83078e-08
-3.01885e-07
7.31276e-08
-3.79863e-07
7.79416e-08
-4.62886e-07
8.27779e-08
-5.50298e-07
8.73519e-08
-6.41811e-07
9.12779e-08
-7.36237e-07
9.43381e-08
-8.32887e-07
9.64039e-08
-9.30473e-07
9.74669e-08
-1.02824e-06
9.75319e-08
-1.1251e-06
9.67081e-08
-1.22044e-06
9.51122e-08
-1.31352e-06
9.29117e-08
-1.40397e-06
9.02382e-08
-1.49137e-06
8.72533e-08
-1.57562e-06
8.40714e-08
-1.65656e-06
8.08224e-08
-1.7343e-06
7.75835e-08
-1.80885e-06
7.44436e-08
-1.88041e-06
7.14424e-08
-1.94915e-06
6.86341e-08
-2.01529e-06
6.60301e-08
-2.07906e-06
6.36578e-08
-2.14067e-06
6.15108e-08
-2.20038e-06
5.95995e-08
-2.25839e-06
5.79075e-08
-2.31494e-06
5.6436e-08
-2.37019e-06
5.51645e-08
-2.4244e-06
5.40871e-08
-2.47769e-06
5.31854e-08
-2.53028e-06
5.2454e-08
-2.58226e-06
5.18737e-08
-2.63386e-06
5.14358e-08
-2.6851e-06
5.11256e-08
-2.73622e-06
5.09365e-08
-2.7872e-06
5.08543e-08
-2.83826e-06
5.08669e-08
-2.88936e-06
5.09644e-08
-2.9407e-06
5.11359e-08
-2.99218e-06
5.13732e-08
-3.04404e-06
5.16566e-08
-3.09611e-06
5.1981e-08
-3.14863e-06
5.23209e-08
-3.20137e-06
5.26769e-08
-3.25457e-06
5.30189e-08
-3.30797e-06
5.3351e-08
-3.36175e-06
5.36388e-08
-3.41565e-06
5.38904e-08
-3.46984e-06
5.40674e-08
-3.52401e-06
5.41765e-08
-3.57831e-06
5.41723e-08
-3.63239e-06
5.40672e-08
-3.68637e-06
5.38104e-08
-3.73982e-06
5.34171e-08
-3.79281e-06
5.28405e-08
-3.84489e-06
5.20908e-08
-3.89609e-06
5.11031e-08
-3.94592e-06
4.98894e-08
-3.99436e-06
4.83878e-08
-4.04083e-06
4.66018e-08
-4.08531e-06
4.4449e-08
-4.1271e-06
4.19474e-08
-4.16603e-06
3.90264e-08
-4.20142e-06
3.57107e-08
-4.23291e-06
3.19445e-08
-4.25999e-06
2.76688e-08
-4.282e-06
2.29088e-08
-4.2986e-06
1.74817e-08
-4.3092e-06
1.15206e-08
-4.31353e-06
5.19844e-09
-4.31168e-06
-9.49812e-10
-4.30398e-06
-6.85778e-09
-4.29026e-06
-1.28796e-08
-4.27036e-06
-1.91323e-08
-4.24398e-06
-2.56487e-08
-4.21103e-06
-3.23374e-08
-4.17113e-06
-3.93681e-08
-4.12422e-06
-4.65416e-08
-4.07004e-06
-5.3967e-08
-4.00841e-06
-6.16011e-08
-3.9394e-06
-6.91669e-08
-3.86292e-06
-7.67217e-08
-3.77898e-06
-8.42541e-08
-3.68744e-06
-9.17901e-08
-3.58858e-06
-9.90863e-08
-3.48253e-06
-1.06128e-07
-3.36961e-06
-1.12923e-07
-3.2501e-06
-1.19353e-07
-3.12444e-06
-1.25417e-07
-2.99303e-06
-1.3102e-07
-2.85641e-06
-1.36147e-07
-2.71508e-06
-1.40723e-07
-2.56965e-06
-1.4473e-07
-2.42071e-06
-1.4813e-07
-2.26895e-06
-1.50919e-07
-2.11501e-06
-1.5308e-07
-1.95955e-06
-1.54576e-07
-1.8032e-06
-1.55402e-07
-1.64661e-06
-1.55548e-07
-1.49043e-06
-1.55083e-07
-1.33525e-06
-1.54032e-07
-1.18166e-06
-1.52511e-07
-1.03008e-06
-1.50531e-07
-8.80998e-07
-1.48199e-07
-7.34691e-07
-1.45504e-07
-5.91486e-07
-1.42614e-07
-4.51645e-07
-1.39359e-07
-3.15361e-07
-1.36031e-07
-1.82033e-07
-1.332e-07
-5.10487e-08
-1.31086e-07
7.82602e-08
-1.29514e-07
2.04347e-07
-1.26488e-07
3.25411e-07
-1.21519e-07
4.40909e-07
-1.16105e-07
5.5083e-07
-1.10588e-07
6.55173e-07
-1.0517e-07
7.54183e-07
-9.98801e-08
8.4807e-07
-9.47851e-08
9.37106e-07
-8.98727e-08
1.0215e-06
-8.51643e-08
1.10145e-06
-8.06591e-08
1.17715e-06
-7.63641e-08
1.24882e-06
-7.22815e-08
1.31664e-06
-6.83823e-08
1.38079e-06
-6.4669e-08
1.44146e-06
-6.11399e-08
1.49883e-06
-5.77967e-08
1.55306e-06
-5.46208e-08
1.6043e-06
-5.16005e-08
1.65271e-06
-4.87415e-08
1.69845e-06
-4.6043e-08
1.74166e-06
-4.34967e-08
1.78251e-06
-4.1105e-08
1.82112e-06
-3.88646e-08
1.85765e-06
-3.67529e-08
1.8922e-06
-3.47721e-08
1.92492e-06
-3.29165e-08
1.95592e-06
-3.11867e-08
1.98531e-06
-2.95713e-08
2.01321e-06
-2.8064e-08
2.03971e-06
-2.66571e-08
2.06491e-06
-2.53438e-08
2.08888e-06
-2.41147e-08
2.11172e-06
-2.29671e-08
2.13346e-06
-2.18625e-08
2.15413e-06
-2.07898e-08
2.17374e-06
-1.97209e-08
2.19223e-06
-1.86009e-08
2.20949e-06
-1.73516e-08
2.22528e-06
-1.58881e-08
2.2392e-06
-1.40089e-08
2.25044e-06
-1.13309e-08
2.25746e-06
-7.10099e-09
2.25546e-06
1.91975e-09
2.23584e-06
1.95479e-08
2.1781e-06
5.76507e-08
1.22352e-07
2.05568e-06
4.30209e-08
-6.96656e-08
8.31039e-08
-8.07802e-08
1.13918e-07
-7.23777e-08
1.37318e-07
-6.18062e-08
1.54495e-07
-5.0307e-08
1.66221e-07
-3.82086e-08
1.72543e-07
-2.59413e-08
1.72473e-07
-1.38261e-08
1.63196e-07
-1.84773e-09
1.45661e-07
1.05196e-08
1.31789e-07
2.33639e-08
1.15068e-07
3.47795e-08
9.14486e-08
4.47463e-08
6.11702e-08
5.39294e-08
2.24577e-08
6.2905e-08
-2.57173e-08
7.19995e-08
-7.8877e-08
8.0263e-08
-1.37634e-07
8.86485e-08
-2.02451e-07
9.78835e-08
-2.72751e-07
1.08391e-07
-3.47085e-07
1.20132e-07
-4.24494e-07
1.32456e-07
-5.06154e-07
1.44271e-07
-5.92908e-07
1.55029e-07
-6.84383e-07
1.64535e-07
-7.79163e-07
1.72681e-07
-8.75892e-07
1.7943e-07
-9.73223e-07
1.84637e-07
-1.0702e-06
1.88175e-07
-1.16591e-06
1.89982e-07
-1.25968e-06
1.90085e-07
-1.35088e-06
1.88598e-07
-1.43914e-06
1.85695e-07
-1.52412e-06
1.81614e-07
-1.60573e-06
1.76618e-07
-1.68388e-06
1.70976e-07
-1.75867e-06
1.64928e-07
-1.83019e-06
1.58694e-07
-1.89865e-06
1.5245e-07
-1.96424e-06
1.46345e-07
-2.02722e-06
1.40487e-07
-2.0878e-06
1.34959e-07
-2.14623e-06
1.29812e-07
-2.20274e-06
1.25083e-07
-2.25756e-06
1.20781e-07
-2.31087e-06
1.16913e-07
-2.36289e-06
1.13466e-07
-2.41378e-06
1.1043e-07
-2.46371e-06
1.07782e-07
-2.51284e-06
1.05503e-07
-2.5613e-06
1.03562e-07
-2.60922e-06
1.0194e-07
-2.6567e-06
1.00609e-07
-2.70387e-06
9.95469e-08
-2.75079e-06
9.8726e-08
-2.79757e-06
9.81258e-08
-2.84424e-06
9.77216e-08
-2.8909e-06
9.74943e-08
-2.93755e-06
9.74173e-08
-2.98426e-06
9.74708e-08
-3.03102e-06
9.76317e-08
-3.07787e-06
9.7881e-08
-3.12478e-06
9.81942e-08
-3.17178e-06
9.85476e-08
-3.2188e-06
9.89167e-08
-3.26586e-06
9.9276e-08
-3.31286e-06
9.96017e-08
-3.3598e-06
9.9867e-08
-3.40656e-06
1.00049e-07
-3.45311e-06
1.00118e-07
-3.49931e-06
1.00052e-07
-3.54511e-06
9.98158e-08
-3.59034e-06
9.93856e-08
-3.63494e-06
9.87229e-08
-3.67871e-06
9.78025e-08
-3.72157e-06
9.65871e-08
-3.76325e-06
9.50582e-08
-3.80363e-06
9.31726e-08
-3.84246e-06
9.09032e-08
-3.87959e-06
8.82021e-08
-3.91473e-06
8.50459e-08
-3.94772e-06
8.13852e-08
-3.97827e-06
7.71958e-08
-4.00623e-06
7.24308e-08
-4.0313e-06
6.70876e-08
-4.05333e-06
6.11395e-08
-4.07202e-06
5.46043e-08
-4.08729e-06
4.74563e-08
-4.0989e-06
3.97585e-08
-4.10692e-06
3.14167e-08
-4.11135e-06
2.24942e-08
-4.11226e-06
1.29879e-08
-4.10946e-06
2.9407e-09
-4.10223e-06
-7.66336e-09
-4.08968e-06
-1.88983e-08
-4.07139e-06
-3.07056e-08
-4.04699e-06
-4.30943e-08
-4.01624e-06
-5.60253e-08
-3.97879e-06
-6.94762e-08
-3.9345e-06
-8.34144e-08
-3.88315e-06
-9.77683e-08
-3.82458e-06
-1.1251e-07
-3.75876e-06
-1.27531e-07
-3.68543e-06
-1.42685e-07
-3.6045e-06
-1.57904e-07
-3.51595e-06
-1.73041e-07
-3.41996e-06
-1.87993e-07
-3.31657e-06
-2.02615e-07
-3.20602e-06
-2.16762e-07
-3.08853e-06
-2.30397e-07
-2.96446e-06
-2.43332e-07
-2.83423e-06
-2.55481e-07
-2.6983e-06
-2.66712e-07
-2.55721e-06
-2.76938e-07
-2.41152e-06
-2.86049e-07
-2.26185e-06
-2.93978e-07
-2.10886e-06
-3.00648e-07
-1.95326e-06
-3.0604e-07
-1.79573e-06
-3.10112e-07
-1.63697e-06
-3.12844e-07
-1.47759e-06
-3.14222e-07
-1.31828e-06
-3.14275e-07
-1.15966e-06
-3.13077e-07
-1.00234e-06
-3.10736e-07
-8.46871e-07
-3.07392e-07
-6.93746e-07
-3.03134e-07
-5.43364e-07
-2.9811e-07
-3.96086e-07
-2.92401e-07
-2.52133e-07
-2.86252e-07
-1.11361e-07
-2.79913e-07
2.62765e-08
-2.73528e-07
1.60015e-07
-2.66887e-07
2.88729e-07
-2.59821e-07
4.11269e-07
-2.52148e-07
5.28101e-07
-2.43474e-07
6.40243e-07
-2.33874e-07
7.4778e-07
-2.23902e-07
8.50711e-07
-2.13849e-07
9.49057e-07
-2.03903e-07
1.0429e-06
-1.94163e-07
1.13237e-06
-1.84691e-07
1.2176e-06
-1.75522e-07
1.29873e-06
-1.66675e-07
1.37588e-06
-1.58178e-07
1.44921e-06
-1.50028e-07
1.51883e-06
-1.4224e-07
1.58493e-06
-1.34781e-07
1.64763e-06
-1.27664e-07
1.7071e-06
-1.20872e-07
1.76347e-06
-1.14416e-07
1.81689e-06
-1.08269e-07
1.86751e-06
-1.02436e-07
1.91548e-06
-9.69097e-08
1.96094e-06
-9.16906e-08
2.00403e-06
-8.67568e-08
2.04487e-06
-8.21182e-08
2.08362e-06
-7.77592e-08
2.12038e-06
-7.36629e-08
2.15529e-06
-6.98174e-08
2.18846e-06
-6.62212e-08
2.22002e-06
-6.28636e-08
2.25007e-06
-5.9733e-08
2.27871e-06
-5.68105e-08
2.30604e-06
-5.40883e-08
2.33215e-06
-5.15488e-08
2.35712e-06
-4.91787e-08
2.38102e-06
-4.69545e-08
2.40391e-06
-4.48293e-08
2.42581e-06
-4.27614e-08
2.44671e-06
-4.06972e-08
2.46658e-06
-3.85332e-08
2.4853e-06
-3.61324e-08
2.50265e-06
-3.33025e-08
2.51828e-06
-2.96961e-08
2.53156e-06
-2.46683e-08
2.54154e-06
-1.7125e-08
2.54767e-06
-4.26347e-09
2.54883e-06
1.83395e-08
2.54251e-06
6.39275e-08
1.51606e-07
2.51321e-06
3.55893e-08
-1.05426e-07
5.95274e-08
-1.04833e-07
7.55031e-08
-8.84517e-08
8.51517e-08
-7.15017e-08
8.92305e-08
-5.44545e-08
8.82447e-08
-3.72677e-08
8.22458e-08
-2.00092e-08
7.10887e-08
-2.73497e-09
5.46343e-08
1.45299e-08
3.33871e-08
3.1685e-08
8.23724e-09
4.8439e-08
-2.1564e-08
6.45082e-08
-5.69258e-08
8.00479e-08
-9.8345e-08
9.52958e-08
-1.4593e-07
1.10442e-07
-1.99405e-07
1.25435e-07
-2.5907e-07
1.39883e-07
-3.24601e-07
1.54142e-07
-3.9533e-07
1.68566e-07
-4.7021e-07
1.83239e-07
-5.48106e-07
1.97983e-07
-6.28158e-07
2.1248e-07
-7.1011e-07
2.26179e-07
-7.93601e-07
2.38492e-07
-8.78073e-07
2.48961e-07
-9.62714e-07
2.57291e-07
-1.0467e-06
2.63364e-07
-1.12924e-06
2.67147e-07
-1.20981e-06
2.68686e-07
-1.28796e-06
2.68099e-07
-1.36351e-06
2.65571e-07
-1.4363e-06
2.61349e-07
-1.50639e-06
2.55732e-07
-1.57386e-06
2.49026e-07
-1.63883e-06
2.41532e-07
-1.70144e-06
2.33534e-07
-1.76184e-06
2.25282e-07
-1.82019e-06
2.16994e-07
-1.87664e-06
2.08845e-07
-1.93131e-06
2.00976e-07
-1.98436e-06
1.93492e-07
-2.03591e-06
1.86467e-07
-2.08609e-06
1.79949e-07
-2.13502e-06
1.73969e-07
-2.18281e-06
1.68534e-07
-2.22958e-06
1.63644e-07
-2.27544e-06
1.59286e-07
-2.32049e-06
1.55441e-07
-2.36483e-06
1.52085e-07
-2.40856e-06
1.49191e-07
-2.45177e-06
1.46728e-07
-2.49454e-06
1.44666e-07
-2.53694e-06
1.42974e-07
-2.57906e-06
1.41621e-07
-2.62096e-06
1.40575e-07
-2.66269e-06
1.39806e-07
-2.70431e-06
1.39284e-07
-2.74586e-06
1.38979e-07
-2.78736e-06
1.38861e-07
-2.82886e-06
1.389e-07
-2.87036e-06
1.39067e-07
-2.91188e-06
1.39331e-07
-2.95341e-06
1.39661e-07
-2.99497e-06
1.40027e-07
-3.03651e-06
1.40394e-07
-3.07803e-06
1.40729e-07
-3.11949e-06
1.40998e-07
-3.16085e-06
1.41169e-07
-3.20206e-06
1.41205e-07
-3.24306e-06
1.4107e-07
-3.28376e-06
1.40728e-07
-3.32412e-06
1.40138e-07
-3.36402e-06
1.39262e-07
-3.40337e-06
1.38054e-07
-3.44207e-06
1.36476e-07
-3.48e-06
1.34485e-07
-3.51701e-06
1.32041e-07
-3.55296e-06
1.29099e-07
-3.58768e-06
1.25615e-07
-3.62102e-06
1.2154e-07
-3.6528e-06
1.16832e-07
-3.68284e-06
1.11444e-07
-3.71096e-06
1.05335e-07
-3.73698e-06
9.8467e-08
-3.76067e-06
9.08178e-08
-3.78183e-06
8.2367e-08
-3.80023e-06
7.31018e-08
-3.81562e-06
6.30297e-08
-3.82776e-06
5.21121e-08
-3.83638e-06
4.03708e-08
-3.84127e-06
2.77134e-08
-3.84212e-06
1.41173e-08
-3.83847e-06
-4.088e-10
-3.82995e-06
-1.59414e-08
-3.81614e-06
-3.24491e-08
-3.79673e-06
-4.99234e-08
-3.77134e-06
-6.82936e-08
-3.73971e-06
-8.75354e-08
-3.70153e-06
-1.07568e-07
-3.6566e-06
-1.28331e-07
-3.60469e-06
-1.4973e-07
-3.54564e-06
-1.71678e-07
-3.47934e-06
-1.94041e-07
-3.40561e-06
-2.16644e-07
-3.32441e-06
-2.39373e-07
-3.23568e-06
-2.61986e-07
-3.13955e-06
-2.84311e-07
-3.03611e-06
-3.06159e-07
-2.9256e-06
-3.27342e-07
-2.80826e-06
-3.47709e-07
-2.68448e-06
-3.6705e-07
-2.55466e-06
-3.85166e-07
-2.4193e-06
-4.01898e-07
-2.27894e-06
-4.17072e-07
-2.13418e-06
-4.30551e-07
-1.98565e-06
-4.42204e-07
-1.83403e-06
-4.51942e-07
-1.68003e-06
-4.59702e-07
-1.52435e-06
-4.65454e-07
-1.36766e-06
-4.69173e-07
-1.21061e-06
-4.70867e-07
-1.05387e-06
-4.70594e-07
-8.98041e-07
-4.68454e-07
-7.43735e-07
-4.64619e-07
-5.91455e-07
-4.59252e-07
-4.41691e-07
-4.52543e-07
-2.94797e-07
-4.44672e-07
-1.51021e-07
-4.35925e-07
-1.05344e-08
-4.2652e-07
1.26172e-07
-4.16486e-07
2.58526e-07
-4.05783e-07
3.86083e-07
-3.94425e-07
5.0863e-07
-3.82385e-07
6.25978e-07
-3.69584e-07
7.38369e-07
-3.55986e-07
8.46113e-07
-3.41791e-07
9.49332e-07
-3.27323e-07
1.04808e-06
-3.1284e-07
1.14242e-06
-2.98522e-07
1.23245e-06
-2.84489e-07
1.3183e-06
-2.70823e-07
1.40008e-06
-2.57567e-07
1.47794e-06
-2.44762e-07
1.55199e-06
-2.3243e-07
1.62237e-06
-2.20589e-07
1.68922e-06
-2.09244e-07
1.75267e-06
-1.98385e-07
1.81288e-06
-1.88003e-07
1.86998e-06
-1.78099e-07
1.92414e-06
-1.68675e-07
1.97549e-06
-1.59721e-07
2.02419e-06
-1.51226e-07
2.07037e-06
-1.4318e-07
2.11417e-06
-1.35572e-07
2.15572e-06
-1.28387e-07
2.19515e-06
-1.21624e-07
2.23259e-06
-1.15269e-07
2.26816e-06
-1.09304e-07
2.30199e-06
-1.03714e-07
2.3342e-06
-9.84857e-08
2.36488e-06
-9.36083e-08
2.39415e-06
-8.90605e-08
2.4221e-06
-8.48236e-08
2.44884e-06
-8.08786e-08
2.47444e-06
-7.72077e-08
2.499e-06
-7.37831e-08
2.52256e-06
-7.05668e-08
2.54518e-06
-6.75012e-08
2.5669e-06
-6.45225e-08
2.5877e-06
-6.15407e-08
2.60754e-06
-5.84204e-08
2.62634e-06
-5.49698e-08
2.6439e-06
-5.0906e-08
2.65992e-06
-4.57629e-08
2.67395e-06
-3.87335e-08
2.68525e-06
-2.84622e-08
2.69312e-06
-1.21701e-08
2.69679e-06
1.46371e-08
2.69783e-06
6.28408e-08
1.50397e-07
2.69901e-06
1.74987e-08
-1.23068e-07
2.32646e-08
-1.10694e-07
2.46413e-08
-8.99018e-08
2.18461e-08
-6.87498e-08
1.49391e-08
-4.75979e-08
4.01041e-09
-2.63754e-08
-1.09724e-08
-5.07518e-09
-3.00371e-08
1.62855e-08
-5.32269e-08
3.76702e-08
-8.05713e-08
5.89808e-08
-1.12243e-07
8.00636e-08
-1.48592e-07
1.00815e-07
-1.89847e-07
1.21263e-07
-2.36041e-07
1.41456e-07
-2.87031e-07
1.61397e-07
-3.42619e-07
1.80993e-07
-4.02864e-07
2.00093e-07
-4.67432e-07
2.18681e-07
-5.35653e-07
2.36751e-07
-6.06628e-07
2.54187e-07
-6.79434e-07
2.70751e-07
-7.53113e-07
2.86132e-07
-8.26914e-07
2.99941e-07
-9.00195e-07
3.11745e-07
-9.72471e-07
3.21195e-07
-1.04331e-06
3.28098e-07
-1.1124e-06
3.32406e-07
-1.17947e-06
3.34187e-07
-1.24441e-06
3.33587e-07
-1.30718e-06
3.30827e-07
-1.36782e-06
3.26175e-07
-1.42645e-06
3.19939e-07
-1.4832e-06
3.1244e-07
-1.5382e-06
3.03993e-07
-1.5916e-06
2.94891e-07
-1.6435e-06
2.85402e-07
-1.69402e-06
2.75765e-07
-1.74324e-06
2.6618e-07
-1.79124e-06
2.56813e-07
-1.83809e-06
2.47795e-07
-1.88386e-06
2.39227e-07
-1.9286e-06
2.31179e-07
-1.97239e-06
2.23702e-07
-2.01527e-06
2.16822e-07
-2.05732e-06
2.10553e-07
-2.0986e-06
2.04893e-07
-2.13918e-06
1.99832e-07
-2.17912e-06
1.95352e-07
-2.2185e-06
1.91429e-07
-2.25737e-06
1.88033e-07
-2.29581e-06
1.85135e-07
-2.33388e-06
1.82701e-07
-2.37164e-06
1.80697e-07
-2.40914e-06
1.79089e-07
-2.44645e-06
1.77842e-07
-2.4836e-06
1.7692e-07
-2.52065e-06
1.76289e-07
-2.55763e-06
1.75912e-07
-2.59457e-06
1.75755e-07
-2.63151e-06
1.75782e-07
-2.66845e-06
1.75957e-07
-2.70542e-06
1.76244e-07
-2.74242e-06
1.76605e-07
-2.77945e-06
1.77002e-07
-2.81651e-06
1.77394e-07
-2.85358e-06
1.77742e-07
-2.89064e-06
1.78005e-07
-2.92766e-06
1.78139e-07
-2.9646e-06
1.78102e-07
-3.00141e-06
1.77848e-07
-3.03804e-06
1.77331e-07
-3.07443e-06
1.76502e-07
-3.1105e-06
1.75311e-07
-3.14617e-06
1.73707e-07
-3.18134e-06
1.71636e-07
-3.21592e-06
1.69047e-07
-3.24978e-06
1.65888e-07
-3.28279e-06
1.62101e-07
-3.31481e-06
1.57632e-07
-3.34569e-06
1.52423e-07
-3.37526e-06
1.46419e-07
-3.40337e-06
1.39563e-07
-3.42982e-06
1.31802e-07
-3.45443e-06
1.23088e-07
-3.47697e-06
1.1338e-07
-3.4972e-06
1.02642e-07
-3.51487e-06
9.0844e-08
-3.5297e-06
7.79485e-08
-3.54135e-06
6.3952e-08
-3.54957e-06
4.87404e-08
-3.55402e-06
3.23226e-08
-3.55435e-06
1.46035e-08
-3.55022e-06
-4.42303e-09
-3.54126e-06
-2.4791e-08
-3.52716e-06
-4.64754e-08
-3.50758e-06
-6.94511e-08
-3.48221e-06
-9.36539e-08
-3.45075e-06
-1.19026e-07
-3.41291e-06
-1.45475e-07
-3.36846e-06
-1.72902e-07
-3.31718e-06
-2.01192e-07
-3.25889e-06
-2.30203e-07
-3.19344e-06
-2.59767e-07
-3.1207e-06
-2.89668e-07
-3.04061e-06
-3.19728e-07
-2.95313e-06
-3.49686e-07
-2.85833e-06
-3.79275e-07
-2.75636e-06
-4.08233e-07
-2.64742e-06
-4.36324e-07
-2.53181e-06
-4.63303e-07
-2.40987e-06
-4.88912e-07
-2.28205e-06
-5.12874e-07
-2.14882e-06
-5.34968e-07
-2.01074e-06
-5.54954e-07
-1.86842e-06
-5.7265e-07
-1.7225e-06
-5.87878e-07
-1.57365e-06
-6.00524e-07
-1.42258e-06
-6.10502e-07
-1.26998e-06
-6.1777e-07
-1.11652e-06
-6.2232e-07
-9.62869e-07