/*--------------------------------*- C++ -*----------------------------------*\
  =========                 |
  \\      /  F ield         | OpenFOAM: The Open Source CFD Toolbox
   \\    /   O peration     | Website:  https://openfoam.org
    \\  /    A nd           | Version:  8
     \\/     M anipulation  |
\*---------------------------------------------------------------------------*/
FoamFile
{
    version     2.0;
    format      ascii;
    class       volVectorField;
    location    "85";
    object      U;
}
// * * * * * * * * * * * * * * * * * * * * * * * * * * * * * * * * * * * * * //

dimensions      [0 1 -1 0 0 0 0];

internalField   nonuniform List<vector> 
12225
(
(9.85697 -0.886606 0)
(9.66616 -0.740688 0)
(9.45539 -0.429359 0)
(9.22371 -0.222054 0)
(9.00513 -0.106268 0)
(8.81227 -0.0456509 0)
(8.64439 -0.0149342 0)
(8.50113 0.000748492 0)
(8.37799 0.0087342 0)
(8.27357 0.0127075 0)
(8.1829 0.0145266 0)
(8.10402 0.0157389 0)
(8.0335 0.0163648 0)
(7.96957 0.0170883 0)
(7.90875 0.0175591 0)
(7.85231 0.0205065 0)
(7.77199 0.0246858 0)
(7.7627 0.036877 0)
(10.0545 0.227713 0)
(10.1212 0.327012 0)
(10.1195 0.261728 0)
(10.0853 0.186723 0)
(10.0429 0.13488 0)
(9.99586 0.101385 0)
(9.94271 0.0796433 0)
(9.88328 0.06502 0)
(9.82118 0.054845 0)
(9.7576 0.0474213 0)
(9.69493 0.041893 0)
(9.63349 0.0376787 0)
(9.57424 0.0345337 0)
(9.5174 0.0324931 0)
(9.46186 0.0313448 0)
(9.41158 0.0332943 0)
(9.35454 0.0339855 0)
(9.3288 0.0628104 0)
(10.0035 0.0581809 0)
(10.0305 0.0560215 0)
(10.0558 0.0339094 0)
(10.07 0.033086 0)
(10.0763 0.0409216 0)
(10.0768 0.0469226 0)
(10.0711 0.0498587 0)
(10.0593 0.0509553 0)
(10.0433 0.0510434 0)
(10.024 0.0505786 0)
(10.0023 0.0498788 0)
(9.97859 0.0492069 0)
(9.95358 0.0487179 0)
(9.92758 0.048773 0)
(9.90035 0.0493472 0)
(9.87344 0.05254 0)
(9.84469 0.0564619 0)
(9.82203 0.072393 0)
(9.99771 0.0109837 0)
(10.011 0.0267145 0)
(10.0348 0.0372901 0)
(10.0521 0.0483241 0)
(10.0636 0.0558103 0)
(10.0723 0.0586766 0)
(10.0779 0.059009 0)
(10.0802 0.0584696 0)
(10.0798 0.0576791 0)
(10.0774 0.0568222 0)
(10.0732 0.0560089 0)
(10.0675 0.0554191 0)
(10.0604 0.0551287 0)
(10.0523 0.0554684 0)
(10.0429 0.0565223 0)
(10.0333 0.0597282 0)
(10.0234 0.0643107 0)
(10.0167 0.0748595 0)
(9.99934 0.00714804 0)
(10.0089 0.0318208 0)
(10.0272 0.0441305 0)
(10.0414 0.0502538 0)
(10.052 0.0540843 0)
(10.0617 0.0558723 0)
(10.0699 0.0563549 0)
(10.0761 0.0563174 0)
(10.0805 0.0560946 0)
(10.0835 0.0558057 0)
(10.0852 0.0555488 0)
(10.0859 0.0554873 0)
(10.0855 0.0557316 0)
(10.0844 0.0565605 0)
(10.0826 0.0581369 0)
(10.0807 0.0613105 0)
(10.0793 0.0657729 0)
(10.0804 0.0728359 0)
(10.0003 0.00921177 0)
(10.0082 0.0313709 0)
(10.0225 0.041228 0)
(10.0345 0.0458144 0)
(10.0443 0.0496238 0)
(10.0536 0.0521585 0)
(10.0621 0.0533844 0)
(10.0692 0.0539191 0)
(10.075 0.0541645 0)
(10.0797 0.054288 0)
(10.0835 0.0544107 0)
(10.0866 0.0546912 0)
(10.0889 0.0552594 0)
(10.0907 0.056339 0)
(10.092 0.0580934 0)
(10.0935 0.0609805 0)
(10.0957 0.06481 0)
(10.0999 0.0696677 0)
(10.0004 0.00900109 0)
(10.007 0.0273066 0)
(10.0189 0.0367583 0)
(10.0297 0.0419013 0)
(10.0388 0.046122 0)
(10.0475 0.0490252 0)
(10.0557 0.0505793 0)
(10.0628 0.051397 0)
(10.0689 0.0519059 0)
(10.0742 0.0522827 0)
(10.0788 0.0526495 0)
(10.0828 0.05315 0)
(10.0863 0.053913 0)
(10.0894 0.0551071 0)
(10.0923 0.0568594 0)
(10.0955 0.0593823 0)
(10.0993 0.0625026 0)
(10.1046 0.0658985 0)
(10.0004 0.00799348 0)
(10.0059 0.0236182 0)
(10.0159 0.0331408 0)
(10.0258 0.0387057 0)
(10.0344 0.042932 0)
(10.0425 0.045888 0)
(10.0502 0.0476237 0)
(10.0571 0.0486524 0)
(10.0632 0.0493644 0)
(10.0687 0.0499349 0)
(10.0736 0.0504838 0)
(10.0781 0.0511393 0)
(10.0821 0.0520184 0)
(10.0859 0.0532422 0)
(10.0897 0.0548919 0)
(10.0936 0.0570347 0)
(10.0982 0.0594953 0)
(10.1038 0.0618673 0)
(10.0004 0.00705957 0)
(10.005 0.0206909 0)
(10.0135 0.0299197 0)
(10.0225 0.0355592 0)
(10.0305 0.0396748 0)
(10.0381 0.0426443 0)
(10.0454 0.0445425 0)
(10.0521 0.0457586 0)
(10.0581 0.0466382 0)
(10.0636 0.0473606 0)
(10.0686 0.0480448 0)
(10.0733 0.0488047 0)
(10.0776 0.0497391 0)
(10.0818 0.0509309 0)
(10.086 0.0524201 0)
(10.0904 0.0541952 0)
(10.0953 0.0560883 0)
(10.1009 0.05773 0)
(10.0004 0.00624843 0)
(10.0042 0.0181552 0)
(10.0114 0.026802 0)
(10.0195 0.0323709 0)
(10.027 0.0363943 0)
(10.0342 0.0393648 0)
(10.0411 0.0413829 0)
(10.0475 0.0427455 0)
(10.0534 0.043756 0)
(10.0589 0.0445942 0)
(10.064 0.0453756 0)
(10.0687 0.0461988 0)
(10.0732 0.0471435 0)
(10.0776 0.0482629 0)
(10.0821 0.0495673 0)
(10.0867 0.0510084 0)
(10.0916 0.0524379 0)
(10.097 0.0535601 0)
(10.0003 0.00550647 0)
(10.0036 0.0158767 0)
(10.0097 0.0238203 0)
(10.0169 0.0292216 0)
(10.0239 0.0331367 0)
(10.0307 0.0360659 0)
(10.0372 0.0381445 0)
(10.0434 0.0396077 0)
(10.0492 0.0407151 0)
(10.0545 0.0416377 0)
(10.0596 0.0424833 0)
(10.0644 0.043336 0)
(10.069 0.0442577 0)
(10.0736 0.0452815 0)
(10.0781 0.0463987 0)
(10.0828 0.0475503 0)
(10.0876 0.0486168 0)
(10.0928 0.0493744 0)
(10.0003 0.00485679 0)
(10.0031 0.0139706 0)
(10.0084 0.0212309 0)
(10.0149 0.0263941 0)
(10.0214 0.0301712 0)
(10.0278 0.0330245 0)
(10.034 0.0351139 0)
(10.04 0.036632 0)
(10.0456 0.0377991 0)
(10.0509 0.038773 0)
(10.0559 0.0396525 0)
(10.0608 0.0405078 0)
(10.0654 0.0413883 0)
(10.07 0.042314 0)
(10.0746 0.0432702 0)
(10.0792 0.0441997 0)
(10.084 0.0450108 0)
(10.0889 0.0455368 0)
(10.0003 0.00425809 0)
(10.0027 0.0122252 0)
(10.0073 0.0187773 0)
(10.0132 0.0236245 0)
(10.0192 0.0272257 0)
(10.0252 0.0299731 0)
(10.0311 0.0320362 0)
(10.0369 0.0335753 0)
(10.0424 0.0347735 0)
(10.0476 0.035773 0)
(10.0526 0.0366636 0)
(10.0574 0.0375041 0)
(10.0621 0.0383308 0)
(10.0667 0.0391572 0)
(10.0713 0.0399675 0)
(10.0759 0.0407149 0)
(10.0805 0.0413311 0)
(10.0852 0.0416896 0)
(10.0002 0.0036405 0)
(10.0023 0.0104121 0)
(10.0063 0.016146 0)
(10.0115 0.0205535 0)
(10.0171 0.0238965 0)
(10.0227 0.0264772 0)
(10.0283 0.0284615 0)
(10.0338 0.0299813 0)
(10.0391 0.0311795 0)
(10.0442 0.0321769 0)
(10.0492 0.0330551 0)
(10.054 0.0338618 0)
(10.0586 0.034621 0)
(10.0632 0.0353408 0)
(10.0677 0.0360089 0)
(10.0722 0.0365928 0)
(10.0767 0.0370502 0)
(10.0812 0.0372815 0)
(10.0002 0.00299872 0)
(10.002 0.00852551 0)
(10.0054 0.0133395 0)
(10.01 0.0171749 0)
(10.015 0.0201553 0)
(10.0203 0.0224897 0)
(10.0255 0.0243226 0)
(10.0308 0.0257629 0)
(10.0359 0.026915 0)
(10.0409 0.0278719 0)
(10.0458 0.0287035 0)
(10.0505 0.0294484 0)
(10.0551 0.0301251 0)
(10.0596 0.030735 0)
(10.0641 0.0312716 0)
(10.0685 0.0317162 0)
(10.0728 0.0320498 0)
(10.077 0.0321962 0)
(10.0002 0.00232997 0)
(10.0017 0.0065644 0)
(10.0046 0.0103603 0)
(10.0087 0.0134846 0)
(10.0132 0.0159774 0)
(10.0181 0.0179658 0)
(10.023 0.0195574 0)
(10.028 0.0208382 0)
(10.0329 0.0218808 0)
(10.0378 0.0227492 0)
(10.0425 0.0234935 0)
(10.0472 0.0241477 0)
(10.0517 0.0247254 0)
(10.0562 0.0252283 0)
(10.0605 0.0256515 0)
(10.0647 0.0259877 0)
(10.0689 0.026234 0)
(10.0729 0.0263317 0)
(10.0002 0.00162819 0)
(10.0015 0.00451052 0)
(10.004 0.00718349 0)
(10.0076 0.00945302 0)
(10.0118 0.0113156 0)
(10.0162 0.0128367 0)
(10.0209 0.0140813 0)
(10.0256 0.015107 0)
(10.0304 0.0159608 0)
(10.0351 0.0166796 0)
(10.0397 0.0172938 0)
(10.0443 0.0178265 0)
(10.0487 0.0182895 0)
(10.053 0.0186854 0)
(10.0573 0.0190118 0)
(10.0614 0.0192668 0)
(10.0653 0.0194559 0)
(10.0692 0.0195314 0)
(10.0001 0.00087327 0)
(10.0013 0.00230554 0)
(10.0036 0.00372632 0)
(10.0069 0.00498409 0)
(10.0108 0.00605745 0)
(10.015 0.00696972 0)
(10.0194 0.00774597 0)
(10.024 0.00841038 0)
(10.0286 0.00898501 0)
(10.0332 0.00948482 0)
(10.0377 0.00992083 0)
(10.0421 0.0103017 0)
(10.0465 0.010634 0)
(10.0507 0.0109189 0)
(10.0548 0.0111564 0)
(10.0588 0.0113453 0)
(10.0626 0.0114936 0)
(10.0663 0.0115589 0)
(10.0001 1.60694e-05 0)
(10.0013 -0.000182048 0)
(10.0035 -0.000203771 0)
(10.0067 -0.000145144 0)
(10.0105 -2.89203e-05 0)
(10.0146 0.00013027 0)
(10.019 0.000317404 0)
(10.0235 0.000519555 0)
(10.028 0.000731969 0)
(10.0325 0.000947098 0)
(10.037 0.00115901 0)
(10.0414 0.0013597 0)
(10.0456 0.00154666 0)
(10.0498 0.00171523 0)
(10.0538 0.00186483 0)
(10.0577 0.0019916 0)
(10.0614 0.00210161 0)
(10.065 0.00215475 0)
(10.0002 -0.000816075 0)
(10.0014 -0.00258215 0)
(10.0038 -0.00401142 0)
(10.0072 -0.00511485 0)
(10.0111 -0.00591257 0)
(10.0155 -0.00646343 0)
(10.02 -0.00682805 0)
(10.0246 -0.00704708 0)
(10.0292 -0.00715727 0)
(10.0338 -0.00718737 0)
(10.0383 -0.00716582 0)
(10.0427 -0.00711113 0)
(10.047 -0.0070397 0)
(10.0511 -0.00695715 0)
(10.0551 -0.00687199 0)
(10.0589 -0.00678683 0)
(10.0627 -0.00670504 0)
(10.0662 -0.00665864 0)
(10.0002 -0.00153842 0)
(10.0015 -0.0046854 0)
(10.0042 -0.00735101 0)
(10.008 -0.00940939 0)
(10.0124 -0.010903 0)
(10.017 -0.011981 0)
(10.0218 -0.0127488 0)
(10.0266 -0.0132635 0)
(10.0314 -0.0135828 0)
(10.0361 -0.0137616 0)
(10.0407 -0.0138483 0)
(10.0451 -0.0138745 0)
(10.0494 -0.0138644 0)
(10.0536 -0.0138277 0)
(10.0576 -0.0137759 0)
(10.0614 -0.0137147 0)
(10.0652 -0.0136496 0)
(10.0687 -0.0136097 0)
(10.0002 -0.00222566 0)
(10.0017 -0.00676376 0)
(10.0048 -0.0106866 0)
(10.0092 -0.0136095 0)
(10.0141 -0.0156493 0)
(10.0191 -0.0171164 0)
(10.0242 -0.0181703 0)
(10.0293 -0.0188871 0)
(10.0343 -0.0193445 0)
(10.0392 -0.0196212 0)
(10.0439 -0.0197729 0)
(10.0484 -0.0198444 0)
(10.0528 -0.0198604 0)
(10.0569 -0.0198433 0)
(10.061 -0.0198006 0)
(10.0648 -0.0197486 0)
(10.0686 -0.0196865 0)
(10.0721 -0.0196453 0)
(10.0002 -0.00286906 0)
(10.0018 -0.00886589 0)
(10.0056 -0.0140418 0)
(10.0108 -0.0177276 0)
(10.0163 -0.0202613 0)
(10.0218 -0.0220633 0)
(10.0272 -0.0232889 0)
(10.0326 -0.0240676 0)
(10.0378 -0.0245541 0)
(10.0429 -0.0248557 0)
(10.0477 -0.02503 0)
(10.0523 -0.0251151 0)
(10.0567 -0.0251397 0)
(10.0609 -0.0251244 0)
(10.065 -0.0250849 0)
(10.0689 -0.0250328 0)
(10.0726 -0.024974 0)
(10.0761 -0.0249278 0)
(10.0001 -0.00343596 0)
(10.0019 -0.0113644 0)
(10.0064 -0.0175577 0)
(10.0125 -0.0214892 0)
(10.0188 -0.0243836 0)
(10.0247 -0.0266168 0)
(10.0306 -0.0280726 0)
(10.0363 -0.0288922 0)
(10.0418 -0.0293458 0)
(10.0469 -0.0296007 0)
(10.0518 -0.0297294 0)
(10.0565 -0.0297711 0)
(10.061 -0.0297597 0)
(10.0653 -0.0297146 0)
(10.0693 -0.0296544 0)
(10.0732 -0.0295854 0)
(10.0769 -0.0295161 0)
(10.0804 -0.0294529 0)
(9.99992 -0.00330093 0)
(10.0016 -0.0148351 0)
(10.0075 -0.0224724 0)
(10.0145 -0.0258518 0)
(10.0211 -0.0282959 0)
(10.0276 -0.0305163 0)
(10.0341 -0.0320955 0)
(10.0403 -0.0330381 0)
(10.0461 -0.0335827 0)
(10.0515 -0.0338837 0)
(10.0565 -0.0340159 0)
(10.0613 -0.0340348 0)
(10.0658 -0.033986 0)
(10.07 -0.0339006 0)
(10.0739 -0.0337972 0)
(10.0777 -0.0336884 0)
(10.0812 -0.033578 0)
(10.0844 -0.033475 0)
(9.9986 -0.000326965 0)
(9.99909 -0.0156824 0)
(10.0077 -0.0272322 0)
(10.0169 -0.0321935 0)
(10.0243 -0.0344631 0)
(10.0314 -0.0357021 0)
(10.0386 -0.0363371 0)
(10.0454 -0.0366903 0)
(10.0515 -0.0369225 0)
(10.057 -0.037047 0)
(10.062 -0.0370652 0)
(10.0665 -0.0370009 0)
(10.0706 -0.0368877 0)
(10.0743 -0.0367475 0)
(10.0776 -0.036596 0)
(10.0806 -0.0364445 0)
(10.0833 -0.0362941 0)
(10.0857 -0.0361531 0)
(9.99489 0.0014437 0)
(9.99292 -0.00804264 0)
(10.0062 -0.0201864 0)
(10.0205 -0.0320438 0)
(10.0311 -0.0401769 0)
(10.0399 -0.0437714 0)
(10.0477 -0.044596 0)
(10.0542 -0.0443617 0)
(10.0594 -0.0438042 0)
(10.0637 -0.0431159 0)
(10.067 -0.0423755 0)
(10.0697 -0.0416396 0)
(10.0716 -0.0409442 0)
(10.0729 -0.0402975 0)
(10.0738 -0.0397082 0)
(10.0742 -0.0391766 0)
(10.0743 -0.0387018 0)
(10.0741 -0.0382591 0)
(9.99471 -0.030553 0)
(9.99948 -0.02279 0)
(10.0148 -0.0025198 0)
(10.0307 -0.00173973 0)
(10.0439 -0.0114316 0)
(10.0539 -0.0206436 0)
(10.0603 -0.0269457 0)
(10.063 -0.0311111 0)
(10.063 -0.0338201 0)
(10.0609 -0.0354482 0)
(10.0573 -0.0363091 0)
(10.0524 -0.0366746 0)
(10.0466 -0.0367314 0)
(10.0401 -0.0365974 0)
(10.0331 -0.036361 0)
(10.0257 -0.036081 0)
(10.0181 -0.0358235 0)
(10.0105 -0.0355595 0)
(10.0274 -0.182991 0)
(10.0766 -0.288293 0)
(10.0872 -0.247757 0)
(10.0779 -0.186468 0)
(10.0666 -0.140188 0)
(10.0542 -0.108062 0)
(10.0372 -0.0856759 0)
(10.0155 -0.0701792 0)
(9.99061 -0.0593662 0)
(9.96394 -0.0515415 0)
(9.93636 -0.0456709 0)
(9.90848 -0.0411317 0)
(9.88078 -0.0375378 0)
(9.8536 -0.0346235 0)
(9.82716 -0.0322164 0)
(9.80157 -0.0302501 0)
(9.77709 -0.0286846 0)
(9.75368 -0.0278265 0)
(9.93577 0.689548 0)
(9.86836 0.609617 0)
(9.76483 0.380659 0)
(9.62711 0.21748 0)
(9.48671 0.119332 0)
(9.35842 0.0632776 0)
(9.24437 0.0316867 0)
(9.14334 0.013752 0)
(9.05428 0.00341785 0)
(8.97598 -0.00261862 0)
(8.90678 -0.00614636 0)
(8.84535 -0.00824447 0)
(8.79044 -0.00947402 0)
(8.74116 -0.0102057 0)
(8.6966 -0.0106778 0)
(8.65613 -0.0109282 0)
(8.61886 -0.0111172 0)
(8.58438 -0.0117344 0)
(0.013545 -0.0131735 -4.95963e-19)
(0.0461157 -0.0347927 2.25518e-19)
(0.0764269 -0.0427449 0)
(0.112715 -0.0430007 0)
(0.145593 -0.0384431 0)
(0.172096 -0.0313517 -8.80154e-20)
(0.192518 -0.0247365 0)
(0.207309 -0.023506 0)
(0.217219 -0.0326529 0)
(0.227596 -0.0346638 0)
(0.226927 0.0140091 1.4067e-19)
(0.209732 0.0313406 0)
(0.192418 0.0291838 0)
(0.171552 0.0260297 0)
(0.152551 0.016316 0)
(0.135465 0.00441123 1.57241e-19)
(0.105556 0.0143996 0)
(0.0824758 0.0198557 0)
(0.0568051 0.0238784 0)
(0.0252476 0.0297224 0)
(-0.0182781 0.0373845 0)
(-0.063571 0.0466417 0)
(-0.114943 0.0553641 0)
(-0.172573 0.0607259 1.72738e-19)
(-0.236523 0.0638244 -1.50073e-19)
(-0.304712 0.0669483 1.32243e-19)
(-0.377211 0.0706414 1.17524e-19)
(-0.454034 0.0746478 0)
(-0.534793 0.0783806 0)
(-0.618826 0.081526 -8.62587e-20)
(-0.705278 0.0838827 -7.89838e-20)
(-0.793224 0.0853594 0)
(-0.881766 0.0858698 0)
(-0.970046 0.0854592 -6.32159e-20)
(-1.05732 0.0842053 0)
(-1.14295 0.082259 0)
(-1.22645 0.0797436 5.34033e-20)
(-1.30746 0.0768337 0)
(-1.38575 0.0736534 4.88629e-20)
(-1.46119 0.070352 9.40108e-20)
(-1.53377 0.0670178 0)
(-1.60353 0.0637561 0)
(-1.67059 0.0606125 0)
(-1.73509 0.0576512 0)
(-1.79721 0.0548851 0)
(-1.85717 0.0523493 7.87806e-20)
(-1.91516 0.050036 7.69907e-20)
(-1.97139 0.0479602 7.53309e-20)
(-2.02606 0.0461024 0)
(-2.07938 0.0444671 -7.23376e-20)
(-2.13153 0.0430278 0)
(-2.1827 0.0417845 6.96799e-20)
(-2.23305 0.0407156 6.84509e-20)
(-2.28274 0.0398187 0)
(-2.33192 0.0390679 0)
(-2.38073 0.038462 0)
(-2.42929 0.0379832 6.4017e-20)
(-2.4777 0.0376297 0)
(-2.52608 0.0373803 0)
(-2.57451 0.0372358 0)
(-2.62309 0.0371855 0)
(-2.67187 0.0372288 0)
(-2.72091 0.0373532 0)
(-2.77029 0.0375543 0)
(-2.82002 0.037823 0)
(-2.87014 0.0381508 -5.58194e-20)
(-2.92068 0.0385324 0)
(-2.97162 0.0389542 0)
(-3.02295 0.0394109 5.34784e-20)
(-3.07466 0.0398798 5.27443e-20)
(-3.1267 0.0403506 0)
(-3.17904 0.0407873 -5.13558e-20)
(-3.23159 0.0411741 5.07036e-20)
(-3.28431 0.0414677 0)
(-3.3371 0.0416544 -4.94876e-20)
(-3.38984 0.0416915 0)
(-3.4424 0.0415703 0)
(-3.49461 0.041251 4.78848e-20)
(-3.54629 0.0407263 0)
(-3.59725 0.0399594 -4.69541e-20)
(-3.64727 0.0389626 0)
(-3.69611 0.0377171 4.61258e-20)
(-3.7435 0.0362492 4.57504e-20)
(-3.78916 0.0345549 4.54042e-20)
(-3.83276 0.0326868 9.01799e-20)
(-3.87391 0.0306549 -8.96263e-20)
(-3.91219 0.0285051 0)
(-3.9471 0.0262298 0)
(-3.97817 0.0238293 0)
(-4.00485 0.021291 -8.82421e-20)
(-4.02677 0.0185197 -8.8073e-20)
(-4.04334 0.0155929 8.79459e-20)
(-4.05416 0.0125424 0)
(-4.05875 0.00960268 -8.75945e-20)
(-4.05813 0.00677495 -8.73154e-20)
(-4.05194 0.0038347 -8.69686e-20)
(-4.04001 0.000767153 0)
(-4.02212 -0.002507 0)
(-3.99802 -0.00580126 0)
(-3.96751 -0.00964161 -8.44478e-20)
(-3.93034 -0.0135801 0)
(-3.8864 -0.0178575 0)
(-3.83531 -0.0225303 8.03106e-20)
(-3.77713 -0.026917 0)
(-3.71178 -0.0313036 0)
(-3.63923 -0.0358309 7.2914e-20)
(-3.55928 -0.0407695 0)
(-3.47214 -0.0456323 0)
(-3.37783 -0.05054 -6.08158e-20)
(-3.27665 -0.0554104 -5.55068e-20)
(-3.1688 -0.0602241 0)
(-3.05463 -0.0649406 4.26327e-20)
(-2.93452 -0.0694952 0)
(-2.8089 -0.0738598 -2.63986e-20)
(-2.67825 -0.077974 0)
(-2.54308 -0.081819 -6.37262e-21)
(-2.40397 -0.0853575 5.20836e-21)
(-2.26152 -0.0885689 0)
(-2.11637 -0.0914157 0)
(-1.96912 -0.0938705 0)
(-1.82038 -0.0959275 0)
(-1.67076 -0.097587 0)
(-1.5209 -0.0988807 0)
(-1.37138 -0.0998107 0)
(-1.22281 -0.100453 1.47062e-19)
(-1.07564 -0.100844 -1.73305e-19)
(-0.930334 -0.101023 0)
(-0.787255 -0.100999 0)
(-0.646723 -0.100871 0)
(-0.509005 -0.100539 0)
(-0.374413 -0.10003 -7.18652e-19)
(-0.243125 -0.0994871 0)
(-0.114888 -0.0985141 9.3188e-19)
(0.0132468 -0.0954678 -9.45208e-19)
(0.140283 -0.0903821 0)
(0.262345 -0.0847502 0)
(0.379556 -0.0792831 0)
(0.491577 -0.074089 7.86604e-19)
(0.598385 -0.069222 7.60914e-19)
(0.700069 -0.0646585 0)
(0.796845 -0.0604028 7.18865e-19)
(0.888934 -0.0564201 7.01355e-19)
(0.976572 -0.0527029 -6.85595e-19)
(1.05994 -0.0492263 0)
(1.13923 -0.0459923 0)
(1.21462 -0.0430071 -6.46497e-19)
(1.28628 -0.0402151 0)
(1.35441 -0.0376056 0)
(1.41916 -0.0351586 0)
(1.48073 -0.0328662 0)
(1.53925 -0.0307336 5.99606e-19)
(1.59487 -0.0287506 5.92192e-19)
(1.64775 -0.0269036 0)
(1.69802 -0.02518 5.78823e-19)
(1.74584 -0.0235623 0)
(1.79136 -0.0220557 0)
(1.83471 -0.0206674 5.61757e-19)
(1.87601 -0.0193717 0)
(1.91541 -0.0181645 5.52033e-19)
(1.95302 -0.0170431 0)
(1.98896 -0.0160059 0)
(2.02334 -0.0150439 5.39384e-19)
(2.05628 -0.0141521 0)
(2.08787 -0.013333 5.32016e-19)
(2.11821 -0.0125598 0)
(2.14739 -0.0118374 0)
(2.17548 -0.0111849 0)
(2.20254 -0.0105601 -5.1933e-19)
(2.22861 -0.00996036 0)
(2.25372 -0.00940156 5.13931e-19)
(2.27782 -0.0088324 0)
(2.30083 -0.00821567 0)
(2.32258 -0.00758228 0)
(2.34271 -0.00685401 0)
(2.36069 -0.00589745 0)
(2.37501 -0.00452751 0)
(2.38485 -0.00175326 0)
(2.37747 0.0036221 -1.0186e-18)
(2.35808 0.016168 0)
(2.23674 0.0334219 0)
(0.0225241 -0.0929682 1.12739e-18)
(0.0614311 -0.119738 -4.78403e-19)
(0.0885728 -0.112562 0)
(0.112414 -0.09921 1.40733e-19)
(0.130809 -0.0830461 0)
(0.143738 -0.0651786 5.17784e-20)
(0.151728 -0.0467042 -9.66505e-20)
(0.154573 -0.0283863 -9.51407e-20)
(0.151006 -0.0106069 0)
(0.138835 0.00684745 -1.15352e-19)
(0.123768 0.0229535 -5.91425e-20)
(0.110373 0.0373035 0)
(0.0925191 0.0499332 0)
(0.0689477 0.0612342 0)
(0.040153 0.0721836 0)
(0.000758186 0.083979 -6.54912e-20)
(-0.0454195 0.0915838 0)
(-0.0951886 0.0983182 1.37463e-19)
(-0.150323 0.106735 0)
(-0.211715 0.118234 0)
(-0.277468 0.133009 -1.0925e-19)
(-0.344616 0.149262 0)
(-0.415203 0.16446 9.14993e-20)
(-0.49086 0.177773 -4.30405e-20)
(-0.571538 0.189382 4.06741e-20)
(-0.655734 0.199443 -3.85254e-20)
(-0.742308 0.208062 -3.6511e-20)
(-0.830036 0.215 0)
(-0.917927 0.219959 0)
(-1.00516 0.222729 3.13157e-20)
(-1.09101 0.223259 -2.95549e-20)
(-1.1749 0.221661 0)
(-1.25638 0.21812 0)
(-1.33512 0.212954 2.64221e-20)
(-1.41093 0.20651 0)
(-1.48373 0.199161 0)
(-1.55353 0.191226 -2.38926e-20)
(-1.6204 0.183011 0)
(-1.6845 0.174749 2.23259e-20)
(-1.746 0.16665 -4.40532e-20)
(-1.8051 0.158851 0)
(-1.862 0.151473 0)
(-1.91693 0.144575 -8.20148e-20)
(-1.9701 0.138211 -8.04573e-20)
(-2.0217 0.132384 -7.90221e-20)
(-2.07193 0.127106 3.86242e-20)
(-2.12097 0.122353 -3.84477e-20)
(-2.16898 0.118112 -1.13171e-19)
(-2.21612 0.114345 7.42213e-20)
(-2.26254 0.11103 3.68117e-20)
(-2.30835 0.108122 0)
(-2.35369 0.105597 -3.58689e-20)
(-2.39866 0.103413 3.50151e-20)
(-2.44336 0.101547 0)
(-2.48788 0.0999589 0)
(-2.5323 0.098626 0)
(-2.57668 0.0975145 -3.38633e-20)
(-2.62108 0.0966052 0)
(-2.66555 0.0958631 6.58919e-20)
(-2.71013 0.0952673 0)
(-2.75483 0.0947892 6.4568e-20)
(-2.79968 0.0944115 0)
(-2.84467 0.0941069 -6.33161e-20)
(-2.88982 0.0938529 0)
(-2.9351 0.0936252 6.21261e-20)
(-2.9805 0.0933998 -3.05423e-20)
(-3.02597 0.0931584 0)
(-3.07147 0.0928772 -6.04491e-20)
(-3.11695 0.0925439 -3.02022e-20)
(-3.16234 0.0921335 -2.99504e-20)
(-3.20756 0.0916378 0)
(-3.25253 0.0910269 -2.89661e-20)
(-3.29715 0.0902901 -2.92576e-20)
(-3.3413 0.0893911 0)
(-3.38487 0.0883197 2.88547e-20)
(-3.42773 0.087038 -5.6787e-20)
(-3.46971 0.0855406 0)
(-3.51064 0.0837857 -2.83387e-20)
(-3.55033 0.0817577 0)
(-3.58859 0.0794022 8.35695e-20)
(-3.62523 0.0767053 0)
(-3.66002 0.0736122 -8.2814e-20)
(-3.69276 0.0701063 -2.76624e-20)
(-3.72323 0.0661325 2.70731e-20)
(-3.75122 0.0617016 5.40101e-20)
(-3.77653 0.0567856 -5.38995e-20)
(-3.79894 0.0514162 0)
(-3.81824 0.0455798 0)
(-3.83425 0.0393031 0)
(-3.84689 0.0325728 1.62292e-19)
(-3.85618 0.0253878 5.42614e-20)
(-3.8622 0.0178341 -5.42031e-20)
(-3.86487 0.0100491 0)
(-3.86412 0.00222253 -5.32093e-20)
(-3.85854 -0.00570102 5.36441e-20)
(-3.84773 -0.0138261 5.33347e-20)
(-3.83133 -0.0222176 0)
(-3.80904 -0.0308526 0)
(-3.78056 -0.0397291 0)
(-3.74562 -0.0487733 5.12857e-20)
(-3.70407 -0.057974 0)
(-3.65567 -0.0673212 -9.89802e-20)
(-3.60034 -0.076712 -1.45074e-19)
(-3.53789 -0.0861265 9.41694e-20)
(-3.46814 -0.0954668 0)
(-3.39099 -0.104623 4.42013e-20)
(-3.30654 -0.113557 0)
(-3.21486 -0.122196 7.89117e-20)
(-3.11599 -0.130438 -3.7528e-20)
(-3.01021 -0.138307 -3.4713e-20)
(-2.89773 -0.145655 0)
(-2.77892 -0.152471 -7.98601e-20)
(-2.65416 -0.158675 4.60725e-20)
(-2.52394 -0.164237 1.73567e-20)
(-2.38874 -0.169094 0)
(-2.24913 -0.173221 7.46246e-21)
(-2.1057 -0.176578 9.52439e-21)
(-1.95911 -0.179175 0)
(-1.81002 -0.181003 -1.57882e-20)
(-1.65908 -0.182051 -2.8368e-20)
(-1.50692 -0.18232 -4.15375e-20)
(-1.35415 -0.181834 0)
(-1.2014 -0.180657 0)
(-1.04928 -0.178876 0)
(-0.898352 -0.176594 4.74958e-20)
(-0.749117 -0.173861 5.9947e-20)
(-0.60202 -0.170785 0)
(-0.457435 -0.167417 1.48041e-19)
(-0.315636 -0.163862 1.65076e-19)
(-0.176957 -0.16018 0)
(-0.0407448 -0.156709 2.00348e-19)
(0.0927078 -0.153604 4.06691e-19)
(0.221918 -0.150267 -2.13916e-19)
(0.345766 -0.145375 -2.12555e-19)
(0.464048 -0.138896 0)
(0.577546 -0.131833 0)
(0.686805 -0.12472 0)
(0.791823 -0.117756 -2.40899e-19)
(0.892586 -0.111049 2.39482e-19)
(0.989126 -0.104639 4.92522e-19)
(1.08153 -0.0985475 -2.52351e-19)
(1.16993 -0.0927733 2.50859e-19)
(1.25444 -0.0873087 2.58311e-19)
(1.33518 -0.0821541 0)
(1.41227 -0.0772934 0)
(1.48584 -0.0727199 -2.61648e-19)
(1.55602 -0.0684078 0)
(1.62296 -0.0643552 0)
(1.68679 -0.0605479 5.37056e-19)
(1.74765 -0.0569791 0)
(1.80566 -0.0536237 2.69848e-19)
(1.86097 -0.0504719 -2.73353e-19)
(1.91373 -0.0475171 0)
(1.96406 -0.0447568 2.73122e-19)
(2.01211 -0.0421773 0)
(2.05799 -0.0397773 0)
(2.10183 -0.0375476 -2.77041e-19)
(2.14377 -0.0354691 5.53628e-19)
(2.18391 -0.0335352 -2.78019e-19)
(2.22239 -0.0317414 0)
(2.25931 -0.030081 0)
(2.29478 -0.0285453 2.77947e-19)
(2.3289 -0.0271208 0)
(2.36178 -0.0258044 2.78575e-19)
(2.39351 -0.0245848 0)
(2.42416 -0.0234532 0)
(2.45382 -0.0224051 0)
(2.48254 -0.0214115 2.80123e-19)
(2.51036 -0.0204537 0)
(2.5373 -0.0195166 -2.80314e-19)
(2.56333 -0.018556 0)
(2.58836 -0.0175126 0)
(2.61224 -0.0163207 5.61115e-19)
(2.63466 -0.0148423 -5.61863e-19)
(2.65517 -0.0128036 0)
(2.67275 -0.00977554 0)
(2.68672 -0.00427347 0)
(2.6949 0.0056302 1.71432e-18)
(2.70326 0.0261662 0)
(2.684 0.0637286 -1.18384e-18)
(0.0191616 -0.174534 -4.35725e-22)
(0.0461892 -0.183805 4.77959e-19)
(0.0610529 -0.157526 0)
(0.0721812 -0.129762 -2.16653e-19)
(0.0784982 -0.101951 0)
(0.0799501 -0.0741461 0)
(0.0768588 -0.0466009 7.48241e-23)
(0.0692794 -0.0194772 7.08572e-20)
(0.0570804 0.00726703 6.98493e-20)
(0.0401687 0.0337441 7.02779e-20)
(0.0192987 0.0594714 0)
(-0.00508307 0.0829491 0)
(-0.0338763 0.104482 -6.8578e-20)
(-0.067792 0.124949 -1.35491e-19)
(-0.107174 0.145093 1.34737e-19)
(-0.152523 0.164984 0)
(-0.203277 0.183669 1.31956e-19)
(-0.259442 0.20191 -6.43194e-20)
(-0.320773 0.220703 0)
(-0.3865 0.240353 1.17153e-19)
(-0.455164 0.260367 5.57623e-20)
(-0.525819 0.280127 -1.05685e-19)
(-0.598498 0.298785 -5.05376e-20)
(-0.673092 0.315592 0)
(-0.748981 0.329959 9.21585e-20)
(-0.825446 0.341411 8.81927e-20)
(-0.901711 0.349716 0)
(-0.977066 0.354724 8.10378e-20)
(-1.05093 0.356434 0)
(-1.12287 0.354982 7.49026e-20)
(-1.1926 0.350619 3.61957e-20)
(-1.25997 0.343708 0)
(-1.32494 0.334695 0)
(-1.38758 0.324056 0)
(-1.44798 0.312271 0)
(-1.50627 0.299792 0)
(-1.56258 0.287013 0)
(-1.61704 0.274267 5.8288e-20)
(-1.66977 0.261817 -8.55281e-20)
(-1.72092 0.249867 0)
(-1.77061 0.238558 0)
(-1.81894 0.227988 0)
(-1.86605 0.218207 2.55877e-22)
(-1.91204 0.209241 5.19103e-20)
(-1.95701 0.201084 1.01914e-19)
(-2.00107 0.193717 -1.00377e-19)
(-2.04432 0.187106 -4.93447e-20)
(-2.08686 0.181211 4.89254e-20)
(-2.12877 0.175983 -2.52055e-22)
(-2.17014 0.171375 4.74455e-20)
(-2.21106 0.167334 0)
(-2.25161 0.163814 4.63451e-20)
(-2.29186 0.160764 -2.54443e-22)
(-2.33189 0.15814 0)
(-2.37174 0.155896 0)
(-2.41149 0.153989 -4.44296e-20)
(-2.45118 0.152378 0)
(-2.49085 0.151027 0)
(-2.53054 0.149894 4.29056e-20)
(-2.57028 0.148942 8.55823e-20)
(-2.61009 0.148137 -4.26988e-20)
(-2.64998 0.147443 0)
(-2.68996 0.146826 4.19936e-20)
(-2.73003 0.146249 0)
(-2.77018 0.145677 4.07387e-20)
(-2.81039 0.145075 4.10128e-20)
(-2.85063 0.144412 -8.08115e-20)
(-2.89089 0.143651 -3.98065e-20)
(-2.9311 0.142765 0)
(-2.97122 0.141719 7.90786e-20)
(-3.0112 0.140484 0)
(-3.05096 0.139026 1.17359e-19)
(-3.09043 0.137319 7.75509e-20)
(-3.12953 0.135323 7.70942e-20)
(-3.16815 0.133015 -7.66659e-20)
(-3.20619 0.13036 1.14724e-19)
(-3.24354 0.127337 0)
(-3.28004 0.123911 0)
(-3.31557 0.120053 -7.52486e-20)
(-3.34996 0.115727 -1.1279e-19)
(-3.38307 0.11091 0)
(-3.41472 0.105566 3.75787e-20)
(-3.44474 0.0996734 0)
(-3.47296 0.0932045 -1.11503e-19)
(-3.49918 0.0861613 -6.00626e-22)
(-3.52322 0.0785374 5.71795e-22)
(-3.54486 0.0703539 7.37778e-20)
(-3.56387 0.0616223 0)
(-3.57999 0.0523656 -7.36643e-20)
(-3.59298 0.0425708 -4.57743e-22)
(-3.60262 0.0322187 0)
(-3.60867 0.0212937 0)
(-3.61078 0.00980906 0)
(-3.60853 -0.00226306 7.3256e-20)
(-3.60149 -0.0148949 0)
(-3.58931 -0.0280428 0)
(-3.57167 -0.0416603 0)
(-3.54825 -0.0557069 0)
(-3.51875 -0.0701228 0)
(-3.48291 -0.0848498 6.9195e-20)
(-3.44053 -0.0998157 0)
(-3.39138 -0.114963 6.65092e-20)
(-3.33533 -0.130182 6.48232e-20)
(-3.2722 -0.145348 -6.28526e-20)
(-3.20186 -0.160386 0)
(-3.12422 -0.175114 -5.79994e-20)
(-3.03938 -0.189405 0)
(-2.9473 -0.203166 -5.17745e-20)
(-2.84818 -0.216256 4.80952e-20)
(-2.7422 -0.228625 1.34498e-19)
(-2.62965 -0.240128 0)
(-2.51089 -0.250662 1.07167e-19)
(-2.38632 -0.260136 3.27724e-20)
(-2.25643 -0.268467 0)
(-2.12174 -0.275582 3.94831e-20)
(-1.98282 -0.28143 2.69727e-20)
(-1.8403 -0.285971 -1.84372e-20)
(-1.69484 -0.289197 0)
(-1.54711 -0.291109 9.71311e-21)
(-1.39776 -0.291717 1.73241e-20)
(-1.24742 -0.291045 7.04149e-20)
(-1.09671 -0.289153 0)
(-0.946251 -0.28613 0)
(-0.79664 -0.282107 0)
(-0.648418 -0.277221 5.28697e-20)
(-0.502069 -0.271599 0)
(-0.358002 -0.265371 0)
(-0.216582 -0.258676 -8.43273e-20)
(-0.0778881 -0.251741 -9.22387e-20)
(0.0578036 -0.24469 0)
(0.189809 -0.237328 0)
(0.317623 -0.229519 -2.18573e-19)
(0.440944 -0.221359 0)
(0.559516 -0.212867 2.37664e-19)
(0.673373 -0.203947 2.42202e-19)
(0.782815 -0.194676 0)
(0.888047 -0.185321 0)
(0.989132 -0.176059 -2.66952e-19)
(1.08611 -0.167007 -3.47279e-21)
(1.17904 -0.158235 -3.26702e-21)
(1.26802 -0.149785 0)
(1.35316 -0.141677 -5.89968e-19)
(1.43459 -0.133924 0)
(1.51242 -0.126535 0)
(1.58675 -0.119508 0)
(1.6577 -0.11284 3.1586e-19)
(1.72542 -0.106514 0)
(1.79004 -0.100521 -6.43175e-19)
(1.85168 -0.094855 -3.26843e-19)
(1.91048 -0.0895152 0)
(1.96658 -0.0844829 -3.32832e-19)
(2.02013 -0.0797457 0)
(2.07126 -0.0752948 0)
(2.1201 -0.0711205 -1.0186e-18)
(2.16678 -0.0672093 6.82651e-19)
(2.21141 -0.0635571 0)
(2.25412 -0.0601476 6.90565e-19)
(2.29504 -0.0569682 -3.48055e-19)
(2.33428 -0.0540078 0)
(2.37196 -0.0512574 0)
(2.40818 -0.0487067 0)
(2.44306 -0.0463427 -1.05997e-18)
(2.47669 -0.0441531 0)
(2.50917 -0.0421234 -3.56118e-19)
(2.54059 -0.0402459 0)
(2.57103 -0.0385072 0)
(2.60056 -0.0368816 0)
(2.62923 -0.0353448 0)
(2.65709 -0.03387 0)
(2.68415 -0.0324115 0)
(2.71039 -0.0309129 -7.23231e-19)
(2.73573 -0.0292984 0)
(2.76004 -0.0274384 -3.63667e-19)
(2.78305 -0.0251335 1.09312e-18)
(2.8044 -0.0220411 0)
(2.82338 -0.0175586 0)
(2.83942 -0.0103761 -7.39013e-19)
(2.85049 0.00159634 -7.44526e-19)
(2.86104 0.0239072 7.50046e-19)
(2.85985 0.066044 7.69526e-19)
(0.00758983 -0.225506 -1.29884e-18)
(0.0200442 -0.209763 -5.76108e-19)
(0.0220896 -0.172262 -2.37771e-19)
(0.021314 -0.134886 -8.90683e-20)
(0.0171644 -0.098147 0)
(0.00931406 -0.061891 1.32043e-19)
(-0.00219332 -0.0261284 -6.0917e-20)
(-0.0173149 0.00909667 0)
(-0.0360878 0.0437395 -5.49279e-20)
(-0.058599 0.077646 0)
(-0.0849155 0.1105 1.03382e-19)
(-0.115197 0.14205 0)
(-0.149715 0.172428 4.97259e-20)
(-0.188644 0.201876 9.77565e-20)
(-0.232007 0.230566 -9.60312e-20)
(-0.279733 0.258439 0)
(-0.331712 0.285309 -9.17035e-20)
(-0.38781 0.311373 0)
(-0.447583 0.336803 0)
(-0.51028 0.361478 -8.26608e-20)
(-0.574996 0.385014 0)
(-0.640895 0.406915 1.52576e-22)
(-0.707313 0.426516 0)
(-0.773678 0.44303 0)
(-0.839434 0.455837 -5.14965e-23)
(-0.904143 0.464635 -6.47299e-20)
(-0.967457 0.46938 -6.21994e-20)
(-1.02912 0.470208 -5.98954e-20)
(-1.08897 0.467374 0)
(-1.14693 0.461239 -1.11364e-19)
(-1.203 0.452241 0)
(-1.25727 0.440884 -5.20648e-20)
(-1.30984 0.427704 0)
(-1.36085 0.413216 0)
(-1.41042 0.397894 4.77122e-20)
(-1.45866 0.38216 0)
(-1.50566 0.366378 -4.53677e-20)
(-1.55152 0.350849 -9.93524e-23)
(-1.5963 0.335809 8.68716e-20)
(-1.64008 0.321438 -8.50145e-20)
(-1.6829 0.307864 0)
(-1.72483 0.295171 0)
(-1.76592 0.283405 -4.01358e-20)
(-1.80623 0.272584 0)
(-1.84581 0.262703 -3.91295e-20)
(-1.88472 0.253739 3.85684e-20)
(-1.92302 0.245657 3.80419e-20)
(-1.96077 0.238411 0)
(-1.99803 0.231953 -3.70781e-20)
(-2.03486 0.226228 -3.66348e-20)
(-2.07132 0.22118 7.21497e-20)
(-2.10748 0.216753 -3.58123e-20)
(-2.14338 0.212893 -3.5429e-20)
(-2.17909 0.209545 0)
(-2.21464 0.206657 0)
(-2.2501 0.204177 3.43717e-20)
(-2.28551 0.202056 0)
(-2.32089 0.200247 0)
(-2.35629 0.198703 -6.68568e-20)
(-2.39173 0.197377 -6.62707e-20)
(-2.42724 0.196227 0)
(-2.46283 0.195208 0)
(-2.4985 0.194278 0)
(-2.53428 0.193392 0)
(-2.57014 0.192508 -6.36267e-20)
(-2.6061 0.191582 6.27671e-20)
(-2.64212 0.190571 6.26891e-20)
(-2.67819 0.189435 1.24102e-19)
(-2.71428 0.188132 0)
(-2.75034 0.186618 -3.89296e-22)