/*--------------------------------*- C++ -*----------------------------------*\
| =========                 |                                                 |
| \\      /  F ield         | OpenFOAM: The Open Source CFD Toolbox           |
|  \\    /   O peration     | Version:  2312                                  |
|   \\  /    A nd           | Website:  www.openfoam.com                      |
|    \\/     M anipulation  |                                                 |
\*---------------------------------------------------------------------------*/
FoamFile
{
    version     2.0;
    format      ascii;
    arch        "LSB;label=64;scalar=64";
    class       volScalarField;
    location    "70";
    object      nut_ML_ND;
}
// * * * * * * * * * * * * * * * * * * * * * * * * * * * * * * * * * * * * * //

dimensions      [0 0 0 0 0 0 0];

internalField   nonuniform List<scalar> 
404911
(
0.534568
0.563805
0.216429
0.0798899
0.580201
0.57621
0.562605
0.323792
0.346801
0.331813
0.589079
0.569321
0.589583
0.592525
0.54722
0.353838
0.585066
0.587596
0.585148
0.56292
0.520716
0.593348
0.522619
0.54386
0.583888
0.521659
0.58613
0.582751
0.594402
0.52225
0.590915
0.588843
0.609015
0.552786
0.606777
0.590267
0.584955
0.535897
0.573921
0.579425
0.578907
0.445124
0.560962
0.577357
0.584318
0.550943
0.532513
0.576032
0.585999
0.487347
0.511099
0.545612
0.570193
0.502046
0.532467
0.516237
0.0761419
0.583037
0.546713
0.558286
0.569903
0.576376
0.558073
0.585759
0.578523
0.555506
0.584933
0.550381
0.579147
0.585037
0.575877
0.582818
0.577969
0.5801
0.585771
0.533637
0.352084
0.566394
0.579855
0.57531
0.578898
0.571641
0.584748
0.574329
0.580736
0.578713
0.550882
0.582695
0.520946
0.567035
0.567493
0.337403
0.581644
0.573321
0.571692
0.58083
0.57591
0.576589
0.584804
0.560894
0.529545
0.584038
0.577433
0.533742
0.519473
0.547656
0.572037
0.556984
0.586193
0.595609
0.590446
0.583651
0.577546
0.577306
0.376403
0.562355
0.58664
0.379738
0.541139
0.570925
0.571024
0.57421
0.578213
0.575891
0.528129
0.583181
0.587562
0.579936
0.576175
0.54376
0.546771
0.549519
0.577167
0.574116
0.575002
0.579111
0.580481
0.582718
0.579623
0.562535
0.535916
0.583713
0.587898
0.583042
0.574928
0.569615
0.568349
0.56985
0.541494
0.54737
0.578134
0.572173
0.571733
0.517646
0.556793
0.539511
0.58558
0.589713
0.585747
0.580036
0.577814
0.56785
0.568723
0.568552
0.570138
0.573638
0.575212
0.578481
0.573155
0.569423
0.576433
0.561203
0.564468
0.549526
0.541548
0.548834
0.538458
0.568281
0.57136
0.573616
0.575272
0.576567
0.576958
0.578175
0.580974
0.582236
0.588025
0.558326
0.565939
0.547014
0.544901
0.562558
0.553292
0.544467
0.547678
0.572851
0.575324
0.57673
0.577598
0.579597
0.582728
0.584425
0.525114
0.540885
0.589548
0.568586
0.58129
0.566143
0.556818
0.535929
0.545926
0.552071
0.552234
0.552173
0.546498
0.575321
0.576343
0.578619
0.581437
0.583326
0.562958
0.54023
0.559631
0.583638
0.571781
0.576646
0.567684
0.557545
0.563333
0.566933
0.534856
0.556535
0.572473
0.57409
0.571712
0.579395
0.584745
0.578327
0.525628
0.524623
0.57767
0.586659
0.578912
0.576353
0.579323
0.575098
0.578406
0.573394
0.561811
0.562672
0.577071
0.579588
0.55944
0.546829
0.584596
0.58976
0.527455
0.560981
0.584489
0.586526
0.576655
0.57808
0.578958
0.579326
0.582067
0.58261
0.579869
0.579872
0.578597
0.559013
0.544349
0.552627
0.554309
0.579752
0.568029
0.586793
0.582295
0.558695
0.574793
0.581472
0.58205
0.580301
0.579548
0.581326
0.578988
0.579063
0.569518
0.547872
0.549929
0.562295
0.519765
0.579066
0.59172
0.585428
0.580806
0.580102
0.576438
0.583216
0.581938
0.581296
0.577387
0.574369
0.577268
0.579127
0.570397
0.556352
0.557391
0.584761
0.533601
0.530082
0.535709
0.580666
0.575956
0.582627
0.581784
0.57884
0.580469
0.578467
0.580029
0.577538
0.578375
0.580032
0.580734
0.578861
0.56193
0.586953
0.557514
0.529946
0.582236
0.58673
0.582273
0.579415
0.577108
0.578637
0.581758
0.578376
0.576123
0.578373
0.581008
0.577766
0.577988
0.582824
0.57776
0.564827
0.58187
0.563943
0.587725
0.58576
0.584469
0.582266
0.57508
0.577073
0.581062
0.583038
0.580763
0.58417
0.584083
0.581273
0.577627
0.576413
0.573934
0.590268
0.533032
0.530881
0.585789
0.588584
0.584179
0.584799
0.584607
0.582284
0.579651
0.583108
0.583947
0.584215
0.581224
0.583624
0.579566
0.581434
0.587856
0.559498
0.536619
0.582677
0.593265
0.586416
0.581671
0.579731
0.580809
0.581816
0.586791
0.585455
0.583808
0.583132
0.583966
0.581818
0.580127
0.577801
0.587538
0.579977
0.545313
0.527576
0.539222
0.578342
0.57822
0.575537
0.583425
0.582144
0.581051
0.585061
0.587947
0.586504
0.584455
0.583559
0.583767
0.579749
0.579405
0.586943
0.566632
0.572519
0.592733
0.585603
0.580687
0.581634
0.584424
0.584629
0.583513
0.585537
0.582447
0.584065
0.58412
0.583367
0.582246
0.585545
0.585889
0.577327
0.539014
0.594981
0.594836
0.584682
0.583058
0.58253
0.584659
0.585829
0.583424
0.580936
0.579522
0.576057
0.581399
0.582811
0.583526
0.582618
0.587103
0.57491
0.573506
0.597973
0.590734
0.586576
0.583634
0.583584
0.584086
0.585785
0.585163
0.580509
0.578245
0.581224
0.581159
0.577701
0.586511
0.586348
0.586972
0.530423
0.590522
0.598289
0.593739
0.587293
0.584962
0.585222
0.583048
0.580014
0.584936
0.585102
0.584129
0.582917
0.580858
0.579112
0.582321
0.588098
0.582105
0.528177
0.570593
0.596505
0.595827
0.590171
0.586164
0.585003
0.584423
0.58655
0.585107
0.584358
0.584605
0.583537
0.583195
0.583626
0.580643
0.589661
0.586543
0.531682
0.528609
0.588372
0.595412
0.588534
0.586983
0.585743
0.583975
0.584692
0.585371
0.586228
0.585779
0.58576
0.581715
0.58205
0.582448
0.584663
0.58581
0.575115
0.565634
0.591004
0.590641
0.587852
0.585658
0.585102
0.5846
0.584837
0.584459
0.585619
0.585735
0.585728
0.58351
0.582034
0.582086
0.582196
0.582927
0.528175
0.522113
0.582263
0.589429
0.588541
0.586164
0.58501
0.58449
0.584525
0.584465
0.584535
0.585393
0.586131
0.586056
0.585326
0.584144
0.585352
0.582146
0.576819
0.52946
0.585958
0.586634
0.585752
0.585493
0.585133
0.584904
0.58478
0.584541
0.584629
0.584292
0.584747
0.584668
0.584394
0.584972
0.584705
0.585221
0.575346
0.580257
0.590334
0.583339
0.583397
0.584731
0.584868
0.584989
0.585022
0.585287
0.585163
0.584493
0.58451
0.584042
0.584641
0.58509
0.588259
0.58738
0.560056
0.588657
0.590889
0.583296
0.582869
0.584181
0.585246
0.585332
0.585408
0.58482
0.585357
0.585485
0.585323
0.585233
0.584184
0.587421
0.589404
0.583344
0.526369
0.530602
0.595065
0.594754
0.588517
0.583737
0.584703
0.584634
0.585391
0.585767
0.586777
0.585429
0.5853
0.58528
0.585438
0.585256
0.584659
0.587917
0.565177
0.538752
0.597855
0.596566
0.589373
0.585375
0.58519
0.585048
0.584757
0.585343
0.586208
0.586917
0.584949
0.584784
0.58467
0.586015
0.585636
0.587626
0.526293
0.583992
0.595689
0.593823
0.588914
0.585232
0.584793
0.585139
0.585158
0.584538
0.58445
0.585616
0.585416
0.584746
0.584381
0.584667
0.588601
0.586367
0.522645
0.586905
0.595193
0.592456
0.586996
0.585665
0.584322
0.585814
0.585768
0.584731
0.58452
0.583982
0.584515
0.585065
0.585171
0.586818
0.588439
0.577682
0.531067
0.593029
0.593873
0.590552
0.585727
0.584503
0.584934
0.585269
0.586437
0.58578
0.585437
0.584947
0.584325
0.583988
0.584108
0.584307
0.586432
0.563429
0.568426
0.594346
0.591856
0.587073
0.585225
0.584981
0.585057
0.585536
0.585307
0.586167
0.585553
0.585713
0.584721
0.58428
0.582858
0.583238
0.583687
0.526818
0.585883
0.595971
0.592419
0.587322
0.585644
0.585512
0.585633
0.586229
0.58508
0.585447
0.585531
0.586027
0.585056
0.584157
0.584019
0.579984
0.577071
0.521057
0.52846
0.590979
0.595023
0.591668
0.586739
0.585602
0.585203
0.585066
0.586141
0.586189
0.585885
0.585808
0.585933
0.586216
0.585267
0.583673
0.582614
0.572101
0.528483
0.590789
0.593638
0.589705
0.586386
0.585409
0.586522
0.585382
0.58473
0.585922
0.585974
0.586036
0.585789
0.585126
0.584959
0.584641
0.581631
0.557498
0.528968
0.591444
0.592903
0.588978
0.585217
0.584958
0.587972
0.587012
0.585079
0.585446
0.585697
0.585177
0.585283
0.585333
0.583115
0.581328
0.579879
0.525654
0.530406
0.593308
0.59296
0.588554
0.585153
0.583894
0.587288
0.588275
0.585112
0.584263
0.585428
0.585843
0.585992
0.586029
0.584672
0.580826
0.571312
0.518075
0.587735
0.595619
0.592257
0.587602
0.585142
0.584569
0.586372
0.586857
0.585138
0.585094
0.585692
0.58576
0.585705
0.58505
0.583815
0.582502
0.570512
0.524649
0.59102
0.598165
0.592637
0.586269
0.584895
0.58574
0.586494
0.586573
0.58584
0.584809
0.58574
0.584034
0.585752
0.584767
0.582736
0.579162
0.572782
0.527827
0.596115
0.596125
0.589991
0.585531
0.58507
0.585214
0.585251
0.585558
0.584852
0.584504
0.583952
0.585083
0.585553
0.584574
0.584981
0.582782
0.573412
0.533875
0.595604
0.598049
0.591433
0.585715
0.584262
0.585895
0.58554
0.586497
0.587165
0.583819
0.584709
0.583629
0.583426
0.584245
0.584234
0.584952
0.575417
0.532051
0.594847
0.597621
0.591783
0.586482
0.583686
0.584707
0.585031
0.585503
0.586414
0.586488
0.584787
0.584756
0.584638
0.585065
0.584398
0.588094
0.574959
0.532115
0.594415
0.595624
0.590822
0.58664
0.584864
0.585394
0.584536
0.583231
0.584455
0.585682
0.585849
0.585376
0.585007
0.585868
0.588773
0.589864
0.565021
0.534726
0.593474
0.591873
0.588186
0.58551
0.584692
0.58691
0.586888
0.585543
0.584268
0.583843
0.584625
0.585052
0.585096
0.586068
0.588886
0.58988
0.528966
0.584623
0.593429
0.589916
0.585374
0.584343
0.585298
0.587255
0.586234
0.585604
0.585446
0.585393
0.585115
0.584461
0.58498
0.585928
0.587713
0.589465
0.525459
0.58526
0.594374
0.590999
0.586517
0.58485
0.585971
0.586647
0.58601
0.58574
0.585446
0.585709
0.585548
0.585431
0.585269
0.585719
0.587229
0.586984
0.526563
0.523903
0.593019
0.594001
0.589613
0.586333
0.584432
0.587251
0.586083
0.586004
0.585036
0.584098
0.579106
0.585124
0.585616
0.58548
0.585526
0.586284
0.585407
0.526339
0.528388
0.591583
0.594015
0.584846
0.583784
0.58489
0.585436
0.585887
0.582356
0.581069
0.581563
0.576884
0.57887
0.586152
0.585248
0.585457
0.585916
0.580735
0.588781
0.592023
0.588494
0.585298
0.58345
0.583766
0.58409
0.584825
0.575939
0.575999
0.569624
0.584141
0.585706
0.585184
0.586274
0.58572
0.578077
0.527456
0.585771
0.589307
0.587893
0.585912
0.585081
0.583598
0.583887
0.58565
0.585379
0.572094
0.567098
0.578495
0.585518
0.583529
0.583207
0.584676
0.571501
0.523326
0.584242
0.58666
0.586581
0.5856
0.58559
0.58535
0.584815
0.584913
0.586148
0.584354
0.571599
0.576456
0.585808
0.584861
0.583033
0.583424
0.558127
0.518298
0.581144
0.583355
0.584396
0.584567
0.585751
0.585819
0.585738
0.585758
0.585742
0.585995
0.585673
0.584989
0.585649
0.584883
0.585098
0.583551
0.527373
0.578351
0.57667
0.581668
0.58376
0.584943
0.585666
0.585317
0.585341
0.583273
0.584824
0.585691
0.585426
0.585196
0.58384
0.58359
0.582646
0.523757
0.523739
0.574008
0.582488
0.584574
0.585204
0.58533
0.584626
0.58474
0.584971
0.576988
0.585058
0.585349
0.584475
0.585073
0.581856
0.582097
0.519388
0.503757
0.558408
0.576958
0.582755
0.585014
0.585921
0.585806
0.585092
0.585106
0.585141
0.585454
0.583719
0.585807
0.585099
0.584738
0.584708
0.581058
0.520208
0.562574
0.581184
0.581172
0.584039
0.585519
0.585212
0.585781
0.585464
0.585674
0.5857
0.585982
0.585784
0.585722
0.585729
0.584718
0.583506
0.571903
0.564544
0.579064
0.58186
0.585183
0.585647
0.585537
0.585525
0.585448
0.585907
0.585513
0.578158
0.586044
0.584781
0.58497
0.584222
0.58264
0.569719
0.513287
0.569861
0.576764
0.581678
0.583177
0.584567
0.585298
0.586271
0.585794
0.585758
0.584404
0.582859
0.585385
0.585303
0.58442
0.581652
0.579699
0.52788
0.52546
0.578058
0.579744
0.583076
0.58294
0.585774
0.5853
0.585569
0.585555
0.583962
0.585103
0.584538
0.5854
0.585127
0.582394
0.580854
0.577669
0.51827
0.529922
0.581605
0.57132
0.579866
0.58432
0.585607
0.585858
0.576225
0.584739
0.577144
0.579075
0.583805
0.586009
0.586016
0.581377
0.580049
0.578414
0.517299
0.55126
0.58044
0.579359
0.583772
0.586017
0.585673
0.584166
0.577183
0.58241
0.586132
0.585301
0.586022
0.585889
0.585758
0.583558
0.577906
0.581117
0.521672
0.525512
0.576859
0.580895
0.581233
0.583661
0.585991
0.578645
0.553482
0.560654
0.583913
0.585777
0.585361
0.584574
0.584757
0.585121
0.583077
0.581411
0.567021
0.524795
0.535583
0.582728
0.579965
0.582133
0.5847
0.585851
0.566134
0.54586
0.555312
0.583057
0.58587
0.585284
0.58433
0.583787
0.583115
0.583561
0.581944
0.580266
0.51884
0.579619
0.58176
0.584917
0.58558
0.585555
0.561235
0.5464
0.551827
0.572671
0.585848
0.585525
0.584541
0.583633
0.583903
0.582764
0.585231
0.577124
0.517949
0.579644
0.581519
0.582381
0.586499
0.583582
0.54946
0.546776
0.562688
0.572991
0.582682
0.586167
0.585346
0.584801
0.583983
0.58423
0.586735
0.572947
0.586888
0.585162
0.580256
0.585671
0.582517
0.551211
0.546366
0.553476
0.582473
0.578584
0.586033
0.585493
0.584056
0.58434
0.584015
0.585893
0.560883
0.590515
0.585608
0.582385
0.584358
0.585116
0.549263
0.546568
0.556001
0.571298
0.579939
0.584525
0.585694
0.584677
0.583192
0.585467
0.585055
0.529719
0.535684
0.589787
0.588764
0.581579
0.584049
0.586183
0.567701
0.550801
0.565407
0.578905
0.585952
0.58621
0.586395
0.584244
0.583786
0.581372
0.581882
0.525486
0.533093
0.585104
0.585634
0.58201
0.585381
0.585879
0.554515
0.551328
0.573372
0.584737
0.586304
0.585905
0.584985
0.584826
0.585442
0.584529
0.57524
0.532284
0.584828
0.585679
0.583806
0.584963
0.585607
0.56225
0.548805
0.560007
0.584828
0.586249
0.585882
0.584952
0.584192
0.585423
0.585529
0.572578
0.533672
0.58712
0.585416
0.583393
0.585307
0.58373
0.551322
0.555864
0.581423
0.585926
0.585944
0.585681
0.584816
0.584763
0.584828
0.587283
0.572444
0.539944
0.592517
0.587483
0.584573
0.584236
0.585995
0.557813
0.555784
0.578034
0.585907
0.586299
0.585657
0.585149
0.585113
0.586629
0.586378
0.534231
0.550815
0.599779
0.592151
0.58398
0.585115
0.585718
0.585943
0.574077
0.573554
0.585919
0.585708
0.585272
0.585383
0.585459
0.585383
0.584153
0.531353
0.607147
0.603411
0.595056
0.582358
0.585695
0.58354
0.5831
0.585758
0.58595
0.585894
0.58585
0.585286
0.585024
0.585108
0.585037
0.582457
0.526821
0.589066
0.577912
0.581893
0.586391
0.582864
0.552134
0.570417
0.583818
0.585483
0.586183
0.585439
0.58489
0.584201
0.582967
0.577372
0.522782
0.588941
0.579719
0.580094
0.586062
0.556433
0.549518
0.554618
0.585002
0.586269
0.586134
0.585855
0.584353
0.583008
0.580759
0.570406
0.58961
0.589658
0.58095
0.577787
0.582396
0.557612
0.550872
0.566932
0.584972
0.586515
0.586432
0.585122
0.582829
0.5809
0.579755
0.565876
0.590751
0.593142
0.586986
0.579367
0.579889
0.586223
0.559423
0.561953
0.586122
0.586686
0.586064
0.583486
0.582165
0.577866
0.58042
0.526147
0.592102
0.594114
0.58565
0.579823
0.579745
0.582683
0.585084
0.584193
0.585508
0.584859
0.58205
0.581437
0.580788
0.575273
0.581163
0.524747
0.539429
0.592302
0.592635
0.58967
0.582072
0.577524
0.5811
0.583781
0.58222
0.577229
0.577854
0.579674
0.583783
0.580639
0.574665
0.55768
0.53778
0.598181
0.591764
0.581129
0.584312
0.57973
0.580561
0.58357
0.587516
0.586913
0.58127
0.580248
0.582716
0.577149
0.566412
0.58194
0.547743
0.596101
0.593135
0.587272
0.583019
0.579337
0.582838
0.581689
0.58584
0.587156
0.579651
0.578091
0.578471
0.57695
0.564178
0.537316
0.591333
0.597634
0.562295
0.569116
0.582246
0.584077
0.585457
0.586996
0.58627
0.585301
0.581443
0.579862
0.578511
0.576886
0.573129
0.465622
0.583042
0.57199
0.578354
0.58021
0.579907
0.57914
0.587095
0.585117
0.581319
0.580874
0.581588
0.582981
0.579377
0.580284
0.577624
0.544909
0.530353
0.558417
0.574989
0.577221
0.579644
0.581833
0.585883
0.586722
0.578291
0.579348
0.578754
0.580362
0.591286
0.585485
0.580724
0.522791
0.58787
0.56242
0.568947
0.57853
0.581742
0.586618
0.584623
0.580697
0.580041
0.581955
0.580579
0.584324
0.584494
0.588246
0.520634
0.523977
0.587831
0.586632
0.560558
0.566245
0.580573
0.583547
0.584845
0.579916
0.579255
0.581155
0.577289
0.579077
0.585093
0.577008
0.531253
0.562491
0.588617
0.586385
0.54897
0.553291
0.576958
0.581362
0.582085
0.580579
0.579974
0.578688
0.576
0.584804
0.586517
0.577783
0.524302
0.563604
0.55044
0.543403
0.56682
0.580966
0.581418
0.581277
0.579018
0.577527
0.573837
0.580929
0.57967
0.525514
0.536621
0.557026
0.556384
0.547702
0.566347
0.557769
0.580838
0.577989
0.579029
0.575143
0.583115
0.582184
0.571654
0.522259
0.581872
0.581287
0.552418
0.547704
0.57548
0.557346
0.547391
0.582111
0.576877
0.575303
0.579684
0.579454
0.560932
0.51934
0.583053
0.581838
0.548607
0.539258
0.565226
0.580015
0.571514
0.550079
0.559244
0.567813
0.582562
0.581559
0.519011
0.521757
0.583121
0.557938
0.545038
0.539388
0.547996
0.572731
0.56772
0.580017
0.554011
0.553
0.583602
0.582499
0.520913
0.521547
0.581016
0.546734
0.546778
0.540222
0.542377
0.569008
0.577005
0.581645
0.568404
0.54855
0.583391
0.577661
0.525521
0.526393
0.57901
0.576842
0.54477
0.541978
0.5408
0.526175
0.579436
0.576561
0.561446
0.584829
0.584798
0.577129
0.518913
0.516259
0.516783
0.569754
0.573009
0.543641
0.547109
0.538699
0.555248
0.571083
0.551194
0.547341
0.590451
0.583094
0.570581
0.543405
0.543907
0.541945
0.583891
0.549598
0.551851
0.570839
0.576118
0.566493
0.573598
0.5454
0.543665
0.585985
0.586627
0.582766
0.53517
0.339131
0.535814
0.577683
0.554318
0.559254
0.588314
0.57779
0.344894
0.364793
0.548284
0.539165
0.581516
0.588493
0.534695
0.544495
0.528763
0.579954
0.586631
0.570707
0.527747
0.534952
0.571918
0.584925
0.587532
0.532717
0.525979
0.558724
0.50895
0.52891
0.577335
0.566254
0.581313
0.580396
0.575882
0.56989
0.572771
0.571867
0.566485
0.554741
0.542217
0.51838
0.523414
0.317365
0.550717
0.537763
0.575323
0.573297
0.561701
0.604524
0.610135
0.60717
0.598135
0.588979
0.581347
0.578566
0.587255
0.566079
0.611075
0.623213
0.626886
0.622899
0.614311
0.605018
0.595821
0.585061
0.577414
0.577981
0.581179
0.584537
0.586632
0.585845
0.567715
0.614479
0.627211
0.627254
0.623548
0.62004
0.614639
0.607299
0.599308
0.591064
0.584993
0.579651
0.584083
0.587412
0.589232
0.590209
0.590338
0.587792
0.584772
0.58584
0.587024
0.568901
0.574829
0.606752
0.619461
0.619986
0.618755
0.614611
0.607442
0.601264
0.593794
0.588491
0.587086
0.586855
0.586813
0.589375
0.573235
0.583188
0.590937
0.589646
0.58691
0.581461
0.579377
0.579301
0.567186
0.586949
0.608219
0.615779
0.614505
0.607647
0.609821
0.608717
0.60357
0.596377
0.586131
0.579344
0.578664
0.581319
0.585109
0.586857
0.586835
0.588581
0.568238
0.57233
0.580678
0.579267
0.579554
0.579632
0.587139
0.542224
0.590112
0.603164
0.603835
0.603504
0.601488
0.596616
0.584559
0.578565
0.566005
0.586514
0.586333
0.57727
0.576468
0.581882
0.589644
0.592966
0.591674
0.58787
0.587929
0.562305
0.57056
0.585256
0.5889
0.594454
0.580819
0.528196
0.589691
0.582021
0.584328
0.585387
0.585317
0.585453
0.584632
0.581656
0.581303
0.581355
0.566264
0.577621
0.581128
0.576403
0.587267
0.570034
0.587381
0.587391
0.583234
0.583264
0.561139
0.570168
0.593585
0.579935
0.533046
0.583043
0.57858
0.581049
0.58536
0.58511
0.583906
0.583077
0.584861
0.581481
0.578958
0.580501
0.582835
0.580405
0.5776
0.579268
0.600609
0.59085
0.582485
0.593909
0.592569
0.589242
0.590156
0.594242
0.583276
0.585384
0.537355
0.590135
0.581967
0.580166
0.584252
0.585203
0.585286
0.584735
0.583725
0.586127
0.584872
0.583144
0.57663
0.580036
0.580633
0.582307
0.588099
0.590068
0.596095
0.589933
0.600944
0.59968
0.599957
0.59839
0.585401
0.540998
0.583057
0.59759
0.593585
0.587556
0.581819
0.581396
0.584684
0.58563
0.584906
0.583301
0.586502
0.584923
0.585111
0.585383
0.586885
0.585345
0.58324
0.583861
0.591273
0.588637
0.597443
0.602101
0.601881
0.600709
0.585264
0.549862
0.591157
0.591023
0.586356
0.587395
0.584492
0.581677
0.584968
0.587526
0.587693
0.589409
0.5886
0.59066
0.590594
0.590046
0.589434
0.588702
0.58756
0.585149
0.585289
0.588667
0.602483
0.587282
0.596584
0.587197
0.496049
0.552827
0.515908
0.586064
0.585736
0.585305
0.583906
0.583872
0.585427
0.589526
0.58968
0.589584
0.589013
0.588591
0.589073
0.588596
0.587436
0.589962
0.588235
0.584958
0.585113
0.58721
0.595378
0.604981
0.582335
0.532998
0.530362
0.583217
0.582871
0.584215
0.584401
0.583369
0.586672
0.587209
0.585863
0.586806
0.588608
0.58788
0.588207
0.588016
0.587532
0.586434
0.587394
0.588251
0.58154
0.583993
0.592753
0.605872
0.604906
0.587032
0.586871
0.597643
0.592018
0.582666
0.581458
0.585006
0.584142
0.582871
0.58741
0.586527
0.585987
0.584782
0.585782
0.585639
0.587764
0.586963
0.586893
0.586464
0.58589
0.585248
0.582272
0.590076
0.60229
0.601726
0.585229
0.586361
0.602222
0.597752
0.589473
0.585354
0.584223
0.584784
0.584301
0.583881
0.586595
0.58621
0.585703
0.586163
0.585142
0.585406
0.586908
0.586847
0.586664
0.58621
0.586093
0.582833
0.58193
0.578619
0.593191
0.577683
0.589373
0.601502
0.595786
0.593765
0.587195
0.584875
0.584674
0.585787
0.586856
0.585522
0.585375
0.586954
0.586444
0.586013
0.585749
0.585234
0.587409
0.587964
0.58724
0.585487
0.584094
0.579887
0.57851
0.575848
0.553511
0.545253
0.591856
0.601506
0.596076
0.591411
0.587936
0.586869
0.58513
0.585524
0.58689
0.589137
0.589521
0.587184
0.586366
0.587299
0.587099
0.58679
0.587094
0.58704
0.587534
0.58524
0.582832
0.581016
0.579214
0.575693
0.570342
0.550608
0.596849
0.605445
0.596891
0.591137
0.587546
0.585837
0.585504
0.585912
0.58717
0.589329
0.593207
0.592932
0.590327
0.587614
0.586727
0.585625
0.583942
0.585442
0.588051
0.585249
0.584344
0.583046
0.579641
0.574077
0.569314
0.556279
0.606805
0.608305
0.596992
0.590228
0.586692
0.585666
0.585767
0.58716
0.588172
0.587312
0.585025
0.587564
0.593485
0.594616
0.59171
0.59011
0.589912
0.589139
0.586539
0.580739
0.58309
0.582014
0.581433
0.581355
0.582357
0.525327
0.54707
0.601719
0.60646
0.598233
0.589327
0.585935
0.585684
0.586865
0.588323
0.589743
0.590038
0.588781
0.587445
0.587556
0.589814
0.594728
0.595292
0.590501
0.587465
0.59138
0.588404
0.585
0.583465
0.583036
0.582554
0.589203
0.523239
0.593355
0.60637
0.597186
0.590216
0.586062
0.586332
0.588393
0.589493
0.590128
0.590879
0.591379
0.591525
0.591186
0.591609
0.593164
0.595254
0.596106
0.592748
0.587745
0.589092
0.588051
0.588583
0.583039
0.582198
0.586642
0.573592
0.585701
0.601389
0.598312
0.590972
0.586183
0.585356
0.585718
0.584864
0.583521
0.582882
0.58421
0.586851
0.589563
0.591495
0.593048
0.594879
0.596572
0.59678
0.593749
0.587897
0.584401
0.584474
0.583443
0.585005
0.587315
0.573117
0.551799
0.597948
0.59833
0.592553
0.587235
0.585227
0.585703
0.585312
0.582624
0.576802
0.573852
0.573386
0.57687
0.58425
0.588719
0.591229
0.593276
0.594684
0.594392
0.591198
0.586772
0.58413
0.585596
0.589141
0.593962
0.580288
0.588803
0.600103
0.594592
0.587724
0.585413
0.585459
0.584546
0.579486
0.574078
0.57061
0.567679
0.567161
0.569831
0.577219
0.584772
0.58991
0.591736
0.592605
0.591654
0.588521
0.58539
0.585829
0.587506
0.590723
0.591882
0.583922
0.59928
0.593461
0.588397
0.585725
0.585931
0.584063
0.578264
0.563254
0.55922
0.561563
0.562039
0.559363
0.560935
0.567346
0.579517
0.58656
0.591411
0.591081
0.588771
0.586169
0.585034
0.5864
0.591228
0.596628
0.554569
0.551216
0.596298
0.596291
0.591637
0.586586
0.58538
0.585555
0.583695
0.564534
0.553922
0.550365
0.551688
0.554554
0.555853
0.555125
0.559812
0.573671
0.581823
0.586802
0.589707
0.586675
0.584429
0.585656
0.590393
0.595977
0.583073
0.54854
0.595108
0.595044
0.590601
0.58691
0.585803
0.585922
0.585632
0.582476
0.566627
0.553714
0.550658
0.548449
0.54879
0.550115
0.553643
0.559164
0.570995
0.584342
0.585868
0.586351
0.585033
0.585816
0.588774
0.590806
0.591905
0.539957
0.583772
0.595134
0.58978
0.58577
0.585365
0.585845
0.586258
0.584852
0.577998
0.561713
0.552702
0.551339
0.551682
0.549741
0.549509
0.554479
0.565651
0.57544
0.583251
0.585814
0.585235
0.586464
0.589096
0.591348
0.591139
0.546904
0.556678
0.596129
0.591756
0.587518
0.585385
0.585885
0.586033
0.585251
0.582711
0.573346
0.557613
0.553777
0.55668
0.56179
0.554255
0.551271
0.556464
0.574925
0.584581
0.585593
0.585581
0.585035
0.587683
0.592661
0.592737
0.549803
0.594924
0.595742
0.589186
0.585793
0.585348
0.584554
0.582268
0.581638
0.578847
0.569517
0.559331
0.554783
0.568067
0.576765
0.569854
0.555675
0.559198
0.576571
0.585582
0.585322
0.584387
0.58566
0.591701
0.595886
0.552812
0.558761
0.597542
0.593197
0.587325
0.585549
0.585747
0.585766
0.577567
0.571247
0.573618
0.57453
0.573225
0.569763
0.570242
0.577663
0.583122
0.573549
0.567026
0.581744
0.585763
0.58525
0.585432
0.588641
0.590607
0.583196
0.591878
0.594261
0.588702
0.585821
0.585853
0.586478
0.585239
0.582693
0.569303
0.563737
0.56839
0.57257
0.575903
0.57392
0.576388
0.582171
0.585409
0.582907
0.584677
0.585162
0.58558
0.587386
0.590308
0.591265
0.547416
0.544654
0.594358
0.591831
0.586278
0.585596
0.586326
0.585617
0.583149
0.579376
0.574317
0.569808
0.5665
0.569586
0.570099
0.56952
0.569006
0.576794
0.584536
0.585779
0.585606
0.585106
0.585032
0.589571
0.5917
0.551821
0.584109
0.591613
0.58914
0.585427
0.585878
0.585936
0.583531
0.57946
0.574913
0.568296
0.563991
0.566712
0.568774
0.573631
0.573881
0.567824
0.57008
0.58269
0.586128
0.584968
0.585426
0.589252
0.589591
0.586547
0.532887
0.554469
0.594601
0.590877
0.586347
0.585374
0.584808
0.58106
0.578379
0.571091
0.562249
0.560743
0.557568
0.558742
0.567248
0.57206
0.577339
0.581895
0.584544
0.585654
0.585793
0.585776
0.5871
0.587983
0.591072
0.547045
0.591054
0.59027
0.587007
0.584873
0.58525
0.586011
0.575928
0.56327
0.559205
0.557015
0.555834
0.556545
0.553478
0.560795
0.573207
0.57958
0.58382
0.586116
0.58594
0.584108
0.585227
0.589309
0.593937
0.57873
0.555416
0.593948
0.590243
0.586592
0.585677
0.585904
0.585928
0.583519
0.568304
0.55391
0.551288
0.550268
0.552426
0.554525
0.559962
0.570187
0.580266
0.584719
0.58715
0.586342
0.585213
0.584703
0.586341
0.589239
0.540949
0.590135
0.592453
0.587668
0.585474
0.585802
0.58598
0.584478
0.581604
0.575388
0.560372
0.552348
0.552262
0.551531
0.558994
0.564798
0.568015
0.579647
0.584979
0.587091
0.586138
0.58514
0.585374
0.58633
0.574796
0.553176
0.594089
0.590442
0.586541
0.585693
0.586028
0.585361
0.582465
0.576357
0.568598
0.565044
0.561911
0.559002
0.563524
0.567441
0.571721
0.572377
0.580035
0.585172
0.58637
0.58544
0.585144
0.587043
0.586829
0.540313
0.588234
0.591818
0.587891
0.585703
0.585739
0.586014
0.584905
0.581282
0.575427
0.565264
0.555587
0.55616
0.561123
0.567143
0.574606
0.579569
0.583443
0.584937
0.586054
0.585994
0.585517
0.586963
0.588121
0.582907
0.550847
0.593088
0.590055
0.586653
0.585777
0.585801
0.585584
0.583408
0.579983
0.574884
0.566901
0.559029
0.551646
0.553671
0.560444
0.573532
0.58185
0.584792
0.586358
0.586314
0.585361
0.584737
0.588519
0.589196
0.544495
0.588981
0.592448
0.588332
0.586008
0.585708
0.585455
0.584109
0.581558
0.577958
0.574083
0.569719
0.55749
0.551482
0.551668
0.55782
0.567706
0.5807
0.58607
0.587329
0.585879
0.584494
0.585888
0.586363
0.585992
0.591451
0.590083
0.587324
0.586026
0.585477
0.584494
0.582181
0.579082
0.576042
0.572934
0.56933
0.566357
0.556239
0.554009
0.558915
0.569911
0.580358
0.585582
0.587414
0.585277
0.585111
0.586598
0.590438
0.552413
0.549448
0.592776
0.590413
0.586694
0.585847
0.585021
0.583019
0.580007
0.576871
0.574497
0.572996
0.571035
0.568029
0.5669
0.567363
0.5711
0.577206
0.582696
0.586362
0.586646
0.585484
0.584422
0.5863
0.586462
0.535772
0.551792
0.589686
0.588016
0.586047
0.585737
0.584431
0.58133
0.577604
0.574502
0.572424
0.57153
0.571216
0.570531
0.569989
0.571728
0.576227
0.580965
0.584566
0.58679
0.586538
0.585089
0.585294
0.585366
0.552581
0.578345
0.591028
0.587212
0.585882
0.585724
0.581969
0.577513
0.574533
0.570532
0.567033
0.566691
0.568744
0.570276
0.571403
0.573581
0.57784
0.5827
0.586113
0.587416
0.586003
0.584341
0.585639
0.588952
0.544704
0.590655
0.590197
0.587173
0.585739
0.58575
0.583178
0.572846
0.568431
0.568506
0.563983
0.55666
0.559486
0.567773
0.571395
0.574014
0.578078
0.582883
0.586498
0.586919
0.584951
0.58525
0.585618
0.583902
0.552123
0.591542
0.588924
0.586388
0.585831
0.585517
0.583736
0.57728
0.567933
0.566118
0.565677
0.561355
0.556493
0.562043
0.57128
0.575709
0.578972
0.583001
0.586029
0.586274
0.584924
0.584795
0.588899
0.548397
0.576938
0.591965
0.588139
0.585995
0.585762
0.585344
0.58237
0.577262
0.570954
0.56637
0.56644
0.566888
0.565082
0.565259
0.570507
0.57659
0.580921
0.584169
0.586132
0.585809
0.5852
0.585652
0.587487
0.534677
0.5894
0.589195
0.586812
0.585806
0.585929
0.585259
0.581811
0.575718
0.567181
0.560517
0.562061
0.56605
0.568433
0.569933
0.571736
0.576391
0.581231
0.584731
0.586314
0.585669
0.585155
0.586271
0.584497
0.546711
0.591841
0.589521
0.586759
0.585773
0.585947
0.584803
0.581134
0.575134
0.567437
0.557532
0.552499
0.558114
0.56541
0.569834
0.573243
0.577077
0.581732
0.585343
0.586331
0.585131
0.585799
0.586635
0.573026
0.573736
0.589648
0.587774
0.585786
0.585769
0.585605
0.584021
0.579749
0.572909
0.564666
0.557928
0.553502
0.550863
0.554666
0.564847
0.572472
0.577526
0.582421
0.585596
0.586312
0.584555
0.585633
0.589639
0.547402
0.585995
0.590435
0.587376
0.586298
0.585579
0.584901
0.582584
0.578282
0.570412
0.558377
0.551479
0.550264
0.552379
0.551531
0.55415
0.567478
0.577763
0.582746
0.586004
0.585846
0.585465
0.585585
0.588688
0.533822
0.589432
0.587739
0.586429
0.585908
0.585529
0.584161
0.580759
0.576198
0.569794
0.559085
0.548612
0.545572
0.547357
0.552233
0.556265
0.564042
0.576214
0.583312
0.585825
0.585756
0.584742
0.588363
0.587398
0.538944
0.592257
0.589954
0.586623
0.5858
0.585211
0.583514
0.579246
0.574264
0.569395
0.563557
0.555385
0.547053
0.544345
0.547212
0.556338
0.568211
0.577942
0.583695
0.586181
0.585288
0.585764
0.586205
0.57394
0.549059
0.594175
0.589301
0.586334
0.585738
0.585064
0.58294
0.57906
0.573815
0.56989
0.566391
0.561778
0.557999
0.55082
0.545688
0.550681
0.567026
0.579581
0.584727
0.586002
0.585274
0.584589
0.588766
0.544891
0.552526
0.590288
0.587675
0.585898
0.585734
0.585137
0.582874
0.57965
0.576861
0.572726
0.568993
0.564985
0.560084
0.556225
0.553016
0.551254
0.561971
0.578524
0.58507
0.58572
0.585322
0.588114
0.586613
0.584405
0.589682
0.587747
0.586295
0.585727
0.585087
0.582392
0.578674
0.576318
0.574982
0.571777
0.566907
0.561391
0.552925
0.551574
0.557129
0.565701
0.578827
0.58483
0.585699
0.585269
0.588637
0.584162