/*--------------------------------*- C++ -*----------------------------------*\
| =========                 |                                                 |
| \\      /  F ield         | OpenFOAM: The Open Source CFD Toolbox           |
|  \\    /   O peration     | Version:  2312                                  |
|   \\  /    A nd           | Website:  www.openfoam.com                      |
|    \\/     M anipulation  |                                                 |
\*---------------------------------------------------------------------------*/
FoamFile
{
    version     2.0;
    format      ascii;
    arch        "LSB;label=64;scalar=64";
    class       volScalarField;
    location    "70";
    object      omega;
}
// * * * * * * * * * * * * * * * * * * * * * * * * * * * * * * * * * * * * * //

dimensions      [0 0 -1 0 0 0 0];

internalField   nonuniform List<scalar> 
404911
(
232.049
169.961
3436.82
1536.93
186.491
214.617
160.708
604.365
342.75
282.897
244.332
321.55
185.389
199.579
431.954
1106.5
266.58
182.056
202.03
333.784
550.185
227.951
647.105
442.074
174.587
966.303
278.731
179.761
233.434
1011.59
249.714
184.967
301.817
528.207
256.586
196.562
350.283
448.414
254.186
142.149
366.977
1016.64
228.489
115.33
167.382
407.87
331.803
139.566
171.42
860.166
389.353
305.941
217.025
1356.36
346.754
588.046
9403.12
126.226
333.966
239.698
188.68
125.867
175.899
47.6324
93.45
235.188
55.2769
273.374
98.0622
57.4494
149.297
27.3807
133.817
106.836
55.8613
612.019
2275.79
265.375
107.945
138.563
111.557
154.627
33.2084
131.844
77.6163
98.6027
245.985
68.0104
1151.28
191.51
130.139
2960.82
84.5059
110.938
142.9
91.9417
125.97
126.928
65.1559
250.708
622.832
64.8883
97.4704
472.584
1184.19
442.732
209.104
660.938
327.294
264.649
195.771
183.117
167.627
177.512
2209
485.931
202.782
4488.97
550.713
147.402
148.331
154.071
158.196
228.447
1294.48
300.557
190.752
172.54
151.387
465.651
427.811
472.048
159.223
149.3
156.601
155.478
206.62
208.215
144.522
235.652
1172.47
299.28
182.928
156.263
147.895
145.086
145.336
133.184
466.375
412.083
151.801
145.977
160.978
1737.12
230.413
971.773
260.821
179.364
156.156
151.913
140.178
146.176
149.626
150.451
141.656
139.178
141.67
141.577
160.686
218.741
388.801
578.415
435.278
376.482
390.995
399.246
466.406
140.53
150.685
145.348
148.646
149.934
157.654
169.109
175.126
174.374
291.009
702.924
448.705
359.726
370.851
221.122
328.01
499.034
408.647
135.759
146.335
149.867
161.542
169.421
177.701
208.202
1131.94
983.137
265.016
590.158
304.371
253.324
234.801
384.83
403.497
292.144
353.086
424.249
410.021
131.607
151.92
162.209
165.323
190.598
473.977
836.435
592.646
274.624
219.818
138.53
172.698
276.39
248.615
180.015
514.111
225.186
168.081
120.437
149.438
158.559
182.372
273.538
1176.13
1185.79
263.195
123.205
177.432
131.262
118.126
142.915
153.446
178.369
203.773
220.817
150.041
144.504
275.23
433.758
162.526
201.768
1081
435.021
155.366
109.824
209.775
131.506
112.612
114.714
119.105
130.779
128.396
138.552
135.831
281.085
338.539
428.62
502.936
430.601
454.353
191.956
146.401
393.064
177.65
127.165
128.994
117.863
164.508
137.282
135.907
117.663
149.092
327.263
397.519
459.336
1673.81
362.982
180.871
147.004
104.843
120.244
161.767
127.781
122.562
124.192
138.855
151.679
132.533
116.282
187.62
362.347
411.949
244.5
1005.9
945.408
856.139
288.355
233.828
67.0758
77.7948
130.783
151.901
125.411
119.844
146.744
134.439
118.877
127.915
136.638
338.242
187.073
522.899
1081.49
235.527
139.139
164.137
153.494
143.026
106.851
79.6475
137.023
133.567
131.377
90.9965
102.418
134.1
124.891
156.956
352.466
257.249
446.983
155.206
110.672
99.9304
98.1693
167.346
117.911
98.0454
62.9704
90.6634
65.5696
65.9914
71.6985
116.848
158.198
185.743
185.066
977.889
1119.56
247.431
139.848
101.278
82.1324
77.7764
73.9282
113.093
89.3417
84.1387
60.6808
101.57
99.5033
117.073
102.025
112.125
399.932
863.666
355.733
145.375
108.235
121.188
135.297
82.4522
91.83
65.2087
54.603
56.4155
60.3116
82.7454
98.0681
118.064
165.504
136.767
262.439
687.957
1071.55
868.72
300.892
170.634
166.502
82.9853
94.8479
102.467
82.9073
55.5067
47.1001
53.2021
60.3058
85.1047
126.204
157.777
144.132
427.273
415.308
158.89
163.479
119.087
101.326
71.1118
74.0802
88.9652
78.3528
92.5724
73.5022
60.316
75.2491
95.0314
98.2203
125.367
250.641
953.361
181.983
122.808
138.689
83.9734
85.6961
65.659
62.8131
87.2408
105.634
115.557
128.755
100.88
99.6374
99.6043
146.612
139.41
284.237
412.272
137.923
148.837
117.8
81.4092
62.2402
69.2374
58.9197
62.5683
91.4503
106.604
107.546
110.112
137.501
121.551
146.253
161.142
941.236
241.221
118.659
103.926
86.6803
73.0022
51.7804
60.3043
98.5299
48.4575
48.1439
75.9103
89.2493
110.705
154.988
201.404
162.771
267.31
1150.37
445.635
170.257
118.21
96.7644
81.3749
59.4722
68.7704
52.5197
47.066
50.0119
46.5009
53.3587
63.8895
85.7906
161.514
112.108
174.417
975.977
1100.99
224.899
119.449
145.488
96.1426
72.6152
58.2922
49.0707
48.879
51.4029
39.0162
58.3254
67.3721
81.563
96.6969
104.84
144.537
270.275
409.404
147.79
111.798
91.7579
77.5856
61.4282
54.9101
53.4418
63.2548
42.8583
38.8509
42.1261
72.6747
108.246
140.526
140.688
160.893
960.638
1096.68
215.736
117.516
94.939
80.4691
67.9395
58.652
55.8847
53.8615
54.8191
57.7339
49.2838
51.7741
58.465
97.472
110.473
168.538
242.371
855.873
140.21
108.471
86.4913
71.4802
58.8946
56.3302
58.2115
57.3641
53.8494
53.1372
50.6935
54.2239
67.9884
86.3239
119.871
183.366
299.811
236.872
109.479
114.533
88.5585
66.2598
55.2021
55.1171
54.7574
54.5301
54.0862
53.63
53.576
63.3921
78.0733
107.081
119.991
154.896
482.928
220.551
136.002
146.826
74.1712
61.6423
52.5852
55.617
49.2676
50.6839
52.6043
52.4404
52.2501
61.0787
88.5804
102.676
122.639
229.914
1083.34
1136.69
172.792
109.528
110.731
95.2295
59.3118
55.0889
48.9829
57.9591
54.3602
49.1537
53.8942
54.4665
60.8246
80.6939
139.514
154.234
439.743
911.178
160.592
111.402
88.389
71.5227
55.2085
48.5999
48.8197
45.3118
48.7486
49.5559
48.8526
56.05
66.6029
80.7993
127.504
157.99
1026.86
274.394
138.072
112.235
87.6828
69.9723
55.8574
49.4002
47.5753
48.7336
50.195
44.357
46.9328
55.48
73.3637
102.836
106.583
162.892
1062.28
262.66
123.305
95.2768
81.5221
61.9597
76.5211
61.1395
43.8956
44.591
47.4131
52.8234
51.8788
57.0081
77.1739
95.5278
118.664
244.102
1008.78
191.338
122.697
95.8172
79.9713
63.6228
50.6764
57.9853
51.1615
38.4813
40.928
47.9111
54.2693
62.2091
81.1267
122.75
140.344
421.839
408.956
143.669
117.887
109.226
78.1479
60.9865
52.6129
40.7523
55.7115
50.5529
36.5663
41.2835
54.6357
63.1782
83.6646
126.831
155.81
968.4
261.767
121.433
94.3572
80.0288
66.2644
55.6346
60.739
50.4688
51.326
41.3937
51.3589
39.128
51.3171
68.4185
79.2686
142.412
189.832
1092.41
1019.27
172.148
113.693
95.3103
76.176
59.5588
49.7299
60.7862
41.2487
43.02
46.7102
34.7915
51.7765
52.5831
67.2533
85.6198
105.048
211.459
1010.03
162.028
111.809
89.7346
73.1467
58.193
49.4455
46.1781
57.5484
46.3606
42.3461
39.1765
37.6796
51.2314
68.6658
83.952
120.368
380.175
993.598
159.269
108.652
85.2371
74.6686
67.4675
52.5885
49.6732
45.2406
47.1386
37.0497
33.8393
34.4047
50.3651
75.3938
103.833
131.414
854.132
995.403
155.802
107.533
84.0742
71.0961
69.3488
62.3515
53.2464
49.5133
45.2806
40.7757
37.7153
39.2998
48.5897
75.0313
101.521
178.864
1076.8
259.575
140.901
109.219
85.0309
68.3592
60.647
62.7137
61.6785
54.3829
44.8989
40.1984
37.4565
40.7387
56.9936
76.985
99.942
200.35
1124.29
240.449
121.032
96.6356
81.5973
66.5563
54.7968
55.5761
57.264
56.1873
49.3576
37.0487
29.0398
35.6167
57.1928
73.2227
126.136
200.619
1074.54
163.317
127.516
111.424
80.6079
63.0264
51.131
48.9473
49.3562
54.0519
52.9988
51.2717
46.4379
50.1976
66.7089
82.8138
106.688
218.08
953.898
160.875
111.04
88.2732
77.9705
59.4377
50.8209
47.3314
53.4579
54.6164
54.8071
54.6197
55.0415
58.8402
67.4466
101.193
110.424
230.215
1022.32
162.777
112.147
90.6625
76.4719
66.1365
54.7081
48.2822
43.3104
44.7291
49.8927
49.8983
52.2664
58.1753
71.2672
108.727
114.216
246.953
1027.13
167.55
115.511
92.892
77.3253
60.8783
53.9902
53.7015
51.7468
45.0803
42.7188
44.4202
49.4991
62.4271
79.0117
97.2366
126.841
395.197
961.324
160.887
115.619
95.1342
78.4556
64.1202
52.3269
49.1329
48.1508
49.0295
50.6429
52.0861
55.663
66.0766
84.3445
111.63
153.181
956.857
270.027
156.222
114.678
95.7627
77.8531
63.8099
55.9549
49.9948
45.8567
44.2144
45.7178
49.1877
58.8807
68.5114
85.5539
116.975
156.552
1041.4
276.148
149.063
109.787
91.34
67.4182
51.2526
51.1062
47.6582
40.4015
35.1053
37.7198
44.2861
51.8571
63.7045
83.1372
114.598
155.009
1007.72
1151.64
196.086
145.106
113.173
81.6463
79.042
54.4564
38.2018
38.9
32.5118
30.0346
20.7511
33.9212
45.7531
59.9223
77.4075
117.886
164.84
989.409
1037.01
162.148
114.168
141.54
88.2343
55.9704
59.4802
37.0053
26.5437
23.7691
24.2946
18.2407
20.3807
46.5064
60.4305
78.0269
108.466
200.431
168.129
108.607
85.0011
72.281
59.4441
49.7548
48.7567
32.4871
17.5487
17.395
12.5604
28.51
42.6086
58.9739
81.4348
108.719
212.458
965.903
163.911
105.286
79.4754
66.0484
52.7853
49.6762
47.8109
41.0976
35.3124
14.2816
11.1518
20.047
45.9617
63.0989
95.2795
115.712
250.105
999.288
150.685
99.2877
73.7091
61.2969
53.3605
47.5124
45.9095
44.634
38.6596
30.7194
13.9579
18.0822
44.3396
63.5394
91.8462
116.451
393.477
1097.57
142.017
97.6006
72.7064
60.9873
51.6954
48.1823
41.3642
38.5173
37.9425
36.7849
36.5827
32.8305
49.2815
69.0641
89.0914
122.987
798.924
131.822
120.867
76.991
61.4437
56.8269
50.6784
46.9223
35.6871
27.9804
32.1989
39.699
43.6813
52.8461
74.7856
105.341
142.96
904.823
687.726
160.522
71.0981
57.5895
56.6248
52.8704
49.2624
47.2834
31.7325
18.5616
33.1219
44.3256
59.9333
73.8396
126.005
147.36
1001.29
2114.64
285.812
121.132
90.9618
53.2455
53.0713
50.9489
45.9853
43.3157
44.5251
33.3662
28.6905
44.8099
62.8984
82.2483
105.138
165.27
1054.43
234.612
93.4955
95.703
80.8195
50.0736
52.4434
50.7792
44.4
37.998
36.3757
41.1706
41.9724
47.9288
59.6483
86.0456
112.363
225.999
218.656
109.452
81.6509
55.0599
49.7841
47.0012
47.1573
46.0114
37.629
35.3996
19.5685
41.1997
52.1115
63.1159
81.7534
117.831
246.032
1125
189.049
112.432
81.9378
81.3524
62.7105
56.7364
51.7515
40.0314
39.467
29.1649
25.8527
32.7803
50.6445
65.3091
90.1039
128.312
803.859
900.076
138.291
92.4096
62.0218
70.8375
51.0575
56.3435
50.179
37.6995
29.1585
33.4277
31.1301
45.537
42.1943
73.0528
94.3106
131.787
921.361
773.835
116.163
175.175
99.4535
60.3011
50.4353
44.614
18.2372
33.7149
18.5907
20.6458
28.834
41.3015
50.9161
92.5572
103.464
134.408
931.924
387.109
100.913
115.937
66.499
45.8078
39.0965
31.2354
19.3906
26.5756
45.814
33.8706
45.7691
48.7211
52.0627
80.3691
164.705
151.709
981.617
962.746
197.81
102.974
79.504
66.1682
39.3082
20.1294
5.1359
8.05258
30.3056
48.1063
55.1019
61.2778
60.2884
54.1003
77.5937
112.508
278.315
994.695
861.544
125.323
112.827
74.8266
60.3739
42.1873
10.6689
2.59763
5.80953
27.3728
44.3137
46.8736
50.444
53.8782
61.2401
73.1665
109.515
158.236
1016.61
181.214
90.9921
58.714
58.5858
36.5886
8.27113
2.76309
4.53866
14.8331
40.8936
44.4243
49.6787
53.617
68.446
102.227
104.989
207.919
1143.68
207.376
102.391
93.1467
50.5106
28.8555
3.7526
2.87781
8.89044
14.9767
26.5446
42.5504
45.0776
51.4
72.1908
100.391
114.609
245.517
229.069
126.663
132.796
59.5857
26.658
4.33233
2.76155
5.12157
26.0055
20.3462
40.2352
48.2757
57.098
70.5604
98.2279
118.971
393.498
215.005
232.12
172.297
76.7066
36.0549
3.70418
2.82553
6.1288
13.9236
21.9439
31.9256
48.1184
58.5708
80.425
93.9661
124.967
823.428
927.437
155.151
144.849
148.62
82.0194
46.3683
11.9124
4.22482
10.4626
21.4893
42.8285
46.6381
55.821
67.1389
82.6096
129.049
152.812
925.543
861.103
152.984
139.973
131.459
63.6308
42.0927
5.59316
4.39954
15.8432
34.6034
47.2499
56.3736
64.0256
71.1499
86.0728
107.507
221.027
789.38
124.394
94.2143
98.5597
61.1632
40.0777
8.84532
3.54476
7.81756
35.995
50.2685
57.5705
55.1791
71.1342
94.2208
116.807
254.533
802.926
122.042
94.7986
100.432
56.6991
29.4176
4.38726
6.04617
24.9463
45.3533
56.2856
62.7685
63.9395
74.957
101.725
121.392
256.321
827.393
125.575
105.042
82.8241
70.0148
41.9339
6.83596
6.00805
19.8479
44.7985
51.7158
65.0144
64.0233
80.8802
98.2919
131.102
819.48
863.331
133.324
114.873
115.995
60.2962
50.7701
44.128
16.1224
15.5726
43.995
55.6135
65.6366
62.0731
78.1936
104.127
155.264
929.851
281.933
144.691
145.259
135.113
59.8533
28.2751
28.2683
40.211
43.0787
38.9011
52.7132
49.3282
61.2533
75.9948
101.938
159.081
999.426
327.798
275.614
99.9734
56.7996
28.0603
4.69549
13.4067
62.8502
51.3431
49.9578
50.375
60.3635
77.6766
106.756
192.26
1126.91
310.077
184.695
101.584
49.4635
6.33623
3.78295
5.58953
34.687
48.85
52.2485
64.0399
58.7485
74.6909
109.51
225.096
265.939
230.655
162.96
132.884
83.8217
6.81669
4.24175
11.286
34.1636
50.7379
55.2409
47.7421
63.4315
77.4385
108.076
242.128
290.213
130.456
143.791
157.071
125.125
50.755
7.72838
8.67095
48.5501
62.9774
66.4284
84.4434
72.5767
115.87
127.499
787.645
298.26
135.923
146.388
158.977
137.621
109.345
72.5683
73.6265
62.2364
68.8217
69.811
107.078
114.013
167.439
168.363
990.119
1172.24
279.437
156.263
113.551
141.435
156.998
133.602
118.194
102.444
158.237
152.44
126.513
70.5488
117.441
176.703
438.115
1217.45
202.971
127.985
133.129
92.5038
158.422
121.664
108.231
66.656
83.0111
132.123
141.904
138.124
141.239
220.928
210.095
980.109
193.223
139.054
102.303
85.6631
129.314
108.882
116.203
94.9497
79.8617
139.943
153.282
144.21
158.043
296.984
766.509
289.253
151.874
488.182
224.682
105.463
79.505
105.864
80.1242
74.4812
79.2347
89.3841
86.9584
97.7805
143.023
267.635
4025.25
293.255
542.548
257.594
151.666
145.77
137.164
90.353
135.79
106.551
101.275
85.6802
103.345
111.227
148.409
249.781
746.653
1026.6
611.883
283.855
115.689
119.75
121.587
85.7271
83.3544
119.987
113.728
143.986
111.391
157.314
162.373
286.529
1137.88
172.534
411.466
186.155
104.367
105.361
85.2238
108.311
128.67
117.002
121.923
125.809
116.238
161.314
207.413
1373.88
1127.64
188.696
136.057
277.625
196.888
106.74
87.9379
81.216
123.633
123.085
126.611
148.761
159.427
143.441
282.41
1211.39
541.214
187.003
148.063
422.507
269.053
127.868
103.728
107.331
112.159
114.198
142.046
174.091
107.727
141.104
296.819
1077
520.092
409.084
296.906
153.847
104.313
104.887
104.201
115.035
126.375
194.679
131.371
190.658
1088.18
646.633
476.129
405.533
336.949
170.757
254.716
114.529
142.163
117.789
143.018
104.435
142.202
268.839
1096.44
167.711
136.151
440.469
310.006
125.028
260.391
389.507
135.53
150.358
168.383
126.36
159.348
469.62
1159.4
186.431
148.136
442.845
396.793
231.364
138.268
185.825
344.043
266.208
300.838
139.119
177.807
1120.25
1088.12
181.25
509.718
421.814
424.633
304.975
193.256
207.533
136.082
286.83
440.036
157.989
194.429
1215.77
1153.08
174.449
498.522
428.865
428.089
401.95
200.84
171.048
160.741
189.593
427.779
153.398
270.109
1270.58
1097.45
183.317
140.208
452.3
405.165
444.865
577.033
132.524
154.881
280.939
140.113
151.229
260.893
1367.57
1363.86
1079.67
146.195
129.715
426.109
432.295
545.237
257.81
172.767
298.268
442.007
181.603
287.728
135.91
460.9
410.89
413.804
129.82
430.84
452.321
520.146
485.321
141.987
123.509
406.857
480.179
164.458
166.056
231.844
1104.49
6184.49
516.275
135.312
437.666
483.476
184.085
313.139
2708.33
1993.7
428.024
732.79
180.707
207.967
1094.36
399.029
695.212
176.86
196.596
533.461
757.814
527.496
206.493
173.91
214.528
1094.52
1084.87
213.311
1885.34
750.252
482.378
292.054
160.463
147.528
168.791
169.428
611.016
228.338
152.074
297.887
602.21
1416.44
1233.08
6334.79
417.235
1373.59
492.576
465.768
1328.23
541.841
355.086
260.022
238.481
208.21
186.079
181.997
280.443
1374.75
565.879
357.879
260.709
245.346
224.079
207.671
193.655
183.516
179.239
185.253
185.657
190.266
195.919
186.483
1291.84
538.616
285.058
252.46
229.005
223.897
216.235
207.176
204.533
194.501
180.477
171.902
173.915
190.849
204.229
200.038
200.661
191.113
194.297
270.099
342.357
776.264
971.627
504.034
268.855
239.222
230.749
215.873
210.038
207.354
205.285
202.502
198.117
196.884
197.556
176.187
522.241
544.81
215.005
207.079
184.03
189.744
181.61
208.145
526.555
534.406
307.647
235.689
217.851
198.229
185.348
186.311
185.722
183.04
180.63
172.619
170.308
183.96
187.728
190.412
189.108
166.888
469.752
544.93
168.44
174.055
172.199
198.764
241.306
1205.49
401.121
190.289
153.616
146.937
182.659
198.926
474.59
656.225
709.222
149.679
150.453
158.071
150.666
157.329
166.174
179.579
178.117
162.672
144.095
423.429
521.044
192.915
208.158
246.48
568.847
1465.96
368.678
227.179
196.7
153.33
155.288
140.838
168.295
244.648
249.584
192.404
273.832
125.643
146.565
258.532
226.342
632.23
153.347
166.175
172.705
170.476
485.483
531.338
241.002
556.21
1207.78
300.806
305.784
202.205
122.538
116.082
122.857
152.506
78.9469
120.547
208.04
214.489
181.071
200.547
288.207
437.891
163.331
216.647
510.337
179.433
180.043
174.244
183.516
223
501.427
401.665
1320.62
298.792
263.612
218.334
156.904
96.1488
97.3773
97.8957
98.085
95.51
72.6383
92.9723
232.596
229.659
246.39
232.106
192.966
181.555
138.256
203.693
149.817
189.793
212.884
323.18
570.432
1052.08
374.793
172.126
166.108
216.719
150.29
198.4
96.4812
84.2072
81.7219
144.818
100.593
73.318
76.2432
83.3271
86.5838
97.4031
118.167
164.073
163
230.321
184.617
187.677
188.706
214.062
496.909
1104.54
222.518
144.335
218.737
177.05
138.63
175.104
75.6136
95.4543
85.1596
85.6993
97.4895
87.6162
79.199
92.1106
75.3752
84.5092
92.4588
105.157
130.8
237.278
167.568
573.411
541.87
650.431
4510.2
731.734
1311.1
287.522
196.685
144.928
123.777
97.8162
94.996
80.5807
74.2262
79.9044
80.7684
80.9695
83.0698
85.1986
96.2126
102.715
79.4161
98.8427
119.979
141.216
148.964
145.003
555.038
1636.93
1230.65
318.373
177.592
126.333
100.55
125.88
72.7367
60.9779
40.4808
53.9552
74.2246
83.234
81.6979
70.4962
82.9923
92.3244
99.1347
109.464
135.663
148.165
155.329
129.533
191.599
425.208
425.409
173.661
198.486
192.395
190.136
96.0788
82.8529
107.433
61.2472
45.7327
42.1373
35.5236
40.3781
51.9792
63.9184
49.965
50.1819
83.1593
109.925
120.203
153.987
205.899
127.872
186.749
456.001
401.614
181.042
145.972
145.421
113.81
101.555
85.7805
80.8089
78.1055
61.9722
43.5649
40.6114
45.0312
44.6129
48.2275
51.7473
50.6101
54.5676
77.9516
108.851
145.218
158.134
355.64
175.192
441.387
362.175
154.962
186.52
164.862
136.321
101.323
80.7521
74.0789
67.2763
67.1409
61.1107
57.6315
49.1987
42.8133
51.1138
46.0088
55.3707
59.6833
83.1035
94.1992
120.104
190.781
257.22
360.276
821.703
1118.97
352.334
152.499
166.591
139.277
132.248
123.248
105.159
81.4372
77.379
64.1241
54.9269
60.935
57.8511
54.9992
57.2601
48.2312
54.4318
48.2418
49.302
62.8613
123.968
168.463
201.274
275.228
385.07
1112.12
355.608
147.03
151.66
131.966
120.042
105.214
86.969
73.3234
53.6051
52.9334
54.8833
52.642
50.8089
56.7535
61.3965
61.0216
72.7719
68.3451
59.4014
60.9654
78.1532
128.712
191.24
330.545
406.62
1006.74
245.511
146.522
157.866
135.064
117.581
99.7548
80.3742
63.8857
54.1661
50.7712
38.9052
45.3308
50.4832
52.841
54.7638
55.5086
55.1255
57.2267
68.7448
91.0087
77.9262
96.8656
135.368
204.102
296.519
1282.54
1211.85
265.394
142.969
132.881
127.708
113.5
90.497
71.602
60.1124
51.5878
44.8009
42.6597
43.585
44.9078
46.0914
50.9234
53.8854
56.327
53.8176
59.445
58.2415
79.9799
107.461
149.955
209.686
173.332
1484.03
393.928
151.382
161.245
130.041
109.146
72.3003
56.4681
50.5485
46.2546
43.5442
41.7814
41.0295
41.5884
42.5883
43.882
46.1478
50.263
54.443
58.964
59.0487
42.8403
77.0669
130.471
173.292
170.686
410.495
434.025
180.982
138.604
122.973
104.56
74.3864
58.7526
42.9258
38.9995
36.6132
38.2144
41.2662
41.5006
41.752
43.6645
46.3109
48.5679
50.4956
56.0906
67.3954
82.3613
94.1134
114.808
153.091
169.786
420.838
974.631
224.787
137.309
134.277
114.509
80.7526
58.7897
42.4268
32.2039
21.6896
18.299
18.0071
22.57
36.6078
41.0923
43.1161
46.4809
50.9715
57.541
67.0741
81.028
111.513
123.636
141.79
142.3
369.969
384.303
147.996
132.13
114.37
87.0399
65.9548
37.6505
24.9183
17.9206
14.876
12.6553
12.2673
14.2863
22.9787
35.6456
41.5431
45.8895
50.9607
59.004
72.6536
89.8351
105.789
153.212
207.118
260.65
434.96
167.271
172.275
135.424
105.443
67.8072
35.394
21.9586
9.7946
7.73551
8.88521
9.16523
7.81934
8.60844
12.5494
27.0723
39.6238
45.161
53.1273
64.3623
80.0832
103.315
120.418
141.625
158.281
793.11
918.032
212.924
137.785
139.436
113.352
84.8307
57.0913
33.7088
10.4967
5.44699
4.11709
4.59376
5.68644
6.22569
5.9347
8.06455
17.8265
32.3633
45.6763
55.4042
73.421
99.2846
119.408
136.612
137.542
372.084
920.388
225.102
138.768
135.58
111.916
90.986
60.2375
43.9576
29.1093
11.7305
5.37869
4.21534
3.45824
3.57413
4.02663
5.34449
7.7118
15.1982
35.6387
50.8541
56.4611
89.3271
111.517
143.738
189.226
229.669
1046.19
382.543
166.956
139.035
105.449
86.361
63.8613
49.1432
38.5764
22.5425
8.99566
4.98707
4.46955
4.57837
3.88959
3.8184
5.67184
11.1797
19.4432
34.6952
48.3173
82.2341
111.704
137.423
167.561
211.557
878.363
751.473
182.896
165.811
118.421
80.6688
54.9122
47.7946
39.5663
30.3533
17.0037
7.02363
5.40099
6.56914
8.8207
5.54947
4.44714
6.50403
18.406
37.8567
45.0613
58.7576
92.9456
146.721
179.246
216.5
872.799
230.288
133.637
114.544
96.8585
73.868
36.5753
30.7496
28.5051
23.0658
13.8442
7.78886
5.79487
12.3575
19.4096
13.5934
6.18769
7.75725
20.7218
41.9672
59.1384
86.9628
116.467
143.998
201.33
878.935
760.06
151.855
124.058
105.081
85.5579
60.5978
45.4884
20.9497
14.9071
16.7849
17.2984
16.3731
13.6575
13.8957
20.4538
29.5541
17.1299
12.3012
27.5905
51.1746
78.3788
107.8
140.468
192.856
365.127
249.007
134.885
112.156
95.2272
64.799
47.4104
37.6326
28.8567
13.5002
9.97239
12.7955
15.5043
18.7122
17.4844
20.0436
28.0113
38.7031
31.4088
38.2081
70.3972
95.4514
139.048
180.078
221.243
909.022
921.795
193.384
124.636
98.0004
78.612
52.1762
39.1333
32.0894
24.428
17.3574
13.7375
11.6195
13.6498
13.8911
13.6211
13.5769
21.6231
33.409
44.1921
59.227
83.2871
115.715
134.097
154.643
820.981
315.946
170.229
136.404
91.9788
54.3507
43.7787
33.1169
24.6482
18.5188
12.9322
10.2519
11.6846
12.9366
16.5563
17.0407
12.4577
14.4448
31.8701
46.0024
75.9113
104.24
134.702
175.797
237.771
1177.2
705.362
137.864
118.053
102.585
81.1831
37.2421
28.2499
22.8092
15.1032
9.31914
8.49269
7.03491
7.61328
12.2116
15.3294
20.2529
26.9277
34.1194
42.3234
52.2462
83.9821
109.677
170.734
210.192
870.192
197.197
150.76
110.853
96.1718
73.2293
46.7251
18.7441
9.73938
7.73384
6.76247
6.23197
6.54185
5.303
8.51524
16.8798
23.7345
32.1031
43.1358
54.4238
79.0372
106.362
130.164
141.456
395.13
687.517
139.863
112.795
91.2347
73.2569
53.9654
45.1387
29.9069
12.3568
5.41768
4.45927
4.09509
4.862
5.69157
8.03817
14.2112
26.0681
34.9369
44.4559
58.4151
77.4605
105.619
163.091
210.264
977.917
225.187
127.985
103.259
89.2622
59.8419
45.8158
34.5745
26.2344
17.7634
8.11536
4.81228
4.7898
4.53449
7.52857
10.5394
12.9602
25.0428
39.1386
48.1574
62.5496
85.889
115.017
155.589
368.678
693.249
138.041
112.735
97.3397
74.3133
53.76
39.9997
29.4241
19.6407
12.7207
10.3682
8.7942
7.39438
9.52858
12.0045
15.1386
16.26
25.3517
41.0295
54.9916
77.5605
99.3622
115.712
154.346
851.627
221.924
122.814
99.9073
85.7293
63.1117
47.3624
36.3375
26.6212
18.376
10.7694
6.0976
6.24921
8.41935
11.648
16.9956
23.0326
31.1258
38.619
47.0313
60.083
88.9292
116.744
146.511
234.691
706.104
137.237
109.309
88.522
70.2276
49.5815
40.5609
31.3853
24.5562
18.0714
11.5688
7.43264
4.5518
5.28445
8.23074
16.5714
26.9433
36.1336
45.7224
56.1963
70.6875
110.006
125.498
149.462
815.259
227.864
120.017
96.6085
79.2463
55.535
41.8684
33.23
26.7418
21.2863
17.2963
13.6001
6.87954
4.47163
4.53763
6.94842
12.258
25.6652
38.1563
49.2895
65.0767
92.1894
110.189
181.03
233.879
193.947
145.728
97.5005
72.8619
45.2199
34.8817
27.7167
22.4065
18.7911
15.8595
13.0611
11.146
6.3488
5.45179
7.52932
13.8077
25.4428
38.2125
50.646
73.8072
106.061
130.562
133.275
686.519
736.282
134.695
110.848
86.0184
58.9306
38.8045
29.713
23.8295
19.6904
17.1735
15.8008
14.1652
12.0747
11.4385
11.8033
14.3498
20.3738
30.0682
43.4367
54.1032
72.8263
109.766
168.143
209.696
976.52
697.303
141.892
104.38
81.0258
52.1072
33.5733
25.6101
20.585
17.4412
15.4988
14.5993
14.3301
13.8579
13.5179
14.9296
19.0295
25.4682
34.1266
43.7382
57.8052
80.2704
103.95
173.485
637.818
336.792
136.432
102.074
80.7998
50.0892
26.9042
19.7821
17.0061
14.067
11.8022
11.5638
12.6499
13.684
14.6311
16.5206
21.0258
28.5963
37.7093
47.9846
64.476
93.4491
119.287
164.194
769.826
193.977
145.964
102.926
76.7731
52.812
31.0677
15.6108
12.3631
12.4785
9.89475
6.53506
7.83013
12.1394
14.566
16.7715
21.1819
29.1247
38.9166
52.4196
77.8787
96.3335
149.892
220.043
709.918
152.2
123.603
92.4766
66.3271
43.899
32.5889
19.9763
12.0118
10.9664
10.7144
8.46465
6.42607
9.09967
14.8225
18.3793
22.0689
29.5388
39.3992
52.8631
79.3381
121.123
131.373
708.393
353.917
134.509
102.126
80.8022
55.6342
41.4632
29.1532
20.3563
14.2735
11.105
11.0796
11.2754
10.2792
10.5548
14.3349
19.9082
24.9596
31.9054
42.2485
56.9716
87.1515
115.779
169.337
952.811
187.502
145.476
100.711
79.5395
51.2603
38.4042
27.7992
18.8648
12.0477
8.32125
8.92888
10.8565
12.2529
13.3228
14.8828
19.4569
25.8881
33.1581
42.9612
59.3531
90.653
127.66
209.037
737.191
136.142
108.657
86.7584
65.758
48.1803
35.5452
26.0041
17.9163
11.8363
6.88186
4.90391
7.12556
10.5839
13.2861
15.9382
19.7507
26.5165
34.7368
46.5891
73.4632
91.9226
140.11
352.918
341.904
129.297
97.2596
82.9388
58.1682
42.9196
33.0196
24.0243
16.1794
10.3395
6.93527
5.21153
4.28941
5.7221
10.4029
15.3098
20.1142
27.4655
36.5989
46.79
79.5938
117.341
128.15
685.06
232.559
112.058
88.2083
73.165
49.2614
37.5794
29.1332
21.945
14.2647
7.33085
4.51742
4.04593
4.75562
4.51017
5.54071
12.0865
20.4016
28.0122
38.522
53.9483
78.6761
122.61
173.913
965.214
195.883
141.961
90.6824
65.4228
46.4505
34.2976
25.3266
19.161
13.6861
7.61336
3.51606
2.53034
3.08585
4.71158
6.32298
10.1227
19.432
29.0744
38.2069
52.901
90.6583
113.611
189.6
904.077
139.368
101.045
78.478
55.1187
40.5608
31.7935
22.746
17.0309
13.3598
9.75265
5.99007
2.99735
2.15429
3.05037
6.33431
12.3827
21.2239
30.7399
41.8784
65.8288
88.5231
146.426
341.529
717.91
130.806
108.8
80.7306
54.8357
39.1694
30.0046
22.2676
16.5956
13.7653
11.4168
8.71139
6.94514
4.226
2.56627
4.23468
11.7877
23.1436
33.7349
47.4828
72.8851
114.266
131.012
726.313
662.17
136.879
103.697
83.3486
55.9575
39.5148
29.6918
22.8615
19.4471
15.9137
13.1714
10.5024
7.83732
6.16277
4.98206
4.41781
9.00495
22.1082
35.0954
54.7737
91.3626
108.547
184.134
236.174
116.672
92.9281
75.6545
55.3356
38.7313
28.3811
21.7017
18.8861
17.7571
15.0966
11.6511
8.57571
4.98821
4.47482
6.59082
10.8959
22.2764
36.606
57.714
98.2109
143.753
232.175
228.374
112.788
88.8444
76.5844
50.2816
36.8981
27.1555
21.0632
17.6645
16.248
15.4344
13.0183
9.88889
6.56507
3.92115
5.50056
12.2505
25.0752
40.9774
68.5765
96.2804
159.49
643.343
199.058
145.138
93.5642
65.6553
46.7669
34.7744
25.7412
20.3645
16.5323
13.6864
13.1175
13.8562
12.3507
10.675
9.21836
8.5755
13.7848
25.4625
39.7603
69.9178
115.598
152.586
681.095
193.969
112.416
83.2016
58.6047
42.5014
32.7645
24.1374
18.7918
15.0065
11.6072
7.67346
8.84914
12.8245
13.5269
13.7641
15.256
20.3302
30.6228
43.2666
75.7843
102.017
154.879
814.376
186.985
112.289
83.9374
57.8325
42.3376
31.7281
22.8043
18.0528
15.1972
11.5507
8.4773
6.16013
8.14706
13.3884
15.8853
18.2564
23.8613
34.8133
46.6018
76.3554
112.337
141.063
907.102
881.166
146.581
110.606
86.8565
59.8398
42.7172
31.4545
22.1817
16.991
14.8017
13.0989
10.9585
9.20207
8.81709
11.2895
15.4188
19.3306
25.1747
34.5268
48.129
71.1211
110.6
170.371
696.399
166.773
134.547
95.4494
61.7966
43.1992
31.6093
22.6968
17.3841
14.4392
12.7515
11.7224
11.1078
11.3151
12.3528
14.8537
19.3217
25.9487
35.9163
50.2734
72.9626
115.525
175.84
680.95
140.234
102.896
85.7391
57.6738
39.8431
29.9901
22.5636
18.2139
15.5188
12.4123
10.2852
9.87103
10.7377
12.6846
15.4599
19.4382
26.3843
36.3919
53.5496
87.8491
105.097
185.707
344.399
129.066
98.5797
81.763
55.2654
39.2217
25.4407
17.4614
14.1067
12.3259
10.5682
7.41692
5.58721
6.82166
10.3038
14.1851
19.0054
26.4478
36.1085
51.8353
90.7434
131.77
229.598
232.797
113.933
90.6696
73.8021
52.1474
37.9277
26.0322
13.605
7.71349
6.24828
5.45647
4.44885
2.73065
2.62461
5.05904
11.6439
18.2342
26.4458
37.5052
52.6755
89.5636
135.867
607.628
238.196
115.801
90.5976
67.6982
45.4967
35.4679
25.49
16.112
8.91296
4.14028
2.21612
1.88207
1.90873
2.23839
3.40968
8.43947
17.4263
26.4541
37.7443
54.6125
86.2636
141.172
644.214
206.447
116.641
92.2465
69.6719
42.6867
31.3341
23.7207
17.2139
11.8836
8.35421
3.74898
1.48637
1.33798
1.74561
3.7269
9.14566
17.2586
27.1424
39.0298
66.3574
87.365
132.404
673.004
193.711
117.106
88.5555
64.0712
41.6295
29.6596
21.7938
17.014
13.3132
10.076
6.6692
2.64291
1.41628
1.54617
2.98956
8.91026
18.1904
28.3455
39.4372
68.7663
99.2484
129.424
736.711
200.4
116.74
83.4777
58.2443
37.4238
27.7769
20.7938
16.7642
13.5588
10.4959
7.84189
5.40187
2.58079
1.94317
3.09066
8.75944
18.4235
28.8232
40.7728
68.4716
102.459
167.482
925.422
192.178
114.644
81.3401
52.0892
35.4084
25.8259
19.4443
15.7323
13.0671
10.0913
6.13752
4.75848
4.6298
4.15759
5.03267
10.7289
20.4001
30.0257
40.8054
69.8308
105.959
180.192
874.275
140.503
102.536
72.5305
41.1671
31.2588
24.5277
19.1151
15.4039
12.6235
9.88795
6.12391
2.77129
3.12758
5.91457
9.26292
14.2569
22.8269
32.9161
44.0288
70.7797
110.183
183.085
687.056
173.086
115.046
57.7982
25.2976
19.0784
19.2636
17.8255
15.8861
13.4156
10.7915
8.06869
4.40129
2.51814
4.38151
10.5744
17.2606
25.2613
34.361
46.7758
70.3767
110.881
186.745
688.195
137.19
95.7731
62.8316
22.3525
9.69831
10.8065
13.654
14.4137
13.3296
10.6797
7.69929
5.83019
4.46362
4.43712
9.74675
18.4306
27.3241
37.4435
51.6297
81.8329
103.845
175.864
351.211
129.297
90.6131
65.1302
35.571
15.6271
10.4556
11.7402
13.0492
12.392
10.0611
6.13599
3.45385
3.94463
6.7366
11.1673
18.7833
27.9973
37.7551
54.485
83.8361
127.309
206.066
222.056
112.073
87.16
63.0707
38.683
25.6388
13.682