/*--------------------------------*- C++ -*----------------------------------*\
| =========                 |                                                 |
| \\      /  F ield         | OpenFOAM: The Open Source CFD Toolbox           |
|  \\    /   O peration     | Version:  2312                                  |
|   \\  /    A nd           | Website:  www.openfoam.com                      |
|    \\/     M anipulation  |                                                 |
\*---------------------------------------------------------------------------*/
FoamFile
{
    version     2.0;
    format      ascii;
    arch        "LSB;label=64;scalar=64";
    class       volScalarField;
    location    "70";
    object      p;
}
// * * * * * * * * * * * * * * * * * * * * * * * * * * * * * * * * * * * * * //

dimensions      [0 2 -2 0 0 0 0];

internalField   nonuniform List<scalar> 
404911
(
0.831147
0.830481
0.831294
0.834096
0.832055
0.830874
0.83198
0.832864
0.83348
0.833801
0.843746
0.838648
0.836748
0.834493
0.832858
0.833019
0.846521
0.843286
0.841498
0.839845
0.850249
0.84813
0.844283
0.854365
0.852581
0.845314
0.856655
0.854743
0.854548
0.865335
0.861318
0.858238
0.85414
0.855963
0.867057
0.864327
0.862056
0.88008
0.876834
0.873961
0.867986
0.885338
0.882239
0.879222
0.876279
0.871116
0.887015
0.884578
0.881485
0.879755
0.890621
0.889
0.886596
0.886597
0.892457
0.891159
0.902826
0.827647
0.830432
0.828542
0.839591
0.837943
0.84552
0.843279
0.841406
0.850486
0.847884
0.84531
0.854329
0.852644
0.857654
0.85512
0.853684
0.861846
0.859449
0.856657
0.854145
0.868498
0.865663
0.875818
0.873012
0.881586
0.878786
0.875632
0.886929
0.884124
0.891099
0.889226
0.886627
0.893099
0.891239
0.902281
0.904267
0.902316
0.912058
0.909657
0.90699
0.916989
0.914787
0.911856
0.921287
0.919235
0.917356
0.921475
0.470404
0.467303
0.463623
0.486069
0.484144
0.475979
0.475393
0.471762
0.468922
0.465488
0.461409
0.495661
0.49239
0.485448
0.479953
0.476249
0.473732
0.470549
0.466983
0.45496
0.506666
0.503129
0.500175
0.497266
0.494597
0.492517
0.488787
0.483411
0.479057
0.475869
0.472765
0.468917
0.463957
0.458257
0.455358
0.453018
0.515208
0.51147
0.507917
0.50437
0.5013
0.498459
0.495865
0.493309
0.491045
0.487018
0.482172
0.478898
0.475509
0.471438
0.456106
0.525716
0.521821
0.517236
0.512895
0.509283
0.505594
0.502466
0.499595
0.49679
0.49414
0.491254
0.487837
0.484165
0.48058
0.477756
0.531609
0.52856
0.524104
0.519612
0.515051
0.510744
0.506724
0.503843
0.500713
0.49786
0.495216
0.492436
0.489105
0.485491
0.48203
0.478873
0.54226
0.537834
0.533771
0.530129
0.526511
0.522093
0.517388
0.513282
0.508657
0.505017
0.502032
0.499212
0.496483
0.493529
0.4904
0.4867
0.484104
0.554214
0.550784
0.547271
0.544314
0.53996
0.536125
0.532169
0.52789
0.524615
0.52059
0.515861
0.510607
0.506913
0.503917
0.500941
0.49806
0.495141
0.492256
0.560735
0.557184
0.552877
0.549507
0.546331
0.543218
0.539053
0.534397
0.530471
0.526616
0.522426
0.517865
0.512194
0.508888
0.505935
0.502911
0.50011
0.496978
0.569693
0.566293
0.562819
0.559681
0.555631
0.551902
0.548573
0.545114
0.541257
0.537178
0.532606
0.528713
0.524381
0.520519
0.515133
0.511212
0.507975
0.505549
0.576114
0.572807
0.569094
0.565238
0.561678
0.557821
0.554156
0.550491
0.547123
0.54334
0.539512
0.535786
0.531334
0.527107
0.523883
0.518186
0.512622
0.584921
0.581864
0.578171
0.575283
0.571582
0.567348
0.563631
0.560686
0.557305
0.553445
0.549257
0.545332
0.541697
0.53768
0.533781
0.529335
0.525976
0.594083
0.590396
0.586668
0.584427
0.58119
0.57785
0.574042
0.569932
0.566222
0.563465
0.560167
0.555667
0.55153
0.546967
0.543978
0.540271
0.535939
0.532119
0.601991
0.599263
0.595818
0.591388
0.588
0.586359
0.58345
0.579934
0.576697
0.572678
0.569086
0.565646
0.561924
0.557661
0.553232
0.548532
0.545273
0.543005
0.60914
0.606507
0.603888
0.601393
0.598234
0.593667
0.590184
0.588256
0.585515
0.581507
0.578539
0.575012
0.572471
0.56834
0.563613
0.55957
0.556234
0.551689
0.614286
0.611071
0.608139
0.605281
0.602961
0.599396
0.595709
0.592377
0.589689
0.587514
0.582827
0.578924
0.576722
0.574766
0.571339
0.565445
0.561371
0.557003
0.622548
0.619522
0.615978
0.612658
0.609892
0.606589
0.603774
0.601168
0.598052
0.595165
0.59177
0.589493
0.585659
0.580987
0.578064
0.575783
0.57334
0.568098
0.628456
0.624679
0.621277
0.618597
0.614976
0.611296
0.60884
0.604887
0.60197
0.599805
0.597856
0.595266
0.591782
0.588221
0.583793
0.580329
0.577449
0.574616
0.636217
0.634253
0.630554
0.626559
0.623142
0.621016
0.617723
0.613772
0.610348
0.606478
0.602917
0.601181
0.59917
0.596937
0.594433
0.590885
0.586721
0.582262
0.641551
0.638665
0.636543
0.633905
0.629824
0.626458
0.623535
0.62008
0.616241
0.612333
0.608879
0.604517
0.602724
0.600244
0.598147
0.595548
0.592254
0.647854
0.645508
0.642635
0.64055
0.638621
0.636076
0.632242
0.629313
0.626044
0.622466
0.618653
0.614778
0.610831
0.606731
0.604677
0.602162
0.599729
0.596595
0.652751
0.649717
0.64737
0.644558
0.642119
0.640403
0.637239
0.63432
0.631873
0.62904
0.625354
0.621314
0.617048
0.612924
0.609475
0.606164
0.604037
0.601667
0.656556
0.654185
0.651724
0.64959
0.646259
0.643442
0.641478
0.639022
0.63612
0.634268
0.632149
0.628405
0.624327
0.620061
0.616016
0.613117
0.60887
0.606013
0.663909
0.66086
0.658268
0.656045
0.653674
0.651623
0.649423
0.645745
0.642522
0.639872
0.637258
0.635425
0.633249
0.630934
0.626769
0.622759
0.61859
0.615305
0.670235
0.667897
0.665376
0.662773
0.66042
0.658105
0.655651
0.653273
0.651264
0.648111
0.64506
0.642055
0.638117
0.636526
0.634251
0.631927
0.628518
0.624858
0.674771
0.672068
0.669452
0.667088
0.664641
0.662317
0.660205
0.658199
0.654812
0.651866
0.649502
0.647221
0.644161
0.64003
0.638029
0.635648
0.633226
0.630378
0.681064
0.67869
0.67617
0.673677
0.671174
0.668671
0.666298
0.664113
0.662146
0.660587
0.657343
0.654302
0.651525
0.648415
0.646353
0.643015
0.639453
0.637584
0.685014
0.682727
0.680183
0.677923
0.675369
0.672709
0.670227
0.66788
0.665658
0.663682
0.661855
0.659588
0.657046
0.65421
0.650801
0.648604
0.645333
0.642518
0.688834
0.686389
0.684202
0.681893
0.679643
0.676997
0.674321
0.671763
0.669447
0.667149
0.664987
0.662868
0.660567
0.658112
0.655461
0.652522
0.649969
0.647023
0.692559
0.690931
0.688023
0.685186
0.683606
0.681398
0.678611
0.675494
0.67327
0.671116
0.668878
0.66662
0.664267
0.661761
0.659311
0.656614
0.65418
0.651551
0.698169
0.696562
0.694711
0.692726
0.690418
0.68719
0.685613
0.683782
0.681182
0.677747
0.674913
0.672948
0.670737
0.668569
0.666136
0.663584
0.661005
0.657855
0.703524
0.700587
0.698023
0.695955
0.693858
0.691631
0.689208
0.687347
0.685783
0.683438
0.680198
0.676924
0.674861
0.672577
0.670434
0.668118
0.665461
0.663058
0.707775
0.705563
0.702816
0.700261
0.697472
0.695083
0.692902
0.690753
0.688839
0.687025
0.684892
0.682125
0.679193
0.676803
0.674472
0.672306
0.669801
0.667838
0.711525
0.709457
0.707313
0.704967
0.702799
0.699976
0.69659
0.693743
0.692119
0.690216
0.688301
0.686152
0.683727
0.681127
0.678587
0.67625
0.674149
0.718752
0.716023
0.713637
0.711355
0.709003
0.706711
0.70487
0.702871
0.699201
0.695485
0.693696
0.69184
0.689843
0.687697
0.685375
0.683028
0.680333
0.677748
0.723099
0.720672
0.718348
0.715932
0.713369
0.71074
0.708004
0.706248
0.704839
0.70163
0.697301
0.695258
0.69367
0.691663
0.689508
0.687268
0.684737
0.682818
0.726346
0.72429
0.722383
0.720345
0.718273
0.715917
0.712978
0.710367
0.707599
0.70625
0.704264
0.700704
0.697249
0.69563
0.693566
0.691488
0.689268
0.686719
0.73277
0.73032
0.72807
0.726
0.72408
0.7221
0.720326
0.718517
0.715518
0.712586
0.709687
0.70773
0.706358
0.703538
0.699791
0.69774
0.695549
0.693275
0.736302
0.73413
0.731974
0.729797
0.727633
0.725596
0.723716
0.722075
0.720334
0.717454
0.714702
0.711306
0.708969
0.707638
0.705643
0.702731
0.70009
0.697375
0.740282
0.73802
0.735805
0.733692
0.731501
0.729426
0.727362
0.725343
0.723637
0.722232
0.720489
0.716966
0.71379
0.71059
0.709078
0.70714
0.704547
0.702349
0.743518
0.741905
0.739699
0.737541
0.735375
0.733367
0.73138
0.729206
0.726938
0.725029
0.723298
0.721852
0.718949
0.716009
0.712761
0.710936
0.708848
0.706409
0.747929
0.746109
0.743503
0.741373
0.739096
0.736923
0.734996
0.732996
0.73105
0.728967
0.726309
0.724206
0.722871
0.720722
0.717835
0.715406
0.712975
0.754494
0.751994
0.749772
0.747593
0.745339
0.743048
0.740742
0.738482
0.736582
0.734517
0.732939
0.731742
0.728981
0.726284
0.723796
0.722157
0.720047
0.717499
0.757789
0.755609
0.75382
0.751692
0.749502
0.747262
0.744722
0.742417
0.739972
0.738238
0.736144
0.734581
0.733368
0.731493
0.728377
0.72574
0.723532
0.721745
0.761754
0.759508
0.757316
0.755512
0.753573
0.751523
0.749355
0.747345
0.74441
0.741286
0.739456
0.737587
0.735905
0.734347
0.732491
0.730246
0.727769
0.725431
0.765213
0.763259
0.761137
0.759004
0.757031
0.755127
0.753271
0.751272
0.749675
0.747656
0.744627
0.741283
0.739392
0.73752
0.735749
0.733837
0.731555
0.729524
0.769356
0.766989
0.764804
0.762717
0.760554
0.758405
0.756471
0.754595
0.752699
0.751017
0.749107
0.746639
0.743871
0.741551
0.739405
0.737392
0.735381
0.732922
0.773261
0.771006
0.768802
0.766608
0.764434
0.762229
0.760054
0.758007
0.755997
0.75399
0.752217
0.750384
0.748196
0.7459
0.743527
0.741272
0.739254
0.73706
0.777183
0.775129
0.772566
0.770479
0.768393
0.76637
0.764185
0.761962
0.759705
0.757551
0.755535
0.753625
0.751765
0.749762
0.747618
0.745419
0.743144
0.74077
0.780856
0.779115
0.777377
0.774412
0.771354
0.769871
0.768003
0.765835
0.763382
0.760916
0.758669
0.757162
0.755363
0.75346
0.751504
0.74941
0.747288
0.745516
0.787205
0.785001
0.782799
0.781232
0.779731
0.777605
0.774055
0.771023
0.769159
0.767552
0.765989
0.763501
0.761072
0.75902
0.757298
0.755396
0.753393
0.751169
0.74936
0.791122
0.789307
0.787039
0.784869
0.783161
0.781754
0.780064
0.77707
0.773978
0.771615
0.769212
0.767951
0.766146
0.763637
0.761181
0.759351
0.757432
0.755369
0.792855
0.79089
0.788838
0.786733
0.784956
0.783402
0.782001
0.780001
0.7768
0.77415
0.77179
0.769619
0.768101
0.766034
0.763524
0.761463
0.759372
0.798935
0.797011
0.794939
0.792778
0.790586
0.788347
0.7864
0.784845
0.783455
0.781826
0.778713
0.776212
0.773698
0.771227
0.769698
0.767769
0.765582
0.76348
0.803093
0.800765
0.798917
0.796856
0.794728
0.79252
0.790149
0.788008
0.786182
0.784829
0.783405
0.780512
0.778095
0.775297
0.773328
0.771495
0.769581
0.767171
0.805832
0.804807
0.802733
0.800743
0.798741
0.79667
0.794608
0.792288
0.78939
0.787248
0.786098
0.784832
0.782427
0.78006
0.777461
0.77523
0.77331
0.771464
0.808088
0.80617
0.804326
0.802414
0.800487
0.798528
0.796719
0.795205
0.79212
0.789167
0.787379
0.785943
0.784097
0.781764
0.779474
0.777219
0.775172
0.813481
0.810013
0.807524
0.805986
0.804103
0.802109
0.800139
0.798466
0.797134
0.794206
0.791104
0.788972
0.787286
0.785434
0.783425
0.781252
0.779044
0.821809
0.818906
0.815745
0.812572
0.809734
0.807901
0.805857
0.803725
0.80167
0.799919
0.798566
0.795931
0.792764
0.790938
0.78904
0.787051
0.784788
0.783165
0.825337
0.823174
0.82102
0.818084
0.814699
0.812016
0.809861
0.807873
0.805935
0.803292
0.801187
0.799954
0.798233
0.795368
0.793058
0.790974
0.789054
0.829173
0.827017
0.82442
0.822276
0.819487
0.816062
0.813486
0.811661
0.809814
0.808314
0.80584
0.80342
0.801436
0.799691
0.797491
0.795294
0.792961
0.83609
0.833665
0.831224
0.828976
0.826321
0.823531
0.821255
0.818652
0.815112
0.813011
0.811199
0.809623
0.807852
0.805856
0.803283
0.801371
0.799175
0.79714
0.840381
0.83786
0.835178
0.833057
0.830765
0.828088
0.825764
0.823294
0.820718
0.817278
0.815828
0.81345
0.810656
0.80893
0.807388
0.805352
0.803287
0.801177
0.844721
0.84225
0.839692
0.8374
0.834998
0.832425
0.829752
0.827547
0.825474
0.822845
0.82031
0.818176
0.815743
0.813225
0.810366
0.808914
0.807269
0.805216
0.849224
0.847212
0.844455
0.841748
0.839465
0.837301
0.834685
0.831695
0.829214
0.827074
0.82489
0.822732
0.820495
0.818133
0.8158
0.813082
0.811042
0.809139
0.856177
0.85351
0.851244
0.849252
0.846552
0.843893
0.841283
0.838877
0.836966
0.83399
0.831249
0.829348
0.827452
0.825324
0.82359
0.821458
0.818696
0.815916
0.813558
0.859707
0.85775
0.855361
0.853135
0.85088
0.848341
0.845749
0.843104
0.840945
0.838744
0.836054
0.833908
0.832029
0.830081
0.827921
0.825459
0.823366
0.820442
0.818187
0.86118
0.859667
0.857046
0.854942
0.852676
0.850222
0.847769
0.845134
0.842715
0.8405
0.837941
0.835788
0.83382
0.831757
0.829561
0.827144
0.824744
0.822127
0.866531
0.864205
0.862043
0.859239
0.856726
0.854389
0.85214
0.849958
0.847466
0.844759
0.8422
0.839854
0.837782
0.835722
0.833614
0.831246
0.829106
0.871307
0.868986
0.866697
0.864234
0.861109
0.858434
0.855933
0.853907
0.851772
0.849279
0.846649
0.844385
0.841921
0.839914
0.837777
0.835691
0.832936
0.877266
0.874023
0.871947
0.869371
0.866681
0.863719
0.861009
0.857767
0.855414
0.853326
0.851181
0.848621
0.846376
0.844117
0.841987
0.839808
0.837716
0.887071
0.884177
0.880297
0.876657
0.874247
0.87212
0.869269
0.86652
0.86355
0.860703
0.858096
0.855993
0.853153
0.850745
0.848563
0.846476
0.844077
0.842311
0.89212
0.889768
0.887082
0.883961
0.880816
0.878008
0.875357
0.872541
0.869388
0.86651
0.863648
0.861418
0.858938
0.856448
0.853185
0.850955
0.848618
0.89644
0.894203
0.891895
0.889378
0.886841
0.884128
0.881392
0.878307
0.875362
0.872019
0.869001
0.865888
0.863567
0.861252
0.858667
0.855906
0.853282
0.900511
0.89854
0.896442
0.894248
0.891743
0.889292
0.886541
0.88408
0.881294
0.878072
0.87488
0.871568
0.868651
0.86558
0.863227
0.860801
0.858141
0.904903
0.902828
0.900723
0.898092
0.896364
0.893835
0.891635
0.889344
0.886735
0.883626
0.880414
0.877038
0.873767
0.870785
0.867962
0.865386
0.862903
0.909054
0.907114
0.904924
0.903068
0.900503
0.898214
0.896004
0.893926
0.891313
0.888715
0.886062
0.88302
0.879464
0.876342
0.873268
0.870374
0.867761
0.914424
0.911308
0.909069
0.906586
0.904766
0.902162
0.899813
0.897917
0.89581
0.893249
0.890495
0.887783
0.885287
0.882083
0.879099
0.875921
0.873096
0.916149
0.913787
0.911616
0.909385
0.907117
0.904203
0.901547
0.89985
0.897582
0.894809
0.892002
0.88959
0.887088
0.884214
0.88158
0.878279
0.924275
0.920469
0.916896
0.914228
0.911804
0.909503
0.9067
0.904129
0.901588
0.899533
0.896777
0.893876
0.891616
0.889077
0.886467
0.934041
0.930722
0.928179
0.924094
0.920185
0.917558
0.914717
0.912364
0.909502
0.906393
0.903302
0.900937
0.898947
0.896151
0.893795
0.891118
0.940219
0.937578
0.933907
0.930483
0.926975
0.923473
0.920827
0.917722
0.914892
0.912047
0.909006
0.905142
0.902096
0.900568
0.898167
0.895761
0.946778
0.944194
0.941366
0.936648
0.932911
0.929879
0.926768
0.923706
0.920746
0.917957
0.915405
0.912735
0.908419
0.904874
0.90338
0.900582
0.95935
0.955175
0.950392
0.94696
0.944566
0.940433
0.936712
0.933206
0.929963
0.926531
0.923834
0.920452
0.917184
0.915149
0.912306
0.908816
0.965044
0.960892
0.957671
0.954384
0.950632
0.946979
0.943434
0.94012
0.936987
0.934197
0.931483
0.927306
0.923815
0.920044
0.917275
0.915456
0.974065
0.969262
0.964395
0.960425
0.957361
0.954056
0.950248
0.946243
0.943156
0.94034
0.938105
0.935957
0.932518
0.92771
0.923705
0.920987
0.983177
0.977739
0.971675
0.966756
0.963626
0.960389
0.956731
0.952814
0.94954
0.946597
0.94401
0.941373
0.939406
0.936982
0.93284
0.928065
0.990921
0.985887
0.981405
0.976166
0.970984
0.966899
0.9643
0.960293
0.956015
0.952325
0.949506
0.946177
0.943684
0.941647
0.938774
0.935693
0.997198
0.993151
0.989253
0.98535
0.980208
0.975614
0.971607
0.968303
0.964391
0.960002
0.955099
0.952266
0.9496
0.946329
0.944019
1.00296
1.00036
0.996584
0.992236
0.988349
0.984123
0.979808
0.975903
0.972048
0.968154
0.96433
0.959157
0.955914
0.952417
0.949763
0.946843
1.00823
1.00565
1.00302
0.999824
0.995292
0.990798
0.986988
0.983628
0.979581
0.975538
0.971901
0.968722
0.964328
0.959704
0.955878
0.953046
1.01432
1.01131
1.00834
1.00533
1.00231
0.997891
0.993659
0.989717
0.986509
0.983074
0.978996
0.975224
0.972006
0.968204
0.963731
1.01716
1.01416
1.01113
1.00804
1.00449
1.00078
0.997055
0.993286
0.989944
0.986667
0.982434
0.978441
0.97453
0.971267
1.02659
1.02122
1.01804
1.015
1.01089
1.00726
1.0034
0.999811
0.996186
0.992754
0.989383
0.985441
0.981902
1.03441
1.03126
1.02836
1.02513
1.02152
1.01807
1.01468
1.01045
1.00603
1.00261
0.999141
0.995522
0.99198
0.987736
1.0413
1.03749
1.03454
1.03112
1.02767
1.02478
1.02115
1.0178
1.01399
1.00901
1.00501
1.00188
0.99849
0.995141
1.04935
1.04528
1.04079
1.03661
1.03399
1.03115
1.02785
1.02408
1.02063
1.01709
1.01248
1.00844
1.00499
1.0021
1.05566
1.05274
1.04902
1.04449
1.04043
1.03704
1.0344
1.03087
1.02704
1.02359
1.02063
1.01631
1.01205
1.00811
1.06286
1.05884
1.05568
1.05247
1.04794
1.0437
1.04066
1.03744
1.03414
1.02905
1.02613
1.0229
1.01934
1.01514
1.06929
1.0656
1.06175
1.05861
1.05539
1.05138
1.047
1.04463
1.04117
1.0378
1.03182
1.02885
1.02597
1.06118
1.05796
1.05441
1.04976
1.04694
1.04535
1.04132
1.03547
1.03123
1.06345
1.06021
1.05718
1.05261
1.04957
1.04639
1.0435
1.03914
1.07035
1.06524
1.06237
1.05972
1.05577
1.05152
1.04874
1.08005
1.07516
1.06991
1.06552
1.06152
1.05845
1.05436
1.07878
1.07452
1.06926
1.06462
1.06163
1.09219
1.08639
1.07991
1.0777
1.07303
1.06813
1.11732
1.11569
1.10297
1.09758
1.07879
1.11939
1.11699
1.11397
1.11102
1.10768
1.08741
1.12763
1.11291
1.10929
1.10639
1.10226
1.13571
1.12405
1.11406
0.240408
0.235452
0.231386
0.272874
0.266886
0.260926
0.256306
0.25017
0.243754
0.2375
0.231993
0.212462
0.299188
0.294688
0.285871
0.280522
0.273879
0.26876
0.264498
0.258914
0.252431
0.245962
0.239512
0.232938
0.227228
0.220979
0.215496
0.320675
0.314462
0.308414
0.301235
0.296111
0.288682
0.281672
0.275395
0.270388
0.266712
0.26152
0.254144
0.247206
0.240444
0.233945
0.228086
0.221911
0.216278
0.210714
0.202095
0.192224
0.184203
0.34191
0.338377
0.330706
0.323594
0.316294
0.309812
0.303832
0.297873
0.291711
0.284315
0.277259
0.272
0.268015
0.263704
0.256514
0.251965
0.241385
0.23568
0.229625
0.223643
0.217158
0.210791
0.20307
0.36579
0.357873
0.353014
0.345956
0.340262
0.333004
0.325454
0.318324
0.312492
0.306741
0.300845
0.29406
0.286506
0.279629
0.274224
0.270487
0.266448
0.262932
0.250932
0.241408
0.236636
0.230928
0.224682
0.217688
0.212453
0.378594
0.372828
0.368341
0.362171
0.356411
0.347603
0.343211
0.336368
0.328274
0.32129
0.3147
0.309378
0.303506
0.296902
0.289461
0.282162
0.276946
0.272982
0.268772
0.264765
0.252641
0.243377
0.237826
0.232028
0.226458
0.390601
0.383548
0.378475
0.374963
0.370015
0.364319
0.357841
0.352765
0.346826
0.340376
0.331632
0.321388
0.317324
0.31114
0.3064
0.301028
0.290883
0.284872
0.279328
0.275287
0.270582
0.266561
0.257376
0.247215
0.240028
0.402957
0.397944
0.392497
0.385071
0.379091
0.375791
0.372431
0.367128
0.359336
0.355686
0.349667
0.343706
0.336672
0.325583
0.318652
0.314138
0.307794
0.304093
0.292008
0.286729
0.281666
0.27708
0.272035
0.265629
0.258751
0.4208
0.414578
0.411081
0.405567
0.400627
0.394795
0.387495
0.381532
0.377372
0.374138
0.369469
0.361298
0.357505
0.353071
0.347473
0.34097
0.332132
0.32181
0.314385
0.308638
0.304292
0.297085
0.289453
0.284141
0.27901
0.272128
0.435795
0.431567
0.426948
0.421645
0.416951
0.413182
0.408468
0.402492
0.396657
0.390494
0.385105
0.378767
0.374017
0.36922
0.363986
0.359135
0.354298
0.349756
0.344159
0.335836
0.326831
0.318972
0.311606
0.304136
0.298566
0.291799
0.286253
0.441559
0.437132
0.433286
0.429191
0.425049
0.419293
0.413702
0.410396
0.405291
0.399736
0.393428
0.387325
0.381672
0.376203
0.369438
0.365744
0.360769
0.35601
0.351275
0.346632
0.339855
0.329345
0.324501
0.31626
0.306737
0.457598
0.455467
0.449993
0.444717
0.43954
0.434078
0.431536
0.426947
0.421236
0.416591
0.412527
0.407966
0.403091
0.396484
0.38996
0.38406
0.378175
0.370723
0.367333
0.362465
0.357479
0.353205
0.34891
0.342385
0.335453
0.464048
0.459034
0.455688
0.4525
0.448034
0.443632
0.437462
0.433427
0.428903
0.423865
0.419243
0.415369
0.410057
0.404973
0.3992
0.39259
0.386701
0.38045
0.372857
0.369005
0.364296
0.359294
0.354495
0.350718
0.476511
0.473992
0.469895
0.467084
0.461326
0.457702
0.454945
0.450997
0.445718
0.44041
0.435887
0.431275
0.426552
0.42088
0.417781
0.412549
0.407188
0.401628
0.395256
0.390021
0.383292
0.376205
0.371218
0.365664
0.360311
0.486943
0.482383
0.478281
0.475289
0.472677
0.469387
0.464222
0.460445
0.457429
0.453026
0.447889
0.44321
0.438362
0.433152
0.429177
0.425011
0.419771
0.415339
0.410405
0.404094
0.398617
0.393509
0.384543
0.379447
0.372983
0.495331
0.491578
0.488336
0.484581
0.480417
0.47665
0.473955
0.470713
0.466649
0.462328
0.459176
0.454809
0.450025
0.445551
0.440171
0.435844
0.430957
0.426599
0.422132
0.417851
0.412692
0.406057
0.401747
0.396845
0.387924
0.506963
0.50406
0.500603
0.497051
0.493401
0.490301
0.486314
0.482372
0.478008
0.475186
0.472296
0.469021
0.46521
0.461036
0.456267
0.452346
0.447962
0.442698
0.438805
0.43374
0.427308
0.424113
0.420113
0.414784
0.409141
0.403957
0.515542
0.513851
0.509074
0.505452
0.502091
0.498672
0.495287
0.49222
0.488764
0.484456
0.480196
0.476581
0.473849
0.470913
0.467185
0.462156
0.457697
0.454092
0.450765
0.445964
0.441925
0.438513
0.431501
0.426167
0.421672
0.416289
0.527242
0.521943
0.517559
0.514035
0.510439
0.506698
0.503039
0.500237
0.497163
0.494432
0.491469
0.487302
0.482946
0.479191
0.476002
0.472926
0.468776
0.463705
0.459138
0.455153
0.451919
0.447325
0.443398
0.440519
0.434668
0.428685
0.424265
0.534465
0.531853
0.527569
0.523618
0.519842
0.515666
0.511497
0.507796
0.504375
0.501416
0.498573
0.495929
0.493119
0.489607
0.485656
0.481933
0.478426
0.475066
0.470877
0.466257
0.460447
0.456304
0.452852
0.448506
0.44449
0.441079
0.437382
0.541359
0.537018
0.533154
0.529334
0.525717
0.52172
0.517204
0.513018
0.509285
0.505781
0.502609
0.499702
0.497002
0.494126
0.490959
0.487494
0.483925
0.480518
0.477148
0.47385
0.469197
0.463707
0.458757
0.454537
0.450014
0.445731
0.551212
0.546542
0.542662
0.53917
0.535295
0.531515
0.527733
0.523322
0.518868
0.514555
0.510472
0.507053
0.503956
0.500924
0.498097
0.495293
0.492283
0.489006
0.485387
0.481783
0.47845
0.475277
0.47157
0.466836
0.46138
0.456911
0.558918
0.55601
0.552295
0.548709
0.545225
0.541277
0.537348
0.533579
0.52981
0.525643
0.521158
0.516798
0.512251
0.508478
0.505336
0.502315
0.499442
0.496606
0.493537
0.490309
0.486603
0.483106
0.479556
0.4763
0.472385
0.468209
0.56461
0.561229
0.557762
0.554226
0.550403
0.547149
0.543255
0.539462
0.535579
0.531632
0.52764
0.523444
0.519075
0.51423
0.510407
0.506996
0.504001
0.501066
0.498142
0.495063
0.491894
0.488209
0.484976
0.481229
0.477901
0.574723
0.571215
0.567306
0.563487
0.560155
0.556692
0.552662
0.549208
0.545542
0.541642
0.537813
0.533926
0.529898
0.525555
0.521083
0.516341
0.51263
0.509019
0.505998
0.503113
0.49993
0.496883
0.493832
0.490343
0.486874
0.483949
0.584077
0.580794
0.577025
0.573542
0.56988
0.56609
0.562735
0.559601
0.555478
0.551449
0.547785
0.543906
0.540177
0.536361
0.532301
0.527978
0.524226
0.519574
0.515282
0.511355
0.508218
0.505259
0.501935
0.498901
0.495774
0.492937
0.593106
0.589609
0.585836
0.582609
0.579268
0.575927
0.57224
0.568663
0.565268
0.562163
0.557966
0.554212
0.550283
0.54633
0.542578
0.538836
0.534829
0.530362
0.52698
0.523179
0.518134
0.514505
0.510549
0.507272
0.504144
0.501346
0.49788
0.597589
0.594566
0.591676
0.588067
0.584796
0.581616
0.578284
0.574842
0.571288
0.567559
0.5641
0.560403
0.556744
0.55281
0.548686
0.544944
0.541353
0.537309
0.533073
0.529364
0.525824
0.52136
0.517227
0.513296
0.509908
0.506817
0.605898
0.602935
0.599972
0.596925
0.5935
0.589927
0.586907
0.583893
0.58069
0.577433
0.573857
0.570117
0.566979
0.563638
0.559682
0.555001
0.550621
0.546862
0.543703
0.539878
0.535725
0.531855
0.528177
0.5239
0.519406
0.515764
0.609973
0.607261
0.604548
0.602024
0.599252
0.595457
0.591427
0.588564
0.58603
0.583159
0.579898
0.576116
0.572451
0.569808
0.566416
0.561758
0.557036
0.552642
0.548802
0.545672
0.542231
0.537938
0.534257
0.530578
0.52563
0.618423
0.615107
0.611941
0.608952
0.606084
0.603653
0.601306
0.598159
0.59304
0.590415
0.588112
0.585559
0.582041
0.578178
0.574744
0.572074
0.568842
0.563209
0.558948
0.555396
0.551271
0.547731
0.544214
0.540449
0.535985
0.623828
0.620211
0.617104
0.613936
0.610902
0.607959
0.605331
0.602882
0.600171
0.595161
0.592126
0.589799
0.587074
0.583269
0.579504
0.576648
0.574219
0.570505
0.565008
0.561295
0.557455
0.553715
0.549838
0.54604
0.542905
0.631533
0.629045
0.625875
0.62244
0.619198
0.61611
0.612914
0.609913
0.606997
0.604177
0.601593
0.597985
0.594825
0.591987
0.588933
0.585073
0.580856
0.578225
0.575681
0.572393
0.567429
0.563586
0.559623
0.555998
0.55219
0.63721
0.634271
0.631304
0.628108
0.62447
0.621232
0.618103
0.614757
0.611549
0.608489
0.60499
0.602303
0.599768
0.59736
0.594818
0.591724
0.587556
0.58334
0.580067
0.577199
0.574513
0.570309
0.566264
0.562579
0.558322
0.644182
0.64165
0.63893
0.636488
0.633972
0.630318
0.626335
0.623067
0.620218
0.616745
0.613095
0.610042
0.606306
0.603564
0.60134
0.598967
0.59645
0.593707
0.590193
0.586301
0.582607
0.579346
0.576562
0.572458
0.56841
0.648711
0.646132
0.643363
0.640723
0.63855
0.636504
0.633705
0.629234
0.625678
0.622644
0.619577
0.615851
0.612148
0.608157
0.605323
0.603063
0.600421
0.597839
0.595157
0.591948
0.589018
0.585256
0.581906
0.577419
0.655843
0.652868
0.650451
0.647951
0.64522
0.642427
0.640222
0.638308
0.636048
0.63253
0.629075
0.625541
0.621846
0.618214
0.614168
0.610347
0.607473
0.604909
0.602098
0.599474
0.596651
0.59352
0.590837
0.587709
0.584624
0.659819
0.657067
0.654662
0.652291
0.649764
0.647159
0.644516
0.642099
0.640047
0.637709
0.634768
0.631976
0.62886
0.624929
0.621388
0.61664
0.612795
0.609784
0.606887
0.604028
0.601275
0.598609
0.595554
0.592267
0.666967
0.664135
0.661647
0.659045
0.656442
0.654085
0.651643
0.649169
0.646449
0.643689
0.641367
0.639168
0.636546
0.634175
0.631598
0.628071
0.623949
0.619678
0.61579
0.612368
0.609226
0.606218
0.603343
0.600357
0.597538
0.670978
0.668457
0.665983
0.663397
0.66087
0.658321
0.655919
0.653529
0.651215
0.648783
0.645516
0.642542
0.640096
0.637697
0.635466
0.633043
0.629923
0.626298
0.622373
0.61863
0.614889
0.611669
0.608518
0.605604
0.677811
0.675068
0.672606
0.67014
0.667755
0.665192
0.662727
0.660269
0.657903
0.65552
0.653124
0.650844
0.647869
0.644823
0.641631
0.639013
0.636853
0.634398
0.631572
0.628403
0.624545
0.621043
0.617347
0.614077
0.611447
0.681217
0.679068
0.676768
0.674346
0.671916
0.669455
0.666993
0.664521
0.662108
0.65984
0.657658
0.654928
0.65205
0.649441
0.646847
0.643689
0.64092
0.638507
0.635896
0.633225
0.630168
0.626802
0.623525
0.619764
0.685172
0.683189
0.680831
0.678587
0.676095
0.673635
0.671142
0.668659
0.666204
0.663895
0.661755
0.659829
0.657266
0.654312
0.651366
0.6485
0.645808
0.6431
0.640218
0.63743
0.634936
0.631819
0.628882
0.62605
0.691289
0.689239
0.687032
0.684874
0.682612
0.680276
0.677864
0.675361
0.672806
0.670279
0.667848
0.665584
0.66345
0.661328
0.658929
0.656284
0.653384
0.650449
0.647828
0.645185
0.642156
0.639298
0.63684
0.633662
0.630832
0.695274
0.693015
0.690923
0.688708
0.686565
0.684264
0.681966
0.67957
0.677056
0.674453
0.671888
0.669461
0.667192
0.664978
0.662676
0.6602
0.657623
0.65497
0.65227
0.649528
0.64699
0.644362
0.641667
0.639276
0.70006
0.697013
0.694906
0.692754
0.690583
0.688247
0.685804
0.683627
0.681317
0.67868
0.675922
0.673484
0.671168
0.668902
0.666622
0.664213
0.661692
0.659162
0.656601
0.654005
0.651566
0.648757
0.646484
0.64315
0.703678
0.701483
0.698832
0.696342
0.694324
0.692345
0.690108
0.687504
0.685442
0.683341
0.680639
0.67746
0.675194
0.673001
0.670736
0.668458
0.666081
0.663527
0.660924
0.65837
0.65583
0.653529
0.650768
0.710351
0.708136
0.705745
0.703318
0.700787
0.698182
0.695947
0.693904
0.691655
0.689281
0.68722
0.685231
0.682884
0.679715
0.677179
0.674924
0.672596
0.670356
0.668015
0.665484
0.662766
0.660412
0.657649
0.655077
0.714804
0.712314
0.709968
0.707526
0.705213
0.702798
0.700305
0.697802
0.695401
0.6931
0.690895
0.688843
0.68674
0.68442
0.681761
0.679203
0.676785
0.674457
0.672163
0.669809
0.667485
0.664727
0.662663
0.659436
0.718985
0.716623
0.714253
0.711886
0.709497
0.707191
0.704845
0.702466
0.699878
0.696972
0.694494
0.692471
0.690407
0.68823
0.685914
0.683471
0.681023
0.678587
0.676261
0.673844
0.671505
0.669228
0.666558
0.725208
0.722771
0.720738
0.718516
0.716074
0.713702
0.711375
0.709053
0.706722
0.70457
0.702331
0.699077
0.696105
0.694159
0.69213
0.689937
0.687647
0.685322
0.682884
0.680439
0.678162
0.675766
0.673489
0.670348
0.72963
0.726835
0.724557
0.722458
0.720347
0.718099
0.715745
0.713355
0.710875
0.708375
0.706246
0.704381
0.701568
0.697953
0.695903
0.693998
0.691816
0.689532
0.687266
0.684753
0.682273
0.68007
0.677502
0.675911
0.732487
0.730647
0.728594
0.726401
0.72428
0.722193
0.720007
0.717812
0.715531
0.712902
0.710207
0.707746
0.706072
0.703955
0.700646
0.697985
0.695964
0.693753
0.691397
0.689145
0.686683
0.684237
0.682025
0.679236
0.736698
0.73466
0.732418
0.730161
0.728102
0.72602
0.723937
0.721825
0.719848
0.717911
0.715209
0.712358
0.709541
0.707708
0.705865
0.703161
0.700326
0.697974
0.695677
0.693187
0.69086
0.688454
0.686293
0.742018
0.740679
0.738475
0.736389
0.734174
0.731964
0.729856
0.727706
0.725582
0.723557
0.721742
0.720005
0.717501
0.714518
0.711471
0.709292
0.707474
0.705195
0.70262
0.700064
0.697688
0.695237
0.692908
0.690249
0.747057
0.744187
0.742271
0.740263
0.738122
0.735895
0.733713
0.731602
0.729446
0.727321
0.725306
0.723431
0.721784
0.719985
0.716678
0.713551
0.711154
0.709235
0.707096
0.704679
0.702097
0.699745
0.697087
0.69498
0.750548
0.748277
0.746196
0.74402
0.741928
0.739761
0.737566
0.735411
0.733343
0.731251
0.729133
0.727059
0.724979
0.72304
0.721432
0.718524
0.715642
0.713269
0.711118
0.708874
0.706617
0.704064
0.70169
0.754495
0.75226
0.750005
0.747819
0.745821
0.743651
0.741432
0.739216
0.737048
0.735003
0.732951
0.730916
0.728917
0.726496
0.724251
0.722546
0.720245
0.717746
0.715444
0.713039
0.710733
0.708511
0.705919
0.758055
0.755985
0.753873
0.75185
0.749714
0.747593
0.745401
0.743177
0.740912
0.738686
0.736624
0.734592
0.732735
0.731173
0.72876
0.726124
0.723973
0.721923
0.719695