/*--------------------------------*- C++ -*----------------------------------*\
| =========                 |                                                 |
| \\      /  F ield         | OpenFOAM: The Open Source CFD Toolbox           |
|  \\    /   O peration     | Version:  2312                                  |
|   \\  /    A nd           | Website:  www.openfoam.com                      |
|    \\/     M anipulation  |                                                 |
\*---------------------------------------------------------------------------*/
FoamFile
{
    version     2.0;
    format      ascii;
    arch        "LSB;label=64;scalar=64";
    class       volScalarField;
    location    "90";
    object      p;
}
// * * * * * * * * * * * * * * * * * * * * * * * * * * * * * * * * * * * * * //

dimensions      [0 2 -2 0 0 0 0];

internalField   nonuniform List<scalar> 
404911
(
0.0994941
0.099447
0.099469
0.0994978
0.0995179
0.0994811
0.099471
0.0994916
0.0994968
0.0994978
0.100778
0.100197
0.0998676
0.0996897
0.0995789
0.0995223
0.101267
0.100878
0.100425
0.100102
0.101912
0.101558
0.101077
0.102739
0.10233
0.101723
0.103488
0.103158
0.10285
0.104553
0.104213
0.103846
0.103436
0.103209
0.104772
0.104511
0.104123
0.105895
0.105513
0.105138
0.104766
0.106334
0.106107
0.105828
0.105508
0.105065
0.106589
0.106343
0.106066
0.105829
0.107153
0.106875
0.106564
0.106349
0.107264
0.107121
0.110848
0.0990533
0.0993118
0.099243
0.100316
0.0998652
0.101273
0.100846
0.10046
0.101963
0.101573
0.101099
0.102789
0.102132
0.1035
0.103145
0.102796
0.104226
0.103865
0.103349
0.103051
0.104752
0.104459
0.105579
0.105037
0.106141
0.105888
0.105539
0.106687
0.106347
0.107318
0.106826
0.106521
0.107455
0.10724
0.110649
0.110898
0.110585
0.111993
0.111521
0.111226
0.112716
0.112253
0.1118
0.113374
0.113194
0.112733
0.113334
0.0393686
0.038973
0.038582
0.0415153
0.0410943
0.0403044
0.0401193
0.0396266
0.0392604
0.0389446
0.0383838
0.0427171
0.0422906
0.0412747
0.0406668
0.0401708
0.0398731
0.039476
0.0391283
0.0374139
0.0441513
0.0436867
0.0433292
0.0429262
0.0425892
0.0423127
0.0417025
0.0410068
0.0404292
0.0401137
0.0397724
0.0393169
0.0385776
0.037768
0.0374895
0.0372334
0.0453327
0.0447954
0.0443075
0.0438395
0.0434388
0.0430783
0.0427466
0.042422
0.0419986
0.0414376
0.0408942
0.0404003
0.0400652
0.0395976
0.0374458
0.0468529
0.046155
0.0455544
0.0449278
0.0443641
0.0439382
0.0435447
0.043193
0.0428556
0.0425257
0.042068
0.0415987
0.0411772
0.0407191
0.0404411
0.0477585
0.0472669
0.0465021
0.045862
0.0452404
0.0445747
0.0440846
0.0436447
0.0433177
0.0430269
0.0426572
0.0422859
0.0418174
0.0413807
0.040964
0.0406807
0.0494572
0.048736
0.0480585
0.0474938
0.0466842
0.0461854
0.0455703
0.0447797
0.0442352
0.0437862
0.0434956
0.0431712
0.0428109
0.0424199
0.0419987
0.0415749
0.0412019
0.0516749
0.0510473
0.0504903
0.0497777
0.0490554
0.0484025
0.0478365
0.0471324
0.0465225
0.0458469
0.045015
0.0444648
0.0440247
0.0437104
0.0433811
0.0429823
0.0426074
0.0422056
0.0528043
0.0522286
0.0514402
0.0508126
0.050111
0.0493921
0.0488078
0.0481101
0.0474721
0.0467825
0.0461492
0.0453605
0.0446446
0.0442695
0.0439474
0.0435623
0.0432192
0.0428168
0.0542544
0.0537602
0.0532511
0.0526512
0.0519179
0.051191
0.0505017
0.0497708
0.0491203
0.0484296
0.0477791
0.0471294
0.0464853
0.0457448
0.0450076
0.044532
0.0442093
0.0438585
0.0551827
0.054665
0.0541213
0.0536345
0.0530214
0.0523098
0.0516176
0.0509166
0.0501871
0.0495373
0.0488439
0.0481732
0.0474593
0.0468164
0.0462716
0.0455035
0.0447686
0.0564547
0.0559945
0.0554268
0.0550249
0.0545276
0.0539801
0.0533744
0.0527156
0.0520069
0.0513321
0.0505868
0.0498783
0.0492165
0.0485581
0.0478311
0.0471432
0.0466431
0.0577597
0.0571943
0.0566899
0.0564338
0.0559721
0.0554573
0.0549178
0.054409
0.053814
0.0531719
0.0524488
0.0516566
0.0509115
0.0501834
0.0496167
0.0489128
0.0481812
0.0475528
0.0594898
0.0589628
0.0581977
0.0575241
0.0569685
0.0567865
0.056331
0.0558257
0.0553005
0.0548224
0.0543631
0.0536344
0.0528294
0.0520304
0.0512187
0.0504432
0.0499412
0.0494137
0.0605814
0.0602391
0.0598942
0.0595639
0.0587911
0.0579828
0.0573592
0.0571134
0.0567683
0.0562548
0.0556311
0.0551737
0.054864
0.0541257
0.0531817
0.0523238
0.0516133
0.0508202
0.061284
0.0608637
0.0604969
0.0601653
0.059858
0.0593331
0.0585724
0.0579063
0.0574009
0.0570736
0.0564655
0.055818
0.0554393
0.055179
0.0545356
0.0535097
0.0525738
0.051889
0.0624672
0.0619981
0.0614552
0.0610957
0.0607366
0.0603148
0.0599808
0.0595813
0.0590911
0.0585121
0.0578563
0.0574446
0.0568343
0.056146
0.0556515
0.0553724
0.0548143
0.0539184
0.0633359
0.0627486
0.0622724
0.0618162
0.0613419
0.0609268
0.060559
0.060106
0.0596856
0.0594065
0.0590795
0.0585064
0.0579156
0.0572947
0.0565632
0.0560169
0.0556339
0.0551446
0.0651802
0.0646679
0.0638261
0.063118
0.0626392
0.0621922
0.0617222
0.0612513
0.0608352
0.0603176
0.0598184
0.0595926
0.0593417
0.0590167
0.0585264
0.0578757
0.0570806
0.056405
0.0660331
0.0656429
0.065263
0.0645313
0.0637653
0.0631945
0.0626968
0.0622492
0.0616932
0.0612203
0.0606
0.0601074
0.0598185
0.0595374
0.0591945
0.0587901
0.0581987
0.0670598
0.0666727
0.0662797
0.0659655
0.0656666
0.0650021
0.0643428
0.0637152
0.0632128
0.0626191
0.0620626
0.0615982
0.0609719
0.0604367
0.0601366
0.0597981
0.0594401
0.0590071
0.0677858
0.0673676
0.0669942
0.0665646
0.0662243
0.0658984
0.0653737
0.064793
0.0642728
0.063772
0.0632253
0.0625831
0.0619546
0.0613248
0.0608031
0.0604222
0.0600799
0.0597043
0.0684438
0.0680845
0.0677049
0.0673314
0.0668525
0.0663827
0.0660428
0.0656239
0.0651176
0.0647312
0.064349
0.0638158
0.0630488
0.062407
0.0617529
0.0613671
0.060809
0.0604368
0.0695014
0.0690994
0.0687431
0.0684012
0.0680487
0.0677367
0.0672413
0.0667275
0.0662012
0.0657141
0.0652459
0.0649475
0.0646227
0.0642626
0.063575
0.0628656
0.0622085
0.0616565
0.0704769
0.0701236
0.0697717
0.0694126
0.0690757
0.0687266
0.0683613
0.0679953
0.0676272
0.0670936
0.0665382
0.06601
0.0654201
0.0651247
0.0647873
0.0643962
0.0638008
0.063267
0.0711564
0.0707527
0.0703965
0.0700504
0.0697001
0.0693883
0.0690977
0.0687372
0.0683098
0.0678163
0.0673491
0.0668612
0.066354
0.0657514
0.0653856
0.0650298
0.0646342
0.0641208
0.0721589
0.0717738
0.0713996
0.0710262
0.0706405
0.0703056
0.0699856
0.0696893
0.0694396
0.0691775
0.0687178
0.0681919
0.067674
0.0672089
0.0667329
0.0661564
0.0655609
0.065351
0.072792
0.0724093
0.072029
0.0716588
0.0712621
0.0708853
0.0705502
0.0702364
0.0699489
0.0696983
0.0694813
0.0690738
0.0686009
0.0680507
0.0674888
0.0671212
0.0665753
0.0660915
0.0735327
0.0730715
0.0726265
0.0722613
0.0718986
0.0714841
0.0710904
0.070768
0.0704707
0.0701822
0.0698992
0.0696036
0.0692436
0.0687991
0.0683059
0.0678332
0.0673828
0.0668692
0.0743747
0.073902
0.0733665
0.0728385
0.0725669
0.0722124
0.0717512
0.0712384
0.0709624
0.0706942
0.070411
0.0701095
0.0697791
0.0694013
0.0689836
0.0685549
0.0680877
0.0676982
0.075375
0.0750826
0.0747651
0.0743481
0.0738306
0.0732796
0.0729532
0.0726217
0.0721591
0.0715596
0.0712093
0.0709475
0.0706584
0.0703397
0.0699963
0.069625
0.0692363
0.0687534
0.0761507
0.0757179
0.075333
0.0749846
0.0745662
0.074083
0.0736539
0.0733366
0.0730916
0.0726585
0.0720627
0.0715547
0.0712552
0.0709411
0.0705888
0.070251
0.0698921
0.0695198
0.0768969
0.0764796
0.0760443
0.0756505
0.0751506
0.0746532
0.074217
0.0738719
0.073577
0.0733179
0.072958
0.0724674
0.0719772
0.0715935
0.0712391
0.0708998
0.0705573
0.0702157
0.077567
0.077184
0.0767855
0.076345
0.0760001
0.0754888
0.0749104
0.0742799
0.0740343
0.0737671
0.0734867
0.0731525
0.0727389
0.0723315
0.0719209
0.071536
0.0711893
0.0787883
0.0783336
0.0779175
0.077513
0.077063
0.0766368
0.076329
0.0758446
0.0752275
0.0745146
0.0742267
0.0739742
0.0737003
0.0733724
0.0729979
0.0726159
0.0722184
0.0718092
0.0795294
0.0791173
0.0787066
0.078295
0.0778269
0.0773298
0.0768356
0.0765006
0.0761534
0.075641
0.0749308
0.0744123
0.0742168
0.0739421
0.0736273
0.0732789
0.0729035
0.0725662
0.0801446
0.0798103
0.0794562
0.0790786
0.0787106
0.078255
0.0777547
0.0771531
0.0767226
0.0764455
0.0760419
0.0753965
0.0748073
0.0745297
0.0742344
0.0739312
0.0736081
0.0732407
0.0811668
0.0807921
0.0804558
0.0801248
0.0798009
0.0794908
0.0792162
0.0786957
0.0781932
0.0775777
0.077018
0.076673
0.0763722
0.0758948
0.0753094
0.0749173
0.0745723
0.0742364
0.0817683
0.0814252
0.0811075
0.080773
0.0804498
0.0801367
0.07985
0.0796182
0.0792069
0.0786452
0.0779929
0.0774123
0.0768418
0.0766516
0.0762888
0.0757661
0.0753153
0.0748815
0.0824397
0.0820657
0.0817255
0.0814018
0.08107
0.0807593
0.0804527
0.0801613
0.0799121
0.0796405
0.0790488
0.0784829
0.0777756
0.0771785
0.0768989
0.0765535
0.0761257
0.0757327
0.083022
0.0827318
0.082372
0.0820292
0.0816955
0.0813671
0.0810631
0.0807616
0.0804307
0.080101
0.079808
0.0794583
0.0788731
0.0781987
0.0776219
0.0772379
0.0768933
0.0764622
0.0837546
0.0834194
0.0830218
0.0826683
0.0823015
0.0819688
0.0816558
0.0813737
0.0810963
0.0807442
0.0803327
0.0799307
0.0795936
0.0791852
0.0785527
0.078072
0.0776238
0.0847622
0.0843759
0.0840406
0.0836828
0.0832961
0.0829423
0.0825604
0.0822176
0.0819207
0.0816631
0.0814479
0.081138
0.080788
0.0802208
0.0797865
0.0794314
0.0789576
0.0784989
0.0853579
0.0850138
0.0846845
0.0843438
0.0839979
0.0836409
0.0832417
0.0827908
0.0824116
0.0821517
0.0819255
0.081737
0.0816081
0.081132
0.0806188
0.0800905
0.0797151
0.0793109
0.0860281
0.0856635
0.0853132
0.0849857
0.084629
0.0843151
0.0840185
0.0836495
0.083218
0.0826632
0.0823726
0.0821715
0.0819562
0.0817322
0.0813958
0.0809174
0.0804562
0.0800439
0.086662
0.0863059
0.0859594
0.0855971
0.0852552
0.084908
0.0846074
0.0843532
0.0841313
0.0838
0.083167
0.0827204
0.0824611
0.0821973
0.0819161
0.0815663
0.0811846
0.0807826
0.0873919
0.0869591
0.0865855
0.0862335
0.0858591
0.085498
0.0851551
0.0848529
0.0845842
0.0843462
0.0840102
0.0835689
0.0831291
0.0827923
0.0824749
0.0821454
0.0818116
0.0814206
0.0881376
0.0876911
0.0872567
0.0868608
0.0864786
0.0860984
0.0857247
0.0853683
0.0850526
0.0847752
0.0845064
0.0841983
0.083837
0.0834556
0.0831024
0.0827607
0.0824275
0.0820689
0.0889368
0.0884769
0.0879742
0.087516
0.0870838
0.086703
0.0863341
0.0859351
0.0855474
0.0852142
0.0849585
0.0846998
0.0844191
0.08409
0.0837443
0.0834082
0.0830562
0.0826792
0.0896547
0.0892943
0.0888942
0.088318
0.087688
0.0872698
0.0869111
0.0865932
0.0862139
0.0857219
0.0853234
0.0851371
0.0849267
0.0846676
0.0843596
0.0840289
0.0836947
0.0833882
0.0906933
0.0903616
0.0900072
0.0897103
0.0894
0.0887948
0.0881333
0.0875763
0.0871163
0.0868722
0.086482
0.0861755
0.0856942
0.0854087
0.0852016
0.0849483
0.0846437
0.08433
0.0839992
0.0913274
0.0910341
0.0907113
0.0903795
0.0900842
0.0898715
0.0894606
0.0889289
0.08821
0.0875986
0.0872715
0.0869475
0.0866286
0.0861519
0.085808
0.0855497
0.0852606
0.0849562
0.0916332
0.0913239
0.0910094
0.0906796
0.090405
0.0901762
0.0899287
0.0895238
0.088837
0.0882636
0.0876928
0.0873049
0.0870694
0.0866796
0.0862439
0.0859048
0.0855888
0.0926093
0.0922933
0.0919707
0.0916371
0.0913069
0.0909743
0.0906749
0.090432
0.0902144
0.0897754
0.0892771
0.0886691
0.0881376
0.0876866
0.0873536
0.0870132
0.0866381
0.0862683
0.0932837
0.0929
0.092606
0.0922805
0.0919445
0.0916079
0.0912545
0.0909065
0.0906374
0.0904544
0.0901129
0.0896235
0.0890533
0.0884727
0.0880974
0.0877267
0.0873633
0.0869446
0.0937679
0.0935214
0.0932153
0.0928987
0.0925824
0.0922676
0.0919529
0.0915696
0.0911273
0.090767
0.0906355
0.0903653
0.0899845
0.0894417
0.0888992
0.0884763
0.0881015
0.0877527
0.0940718
0.0937587
0.0934724
0.0931787
0.0928767
0.092582
0.0923235
0.0920039
0.0915286
0.0910326
0.0907988
0.0906195
0.0902502
0.0897519
0.0893046
0.0888668
0.0884846
0.0949569
0.0943913
0.093972
0.0937465
0.0934717
0.0931606
0.0928606
0.0926273
0.0923661
0.0919316
0.0913602
0.0910266
0.0907987
0.0904581
0.0900595
0.0896537
0.0892434
0.0968548
0.0962158
0.0955215
0.0948609
0.0943923
0.0940889
0.0937904
0.0934344
0.0930843
0.0928365
0.0926551
0.0922573
0.0916811
0.0913474
0.0910561
0.0907275
0.0903338
0.0899649
0.0975953
0.0972032
0.0966571
0.0959942
0.0952543
0.094795
0.0944567
0.0941577
0.0937942
0.0934334
0.0930365
0.092888
0.0925353
0.0920618
0.091685
0.0913382
0.0910407
0.098196
0.0978768
0.0974248
0.0969018
0.0963147
0.0955958
0.0950628
0.0947748
0.0945258
0.0941236
0.0938036
0.0934085
0.0930976
0.09285
0.0924269
0.0920185
0.091655
0.0992999
0.0988976
0.0985439
0.098189
0.0977224
0.0972421
0.0966902
0.0960361
0.0954377
0.0950759
0.0947758
0.0945077
0.0941435
0.0937575
0.0934161
0.0931095
0.0927326
0.0923572
0.100007
0.0995777
0.0991549
0.0988556
0.0985305
0.0982045
0.0977552
0.0971852
0.0966016
0.0961178
0.0955472
0.0952237
0.0947437
0.094365
0.0940825
0.0937644
0.0934435
0.0930868
0.100797
0.100291
0.0999558
0.0994753
0.0992315
0.0989626
0.0988322
0.0984231
0.0979316
0.097272
0.0967017
0.0962278
0.0957568
0.0952135
0.0946418
0.0943558
0.0940953
0.0937791
0.101753
0.10131
0.100771
0.100309
0.0999586
0.0996375
0.0993917
0.0991206
0.0988266
0.0985495
0.0979462
0.0973451
0.0968782
0.0963691
0.0958204
0.0952155
0.0948169
0.0944918
0.102917
0.102518
0.102105
0.101651
0.101221
0.100762
0.1004
0.100078
0.0999072
0.099536
0.0991889
0.0988206
0.0983912
0.0978901
0.0974741
0.0970453
0.0964495
0.0957934
0.0953141
0.103579
0.103227
0.102857
0.102488
0.102065
0.101599
0.101186
0.10076
0.100467
0.100062
0.0997188
0.0993743
0.0990379
0.0986902
0.0982452
0.0977822
0.0973913
0.0968502
0.0963371
0.103869
0.103549
0.10315
0.102797
0.102393
0.101963
0.101476
0.101052
0.100701
0.10027
0.0999392
0.099599
0.09927
0.0989049
0.0984847
0.0980796
0.097654
0.0972204
0.104746
0.104342
0.10393
0.10351
0.103135
0.102787
0.102307
0.101869
0.101369
0.100953
0.100537
0.100171
0.0998764
0.0995322
0.099152
0.098763
0.0983594
0.105536
0.105126
0.104736
0.104309
0.103878
0.103489
0.103009
0.102746
0.102201
0.101743
0.101241
0.10085
0.100502
0.100181
0.099829
0.099462
0.0990107
0.106387
0.105906
0.105494
0.105074
0.104648
0.104172
0.103784
0.103357
0.103024
0.102637
0.102062
0.101581
0.101209
0.10086
0.100507
0.100147
0.0997669
0.107523
0.107156
0.10676
0.106266
0.10582
0.105359
0.104891
0.104496
0.104142
0.103776
0.103375
0.102948
0.1024
0.101933
0.101569
0.101211
0.100834
0.100509
0.108381
0.107962
0.107495
0.107069
0.106579
0.106105
0.105725
0.105387
0.104823
0.104486
0.104104
0.103739
0.103327
0.102777
0.102326
0.101936
0.101562
0.109186
0.108767
0.108316
0.107837
0.107293
0.106777
0.106286
0.105945
0.10556
0.105185
0.104813
0.104415
0.10406
0.103668
0.103196
0.102729
0.102322
0.109967
0.109562
0.109177
0.108684
0.108083
0.10744
0.107026
0.106629
0.106236
0.105901
0.105539
0.105163
0.104745
0.104353
0.103961
0.103534
0.103116
0.110845
0.110382
0.10993
0.109477
0.108954
0.108321
0.107776
0.107317
0.106825
0.106538
0.106251
0.10589
0.105512
0.105126
0.104701
0.104321
0.10389
0.111608
0.111238
0.110794
0.110331
0.109852
0.109318
0.108647
0.107733
0.107511
0.107248
0.107012
0.106653
0.106248
0.105859
0.105462
0.105052
0.104661
0.11238
0.111958
0.111584
0.111245
0.110778
0.110393
0.10982
0.109109
0.108554
0.108059
0.107688
0.107413
0.107064
0.106614
0.106222
0.105822
0.105413
0.112758
0.112284
0.111941
0.111534
0.111142
0.110639
0.110265
0.109715
0.109052
0.108504
0.108085
0.107739
0.107369
0.106967
0.106607
0.106157
0.114079
0.113391
0.112767
0.11237
0.111942
0.111549
0.111186
0.110556
0.11001
0.109442
0.108881
0.108418
0.108086
0.107694
0.107308
0.115745
0.115335
0.114698
0.113991
0.113287
0.112842
0.112314
0.11188
0.111516
0.110882
0.110238
0.109684
0.109286
0.10884
0.108443
0.108064
0.116553
0.116195
0.115812
0.115218
0.114548
0.11382
0.113168
0.112932
0.112284
0.11189
0.111329
0.11061
0.109869
0.10956
0.109198
0.10882
0.117412
0.117046
0.116662
0.116121
0.115563
0.114983
0.114313
0.113913
0.113313
0.112768
0.112326
0.111864
0.111137
0.110438
0.10995
0.109602
0.118682
0.118243
0.11782
0.117437
0.117146
0.116595
0.116027
0.115528
0.115023
0.114492
0.113917
0.113233
0.112625
0.112228
0.111702
0.111088
0.119379
0.118948
0.11861
0.11827
0.117862
0.117493
0.116961
0.116421
0.115937
0.115551
0.115017
0.114449
0.113783
0.113172
0.11271
0.112251
0.120278
0.119735
0.119239
0.118884
0.118593
0.118199
0.117801
0.117355
0.116824
0.116435
0.116102
0.115739
0.115166
0.114427
0.113766
0.113136
0.121336
0.120692
0.119998
0.119481
0.119155
0.118871
0.118513
0.118041
0.117613
0.117189
0.116851
0.116564
0.116237
0.115808
0.115065
0.114366
0.122445
0.121734
0.121158
0.120575
0.11998
0.119569
0.1192
0.118848
0.118341
0.117906
0.117492
0.117117
0.116906
0.116603
0.116135
0.11561
0.123439
0.122934
0.122318
0.121761
0.1212
0.120716
0.120183
0.119704
0.119325
0.118732
0.118208
0.117814
0.117541
0.117177
0.116852
0.124343
0.123967
0.12344
0.12288
0.122256
0.121688
0.121233
0.12077
0.120294
0.119802
0.119289
0.118626
0.118169
0.117877
0.117563
0.117169
0.125092
0.124724
0.124373
0.123976
0.123398
0.12275
0.122217
0.121685
0.121298
0.120813
0.120356
0.119895
0.119246
0.118709
0.118348
0.117958
0.125858
0.12548
0.125087
0.124707
0.124274
0.123744
0.123242
0.122745
0.122243
0.121787
0.121328
0.120895
0.120501
0.119904
0.119279
0.126427
0.125855
0.125517
0.125177
0.124706
0.12416
0.123652
0.12323
0.122771
0.122326
0.121796
0.121371
0.120857
0.120376
0.12811
0.127267
0.126553
0.126105
0.125633
0.125132
0.124601
0.124131
0.123676
0.12327
0.122826
0.122251
0.121802
0.1294
0.12903
0.128499
0.12795
0.127278
0.126652
0.126122
0.125628
0.125103
0.124613
0.124107
0.123625
0.123197
0.122622
0.130176
0.129736
0.129376
0.128897
0.128395
0.127738
0.127207
0.126564
0.126046
0.125534
0.124979
0.124494
0.124048
0.123611
0.13105
0.130607
0.130136
0.129634
0.129289
0.128785
0.128249
0.127631
0.127078
0.12659
0.125939
0.125395
0.12494
0.124528
0.131783
0.131479
0.131047
0.130588
0.130141
0.129643
0.129236
0.128685
0.128078
0.12752
0.127054
0.126404
0.125894
0.125416
0.13248
0.132162
0.131881
0.131561
0.131181
0.130788
0.130188
0.129685
0.129091
0.128443
0.127886
0.127448
0.126927
0.126366
0.133093
0.132748
0.132469
0.132316
0.132051
0.131541
0.131139
0.130771
0.130291
0.129622
0.1288
0.128267
0.127848
0.132714
0.132594
0.132203
0.131583
0.131269
0.130867
0.130152
0.129247
0.128647
0.133124
0.133027
0.132667
0.132093
0.131653
0.131293
0.13073
0.129913
0.133988
0.133537
0.133411
0.133262
0.132725
0.132091
0.131665
0.135457
0.134868
0.134176
0.133848
0.133616
0.133159
0.132585
0.135511
0.134985
0.13448
0.134062
0.133655
0.13749
0.136702
0.135667
0.135568
0.135036
0.134587
0.141633
0.141279
0.139183
0.138297
0.13584
0.141752
0.141246
0.140776
0.140279
0.139905
0.136873
0.142474
0.1405
0.139886
0.139569
0.1388
0.142935
0.14171
0.140608
0.00956083
0.00916167
0.00886995
0.0125734
0.0119627
0.0113795
0.0108736
0.0102955
0.00974306
0.00924335
0.00892185
0.00680821
0.0151187
0.0145625
0.013865
0.0133368
0.0127282
0.0121287
0.0115805
0.0110171
0.0104312
0.00986271
0.00927312
0.00884155
0.00832459
0.00764813
0.00712622
0.0170957
0.0165027
0.0159517
0.0153077
0.0147476
0.0140548
0.0134611
0.0129019
0.012317
0.0117423
0.0111724
0.0105127
0.00991337
0.00933139
0.00879977
0.00833044
0.00776342
0.00714054
0.00669596
0.00588438
0.00501762
0.00443372
0.0192391
0.018726
0.0179952
0.0173387
0.0166614
0.0160836
0.0155025
0.014856
0.0142176
0.0135931
0.0130263
0.0124777
0.0119305
0.011391
0.0107502
0.01008
0.00928546
0.00883418
0.00837652
0.00782872
0.00727673
0.00666474
0.00596259
0.0216137
0.0208792
0.0203457
0.0196155
0.0189904
0.0181616
0.0174512
0.0168065
0.0162587
0.0156797
0.0150229
0.0143365
0.0136749
0.0131145
0.012531
0.0121247
0.0116838
0.0111349
0.010067
0.00931461
0.00885621
0.00843494
0.00791076
0.00739201
0.00682069
0.0232839
0.022437
0.0219174
0.0212754
0.0206426
0.0198014
0.0192492
0.0183608
0.0175677
0.0169045
0.0164172
0.0158954
0.0152883
0.0144269
0.0136954
0.0131661
0.0126616
0.0122547
0.0118442
0.0112222
0.0102
0.00944752
0.00898442
0.00853338
0.00802009
0.0255056
0.0244723
0.0234092
0.0228396
0.0221843
0.0214652
0.0209271
0.0205043
0.0197548
0.0187712
0.0178046
0.0170212
0.0166075
0.0161325
0.0157676
0.0147185
0.0137264
0.0131948
0.0127378
0.0123089
0.0118464
0.0113407
0.0104351
0.00970195
0.00916246
0.0277282
0.0268091
0.0257835
0.0246522
0.0236694
0.023159
0.0225777
0.021863
0.0211082
0.0208096
0.020245
0.0193077
0.0182856
0.017363
0.0168256
0.0164642
0.0160591
0.0150461
0.0138343
0.0132628
0.0128167
0.0123279
0.0118424
0.0112491
0.0105744
0.031101
0.0303607
0.0291798
0.0282029
0.0270742
0.0259258
0.0248611
0.0240456
0.0234509
0.0229296
0.0221349
0.021368
0.0210514
0.0206509
0.0198995
0.0190046
0.0179657
0.0170792
0.01658
0.0161618
0.0152214
0.0140746
0.0134259
0.0129391
0.0124166
0.011834
0.0330702
0.0325216
0.0319623
0.031403
0.0306674
0.0296081
0.0285804
0.0272967
0.0261137
0.0253558
0.0245398
0.0237396
0.022969
0.0221883
0.0216105
0.0212154
0.0207981
0.0202392
0.0195167
0.0184893
0.0175539
0.0168334
0.015987
0.0150849
0.0143733
0.0135809
0.0130889
0.0339513
0.0333869
0.0328197
0.0322841
0.0316273
0.0308838
0.0298503
0.028932
0.0278928
0.0268032
0.0258602
0.0249226
0.0240341
0.0231627
0.0222458
0.0218347
0.0214206
0.0209741
0.0204546
0.0198862
0.0191335
0.0180645
0.0172746
0.0163016
0.0152471
0.0372733
0.0366439
0.0356816
0.0346511
0.03388
0.0330853
0.0326092
0.0319836
0.031062
0.0302089
0.0292973
0.0283259
0.0273451
0.0262491
0.025318
0.0244207
0.0234433
0.0224518
0.0220577
0.0216566
0.0212015
0.0207638
0.0202942
0.0196733
0.0187098
0.0382868
0.037552
0.0370127
0.0362937
0.0353931
0.034434
0.033668
0.0330431
0.0323047
0.0314825
0.0305245
0.0297205
0.0287772
0.027811
0.0266526
0.0256732
0.0246866
0.0237035
0.0227826
0.0223035
0.0218968
0.0214865
0.0210599
0.0206152
0.040277
0.0399541
0.0394253
0.0387319
0.0379164
0.037405
0.0368444
0.0360624
0.0352356
0.0342907
0.0335754
0.0328189
0.0320048
0.0311913
0.0302655
0.0293145
0.0282909
0.0271624
0.0261061
0.0250261
0.0239748
0.0231016
0.0225884
0.0221319
0.0216724
0.041486
0.0409594
0.0405175
0.0401815
0.0398404
0.0390547
0.0384759
0.0379759
0.0374566
0.036759
0.035786
0.0349025
0.0341986
0.033335
0.0325469
0.031748
0.030889
0.029915
0.028867
0.0278433
0.0266889
0.0253539
0.0240649
0.0234295
0.0227785
0.0426085
0.0421576
0.0417176
0.0412283
0.0407414
0.0403147
0.0399316
0.0393977
0.0389339
0.0385144
0.0380179
0.0372366
0.036331
0.0355831
0.034623
0.0338908
0.0331425
0.0323718
0.0315018
0.0305621
0.0295793
0.0284643
0.0273884
0.0260501
0.0246458
0.0441787
0.0437256
0.0432939
0.0428657
0.0424428
0.0420304
0.0414804
0.0410022
0.0404302
0.0400481
0.0396326
0.0392538
0.0388913
0.0383464
0.0377272
0.0369097
0.0361211
0.0352421
0.0346007
0.0337969
0.0329368
0.0320836
0.0311392
0.0302184
0.0292243
0.0281488
0.0454715
0.0450636
0.0444613
0.0439741
0.0435407
0.0430871
0.0426963
0.0423013
0.0418469
0.0412599
0.0406593
0.0401905
0.0398553
0.0394932
0.0391448
0.0385714
0.0378418
0.037347
0.036651
0.0359958
0.0353965
0.0345289
0.033587
0.0326872
0.0318337
0.0308856
0.0470217
0.0463522
0.0457156
0.0452065
0.0447026
0.0441526
0.0436789
0.0432811
0.0429132
0.042568
0.0420992
0.0415695
0.0410375
0.0404667
0.0401111
0.039743
0.0392731
0.0386152
0.0378528
0.0373933
0.0369851
0.0362575
0.0357894
0.0352496
0.0343029
0.0333642
0.0324854
0.0483371
0.0478497
0.0472438
0.0466185
0.04598
0.0453667
0.0448046
0.0442973
0.0438418
0.0434464
0.0430814
0.042739
0.042401
0.0418664
0.041284
0.0408283
0.0404124
0.0400556
0.0395471
0.0387543
0.037895
0.0373942
0.0369536
0.0364504
0.0360067
0.0355994
0.0350563
0.0493599
0.0487085
0.0481272
0.0475343
0.0468812
0.0461737
0.0455388
0.0449334
0.044373
0.0439203
0.0435481
0.0432078
0.0428693
0.0425104
0.0420896
0.0416005
0.0411343
0.0407361
0.0404122
0.039998
0.0391386
0.0382263
0.0375758
0.0371488
0.0366525
0.0361701
0.0510126
0.0502802
0.0496531
0.0490299
0.048395
0.047807
0.0470957
0.0465136
0.0458645
0.0451826
0.0445769
0.0440302
0.0436301
0.0433315
0.0430087
0.0426425
0.0422385
0.0418016
0.0413682
0.0409726
0.0406794
0.0401655
0.039274
0.0384991
0.0378931
0.0373873
0.0525106
0.0519074
0.0513151
0.0506894
0.0500264
0.0493709
0.0487349
0.0480342
0.047441
0.0468022
0.0460924
0.0454519
0.044738
0.0442308
0.0437892
0.0434876
0.0431694
0.0428066
0.0424039
0.0419842
0.0415719
0.0411469
0.040685
0.0401546
0.0395959
0.0388698
0.0534385
0.0529068
0.0523193
0.051655
0.0510152
0.0502698
0.0497624
0.0490813
0.0483251
0.0477126
0.0470989
0.0463958
0.0457667
0.0450228
0.0443762
0.0440178
0.0436964
0.0433597
0.042989
0.0425843
0.0421445
0.0417385
0.0413096
0.0408496
0.0403745
0.0549071
0.0543973
0.0538716
0.053347
0.0527707
0.0521068
0.0515276
0.0507032
0.0500206
0.0493001
0.0486964
0.0480871
0.0474067
0.0467279
0.0460839
0.0453222
0.0446537
0.044262
0.0439352
0.0435833
0.0432085
0.042789
0.0423521
0.0419206
0.041523
0.0410943
0.0563204
0.0558102
0.0552984
0.0547713
0.054246
0.0537197
0.0531997
0.0524094
0.0518532
0.0511344
0.0504233
0.0497229
0.0490289
0.0483663
0.0477474
0.0470726
0.0463948
0.045696
0.0451131
0.0445383
0.0442243
0.0438415
0.0434246
0.043003
0.0426015
0.0421762
0.0577332
0.0571589
0.0566291
0.0561403
0.0556368
0.0551574
0.054647
0.054118
0.0535422
0.0528673
0.0522134
0.0515565
0.0508187
0.0501056
0.049417
0.0487439
0.0480718
0.0474667
0.046841
0.0460705
0.0454596
0.0449158
0.044555
0.0441176
0.0436938
0.0432844
0.0428518
0.0585469
0.0580053
0.0574829
0.0569239
0.0564543
0.05598
0.0555238
0.0550373
0.0544956
0.0539315
0.0532914
0.0526254
0.0519665
0.0512136
0.050486
0.0497921
0.0491229
0.048503
0.0477345
0.0472684
0.0465576
0.04596
0.0453705
0.0448847
0.044426
0.044003
0.0599183
0.0594536
0.058966
0.0583709
0.0577701
0.057188
0.0567333
0.0563825
0.0559717
0.0554502
0.0548811
0.0543307
0.0537514
0.0531554
0.0523614
0.0515932
0.0508139
0.0500487
0.0492921
0.0490747
0.0482298
0.047509
0.0469335
0.0463133
0.0456757
0.0452061
0.0606589
0.0602546
0.0598505
0.0594056
0.0588258
0.0583304
0.0575843
0.0570687
0.0567202
0.0563962
0.0558768
0.0552912
0.0547756
0.0541877
0.0535918
0.0527814
0.051909
0.0511014
0.0505853
0.0499647
0.0492252
0.0485088
0.0479003
0.0473269
0.0466894
0.0618855
0.0614455
0.0610057
0.0605482
0.0601715
0.0598281
0.0593269
0.0586415
0.0579864
0.0574939
0.0571125
0.0566839
0.0562313
0.0556652
0.0551497
0.0546836
0.054018
0.0531569
0.0523554
0.0515153
0.0508016
0.050226
0.0495675
0.0489349
0.0482429
0.0627249
0.0622138
0.0617606
0.0612959
0.0608516
0.0604729
0.0601241
0.0596931
0.0591095
0.0585402
0.0579888
0.0575022
0.0570192
0.0565008
0.0558863
0.0553883
0.0550008
0.0543639
0.0535272
0.0526363
0.0518684
0.0511632
0.0505173
0.0498884
0.049345
0.064174
0.0636231
0.063064
0.0624934
0.0620117
0.0615409
0.061096
0.0606872
0.0603455
0.0599498
0.0594091
0.0589005
0.0584497
0.0580799
0.0574453
0.0568222
0.0561639
0.0556469
0.0552608
0.0547943
0.0538773
0.0530415
0.0522824
0.0516322
0.0508937
0.0651638
0.0646316
0.0640378
0.0634033
0.0627657
0.0622955
0.061836
0.0613744
0.0609293
0.0603874
0.0601645
0.0596819
0.059309
0.0589057
0.058417
0.0579419
0.0573492
0.0566144
0.0559971
0.0556231
0.0549972
0.0541348
0.0535086
0.0527857
0.0520507
0.0663456
0.0659742
0.0655429
0.0650865
0.0645076
0.0640116
0.0633639
0.0627112
0.0622149
0.061768
0.0612819
0.060701
0.0602971
0.0599212
0.0595606
0.0592818
0.0589018
0.0583513
0.0577835
0.0571379
0.056444
0.0559178
0.0553071
0.0545747
0.0539082
0.0671117
0.066729
0.066338
0.065945
0.0655853
0.0650431
0.0644033
0.0638658
0.0632555
0.0627537
0.0621645
0.0616089
0.0610741
0.0605319
0.0601256
0.05981
0.0594897
0.0591781
0.0587524
0.0581824
0.057576
0.0569325
0.0563415
0.0555676
0.0682128
0.0678004
0.0674172
0.067024
0.0666383
0.0662786
0.0659249
0.0654943
0.0648912
0.0644211
0.0638535
0.0632917
0.0627168
0.0620976
0.0614905
0.0608923
0.0604706
0.0601484
0.0597817
0.0594183
0.0589692
0.0584747
0.0579415
0.0573763
0.0568389
0.0688614
0.0684796
0.0681296
0.0677578
0.0673699
0.0669714
0.0665975
0.0662006
0.0657457
0.0653363
0.0648543
0.0643994
0.0638869
0.0632658
0.0626095
0.0619445
0.0613468
0.0608111
0.0604415
0.0600993
0.0596895
0.059239
0.0588103
0.0582888
0.0698963
0.0695163
0.0691605
0.0687721
0.0684198
0.0680749
0.0677009
0.0673252
0.0669328
0.0664856
0.0660078
0.0655519
0.0651235
0.0647077
0.0641935
0.0636956
0.0631094
0.0624839
0.0617847
0.0612912
0.060879
0.0604475
0.0599959
0.0595816
0.0591348
0.0705695
0.0701821
0.0698245
0.0694614
0.0690811
0.0687285
0.0683679
0.0680249
0.0676239
0.0671208
0.0667569
0.066257
0.0657638
0.0653688
0.0649476
0.0646033
0.0641137
0.0634789
0.0628711
0.0622496
0.0617166
0.0612432
0.0608148
0.0603713
0.0716244
0.071242
0.0708566
0.0704492
0.0700929
0.0697593
0.0693922
0.0690591
0.0687031
0.0683501
0.0679743
0.0674024
0.0670238
0.0665327
0.0660455
0.0655606
0.0651245
0.0647793
0.0643794
0.0638357
0.0632191
0.0626607
0.0620991
0.061664
0.0612369
0.0722697
0.071888
0.0715173
0.0711379
0.0707467
0.0703838
0.0700243
0.0696991
0.069364
0.069056
0.0686413
0.0683392
0.0678164
0.0673203
0.0667994
0.0663896
0.0658833
0.0654192
0.0650189
0.0646192
0.0640886
0.0635142
0.0630424
0.062519
0.0729442
0.0725728
0.0721695
0.0717624
0.0714066
0.0710182
0.0706582
0.0702934
0.0699674
0.0696567
0.0693759
0.0689525
0.0686092
0.0681268
0.067676
0.0671921
0.0666253
0.0661718
0.065696
0.0653183
0.0648946
0.0643857
0.0639037
0.0634302
0.0740433
0.0736614
0.0732614
0.0728193
0.0724139
0.0720342
0.0716448
0.0712685
0.0708849
0.0705433
0.0702198
0.0699224
0.0696471
0.0692818
0.0688932
0.0684447
0.0679593
0.0675394
0.0670575
0.0665414
0.0660669
0.065633
0.0651723
0.0646948
0.0642619
0.0747639
0.0743771
0.0739862
0.0735503
0.0730928
0.0726569
0.0722866
0.0719049
0.0715119
0.0710976
0.070754
0.0704564
0.0701664
0.0698729
0.0695637
0.0691861
0.0687752
0.0683252
0.0678024
0.0673499
0.0668463
0.0663876
0.0659863
0.0655365
0.0755738
0.0750901
0.0747316
0.0743389
0.0739005
0.0734991
0.0730474
0.0726051
0.0722341
0.071805
0.0713789
0.0709642
0.0706783
0.0703997
0.0700909
0.0697627
0.0693918
0.0689847
0.068533
0.0681011
0.0676497
0.0671632
0.0667317
0.0662856
0.0762477
0.0758636
0.0754364
0.0750364
0.0746974
0.0740537
0.0737683
0.0734424
0.0729936
0.0725944
0.0721808
0.0717305
0.071252
0.0709417
0.0706518
0.0703273
0.0700064
0.0696217
0.0692083