/*--------------------------------*- C++ -*----------------------------------*\
  =========                 |
  \\      /  F ield         | OpenFOAM: The Open Source CFD Toolbox
   \\    /   O peration     | Website:  https://openfoam.org
    \\  /    A nd           | Version:  8
     \\/     M anipulation  |
\*---------------------------------------------------------------------------*/
FoamFile
{
    version     2.0;
    format      ascii;
    class       volScalarField;
    location    "220";
    object      epsilon;
}
// * * * * * * * * * * * * * * * * * * * * * * * * * * * * * * * * * * * * * //

dimensions      [0 2 -3 0 0 0 0];

internalField   nonuniform List<scalar> 
12225
(
285.523
270.704
257.918
243.808
232.465
223.082
216.815
212.697
212.743
213.949
217.249
220.874
228.104
232.752
241.411
246.15
255.961
257.927
52.4926
91.8828
106.973
114.748
124.842
136.782
152.69
169.9
191.112
210.925
235.231
255.475
281.051
299.337
324.7
339.532
363.502
378.871
20.5285
34.8727
44.6753
50.4692
55.3955
59.6071
64.6643
69.6414
76.3185
83.1807
91.4389
99.3138
108.176
116.932
125.545
135.295
142.509
153.938
16.0023
19.4864
24.0814
27.5637
30.4966
32.8692
35.1554
37.2929
39.5028
41.9169
44.3369
47.2013
49.6812
53.0394
55.4096
59.2473
61.3793
65.679
15.0385
15.7124
17.3991
19.0784
20.6393
22.0258
23.2462
24.4308
25.4441
26.5944
27.5234
28.7578
29.632
30.9853
31.8116
33.2717
34.0445
35.6637
14.7897
14.8256
15.2495
15.8676
16.5677
17.2869
17.9237
18.5841
19.1191
19.7339
20.1932
20.7988
21.2083
21.8225
22.1973
22.8288
23.1609
23.8675
14.7658
14.6146
14.6409
14.7257
14.9351
15.2199
15.4916
15.8088
16.0709
16.3825
16.6181
16.9201
17.1308
17.427
17.6154
17.9141
18.071
18.4114
14.7687
14.5866
14.466
14.3801
14.3677
14.3896
14.4394
14.5334
14.6185
14.7366
14.8308
14.9564
15.0476
15.1762
15.2606
15.3931
15.4625
15.6233
14.768
14.591
14.4349
14.2963
14.185
14.1044
14.0399
14.0066
13.9814
13.9785
13.9808
13.9917
14.0036
14.0299
14.0461
14.0811
14.0968
14.1514
14.7665
14.594
14.432
14.282
14.143
14.0219
13.9115
13.8193
13.737
13.6698
13.6102
13.5633
13.5181
13.4872
13.4515
13.4343
13.4018
13.401
14.7659
14.5945
14.4322
14.2803
14.1361
14.0032
13.8782
13.7644
13.6582
13.5629
13.4735
13.3952
13.3198
13.2561
13.1915
13.1408
13.0838
13.0451
14.7657
14.5943
14.4321
14.2798
14.1353
13.9998
13.8715
13.7518
13.6385
13.5336
13.4341
13.343
13.2557
13.1771
13.1003
13.0328
12.9647
12.9074
14.7657
14.5941
14.432
14.2794
14.1349
13.9989
13.8699
13.7485
13.6331
13.5249
13.422
13.3257
13.2338
13.1483
13.0663
12.9906
12.9172
12.8502
14.7657
14.5939
14.4318
14.279
14.1346
13.9983
13.8691
13.7472
13.6315
13.5223
13.4184
13.3203
13.227
13.1389
13.055
12.9759
12.9002
12.8291
14.7657
14.5938
14.4317
14.2787
14.1342
13.9977
13.8686
13.7464
13.6307
13.5211
13.4171
13.3185
13.2248
13.136
13.0516
12.9714
12.8952
12.8228
14.7657
14.5937
14.4316
14.2785
14.1339
13.9973
13.8681
13.7458
13.63
13.5202
13.4161
13.3174
13.2236
13.1346
13.05
12.9696
12.8932
12.8204
14.7657
14.5937
14.4315
14.2783
14.1337
13.997
13.8677
13.7453
13.6294
13.5195
13.4154
13.3165
13.2227
13.1336
13.0489
12.9684
12.8918
12.819
14.7657
14.5937
14.4314
14.2782
14.1335
13.9968
13.8674
13.745
13.629
13.5191
13.4148
13.3159
13.222
13.1329
13.0481
12.9675
12.8909
12.818
14.7657
14.5937
14.4314
14.2782
14.1335
13.9967
13.8673
13.7448
13.6288
13.5189
13.4146
13.3157
13.2217
13.1325
13.0477
12.9671
12.8904
12.8174
14.7657
14.5937
14.4314
14.2782
14.1336
13.9968
13.8674
13.745
13.629
13.519
13.4148
13.3159
13.2219
13.1327
13.0479
12.9673
12.8907
12.8177
14.7657
14.5937
14.4315
14.2784
14.1337
13.997
13.8677
13.7453
13.6294
13.5196
13.4154
13.3166
13.2229
13.1338
13.0493
12.9689
12.8926
12.82
14.7657
14.5937
14.4316
14.2785
14.1341
13.9974
13.8685
13.7464
13.6312
13.522
13.419
13.3214
13.2293
13.1418
13.0595
12.981
12.9073
12.8368
14.7659
14.5937
14.4318
14.2788
14.1353
14.0002
13.8742
13.756
13.6463
13.5435
13.4485
13.3591
13.277
13.1992
13.1282
13.0601
12.9988
12.9386
14.7661
14.5928
14.4329
14.2844
14.1515
14.0321
13.9289
13.8375
13.7593
13.6894
13.6306
13.5769
13.5328
13.4905
13.4574
13.423
13.3989
13.3693
14.7641
14.5936
14.461
14.3603
14.3029
14.2767
14.2796
14.294
14.3202
14.3529
14.3959
14.4345
14.4824
14.5217
14.572
14.6089
14.6616
14.6939
14.757
14.6921
14.7579
14.9172
15.1828
15.4611
15.7475
16.0121
16.2723
16.5038
16.7361
16.9386
17.1507
17.3309
17.531
17.6937
17.8888
18.036
14.9575
15.4344
16.5693
17.6884
18.7053
19.5677
20.3372
20.9969
21.6195
22.1661
22.7189
23.2109
23.74
24.2044
24.7328
25.1828
25.7251
26.1661
16.2579
20.9389
25.015
27.7588
29.7844
31.3585
32.7767
34.0584
35.3594
36.6164
37.9755
39.2974
40.7618
42.146
43.7182
45.1741
46.8842
48.359
29.9428
47.225
54.8705
58.6735
61.614
64.4322
67.5798
70.9793
74.7385
78.7147
82.9861
87.3454
91.9064
96.4517
101.102
105.624
110.177
114.579
165.79
160.073
154.899
149.564
144.479
139.678
135.613
132.11
129.27
126.973
125.319
124.045
123.339
122.829
122.825
122.982
123.269
123.826
0.325851
0.369007
0.668033
0.947812
1.24429
1.56825
1.92519
2.31518
2.73223
3.16685
3.60906
4.05001
4.48301
4.90339
5.30856
5.69745
6.07011
6.4268
6.76721
7.08944
7.38909
7.65854
7.88813
8.06693
8.18486
8.23246
8.21703
8.12672
8.01473
7.92703
8.18594
8.7413
40.0547
44.56
45.1098
43.8411
42.7031
41.8352
40.2537
44.7728
47.3842
51.0305
54.4658
58.238
62.0985
66.1642
70.3833
74.7839
79.3574
84.1127
89.0506
94.1762
99.492
105.002
110.71
116.618
122.73
129.048
135.574
142.312
149.261
156.425
163.802
171.396
179.203
187.226
195.461
203.908
212.564
221.428
230.493
239.76
249.219
258.87
268.702
278.713
288.892
299.235
309.729
320.371
331.144
342.044
353.055
364.17
375.369
386.647
397.979
409.358
420.761
432.173
443.571
454.928
466.218
477.413
488.487
499.424
510.237
520.999
531.631
542.117
552.449
562.612
572.588
582.362
591.914
601.23
610.291
619.085
627.592
635.8
643.689
651.248
658.456
665.304
671.77
677.846
683.511
688.758
693.568
697.934
701.837
705.267
708.209
710.655
712.589
713.99
714.788
715.388
715.082
714.187
712.797
711.033
708.578
705.557
701.965
697.805
693.09
687.816
681.976
675.556
668.596
661.105
653.104
644.619
635.674
626.3
616.524
606.381
595.904
585.132
574.099
562.845
551.412
539.842
528.183
516.512
505.002
494.739
487.653
481.285
474.916
468.504
462.068
455.635
449.231
442.882
436.613
430.449
424.412
418.523
412.799
407.255
401.9
396.731
391.718
386.811
381.897
376.492
370.049
346.538
1.50111
0.901353
0.906449
1.02814
1.21347
1.44729
1.72455
2.03931
2.38385
2.74972
3.12906
3.51552
3.90463
4.29377
4.68191
5.06929
5.45691
5.84602
6.2376
6.63195
7.02871
7.4276
7.82959
8.24008
8.69152
9.23069
9.90194
10.7847
11.9913
13.6128
15.7999
18.3086
23.1473
24.0582
24.3017
24.3375
24.8839
25.7695
26.7163
28.653
30.3092
32.099
33.9038
35.7845
37.7188
39.722
41.7905
43.929
46.138
48.4195
50.7746
53.2047
55.7108
58.2941
60.9553
63.6954
66.5148
69.4143
72.3941
75.4545
78.5957
81.8176
85.1198
88.5023
91.9641
95.5049
99.1234
102.819
106.59
110.435
114.351
118.339
122.395
126.516
130.701
134.946
139.248
143.605
148.013
152.468
156.965
161.501
166.071
170.671
175.294
179.936
184.589
189.249
193.907
198.558
203.192
207.802
212.379
216.919
221.422
225.894
230.359
234.868
239.361
243.793
248.166
252.473
256.706
260.86
264.928
268.904
272.782
276.555
280.217
283.764
287.187
290.482
293.641
296.66
299.533
302.252
304.814
307.212
309.441
311.496
313.371
315.059
316.557
317.858
318.957
319.849
320.532
321.03
321.241
321.237
321.019
320.613
319.953
319.053
317.915
316.54
314.929
313.082
310.997
308.673
306.117
303.334
300.331
297.116
293.698
290.087
286.293
282.33
278.208
273.942
269.546
265.036
260.426
255.734
250.978
246.185
241.419
236.901
232.979
229.276
225.615
221.964
218.325
214.709
211.126
207.586
204.101
200.68
197.333
194.069
190.897
187.825
184.859
182.006
179.266
176.647
174.147
171.805
169.672
166.673
3.05682
1.54779
1.3802
1.4276
1.564
1.76178
2.00943
2.29891
2.62231
2.9716
3.33954
3.72039
4.11029
4.50731
4.91122
5.32313
5.74506
6.17953
6.6292
7.09675
7.58532
8.09967
8.64832
9.24531
9.89807
10.619
11.4406
12.3893
13.4816
14.7159
16.0827
17.5382
19.0281
19.9426
20.7551
21.6341
22.6644
23.7983
25.0725
26.4752
27.8911
29.3607
30.8781
32.4501
34.0753
35.7557
37.4914
39.2835
41.1326
43.0395
45.0049
47.0297
49.1143
51.2594
53.4654
55.733
58.0623
60.4539
62.9078
65.4242
68.0031
70.6444
73.348
76.1135
78.9404
81.8283
84.7763
87.7838
90.8495
93.9726
97.1515
100.385
103.671
107.009
110.395
113.828
117.306
120.826
124.385
127.981
131.61
135.269
138.955
142.663
146.391
150.133
153.886
157.645
161.406
165.164
168.915
172.656
176.382
180.092
183.788
187.472
191.149
194.816
198.45
202.041
205.583
209.07
212.499
215.863
219.157
222.377
225.517
228.572
231.538
234.409
237.18
239.848
242.406
244.85
247.176
249.378
251.453
253.395
255.201
256.865
258.384
259.752
260.965
262.02
262.911
263.637
264.194
264.576
264.733
264.755
264.585
264.243
263.706
262.977
262.057
260.946
259.644
258.152
256.47
254.6
252.545
250.31
247.899
245.319
242.578
239.681
236.638
233.459
230.153
226.731
223.204
219.584
215.883
212.115
208.292
204.436
200.587
196.837
193.298
189.876
186.501
183.153
179.83
176.54
173.289
170.087
166.94
163.858
160.847
157.914
155.067
152.311
149.655
147.105
144.669
142.362
140.202
138.261
136.612
135.042
4.72156
2.24605
1.90102
1.88471
1.99132
2.17059
2.40414
2.68212
2.99684
3.34135
3.70945
4.09615
4.49804
4.9134
5.34207
5.7852
6.24483
6.72349
7.22381
7.74827
8.2992
8.87908
9.491
10.1389
10.8272
11.5626
12.3546
13.2112
14.136
15.1253
16.169
17.2447
18.3202
19.3412
20.3755
21.4645
22.6233
23.8451
25.1334
26.4667
27.8361
29.2491
30.7084
32.2169
33.7756
35.386
37.0486
38.7645
40.5343
42.3589
44.2389
46.1752
48.1681
50.2184
52.3266
54.4932
56.7187
59.0036
61.348
63.7524
66.2169
68.7416
71.3264
73.9712
76.6759
79.4399
82.2629
85.1442
88.083
91.0783
94.1292
97.2344
100.392
103.601
106.86
110.166
113.518
116.912
120.347
123.819
127.326
130.865
134.432
138.025
141.638
145.269
148.913
152.567
156.227
159.889
163.55
167.205
170.852
174.489
178.114
181.725
185.32
188.89
192.423
195.913
199.354
202.741
206.069
209.331
212.524
215.642
218.679
221.632
224.495
227.262
229.93
232.494
234.949
237.29
239.513
241.613
243.586
245.428
247.135
248.701
250.124
251.399
252.521
253.487
254.294
254.938
255.417
255.705
255.815
255.775
255.55
255.15
254.567
253.799
252.847
251.712
250.394
248.894
247.214
245.355
243.322
241.118
238.749
236.22
233.538
230.711
227.746
224.653
221.442
218.122
214.704
211.199
207.619
203.976
200.286
196.565
192.844
189.172
185.601
182.104
178.651
175.232
171.847
168.502
165.204
161.959
158.775
155.66
152.621
149.663
146.793
144.019
141.347
138.785
136.344
134.041
131.902
129.993
128.372
126.949
6.33907
2.94222
2.41973
2.34313
2.41946
2.58139
2.80304
3.07196
3.38007
3.72093
4.08908
4.4801
4.89083
5.31944
5.76543
6.22939
6.71273
7.21732
7.74513
8.29798
8.87737
9.48459
10.1208
10.7874
11.4861
12.2194
12.9907
13.8039
14.6625
15.5699
16.5253
17.523
18.5524
19.607
20.697
21.8305
23.0106
24.2369
25.5069
26.8279
28.1945
29.6068
31.0664
32.5751
34.1342
35.7449
37.4084
39.1258
40.8979
42.7259
44.6106
46.5534
48.5547
50.615
52.7353
54.9163
57.1586
59.4629
61.8298
64.2599
66.7535
69.311
71.9328
74.6188
77.3691
80.1836
83.062
86.0039
89.0087
92.0758
95.2041
98.3926
101.64
104.945
108.305
111.719
115.185
118.7
122.261
125.866
129.512
133.196
136.914
140.662
144.437
148.234
152.051
155.882
159.723
163.571
167.421
171.269
175.111
178.942
182.759
186.555
190.326
194.063
197.76
201.41
205.007
208.546
212.019
215.422
218.749
221.994
225.152
228.218
231.185
234.05
236.806
239.449
241.974
244.376
246.651
248.794
250.8
252.665
254.386
255.957
257.374
258.635
259.734
260.668
261.435
262.031
262.447
262.663
262.717
262.595
262.287
261.793
261.11
260.238
259.178
257.929
256.493
254.872
253.067
251.082
248.92
246.586
244.085
241.424
238.609
235.648
232.549
229.322
225.977
222.523
218.972
215.336
211.627
207.857
204.042
200.198
196.347
192.523
188.754
185.037
181.362
177.724
174.128
170.578
167.081
163.644
160.276
156.982
153.77
150.646
147.617
144.69
141.872
139.173
136.605
134.188
131.949
129.948
128.226
126.682
7.85311
3.6064
2.91293
2.77756
2.82345
2.96757
3.17674
3.43574
3.73565
4.07014
4.4342
4.82382
5.23599
5.66878
6.1213
6.59359
7.08641
7.601
8.13881
8.70131
9.28985
9.90562
10.5497
11.2232
11.9274
12.664
13.4349
14.2427
15.0905
15.9809
16.9157
17.894
18.9136
19.9733
21.0748
22.22
23.4102
24.6463
25.929
27.2601
28.6395
30.068
31.5466
33.0768
34.6599
36.2973
37.9903
39.74
41.5478
43.4148
45.3422
47.3308
49.3822
51.4975
53.678
55.9247
58.2388
60.6213
63.0729
65.5948
68.1875
70.8518
73.5883
76.3973
79.2792
82.2341
85.262
88.3626
91.5356
94.7804
98.0962
101.482
104.936
108.458
112.044
115.694
119.405
123.175
127
130.878
134.805
138.777
142.791
146.843
150.928
155.043
159.181
163.339
167.512
171.694
175.881
180.067
184.247
188.414
192.564
196.688
200.781
204.835
208.843
212.799
216.694
220.523
224.279
227.956
231.546
235.044
238.444
241.74
244.925
247.994
250.941
253.761
256.449
258.999
261.407
263.667
265.775
267.728
269.519
271.146
272.604
273.889
274.998
275.927
276.673
277.234
277.593
277.749
277.733
277.52
277.108
276.498
275.687
274.676
273.464
272.054
270.447
268.644
266.65
264.466
262.098
259.551
256.831
253.943
250.897
247.699
244.358
240.885
237.29
233.585
229.78
225.889
221.925
217.9
213.83
209.73
205.62
201.524
197.462
193.44
189.458
185.518
181.623
177.78
173.998
170.283
166.642
163.084
159.614
156.241
152.97
149.809
146.767
143.853
141.081
138.472
136.053
133.876
131.963
130.179
9.22363
4.21774
3.36374
3.17117
3.18646
3.3118
3.50712
3.75437
4.04362
4.36837
4.72384
5.1063
5.51296
5.94188
6.39199
6.86299
7.35522
7.86954
8.4071
8.96923
9.55731
10.1727
10.8167
11.4908
12.1962
12.9346
13.7077
14.5176
15.3664
16.2561
17.1884
18.164
19.1831
20.246
21.3537
22.5072
23.7078
24.9565
26.2544
27.603
29.0031
30.4559
31.9627
33.525
35.1442
36.8219
38.5596
40.3589
42.2213
44.1484
46.1418
48.2029
50.3334
52.5349
54.8091
57.1573
59.5811
62.0819
64.6611
67.3198
70.0593
72.8805
75.7845
78.7719
81.8434
84.9994
88.2401
91.5655
94.9754
98.4693
102.047
105.706
109.446
113.266
117.164
121.136
125.182
129.297
133.479
137.724
142.029
146.388
150.799
155.256
159.754
164.288
168.852
173.441
178.049
182.67
187.297
191.924
196.544
201.15
205.734
210.289
214.807
219.279
223.698
228.055
232.345
236.558
240.687
244.724
248.663
252.496
256.215
259.815
263.289
266.629
269.83
272.886
275.791
278.539
281.126
283.546
285.794
287.866
289.757
291.464
292.981
294.306
295.435
296.365
297.093
297.617
297.914
298.007
297.899
297.578
297.042
296.29
295.323
294.14
292.743
291.133
289.312
287.283
285.05
282.618
279.99
277.173
274.173
270.997
267.654
264.151
260.5
256.711
252.794
248.762
244.629
240.406
236.108
231.748
227.342
222.906
218.456
214.012
209.593
205.207
200.86
196.558
192.305
188.111
183.983
179.928
175.956
172.073
168.286
164.604
161.033
157.58
154.256
151.071
148.039
145.181
142.522
140.106
137.941
135.858
10.4223
4.76128
3.76082
3.51207
3.49801
3.60336
3.78334
4.01705
4.29344
4.60568
4.94908
5.32016
5.71634
6.13582
6.57751
7.04101
7.52649
8.0346
8.56633
9.12292
9.70577
10.3164
10.9562
11.6269
12.33
13.0671
13.8398
14.6501
15.4996
16.3901
17.323
18.2997
19.3212
20.3885
21.5028
22.6653
23.8774
25.1405
26.4559
27.8251
29.2497
30.7313
32.2714
33.872
35.5346
37.2612
39.0537
40.914
42.8441
44.8459
46.9214
49.0728
51.3021
53.6113
56.0024
58.4776
61.0386
63.6874
66.4259
69.2557
72.1784
75.1955
78.3083
81.518
84.8254
88.2313
91.7361
95.3401
99.0432
102.845
106.745
110.742
114.834
119.021
123.299
127.667
132.121
136.658
141.274
145.966
150.73
155.559
160.449
165.395
170.39
175.428
180.503
185.608
190.736
195.879
201.03
206.181
211.323
216.449
221.548
226.612
231.632
236.599
241.504
246.338
251.091
255.756
260.324
264.785
269.131
273.354
277.447
281.401
285.209
288.863
292.357
295.684
298.838
301.813
304.603
307.203
309.608
311.812
313.813
315.604
317.184
318.547
319.692
320.615
321.314
321.782
322.005
322.011
321.789
321.333
320.645
319.723
318.566
317.178
315.558
313.709
311.636
309.34
306.826
304.099
301.166
298.032
294.704
291.191
287.501
283.644
279.631
275.473
271.182
266.772
262.255
257.645
252.958
248.208
243.41
238.579
233.734
228.891
224.066
219.272
214.516
209.807
205.153
200.562
196.043
191.605
187.255
183.002
178.853
174.816
170.899
167.111
163.459
159.957
156.619
153.464
150.517
147.813
145.345
142.927
11.4331
5.22746
4.09694
3.79401
3.75201
3.83696
4.00053
4.21938
4.48136
4.77929
5.10846
5.46559
5.84832
6.25501
6.6847
7.13704
7.61218
8.11072
8.63346
9.18141
9.75605
10.359
10.9919
11.6564
12.3541
13.0868
13.856
14.6637
15.5114
16.4008
17.3336
18.3113
19.3353
20.4072
21.5285
22.7006
23.9254
25.2044
26.5391
27.931
29.3827
30.8965
32.4743
34.1184
35.831
37.6142
39.4705
41.4022
43.4119
45.5019
47.6748
49.9332
52.2797
54.7169
57.2474
59.8737
62.5984
65.4238
68.3522
71.386
74.5271
77.7776
81.1391
84.6131
88.201
91.9037
95.7218
99.6559
103.706
107.872
112.152
116.547
121.053
125.67
130.395
135.225
140.156
145.185
150.308
155.519
160.813
166.185
171.629
177.137
182.703
188.32
193.979
199.673
205.393
211.13
216.875
222.618
228.35
234.061
239.74
245.376
250.961
256.482
261.929
267.293
272.562
277.728
282.779
287.707
292.5
297.151
301.65
305.988
310.157
314.148
317.955
321.57
324.985
328.196
331.195
333.977
336.537
338.871
340.972
342.839
344.466
345.851
346.992
347.885
348.53
348.915
349.043
348.925
348.555
347.931
347.054
345.923
344.54
342.905
341.023
338.895
336.527
333.922
331.085
328.022
324.741
321.247
317.55
313.658
309.58
305.328
300.911
296.343
291.637
286.806
281.864
276.827
271.71
266.527
261.295
256.03
250.749
245.467
240.202
234.965
229.768
224.62
219.531
214.51
209.567
204.709
199.948
195.289
190.743
186.317
182.018
177.857
173.842
169.986
166.302
162.811
159.534
156.501
153.692
150.911
12.2485
5.61141
4.36922
4.01665
3.94766
4.01216
4.15874
4.36193
4.60864
4.89129
5.20516
5.54708
5.91489
6.30714
6.72267
7.16155
7.62425
8.11164
8.62528
9.16477
9.73151
10.327
10.9528
11.6107
12.3022
13.0293
13.7935
14.5968
15.4409
16.3276
17.2588
18.2362
19.2617
20.337
21.4641
22.6449
23.8814
25.1759
26.5306
27.948
29.4309
30.9814
32.6027
34.2974
36.0682
37.9179
39.8492
41.8653
43.969
46.1634
48.4517
50.8371
53.3227
55.9119
58.6077
61.4134
64.332
67.3666
70.5201
73.7951
77.1944
80.7202
84.3747
88.1598
92.077
96.1277
100.313
104.632
109.087
113.675
118.398
123.253
128.238
133.351
138.589
143.948
149.425
155.015
160.713
166.512
172.407
178.392
184.457
190.596
196.801
203.062
209.37
215.716
222.09
228.48
234.877
241.269
247.645
253.993
260.301
266.557
272.75
278.866
284.895
290.825
296.643
302.339
307.9
313.317
318.578
323.672
328.59
333.321
337.857
342.189
346.308
350.206
353.877
357.312
360.507
363.456
366.152
368.592
370.77
372.684
374.329
375.704
376.805
377.633
378.183
378.449
378.44
378.154
377.592
376.755
375.644
374.259
372.603
370.677
368.486
366.035
363.327
360.369
357.167
353.727
350.057
346.165
342.06
337.751
333.249
328.565
323.711
318.699
313.544
308.26
302.863
297.366
291.787
286.142
280.447
274.718
268.971
263.224
257.492
251.789
246.127
240.517
234.969
229.494
224.101
218.801
213.602
208.513
203.542
198.699
193.992
189.429
185.021
180.781
176.722
172.862
169.22
165.823
162.642
159.475
12.8693
5.91254
4.57859
4.18209
4.08762
4.13212
4.26158
4.44882
4.67993
4.94703
5.24526
5.57145
5.92412
6.30277
6.70628
7.13391
7.58565
8.06183
8.5627
9.08964
9.64433
10.2283
10.8433
11.491
12.1731
12.8916
13.6483
14.4452
15.2844
16.1678
17.0976
18.0759
19.1049
20.1869
21.3243
22.5196
23.7751
25.0936
26.4773
27.9283
29.4484
31.0434
32.7177
34.4744
36.3167
38.2479
40.2714
42.3907
44.6095
46.9315
49.3605
51.9005
54.5552
57.3287
60.2247
63.2471
66.3996
69.6858
73.1092
76.6731
80.3804
84.234
88.2364
92.3897
96.6956
101.156
105.77
110.541
115.466
120.546
125.78
131.165
136.699
142.379
148.202
154.163
160.257
166.479
172.822
179.279
185.843
192.505
199.257
206.09
212.993
219.957
226.97
234.02
241.097
248.189
255.281
262.363
269.42
276.439
283.408
290.311
297.136
303.868
310.496
317.004
323.381
329.613
335.688
341.593
347.316
352.846
358.172
363.282
368.168
372.818
377.225
381.381
385.276
388.905
392.261
395.338
398.13
400.634
402.845
404.759
406.375
407.689
408.701
409.41
409.813
409.91
409.705
409.195
408.387
407.282
405.883
404.19
402.207
399.939
397.39
394.566
391.472
388.116
384.505
380.646
376.548
372.22
367.671
362.911
357.953
352.807
347.486
342.004
336.375
330.613
324.736
318.758
312.696
306.567
300.389
294.176
287.947
281.718
275.504
269.32
263.178
257.092
251.071
245.127
239.27
233.51
227.858
222.321
216.908
211.629
206.493
201.509
196.687
192.039
187.58
183.325
179.293
175.504
171.925
168.358
13.3062
6.13452
4.72885
4.29483
4.17694
4.20241
4.31514
4.48667
4.70217
4.95419
5.23874
5.55218
5.89199
6.25636
6.6441
7.05596
7.49235
7.95387
8.44144
8.95648
9.5001
10.0738
10.6791
11.318
11.9923
12.704
13.4552
14.2482
15.0853
15.9687
16.9011
17.885
18.923
20.0179
21.1725
22.3897
23.673
25.0252
26.4485
27.9453
29.5184
31.1754
32.9207
34.7589
36.6951
38.7328
40.876
43.1287
45.4954
47.9807
50.589
53.325
56.1933
59.1986
62.3453
65.6379
69.0808
72.678
76.4337
80.3514
84.4345
88.6861
93.1089
97.7049
102.476
107.424
112.548
117.849
123.327
128.98
134.807
140.804
146.969
153.297
159.784
166.424
173.211
180.137
187.196
194.379
201.676
209.079
216.576
224.156
231.808
239.52
247.279
255.072
262.886
270.706
278.519
286.309
294.062
301.763
309.398
316.949
324.403
331.745
338.959
346.031
352.946
359.691
366.251
372.613
378.764
384.692
390.384
395.829
401.017
405.937
410.58
414.937
419
422.763
426.219
429.362
432.187
434.69
436.867
438.715
440.233
441.418
442.272
442.793
442.982
442.841
442.369
441.567
440.446
439.009
437.258
435.195
432.827
430.159
427.197
423.949
420.421
416.62
412.556
408.237
403.673
398.873
393.848
388.608
383.166
377.533
371.723
365.75
359.627
353.372
346.999
340.526
333.97
327.347
320.675
313.972
307.252
300.534
293.832
287.162
280.537
273.969
267.471
261.053
254.726
248.501
242.387
236.394
230.53
224.806
219.23
213.811
208.561
203.49
198.614
193.946
189.503
185.303
181.309
177.329
13.5761
6.28548
4.8261
4.361
4.22214
4.23005
4.32689
4.48427
4.68724
4.92656
5.19641
5.49357
5.81693
6.16564
6.53964
6.93864
7.36292
7.81309
8.29012
8.79522
9.32975
9.89529
10.4936
11.1267
11.7967
12.5059
13.2568
14.0518
14.8936
15.7849
16.7288
17.7284
18.7876
19.9089
21.0953
22.3503
23.6768
25.0755
26.5534
28.1167
29.7709
31.5211
33.3723
35.3298
37.3994
39.586
41.8946
44.3301
46.8979
49.6034
52.4519
55.4489
58.5996
61.9092
65.383
69.0259
72.8427
76.838
81.0159
85.3803
89.9346
94.6819
99.6245
104.764
110.103
115.64
121.377
127.312
133.444
139.77
146.288
152.994
159.883
166.949
174.186
181.588
189.146
196.851
204.694
212.665
220.752
228.946
237.232
245.598
254.031
262.517
271.042
279.589
288.146
296.695
305.221
313.707
322.138
330.497
338.767
346.931
354.974
362.879
370.629
378.209
385.604
392.798
399.776
406.525
413.03
419.279
425.258
430.956
436.362
441.466
446.257
450.728
454.87
458.676
462.141
465.258
468.024
470.434
472.486
474.177
475.507
476.474
477.081
477.328
477.22
476.754
475.927
474.757
473.248
471.404
469.23
466.729
463.911
460.782
457.35
453.623
449.61
445.319
440.76
435.942
430.877
425.574
420.044
414.3
408.352
402.215
395.9
389.423
382.798
376.041
369.169
362.197
355.144
348.028
340.864
333.671
326.465
319.263
312.079
304.929
297.826
290.783
283.813
276.926
270.133
263.446
256.874
250.426
244.111
237.94
231.921
226.064
220.38
214.879
209.576
204.485
199.618
194.995
190.575
186.179
13.6736
6.36483
4.87421
4.3865
4.23011
4.22452
4.30887
4.45291
4.64046
4.86424
5.1197
5.40412
5.71559
6.05314
6.41644
6.80553
7.22083
7.66309
8.13341
8.63312
9.16378
9.72712
10.3251
10.9601
11.6345
12.3512
13.1134
13.9238
14.7851
15.7007
16.674
17.7082
18.8058
19.9695
21.2055
22.5191
23.9155
25.4007
26.9798
28.6587
30.4436
32.3405
34.3556
36.4954
38.7665
41.1744
43.7254
46.426
49.2827
52.3018
55.4894
58.8514
62.3937
66.1219
70.0414
74.1575
78.4749
82.9982
87.7311
92.6774
97.8397
103.22
108.821
114.642
120.685
126.947
133.429
140.127
147.038
154.159
161.484
169.007
176.723
184.623
192.7
200.943
209.344
217.89
226.572
235.376
244.29
253.301
262.393
271.553
280.766
290.015
299.284
308.559
317.82
327.053
336.239
345.36
354.4
363.341
372.165
380.855
389.393
397.762
405.945
413.925
421.688
429.216
436.494
443.508
450.244
456.689
462.828
468.652
474.148
479.306
484.116
488.572
492.664
496.386
499.734
502.701
505.284
507.48
509.287
510.705
511.732
512.37
512.622
512.493
511.983
511.082
509.815
508.186
506.202
503.87
501.194
498.183
494.846
491.193
487.233
482.975
478.428
473.602
468.509
463.159
457.562
451.731
445.677
439.411
432.946
426.295
419.471
412.488
405.362
398.107
390.741
383.28
375.741
368.143
360.502
352.835
345.158
337.488
329.839
322.227
314.664
307.164
299.739
292.399
285.156
278.021
271.003
264.111
257.356
250.746
244.291
238
231.885
225.956
220.226
214.708
209.414
204.363
199.513
194.702
13.6496
6.3794
4.87937
4.38011
4.21192
4.19357
4.26337
4.39376
4.57001
4.78355
5.02956
5.30525
5.60902
5.94003
6.29804
6.68325
7.09629
7.53816
8.01026
8.51446
9.05269
9.62664
10.2387
10.8917
11.5883
12.3314
13.1234
13.9661
14.8654
15.8259
16.8523
17.9497
19.1237
20.3795
21.7224
23.1585
24.6945
26.3373
28.0936
29.9705
31.9751
34.1146
36.3965
38.8285
41.4175
44.1711
47.0969
50.2029
53.497
56.9864
60.6773
64.5756
68.6867
73.0161
77.5687
82.3489
87.3608
92.6076
98.0921
103.816
109.781
115.988
122.435
129.121
136.046
143.204
150.593
158.208
166.043
174.091
182.346
190.798
199.438
208.257
217.244
226.388
235.675
245.094
254.63
264.27
273.999
283.802
293.663
303.566
313.495
323.433
333.362
343.266
353.126
362.925
372.646
382.269
391.777
401.151
410.374
419.428
428.295
436.958
445.4
453.603
461.553
469.233
476.627
483.723
490.504
496.959
503.075
508.84
514.243
519.276
523.928
528.192
532.062
535.532
538.597
541.253
543.496
545.326
546.739
547.742
548.326
548.501
548.277
547.64
546.596
545.163
543.35
541.164
538.612
535.703
532.445
528.849
524.926
520.688
516.144
511.305
506.182
500.785
495.127
489.218
483.071
476.697
470.108
463.317
456.334
449.173
441.848
434.371
426.757
419.023
411.184
403.257
395.258
387.204
379.113
371.002
362.885
354.778
346.696
338.653
330.661
322.734
314.883
307.119
299.453
291.895
284.455
277.143
269.967
262.937
256.062
249.352
242.818
236.47
230.32
224.382
218.665
213.189
207.912
202.696
13.5594
6.36437
4.86114
4.34991
4.16828
4.13945
4.20076
4.32386
4.49379
4.70236
4.94495
5.21908
5.52366
5.85806
6.22199
6.61598
7.04101
7.49837
7.98957
8.51603
9.07801
9.6799
10.3254
11.0183
11.7626
12.5626
13.4234
14.3501
15.3477
16.4218
17.5789
18.8257
20.1693
21.6171
23.1764
24.8551
26.6616
28.6046
30.6927
32.9345
35.3386
37.9138
40.6682
43.6095
46.7448
50.0841
53.6366
57.4116
61.4199
65.6696
70.1637
74.9056
79.8987
85.1461
90.6505
96.4137
102.437
108.72
115.263
122.065
129.122
136.432
143.99
151.792
159.832
168.103
176.598
185.308
194.225
203.338
212.636
222.11
231.747
241.535
251.46
261.508
271.667
281.921
292.256
302.656
313.105
323.588
334.088
344.588
355.072
365.522
375.922
386.254
396.5
406.643
416.665
426.548
436.275
445.829
455.191
464.345
473.273
481.958
490.385
498.536
506.398
513.954
521.192
528.095
534.652
540.849
546.676
552.122
557.177
561.831
566.078
569.911
573.323
576.311
578.87
580.999
582.693
583.956
584.778
585.185
585.143
584.704
583.804
582.502
580.795
578.692
576.204
573.339
570.108
566.518
562.583
558.315
553.728
548.835
543.646
538.173
532.427
526.42
520.165
513.673
506.957
500.029
492.9
485.582
478.087
470.427
462.614
454.662
446.584
438.397
430.113
421.751
413.324
404.851
396.348
387.829
379.311
370.806
362.33
353.894
345.512
337.195
328.955
320.801
312.745
304.797
296.965
289.259
281.689
274.262
266.989
259.88
252.944
246.192
239.636
233.287
227.157
221.263
215.567
209.959
13.365
6.31238
4.81429
4.29939
4.11534
4.08537
4.14713
4.27312
4.44852
4.6651
4.91852
5.20635
5.52697
5.87873
6.26352
6.68294
7.13888
7.63364
8.17
8.75146
9.38223
10.0661
10.8078
11.6129
12.4872
13.4375
14.4708
15.595
16.8176
18.1472
19.5925
21.1633
22.8694
24.7212
26.729
28.9036
31.2557
33.796
36.5352
39.4836
42.6508
46.0462
49.6786
53.5559
57.6857
62.0757
66.7336
71.6666
76.8816
82.3854
88.1745
94.2466
100.6
107.231
114.137
121.314
128.756
136.46
144.417
152.621
161.064
169.738
178.634
187.742
197.052
206.553
216.235
226.085
236.093
246.246
256.531
266.936
277.446
288.05
298.732
309.479
320.277
331.11
341.965
352.827
363.681
374.511
385.302
396.039
406.706
417.288
427.768
438.13
448.359
458.439
468.354
478.087
487.622
496.944
506.036
514.882
523.468
531.777
539.795
547.507
554.899
561.958
568.671
575.025
581.008
586.608
591.815
596.622
601.018
604.996
608.549
611.673
614.364
616.614
618.427
619.801
620.723
621.217
621.239
620.887
620.043
618.779
617.093
614.999
612.504
609.618
606.353
602.721
598.73
594.393
589.724
584.738
579.45
573.874
568.022
561.906
555.537
548.927
542.09
535.037
527.781
520.332
512.703
504.905
496.949
488.844
480.603
472.239
463.763
455.19
446.533
437.807
429.028
420.209
411.368
402.517
393.672
384.844
376.046
367.29
358.588
349.949
341.386
332.906
324.522
316.241
308.072
300.026
292.11
284.334
276.706
269.237
261.936
254.814
247.882
241.152
234.633
228.347
222.25
216.278
13.1428
6.22624
4.75334
4.25128
4.07824
4.06055
4.13658
4.27806
4.46977
4.70615
4.98407
5.30226
5.66093
6.0613
6.50505
6.995
7.53476
8.12871
8.78201
9.50065
10.2914
11.1616
12.1193
13.1735
14.334
15.6113
17.017
18.5633
20.263
22.129
24.175
26.4143
28.861
31.5288
34.4313
37.5812
40.9904
44.6702
48.6311
52.8822
57.4301
62.2804
67.4382
72.9078
78.6901
84.7854
91.1955
97.9206
104.962
112.304
119.933
127.839
136.009
144.433
153.099
161.994
171.107
180.425
189.936
199.629
209.49
219.507
229.669
239.964
250.379
260.902
271.523
282.228
293.006
303.846
314.735
325.663
336.616
347.584
358.554
369.515
380.454
391.359
402.219
413.021
423.753
434.402
444.955
455.401
465.725
475.915
485.958
495.84
505.549
515.07
524.389
533.493
542.367
550.999
559.374
567.478
575.298
582.819
590.03
596.916
603.466
609.669
615.512
620.984
626.075
630.774
635.072
638.963
642.44
645.492
648.115
650.311
652.074