/*--------------------------------*- C++ -*----------------------------------*\
  =========                 |
  \\      /  F ield         | OpenFOAM: The Open Source CFD Toolbox
   \\    /   O peration     | Website:  https://openfoam.org
    \\  /    A nd           | Version:  8
     \\/     M anipulation  |
\*---------------------------------------------------------------------------*/
FoamFile
{
    version     2.0;
    format      ascii;
    class       volScalarField;
    location    "220";
    object      k;
}
// * * * * * * * * * * * * * * * * * * * * * * * * * * * * * * * * * * * * * //

dimensions      [0 2 -2 0 0 0 0];

internalField   nonuniform List<scalar> 
12225
(
0.362814
0.343991
0.327746
0.309817
0.295403
0.283479
0.275516
0.270282
0.270339
0.271887
0.276054
0.280711
0.289849
0.295723
0.306658
0.313472
0.322951
0.33574
0.440186
0.468698
0.461605
0.448369
0.450348
0.458311
0.474552
0.498533
0.524406
0.552109
0.580764
0.606159
0.633861
0.653889
0.679783
0.693266
0.717515
0.728753
0.390541
0.417873
0.420231
0.416827
0.411628
0.407803
0.408019
0.410035
0.414561
0.421391
0.430736
0.439708
0.451189
0.461161
0.472856
0.483585
0.493533
0.506158
0.377546
0.386982
0.391406
0.391343
0.390221
0.387896
0.385663
0.38408
0.382883
0.382895
0.383387
0.384323
0.3863
0.38847
0.390915
0.394261
0.396524
0.40103
0.374562
0.37609
0.378412
0.378666
0.378263
0.377205
0.375489
0.373737
0.37201
0.370454
0.369259
0.368105
0.367381
0.366806
0.366444
0.36634
0.366353
0.366713
0.373814
0.37271
0.372645
0.372384
0.371761
0.370817
0.369553
0.368082
0.366571
0.364976
0.363528
0.362063
0.360755
0.359529
0.358397
0.357428
0.356441
0.355786
0.373782
0.371742
0.370386
0.369287
0.368234
0.367114
0.365915
0.364587
0.363238
0.361808
0.360422
0.359024
0.357678
0.356382
0.355121
0.353966
0.352794
0.351804
0.37382
0.37156
0.369634
0.367977
0.366501
0.365108
0.363775
0.362429
0.361107
0.359766
0.35845
0.357144
0.355863
0.354622
0.353401
0.35225
0.351099
0.350052
0.373832
0.371553
0.369449
0.367525
0.365776
0.364153
0.362645
0.361199
0.359817
0.358473
0.35717
0.355903
0.354667
0.353475
0.352308
0.351196
0.350097
0.349073
0.373831
0.37156
0.369418
0.367405
0.365529
0.363772
0.362133
0.360585
0.359122
0.357728
0.356395
0.355118
0.353888
0.35271
0.351569
0.350481
0.34942
0.34842
0.373829
0.37156
0.369413
0.367378
0.365458
0.363645
0.361937
0.360324
0.358798
0.357353
0.355979
0.354672
0.353424
0.352235
0.351094
0.350009
0.348959
0.347969
0.373828
0.371558
0.369409
0.36737
0.365439
0.363609
0.361875
0.360234
0.358677
0.357201
0.3558
0.354468
0.3532
0.351995
0.350842
0.349747
0.348695
0.347701
0.373827
0.371556
0.369405
0.367365
0.36543
0.363593
0.361851
0.360197
0.358626
0.357134
0.355715
0.354368
0.353084
0.351864
0.3507
0.349594
0.348535
0.347532
0.373826
0.371555
0.369401
0.367359
0.365422
0.363583
0.361837
0.360178
0.3586
0.357101
0.355674
0.354317
0.353024
0.351794
0.350622
0.349506
0.34844
0.347427
0.373826
0.371553
0.369398
0.367355
0.365416
0.363575
0.361826
0.360164
0.358584
0.357081
0.355651
0.354289
0.352993
0.351758
0.35058
0.349458
0.348388
0.347368
0.373826
0.371552
0.369396
0.367351
0.36541
0.363567
0.361817
0.360153
0.358572
0.357067
0.355634
0.354271
0.352971
0.351734
0.350554
0.349429
0.348356
0.347333
0.373825
0.371551
0.369394
0.367348
0.365406
0.363562
0.36181
0.360145
0.358562
0.357055
0.355621
0.354256
0.352955
0.351716
0.350534
0.349408
0.348333
0.347308
0.373825
0.371551
0.369393
0.367346
0.365403
0.363558
0.361805
0.360139
0.358555
0.357047
0.355612
0.354245
0.352944
0.351703
0.35052
0.349393
0.348317
0.34729
0.373825
0.37155
0.369393
0.367346
0.365402
0.363557
0.361804
0.360137
0.358552
0.357044
0.355608
0.354241
0.352938
0.351697
0.350513
0.349385
0.348308
0.347281
0.373825
0.371551
0.369393
0.367347
0.365404
0.363559
0.361806
0.36014
0.358555
0.357047
0.355611
0.354244
0.352942
0.3517
0.350517
0.349389
0.348312
0.347285
0.373825
0.371551
0.369395
0.367349
0.365407
0.363563
0.361811
0.360146
0.358562
0.357055
0.355621
0.354255
0.352955
0.351715
0.350534
0.349407
0.348333
0.347307
0.373826
0.371552
0.369397
0.367352
0.365412
0.363571
0.361822
0.360161
0.358583
0.357083
0.355656
0.354298
0.353006
0.351775
0.350602
0.349483
0.348417
0.347398
0.373826
0.371554
0.369399
0.367359
0.365429
0.363602
0.361875
0.36024
0.358691
0.35722
0.355823
0.354493
0.353227
0.352018
0.350866
0.349763
0.348711
0.3477
0.373828
0.371551
0.369412
0.367417
0.365556
0.363819
0.362189
0.360651
0.359189
0.357793
0.356456
0.355171
0.353936
0.352745
0.3516
0.350495
0.349436
0.34841
0.373823
0.371554
0.369604
0.367893
0.366339
0.364892
0.363495
0.362122
0.360761
0.359413
0.358081
0.35677
0.355488
0.354238
0.353029
0.351855
0.350734
0.349645
0.373788
0.371991
0.371113
0.370266
0.36936
0.368311
0.367048
0.36563
0.364121
0.362575
0.36103
0.359522
0.358073
0.356682
0.355381
0.354141
0.353009
0.351924
0.374355
0.375572
0.377775
0.377858
0.377288
0.375886
0.373835
0.371641
0.369505
0.367482
0.365664
0.364084
0.36271
0.361535
0.36061
0.359818
0.359289
0.3588
0.379125
0.394296
0.398249
0.396573
0.392538
0.387603
0.383646
0.380448
0.378268
0.376852
0.376497
0.376741
0.377415
0.37869
0.380441
0.382422
0.384826
0.387137
0.408394
0.42754
0.422416
0.411056
0.402226
0.397924
0.398626
0.400963
0.40607
0.413055
0.420999
0.429828
0.438836
0.44819
0.457307
0.466551
0.475321
0.48418
0.36605
0.353416
0.341988
0.33021
0.318982
0.308381
0.299411
0.291671
0.285404
0.280333
0.276682
0.273867
0.272312
0.271174
0.271211
0.271472
0.272188
0.273389
0.00111575
0.00578015
0.0104693
0.0148414
0.0194589
0.0244935
0.0300341
0.0360886
0.0425693
0.0493373
0.0562454
0.0631684
0.0700102
0.076705
0.0832085
0.0894908
0.0955255
0.101283
0.106726
0.111804
0.116464
0.120654
0.124341
0.127519
0.12998
0.131795
0.134246
0.135981
0.137447
0.138628
0.139697
0.137584
0.131798
0.135552
0.13782
0.140891
0.143726
0.144928
0.145287
0.156022
0.161591
0.169808
0.177216
0.185259
0.193283
0.201565
0.209972
0.21856
0.227302
0.236209
0.245276
0.254506
0.263895
0.273446
0.283157
0.293028
0.303056
0.313242
0.323583
0.334076
0.344719
0.355509
0.366441
0.377513
0.388718
0.400054
0.411511
0.423087
0.434773
0.446564
0.458451
0.470428
0.482484
0.494614
0.506804
0.51905
0.531338
0.543661
0.556005
0.568365
0.580722
0.593073
0.605399
0.617695
0.62994
0.642128
0.654238
0.666264
0.678183
0.689983
0.701644
0.713142
0.724454
0.735558
0.746431
0.757063
0.767469
0.777722
0.787766
0.797572
0.807146
0.816477
0.825553
0.834364
0.842896
0.851141
0.859087
0.866727
0.874047
0.881043
0.8877
0.894014
0.89997
0.905565
0.910784
0.915624
0.920071
0.924122
0.927766
0.931
0.933811
0.936193
0.938134
0.939631
0.940673
0.941251
0.941242
0.941226
0.940301
0.938888
0.936997
0.934756
0.932014
0.928726
0.924952
0.920676
0.915913
0.910655
0.904901
0.898624
0.891855
0.884596
0.876859
0.868662
0.860019
0.850951
0.841474
0.831616
0.821396
0.810845
0.799987
0.788854
0.777478
0.765893
0.75414
0.742283
0.730458
0.719449
0.711535
0.704594
0.697646
0.690621
0.683531
0.676402
0.66926
0.662132
0.655041
0.648014
0.641072
0.634238
0.62753
0.620964
0.614547
0.608283
0.602128
0.596041
0.589905
0.583225
0.575524
0.549558
0.00515707
0.0183979
0.0270404
0.033653
0.0396319
0.0456171
0.0519029
0.0585782
0.0656055
0.0728838
0.0802947
0.0877318
0.0951126
0.102381
0.109504
0.116462
0.123244
0.129839
0.136229
0.14239
0.148292
0.153916
0.159258
0.164344
0.169236
0.174101
0.179206
0.184667
0.190722
0.197041
0.202452
0.206996
0.211671
0.218887
0.227764
0.238988
0.251624
0.265748
0.283194
0.296618
0.308491
0.321192
0.334267
0.34778
0.361627
0.375809
0.390306
0.405118
0.420241
0.435679
0.45143
0.467497
0.483881
0.500584
0.517608
0.534953
0.552619
0.570608
0.588918
0.607549
0.626499
0.645765
0.665344
0.685232
0.705424
0.725916
0.746699
0.767767
0.789112
0.810724
0.832594
0.854712
0.877064
0.899639
0.922423
0.945403
0.968561
0.991884
1.01535
1.03896
1.06267
1.08648
1.11036
1.1343
1.15827
1.18225
1.20622
1.23016
1.25404
1.27784
1.30153
1.32507
1.34844
1.37159
1.39447
1.41705
1.43924
1.46097
1.48235
1.50344
1.5242
1.54462
1.56468
1.58436
1.60363
1.62248
1.64089
1.65882
1.67628
1.69323
1.70965
1.72553
1.74085
1.75558
1.7697
1.7832
1.79606
1.80825
1.81976
1.83057
1.84065
1.84999
1.85856
1.86635
1.87334
1.87951
1.88484
1.88937
1.89297
1.89544
1.89692
1.89762
1.8975
1.8963
1.89408
1.89086
1.88662
1.88135
1.87506
1.86774
1.85938
1.84999
1.83958
1.82818
1.8158
1.80247
1.78822
1.7731
1.75712
1.74035
1.72283
1.70462
1.68577
1.66633
1.64638
1.62598
1.60526
1.58446
1.56395
1.5434
1.5227
1.5019
1.48106
1.46026
1.43955
1.41901
1.39868
1.37862
1.35888
1.33951
1.32055
1.30204
1.28401
1.26649
1.24944
1.23291
1.21677
1.20096
1.18457
1.14669
0.0105218
0.0304953
0.0417085
0.050133
0.057626
0.0648745
0.0722019
0.0797444
0.0875227
0.095491
0.103575
0.1117
0.119807
0.127856
0.135828
0.143722
0.151545
0.159313
0.167036
0.174729
0.182405
0.19009
0.197833
0.205723
0.213888
0.222475
0.231615
0.241356
0.25159
0.261966
0.272328
0.282977
0.294167
0.306716
0.320842
0.33618
0.35225
0.369086
0.386154
0.402543
0.418884
0.435593
0.452709
0.470243
0.488182
0.506518
0.525244
0.544359
0.563859
0.583746
0.604021
0.624683
0.645735
0.667178
0.689011
0.711236
0.733852
0.756857
0.780252
0.804032
0.828196
0.852739
0.877656
0.902943
0.928592
0.954596
0.980946
1.00763
1.03465
1.06197
1.0896
1.11752
1.14571
1.17416
1.20285
1.23177
1.26089
1.29019
1.31965
1.34926
1.37899
1.40882
1.43871
1.46866
1.49862
1.52858
1.55851
1.58837
1.61814
1.6478
1.67731
1.70663
1.73574
1.76459
1.79317
1.82144
1.84937
1.87696
1.90418
1.93102
1.95745
1.98344
2.00897
2.03399
2.05849
2.08245
2.10582
2.12859
2.15073
2.17222
2.19303
2.21313
2.23251
2.25113
2.26897
2.286
2.30221
2.31756
2.33203
2.34561
2.35825
2.36994
2.38065
2.39035
2.39903
2.40665
2.41321
2.41867
2.42298
2.42597
2.42766
2.42832
2.42784
2.42606
2.423
2.41866
2.41303
2.40611
2.3979
2.38838
2.37756
2.36546
2.35208
2.33745
2.32159
2.30455
2.28635
2.26705
2.24669
2.22533
2.20303
2.17986
2.15589
2.1312
2.10585
2.07994
2.05361
2.02706
2.00049
1.9738
1.94697
1.92002
1.89305
1.86614
1.83936
1.81279
1.7865
1.76056
1.73504
1.70999
1.68549
1.66158
1.63831
1.61575
1.5939
1.57284
1.55254
1.53306
1.51354
1.48098
0.0162716
0.0416131
0.0552104
0.0651967
0.0738745
0.0820758
0.090191
0.0984071
0.106793
0.115349
0.124037
0.13281
0.141627
0.15046
0.159303
0.168163
0.177061
0.186026
0.19509
0.204286
0.213652
0.223234
0.233093
0.243308
0.253972
0.265175
0.276978
0.289383
0.30232
0.315672
0.329397
0.343588
0.35839
0.374032
0.390571
0.407893
0.425848
0.444315
0.463109
0.482092
0.501346
0.52096
0.540977
0.561418
0.582291
0.6036
0.625347
0.647533
0.670159
0.693226
0.716737
0.740693
0.765097
0.789949
0.815251
0.841003
0.867206
0.893858
0.920958
0.948504
0.976494
1.00492
1.03378
1.06307
1.09279
1.12291
1.15344
1.18435
1.21565
1.24732
1.27934
1.3117
1.34438
1.37736
1.41063
1.44416
1.47792
1.51191
1.54609
1.58044
1.61493
1.64953
1.68422
1.71897
1.75374
1.78851
1.82324
1.8579
1.89246
1.92688
1.96113
1.99519
2.029
2.06255
2.0958
2.12871
2.16126
2.19341
2.22514
2.25641
2.28719
2.31743
2.34712
2.37621
2.40467
2.43246
2.45957
2.48595
2.51157
2.53641
2.56044
2.58363
2.60595
2.62736
2.64785
2.66739
2.68594
2.70348
2.71999
2.73543
2.74977
2.763
2.77507
2.78597
2.79567
2.80414
2.81136
2.81729
2.8219
2.82505
2.82664
2.82707
2.8261
2.82367
2.81976
2.81438
2.80752
2.79917
2.78933
2.778
2.76519
2.75089
2.73515
2.71797
2.69938
2.67944
2.65818
2.63565
2.61192
2.58704
2.56109
2.53414
2.50627
2.47756
2.44812
2.41805
2.38749
2.35659
2.32553
2.29429
2.26289
2.23138
2.19985
2.16839
2.13709
2.10603
2.0753
2.04497
2.01513
1.98584
1.95719
1.92924
1.90206
1.87573
1.85032
1.82594
1.80263
1.78055
1.75882
1.72926
0.0218634
0.0518235
0.0675965
0.079027
0.088783
0.097825
0.106616
0.115396
0.124282
0.133317
0.142501
0.151816
0.16124
0.17076
0.180375
0.1901
0.19996
0.209989
0.220228
0.230717
0.241501
0.252627
0.26415
0.276132
0.288635
0.301714
0.315404
0.329703
0.344576
0.359975
0.375884
0.392326
0.409357
0.427028
0.445354
0.464315
0.483864
0.503937
0.52447
0.54542
0.566789
0.588592
0.610844
0.63356
0.656747
0.680415
0.704567
0.729208
0.754342
0.779972
0.806103
0.832737
0.859878
0.887527
0.915687
0.94436
0.973545
1.00324
1.03346
1.06418
1.09541
1.12715
1.15938
1.19212
1.22533
1.25903
1.2932
1.32782
1.36289
1.39839
1.4343
1.47061
1.5073
1.54434
1.58172
1.61942
1.6574
1.69565
1.73412
1.77281
1.81166
1.85066
1.88977
1.92895
1.96817
2.0074
2.04659
2.08572
2.12473
2.16361
2.2023
2.24077
2.27898
2.31689
2.35447
2.39166
2.42844
2.46477
2.50059
2.53588
2.5706
2.60469
2.63813
2.67088
2.70289
2.73413
2.76457
2.79416
2.82287
2.85068
2.87754
2.90343
2.92831
2.95215
2.97493
2.99661
3.01716
3.03655
3.05476
3.07175
3.0875
3.10198
3.11516
3.127
3.13749
3.1466
3.1543
3.16055
3.16533
3.1685
3.16998
3.17012
3.16867
3.16561
3.16091
3.15458
3.14661
3.13699
3.12572
3.1128
3.09823
3.08205
3.06425
3.04487
3.02395
3.00151
2.97763
2.95234
2.92571
2.89782
2.86873
2.83854
2.80733
2.7752
2.74225
2.70861
2.6744
2.63977
2.60485
2.56971
2.53437
2.49893
2.46345
2.42805
2.39281
2.35784
2.32322
2.28904
2.2554
2.22238
2.19007
2.15854
2.1279
2.09823
2.06965
2.04231
2.01632
1.99186
1.96813
1.93952
0.0271005
0.060981
0.0786993
0.0914516
0.1022
0.112014
0.121419
0.1307
0.140015
0.149447
0.159032
0.168779
0.178689
0.188761
0.199005
0.209436
0.220084
0.230984
0.242174
0.2537
0.265602
0.277926
0.290717
0.304018
0.317873
0.332316
0.347369
0.363037
0.379308
0.396166
0.413596
0.431599
0.450182
0.469356
0.489126
0.50949
0.530434
0.551934
0.573964
0.596506
0.619551
0.643101
0.66716
0.691735
0.716832
0.742461
0.768627
0.795337
0.822596
0.850411
0.878787
0.907729
0.93724
0.967325
0.997988
1.02923
1.06106
1.09347
1.12646
1.16004
1.19421
1.22895
1.26426
1.30015
1.3366
1.3736
1.41115
1.44923
1.48783
1.52693
1.56652
1.60657
1.64708
1.688
1.72932
1.77102
1.81305
1.85541
1.89804
1.94092
1.98402
2.0273
2.07071
2.11422
2.1578
2.20139
2.24496
2.28847
2.33186
2.3751
2.41815
2.46095
2.50346
2.54564
2.58743
2.6288
2.66968
2.71004
2.74983
2.78901
2.82752
2.86532
2.90237
2.93862
2.97403
3.00856
3.04216
3.0748
3.10644
3.13704
3.16656
3.19498
3.22225
3.24834
3.27323
3.29687
3.31924
3.34032
3.36006
3.37844
3.39543
3.41101
3.42514
3.4378
3.44895
3.45858
3.46666
3.47316
3.47804
3.48116
3.48253
3.48234
3.48042
3.47674
3.4713
3.46409
3.45509
3.4443
3.43173
3.41737
3.40124
3.38334
3.36371
3.34236
3.31934
3.29469
3.26845
3.24069
3.21147
3.18088
3.14899
3.1159
3.0817
3.0465
3.0104
2.97353
2.93602
2.898
2.85961
2.82092
2.78201
2.74296
2.70387
2.66484
2.62597
2.58737
2.54914
2.51139
2.47419
2.43766
2.40189
2.36699
2.33305
2.3002
2.26858
2.23837
2.20973
2.18285
2.15701
2.12797
0.0318426
0.0689926
0.0883993
0.102322
0.113963
0.124477
0.134439
0.14417
0.153862
0.163629
0.173537
0.183623
0.193907
0.204404
0.215132
0.226113
0.237375
0.248953
0.260884
0.27321
0.285969
0.2992
0.31294
0.327222
0.342076
0.357526
0.373591
0.390276
0.40758
0.425498
0.444023
0.463147
0.48287
0.503192
0.524112
0.545633
0.567748
0.590451
0.613733
0.637584
0.662001
0.686984
0.712536
0.738661
0.765367
0.792661
0.820552
0.849047
0.878154
0.90788
0.938233
0.96922
1.00085
1.03312
1.06604
1.09962
1.13386
1.16877
1.20434
1.24057
1.27747
1.31503
1.35326
1.39214
1.43166
1.47183
1.51263
1.55404
1.59605
1.63865
1.68182
1.72553
1.76976
1.81449
1.85969
1.90533
1.95138
1.9978
2.04456
2.09162
2.13893
2.18647
2.23418
2.28202
2.32994
2.3779
2.42584
2.47372
2.52149
2.5691
2.61649
2.66361
2.7104
2.75682
2.80281
2.84831
2.89327
2.93763
2.98134
3.02435
3.06661
3.10806
3.14866
3.18834
3.22708
3.26481
3.3015
3.3371
3.37156
3.40486
3.43694
3.46777
3.49731
3.52554
3.55241
3.5779
3.60197
3.62459
3.64574
3.66538
3.6835
3.70005
3.71502
3.72837
3.74009
3.75015
3.75853
3.76519
3.77011
3.77315
3.77436
3.77382
3.77142
3.76715
3.76099
3.75293
3.74297
3.7311
3.71733
3.70165
3.68408
3.66463
3.64333
3.62019
3.59527
3.56859
3.54023
3.51023
3.47867
3.44564
3.41121
3.37548
3.33856
3.30055
3.26157
3.22173
3.18117
3.14003
3.09842
3.05646
3.01422
2.9718
2.92932
2.88687
2.84458
2.80254
2.76087
2.71968
2.67907
2.63915
2.60003
2.56182
2.52465
2.48865
2.454
2.42089
2.38953
2.36008
2.33189
2.30145
0.0359901
0.0758046
0.0966304
0.111552
0.123965
0.135095
0.145551
0.155681
0.165702
0.175753
0.185923
0.196272
0.206839
0.217655
0.228744
0.240135
0.251858
0.263945
0.276432
0.289355
0.30275
0.316649
0.331083
0.346079
0.36166
0.377845
0.394649
0.412079
0.43014
0.448831
0.46815
0.488094
0.508661
0.52985
0.551662
0.574097
0.597157
0.62084
0.645145
0.670071
0.695617
0.721787
0.748584
0.776017
0.804092
0.832818
0.862205
0.892263
0.923
0.954428
0.986555
1.01939
1.05294
1.08722
1.12223
1.15798
1.19448
1.23173
1.26973
1.30848
1.348
1.38827
1.42929
1.47107
1.51358
1.55683
1.6008
1.64548
1.69086
1.73691
1.78361
1.83095
1.87889
1.92741
1.97648
2.02606
2.07611
2.12661
2.1775
2.22874
2.28029
2.3321
2.38413
2.43631
2.4886
2.54094
2.59327
2.64555
2.69771
2.74969
2.80143
2.85287
2.90395
2.95461
3.00478
3.0544
3.10341
3.15175
3.19935
3.24616
3.29212
3.33717
3.38126
3.42433
3.46632
3.50719
3.54688
3.58535
3.62255
3.65844
3.69297
3.72611
3.75781
3.78805
3.81679
3.84399
3.86963
3.89368
3.9161
3.93687
3.95597
3.97338
3.98906
4.00299
4.01516
4.02554
4.03411
4.04085
4.04574
4.04864
4.04962
4.0487
4.04581
4.04093
4.03406
4.02518
4.0143
4.00142
3.98652
3.96962
3.95072
3.92985
3.90702
3.88225
3.8556
3.8271
3.79681
3.76479
3.73112
3.69587
3.65914
3.62102
3.58162
3.54105
3.49942
3.45685
3.41348
3.36944
3.32486
3.27985
3.2345
3.18893
3.14325
3.09757
3.05201
3.00668
2.96171
2.9172
2.87327
2.83004
2.78763
2.74617
2.70578
2.66664
2.62891
2.59283
2.55861
2.5264
2.4956
2.46329
0.0394861
0.0814106
0.103385
0.119123
0.132177
0.143826
0.154705
0.165179
0.175482
0.18577
0.196152
0.206704
0.217482
0.228528
0.239877
0.251562
0.263613
0.276063
0.288946
0.302294
0.316137
0.330504
0.345423
0.360915
0.377002
0.393699
0.411019
0.428972
0.447565
0.466802
0.486684
0.507213
0.528391
0.550219
0.5727
0.595838
0.619635
0.644096
0.669223
0.695021
0.721495
0.748649
0.776493
0.805035
0.834285
0.864255
0.894955
0.926399
0.958597
0.991563
1.02531
1.05984
1.09518
1.13133
1.1683
1.2061
1.24475
1.28423
1.32457
1.36577
1.40782
1.45073
1.49449
1.53911
1.58457
1.63086
1.67798
1.7259
1.77462
1.82411
1.87435
1.92531
1.97696
2.02928
2.08222
2.13575
2.18983
2.24441
2.29945
2.35489
2.4107
2.4668
2.52315
2.57969
2.63636
2.69309
2.74982
2.80649
2.86303
2.91937
2.97545
3.03119
3.08653
3.14139
3.19571
3.2494
3.30242
3.35467
3.4061
3.45664
3.50623
3.5548
3.60229
3.64864
3.69379
3.73769
3.78027
3.82149
3.8613
3.89965
3.9365
3.97181
4.00553
4.03763
4.06808
4.09684
4.12389
4.14919
4.17273
4.19447
4.2144
4.2325
4.24873
4.2631
4.27557
4.28614
4.29478
4.30149
4.30623
4.30891
4.30959
4.30823
4.30479
4.29927
4.29167
4.28199
4.27021
4.25635
4.24039
4.22235
4.20223
4.18005
4.15583
4.12961
4.10141
4.07127
4.03926
4.00544
3.96987
3.93265
3.89385
3.85358
3.81195
3.76906
3.72502
3.67998
3.63404
3.58734
3.54002
3.49219
3.44396
3.39545
3.34677
3.29804
3.24938
3.20092
3.15278
3.10508
3.05794
3.01148
2.96584
2.92116
2.87757
2.83527
2.79443
2.75529
2.71806
2.68292
2.64927
2.61468
0.0423052
0.0858399
0.108703
0.12508
0.138641
0.150709
0.161931
0.172688
0.183222
0.193702
0.20425
0.214955
0.225884
0.237088
0.248611
0.26049
0.272757
0.285445
0.298586
0.312209
0.326342
0.341011
0.356238
0.372046
0.388453
0.405475
0.423124
0.441414
0.460352
0.479946
0.500204
0.521129
0.542729
0.565008
0.587973
0.61163
0.635987
0.661051
0.68683
0.713332
0.740566
0.768543
0.797272
0.826767
0.857041
0.888107
0.919981
0.952677
0.98621
1.02059
1.05584
1.09198
1.129
1.16693
1.20579
1.24557
1.28629
1.32797
1.3706
1.41419
1.45874
1.50426
1.55075
1.59819
1.64658
1.69592
1.74618
1.79736
1.84943
1.90237
1.95615
2.01075
2.06613
2.12226
2.17909
2.23658
2.29469
2.35337
2.41256
2.47221
2.53226
2.59265
2.65332
2.71419
2.7752
2.83629
2.89738
2.95839
3.01926
3.0799
3.14024
3.20021
3.25972
3.31869
3.37705
3.43472
3.49162
3.54767
3.6028
3.65695
3.71002
3.76197
3.81271
3.86218
3.91032
3.95707
4.00237
4.04616
4.08839
4.12902
4.16799
4.20526
4.2408
4.27456
4.30652
4.33664
4.36489
4.39125
4.41569
4.4382
4.45875
4.47734
4.49394
4.50855
4.52115
4.53174
4.54029
4.54681
4.55126
4.55362
4.55387
4.55199
4.54792
4.54171
4.53335
4.52284
4.51018
4.49537
4.47841
4.45931
4.43807
4.41472
4.38926
4.36173
4.33216
4.30059
4.26707
4.23167
4.19445
4.15549
4.11489
4.07273
4.02912
3.98418
3.93801
3.89075
3.84251
3.79343
3.74363
3.69324
3.64237
3.59115
3.5397
3.48813
3.43658
3.38516
3.33402
3.28327
3.23304
3.18346
3.13468
3.08683
3.04008
2.99461
2.95063
2.90836
2.86803
2.82979
2.79309
2.75585
0.0444502
0.0891538
0.112668
0.129516
0.143455
0.155838
0.167324
0.178297
0.189008
0.199633
0.210301
0.22111
0.232134
0.243434
0.255057
0.267046
0.279436
0.292259
0.305544
0.319319
0.333609
0.348438
0.363828
0.3798
0.396373
0.413562
0.431385
0.449853
0.46898
0.488776
0.509253
0.53042
0.552288
0.574865
0.598163
0.622192
0.646965
0.672493
0.698789
0.725866
0.753735
0.782411
0.811909
0.842246
0.873438
0.905503
0.938459
0.972324
1.00712
1.04285
1.07955
1.11723
1.1559
1.19558
1.23629
1.27803
1.32083
1.36468
1.4096
1.4556
1.50267
1.55082
1.60005
1.65034
1.7017
1.75411
1.80755
1.86201
1.91746
1.97388
2.03124
2.0895
2.14862
2.20857
2.2693
2.33076
2.39289
2.45565
2.51896
2.58278
2.64703
2.71165
2.77656
2.84169
2.90696
2.9723
3.03763
3.10287
3.16793
3.23272
3.29718
3.3612
3.42471
3.48761
3.54982
3.61126
3.67184
3.73148
3.79009
3.8476
3.90393
3.95901
4.01275
4.0651
4.11598
4.16533
4.21308
4.25918
4.30357
4.3462
4.38702
4.42599
4.46307
4.49822
4.53141
4.56262
4.5918
4.61895
4.64404
4.66706
4.68798
4.70682
4.72355
4.73816
4.75067
4.76106
4.76933
4.77549
4.7795
4.78137
4.78106
4.77854
4.77374
4.76676
4.75759
4.74624
4.7327
4.71698
4.69907
4.67899
4.65674
4.63233
4.60578
4.57712
4.54637
4.51358
4.47878
4.44204
4.40342
4.363
4.32087
4.2771
4.23182
4.18512
4.13713
4.08794
4.03771
3.98654
3.93456
3.88191
3.82869
3.77504
3.72108
3.66692
3.61271
3.55856
3.50462
3.451
3.39784
3.34529
3.29348
3.24257
3.19272
3.14414
3.09701
3.05159
3.00807
2.96662
2.92674
2.88662
0.045959
0.0914553
0.115397
0.132562
0.146757
0.159355
0.17102
0.182141
0.192971
0.203689
0.21443
0.225296
0.236369
0.247712
0.259377
0.271405
0.283836
0.2967
0.310028
0.323846
0.33818
0.353051
0.368481
0.384491
0.401102
0.418332
0.4362
0.454722
0.473914
0.493791
0.514369
0.535663
0.557686
0.580452
0.603977
0.628276
0.653366
0.679265
0.70599
0.733558
0.761986
0.791293
0.821498
0.852622
0.884687
0.917715
0.951726
0.986742
1.02278
1.05987
1.09803
1.13727
1.17761
1.21908
1.26168
1.30544
1.35036
1.39646
1.44374
1.49221
1.54188
1.59273
1.64478
1.698
1.75239
1.80794
1.86463
1.92242
1.98131
2.04125
2.1022
2.16414
2.22702
2.29079
2.35539
2.42077
2.48688
2.55365
2.62101
2.68889
2.75723
2.82594
2.89494
2.96416
3.03352
3.10291
3.17227
3.2415
3.3105
3.3792
3.44749
3.51528
3.58249
3.64902
3.71477
3.77965
3.84357
3.90645
3.9682
4.02873
4.08796
4.14581
4.20219
4.25705
4.3103
4.36187
4.41171
4.45974
4.50592
4.55019
4.5925
4.63281
4.67108
4.70726
4.74134
4.77329
4.80307
4.83068
4.85609
4.8793
4.90029
4.91908
4.93564
4.95
4.96215
4.9721
4.97986
4.98544
4.98883
4.99001
4.98902
4.98569
4.98005
4.97222
4.9622
4.94998
4.93556
4.91895
4.90016
4.87918
4.85602
4.8307
4.80323
4.77362
4.74191
4.70812
4.6723
4.63449
4.59476
4.55317
4.50981
4.46477
4.41814
4.37003
4.32054
4.26979
4.2179
4.16499
4.11118
4.0566
4.00137
3.94561
3.88945
3.83301
3.77642
3.71981
3.66331
3.60706
3.55119
3.49585
3.44118
3.38735
3.33452
3.2829
3.23269
3.18412
3.1374
3.0927
3.04956
3.00643
0.0468901
0.0928497
0.117023
0.134365
0.148705
0.161423
0.173186
0.184385
0.195274
0.206036
0.216805
0.227684
0.238756
0.250086
0.261729
0.27373
0.286127
0.298954
0.312242
0.326019
0.340312
0.355134
0.370508
0.386459
0.403012
0.420188
0.43801
0.456497
0.475672
0.495553
0.516161
0.537515
0.559634
0.582537
0.606242
0.630763
0.656132
0.68237
0.709498
0.737539
0.766517
0.796458
0.827385
0.859324
0.892302
0.926343
0.961472
0.997713
1.03509
1.07363
1.11335
1.15427
1.19641
1.23979
1.28443
1.33034
1.37754
1.42603
1.47582
1.52692
1.57932
1.63302
1.68802
1.7443
1.80185
1.86064
1.92066
1.98187
2.04424
2.10774
2.17232
2.23794
2.30454
2.37207
2.44048
2.5097
2.57966
2.65029
2.72152
2.79327
2.86547
2.93802
3.01085
3.08386
3.15697
3.23008
3.3031
3.37594
3.4485
3.52067
3.59237
3.6635
3.73395
3.80363
3.87244
3.94028
4.00706
4.07269
4.13707
4.20011
4.26173
4.32184
4.38036
4.43721
4.49233
4.54563
4.59705
4.64653
4.69402
4.73945
4.78278
4.82396
4.86296
4.89974
4.93428
4.96654
4.99651
5.02417
5.04952
5.07255
5.09325
5.11164
5.12771
5.14149
5.15299
5.16222
5.16922
5.17398
5.17653
5.17686
5.175
5.17069
5.16411
5.15536
5.14442
5.13131
5.11603
5.09857
5.07896
5.05718
5.03326
5.00718
4.97897
4.94863
4.91619
4.88166
4.84509
4.80651
4.76599
4.72357
4.67935
4.63339
4.58578
4.53663
4.48604
4.43412
4.38097
4.32672
4.27148
4.21537
4.15851
4.10103
4.04303
3.98466
3.92603
3.86728
3.80854
3.74994
3.69163
3.63374
3.57644
3.51988
3.46424
3.40972
3.35653
3.30489
3.25502
3.20708
3.16066
3.11449
0.0472245
0.0933594
0.117652
0.135069
0.149459
0.162215
0.174004
0.185217
0.196108
0.206856
0.217597
0.228435
0.239452
0.250717
0.262284
0.2742
0.286503
0.29923
0.312412
0.326081
0.34027
0.354988
0.37026
0.386112
0.402569
0.419656
0.437401
0.455827
0.474961
0.494826
0.515449
0.536855
0.559068
0.582113
0.606012
0.63079
0.656494
0.683123
0.710719
0.739315
0.768943
0.799631
0.83141
0.864312
0.898367
0.933602
0.970045
1.00772
1.04666
1.08688
1.12841
1.17126
1.21547
1.26103
1.30798
1.35632
1.40606
1.4572
1.50976
1.56373
1.61911
1.67588
1.73403
1.79355
1.8544
1.91657
1.98003
2.04473
2.11063
2.1777
2.24587
2.3151
2.38533
2.4565
2.52853
2.60137
2.67493
2.74914
2.82392
2.89918
2.97484
3.05082
3.12701
3.20334
3.27969
3.35598
3.4321
3.50797
3.58347
3.65851
3.73298
3.80678
3.87982
3.95198
4.02317
4.09329
4.16223
4.22991
4.29623
4.3611
4.42442
4.48611
4.54609
4.60428
4.6606
4.71498
4.76735
4.81765
4.86583
4.91182
4.95558
4.99707
5.03625
5.07308
5.10755
5.13963
5.1693
5.19655
5.22139
5.2438
5.26381
5.28141
5.29662
5.30948
5.32
5.32823
5.33418
5.3379
5.3394
5.3387
5.33573
5.33029
5.32269
5.31294
5.30106
5.28706
5.27093
5.2527
5.23236
5.20991
5.18537
5.15873
5.12999
5.09916
5.06626
5.0313
4.9943
4.9553
4.91435
4.87149
4.82679
4.78032
4.73217
4.68243
4.63118
4.57853
4.52458
4.46944
4.41322
4.35603
4.29799
4.23921
4.17982
4.11993
4.05966
3.99916
3.93854
3.87794
3.81751
3.75739
3.69773
3.63869
3.58047
3.52326
3.46725
3.41269
3.35976
3.30867
3.25903
3.20986
0.0471426
0.0932413
0.117496
0.134887
0.149252
0.161978
0.17373
0.184898
0.195737
0.206428
0.217104
0.22787
0.238808
0.249984
0.261455
0.273265
0.285456
0.298063
0.311118
0.32465
0.338686
0.353247
0.368364
0.384071
0.4004
0.417381
0.435047
0.453429
0.472558
0.492466
0.513184
0.534744
0.557178
0.580517
0.604796
0.630033
0.656242
0.683454
0.71174
0.741137
0.771682
0.803409
0.836354
0.870554
0.906051
0.942866
0.981026
1.02056
1.06149
1.10384
1.14764
1.19289
1.23961
1.28782
1.33752
1.38873
1.44144
1.49565
1.55136
1.60856
1.66723
1.72735
1.78891
1.85187
1.91619
1.98185
2.0488
2.117
2.1864
2.25693
2.32855
2.40119
2.47479
2.54927
2.62457
2.7006
2.7773
2.85457
2.93233
3.0105
3.08898
3.16769
3.24654
3.32541
3.40423
3.48288
3.56127
3.63931
3.71688
3.79389
3.87023
3.9458
4.0205
4.09422
4.16686
4.23833
4.30853
4.37734
4.44469
4.51048
4.57462
4.63702
4.6976
4.75628
4.81297
4.86762
4.92014
4.97049
5.01861
5.06443
5.10792
5.14904
5.18774
5.224
5.2578
5.28911
5.31793
5.34425
5.36807
5.3894
5.40825
5.42465
5.43862
5.4502
5.45941
5.46632
5.47097
5.4734
5.47362
5.47174
5.4674
5.46079
5.45209
5.44131
5.42848
5.41361
5.39671
5.37779
5.35686
5.33391
5.30896
5.28198
5.25299
5.22197
5.18893
5.15388
5.11683
5.0778
5.03684
4.99397
4.94925
4.90275
4.85454
4.80469
4.75329
4.70042
4.64619
4.59068
4.53399
4.47624
4.41753
4.35796
4.29766
4.23673
4.17529
4.11348
4.05141
3.98923
3.92707
3.86507
3.8034
3.74222
3.6817
3.62205
3.56347
3.50618
3.45037
3.39627
3.34353
3.2915
0.0468208
0.0927468
0.116812
0.134073
0.148314
0.160913
0.172537
0.183576
0.194285
0.204842
0.215381
0.226004
0.236793
0.247815
0.259124
0.270767
0.282788
0.295224
0.30811
0.321483
0.335374
0.349819
0.364853
0.380512
0.396831
0.413847
0.431598
0.450122
0.469462
0.489664
0.510763
0.532789
0.555781
0.579777
0.604805
0.630844
0.657985
0.686302
0.715854
0.746679
0.778815
0.8123
0.847168
0.883449
0.921163
0.960346
1.00103
1.04323
1.087
1.13233
1.17924
1.22772
1.27779
1.32944
1.38266
1.43746
1.49382
1.55172
1.61116
1.67209
1.7345
1.79834
1.86359
1.9302
1.99813
2.06733
2.13774
2.20932
2.28199
2.35571
2.43041
2.50601
2.58245
2.65965
2.73754
2.81605
2.89508
2.97455
3.05439
3.13451
3.21481
3.2952
3.3756
3.45591
3.53604
3.61589
3.69536
3.77435
3.85277
3.93051
4.00749
4.08358
4.1587
4.23275
4.30562
4.37723
4.44746
4.51622
4.58342
4.64897
4.71279
4.77478
4.83487
4.89297
4.94901
5.00291
5.05461
5.10405
5.15119
5.19596
5.23833
5.27824
5.31568
5.35062
5.38302
5.41288
5.44019
5.46495
5.48718
5.50688
5.52408
5.53879
5.55108
5.56096
5.5685
5.57377
5.57682
5.57771
5.57653
5.57306
5.56725
5.55939
5.54952
5.5377
5.52393
5.50825
5.49067
5.4712
5.44985
5.42661
5.40147
5.37444
5.34549
5.31462
5.28182
5.24707
5.21039
5.17177
5.13125
5.08886
5.04463
4.9986
4.95085
4.90144
4.85044
4.79791
4.74394
4.68862
4.63203
4.57426
4.51542
4.4556
4.39491
4.33345
4.27134
4.2087
4.14565
4.08231
4.01884
3.95536
3.89205
3.82906
3.76657
3.70477
3.64388
3.5841
3.52563
3.46871
3.41302
3.35828
0.0461659
0.0917196
0.115444
0.132454
0.14647
0.158862
0.170293
0.18115
0.191686
0.202079
0.212462
0.222937
0.233587
0.244477
0.255663
0.267197
0.279125
0.291489
0.304332
0.317697
0.331625
0.346158
0.361339
0.377217
0.39385
0.411272
0.429523
0.448653
0.468708
0.489722
0.511676
0.534673
0.558782
0.584061
0.610572
0.638386
0.66754
0.698091
0.730088
0.763572
0.798581
0.835145
0.873292
0.913043
0.954412
0.997413
1.04206
1.08836
1.13632
1.1859
1.23711
1.28994
1.34436
1.40037
1.45793
1.51702
1.57761
1.63966
1.70314
1.768
1.8342
1.90169
1.97042
2.04034
2.11139
2.18353
2.25669
2.33081
2.40583
2.48169
2.55832
2.63566
2.71364
2.79218
2.87122
2.95068
3.03049
3.11057
3.19083
3.27121
3.35162
3.43198
3.5122
3.59219
3.67187
3.75116
3.82995
3.90816
3.9857