/*--------------------------------*- C++ -*----------------------------------*\
  =========                 |
  \\      /  F ield         | OpenFOAM: The Open Source CFD Toolbox
   \\    /   O peration     | Website:  https://openfoam.org
    \\  /    A nd           | Version:  8
     \\/     M anipulation  |
\*---------------------------------------------------------------------------*/
FoamFile
{
    version     2.0;
    format      ascii;
    class       volScalarField;
    location    "220";
    object      nut;
}
// * * * * * * * * * * * * * * * * * * * * * * * * * * * * * * * * * * * * * //

dimensions      [0 2 -1 0 0 0 0];

internalField   nonuniform List<scalar> 
12225
(
4.14925e-05
3.93406e-05
3.74832e-05
3.54326e-05
3.37843e-05
3.24205e-05
3.15099e-05
3.09113e-05
3.09175e-05
3.10963e-05
3.157e-05
3.21082e-05
3.31476e-05
3.38159e-05
3.50586e-05
3.59286e-05
3.66726e-05
3.93325e-05
0.000332214
0.000215176
0.000179271
0.000157677
0.00014621
0.000138208
0.00013274
0.000131655
0.000129506
0.000130066
0.000129047
0.00012944
0.00012866
0.000128555
0.000128086
0.000127398
0.000127467
0.000126157
0.000668679
0.000450657
0.000355756
0.000309833
0.000275282
0.0002511
0.000231707
0.000217279
0.00020267
0.000192128
0.000182614
0.000175211
0.000169367
0.000163687
0.000160288
0.000155563
0.000153827
0.000149785
0.000801679
0.00069166
0.000572554
0.000500057
0.000449379
0.000411988
0.000380773
0.000356008
0.000334
0.000314785
0.000298368
0.000281632
0.000270334
0.00025607
0.000248211
0.000236125
0.000230547
0.000220378
0.000839623
0.000810186
0.000740705
0.000676414
0.000623929
0.000581387
0.000545865
0.000514561
0.000489513
0.000464432
0.000445864
0.000424064
0.000409936
0.000390804
0.000379903
0.000363024
0.000354809
0.000339367
0.000850344
0.000843277
0.000819553
0.000786527
0.000750772
0.000715885
0.000685754
0.000656132
0.000632546
0.000607518
0.000588997
0.000567247
0.000552282
0.000533097
0.0005208
0.000503658
0.000493698
0.000477326
0.000851579
0.000851018
0.0008433
0.000833476
0.000817111
0.000796951
0.00077787
0.000756736
0.000738899
0.000719147
0.000703533
0.000685621
0.000672123
0.000655922
0.000644323
0.000629466
0.000619874
0.000605004
0.000851581
0.000851815
0.000850038
0.000847462
0.000841401
0.00083375
0.000824823
0.000813434
0.000802811
0.000790471
0.000779715
0.00076754
0.000757427
0.000745781
0.000736557
0.000725466
0.000717499
0.000705888
0.000851673
0.00085153
0.000851015
0.000850343
0.000848875
0.00084617
0.000843027
0.000838305
0.000833403
0.000827361
0.000821218
0.000814769
0.000808433
0.000801504
0.000795298
0.000788326
0.000782529
0.000774953
0.000851754
0.000851386
0.000851043
0.000850633
0.000850247
0.000849368
0.000848404
0.00084678
0.000844956
0.00084253
0.000839924
0.000836799
0.000833796
0.000830151
0.000826976
0.000822919
0.000819928
0.000815291
0.000851784
0.000851358
0.000851012
0.000850613
0.000850329
0.000849905
0.000849525
0.000848929
0.000848303
0.000847393
0.000846466
0.000845177
0.00084399
0.000842352
0.000840997
0.000839032
0.000837642
0.000835363
0.000851788
0.000851359
0.000850995
0.000850605
0.000850292
0.000849938
0.000849646
0.00084928
0.000848955
0.000848504
0.000848098
0.000847507
0.000846997
0.000846244
0.000845641
0.000844721
0.000844058
0.000842976
0.000851786
0.000851363
0.000850985
0.000850604
0.000850269
0.000849926
0.00084963
0.000849313
0.000849042
0.000848728
0.000848462
0.000848126
0.000847843
0.000847466
0.000847156
0.000846726
0.000846387
0.000845902
0.000851783
0.000851364
0.000850978
0.000850602
0.000850256
0.000849916
0.000849607
0.0008493
0.000849022
0.00084874
0.000848488
0.000848224
0.000847988
0.000847735
0.000847508
0.000847258
0.000847033
0.000846783
0.000851781
0.000851364
0.000850973
0.000850598
0.000850246
0.000849908
0.000849591
0.000849286
0.000849
0.000848723
0.000848463
0.000848211
0.000847975
0.000847744
0.000847527
0.000847316
0.000847114
0.000846919
0.00085178
0.000851363
0.000850969
0.000850594
0.000850239
0.000849901
0.00084958
0.000849275
0.000848984
0.000848707
0.000848443
0.000848191
0.000847951
0.000847721
0.000847502
0.000847292
0.000847092
0.000846901
0.000851779
0.000851362
0.000850967
0.000850591
0.000850234
0.000849895
0.000849572
0.000849265
0.000848973
0.000848694
0.000848428
0.000848175
0.000847932
0.000847701
0.00084748
0.000847269
0.000847067
0.000846874
0.000851779
0.000851362
0.000850965
0.000850588
0.000850231
0.00084989
0.000849567
0.000849259
0.000848965
0.000848685
0.000848418
0.000848163
0.00084792
0.000847687
0.000847464
0.000847252
0.000847048
0.000846854
0.000851779
0.000851362
0.000850965
0.000850588
0.00085023
0.000849889
0.000849565
0.000849256
0.000848962
0.000848681
0.000848413
0.000848158
0.000847913
0.00084768
0.000847456
0.000847243
0.000847038
0.000846843
0.000851779
0.000851362
0.000850966
0.000850589
0.000850231
0.000849891
0.000849567
0.000849259
0.000848965
0.000848685
0.000848417
0.000848161
0.000847917
0.000847683
0.000847459
0.000847246
0.00084704
0.000846844
0.000851779
0.000851363
0.000850967
0.000850592
0.000850235
0.000849897
0.000849573
0.000849267
0.000848972
0.000848693
0.000848424
0.000848168
0.000847919
0.000847683
0.000847451
0.000847231
0.000847012
0.000846806
0.000851778
0.000851366
0.000850968
0.000850599
0.00085024
0.000849907
0.00084958
0.000849274
0.000848964
0.000848671
0.000848364
0.000848071
0.000847756
0.000847455
0.000847122
0.000846811
0.000846457
0.000846135
0.000851773
0.000851376
0.000850971
0.000850615
0.000850241
0.000849889
0.000849478
0.000849054
0.000848529
0.000847978
0.0008473
0.000846604
0.000845766
0.000844939
0.000843954
0.000843029
0.000841917
0.000840939
0.000851767
0.000851415
0.000850964
0.000850548
0.000849861
0.000848966
0.00084761
0.000845976
0.000843904
0.000841636
0.000838954
0.000836214
0.000833116
0.000830112
0.000826762
0.000823678
0.000820182
0.000817176
0.000851859
0.00085138
0.000850195
0.000848243
0.00084447
0.000839354
0.000832765
0.000825658
0.000817961
0.00081001
0.000801617
0.000793626
0.00078533
0.000777705
0.000769741
0.000762698
0.00075512
0.000748792
0.000852108
0.000847667
0.000839902
0.000827146
0.000808707
0.000789645
0.000769974
0.000751412
0.000733303
0.000716894
0.000700932
0.000686778
0.000672827
0.000660668
0.000648375
0.000637937
0.00062695
0.000618016
0.000843241
0.000822507
0.000775184
0.000726458
0.000684895
0.00064985
0.00061846
0.000592018
0.00056838
0.00054831
0.000529686
0.000513988
0.000498749
0.000486014
0.000473199
0.000462705
0.000451619
0.000442802
0.000795685
0.000668242
0.000570625
0.000509904
0.000465604
0.000431182
0.000404145
0.00038248
0.000364198
0.000349068
0.00033594
0.00032506
0.000314505
0.000306234
0.000297958
0.000291366
0.000284279
0.00027893
0.000501314
0.000348357
0.000292673
0.00025918
0.000236322
0.000221177
0.00021162
0.000203854
0.000198563
0.000195075
0.000192221
0.000190367
0.000188582
0.000187438
0.000186166
0.000185471
0.000184555
0.000184142
7.27385e-05
7.02256e-05
6.79542e-05
6.56138e-05
6.33828e-05
6.12762e-05
5.94944e-05
5.79552e-05
5.67108e-05
5.57032e-05
5.49775e-05
5.4418e-05
5.41095e-05
5.38812e-05
5.38974e-05
5.39327e-05
5.40913e-05
5.4324e-05
3.43843e-07
8.14865e-06
1.47666e-05
2.09156e-05
2.73878e-05
3.44292e-05
4.21693e-05
5.06288e-05
5.96921e-05
6.91775e-05
7.88902e-05
8.8672e-05
9.84e-05
0.000107993
0.000117382
0.000126508
0.000135296
0.000143656
0.000151485
0.00015869
0.00016521
0.000171072
0.000176399
0.000181419
0.000185775
0.000189894
0.000197392
0.000204778
0.000212141
0.000218188
0.000214558
0.000194895
3.90306e-05
3.71116e-05
3.78965e-05
4.07499e-05
4.35365e-05
4.51861e-05
4.71944e-05
4.8933e-05
4.95959e-05
5.08545e-05
5.18948e-05
5.30392e-05
5.4144e-05
5.5265e-05
5.63761e-05
5.74879e-05
5.85952e-05
5.97002e-05
6.08019e-05
6.19008e-05
6.29966e-05
6.40896e-05
6.51796e-05
6.62665e-05
6.73504e-05
6.8431e-05
6.95082e-05
7.05818e-05
7.16516e-05
7.27174e-05
7.37787e-05
7.48354e-05
7.58869e-05
7.69331e-05
7.79733e-05
7.90074e-05
8.00346e-05
8.10548e-05
8.20672e-05
8.30716e-05
8.40671e-05
8.50537e-05
8.60303e-05
8.69969e-05
8.79525e-05
8.88969e-05
8.98293e-05
9.07495e-05
9.16564e-05
9.25501e-05
9.34295e-05
9.42945e-05
9.5144e-05
9.5978e-05
9.67953e-05
9.75959e-05
9.83785e-05
9.91429e-05
9.98879e-05
0.000100612
0.000101315
0.000101996
0.000102652
0.000103285
0.000103894
0.000104485
0.000105057
0.000105606
0.000106134
0.00010664
0.000107125
0.000107587
0.000108027
0.000108444
0.000108838
0.000109209
0.000109556
0.000109879
0.000110179
0.000110455
0.000110706
0.000110933
0.000111135
0.000111313
0.000111465
0.000111592
0.000111694
0.000111771
0.000111821
0.000111846
0.000111844
0.000111815
0.000111759
0.000111676
0.00011155
0.000111452
0.000111281
0.000111086
0.000110855
0.000110598
0.000110332
0.000110023
0.00010969
0.000109326
0.000108933
0.000108512
0.000108063
0.000107581
0.00010707
0.000106527
0.000105955
0.000105352
0.000104719
0.000104056
0.000103365
0.000102646
0.000101899
0.000101126
0.000100328
9.95054e-05
9.86603e-05
9.77941e-05
9.69086e-05
9.60066e-05
9.5091e-05
9.41601e-05
9.34381e-05
9.28364e-05
9.2235e-05
9.16238e-05
9.10023e-05
9.03722e-05
8.97352e-05
8.90929e-05
8.8447e-05
8.77989e-05
8.71501e-05
8.65022e-05
8.58563e-05
8.52135e-05
8.45737e-05
8.39379e-05
8.33003e-05
8.26601e-05
8.20086e-05
8.1313e-05
8.05584e-05
7.84366e-05
1.59454e-06
3.37974e-05
7.25979e-05
9.91376e-05
0.000116494
0.000129402
0.000140588
0.000151437
0.000162497
0.000173866
0.00018544
0.000197045
0.000208515
0.000219708
0.000230504
0.000240804
0.000250511
0.000259531
0.00026777
0.000275143
0.000281582
0.000287052
0.000291546
0.000294998
0.000296572
0.000295538
0.000291894
0.000284584
0.000273008
0.00025669
0.000233469
0.000210624
0.000174207
0.000179234
0.000192121
0.000211212
0.000228996
0.000246646
0.000270169
0.000276355
0.000282588
0.000289254
0.000296607
0.000304198
0.000312037
0.000319997
0.000328076
0.000336243
0.000344494
0.000352822
0.000361224
0.000369701
0.000378252
0.000386877
0.000395579
0.000404358
0.000413215
0.000422153
0.000431171
0.000440271
0.000449453
0.000458717
0.000468062
0.000477489
0.000486995
0.00049658
0.000506241
0.000515975
0.000525781
0.000535654
0.000545592
0.000555589
0.000565644
0.000575749
0.000585902
0.000596096
0.000606326
0.000616586
0.000626872
0.000637176
0.000647495
0.00065782
0.00066815
0.000678477
0.000688797
0.000699105
0.000709397
0.000719668
0.000729913
0.000740129
0.000750312
0.000760452
0.000770535
0.000780531
0.000790391
0.000800026
0.000809285
0.000817906
0.000826217
0.000834432
0.000842523
0.000850491
0.000858334
0.000866045
0.000873622
0.000881058
0.00088835
0.000895493
0.000902485
0.00090932
0.000915996
0.000922508
0.000928852
0.000935024
0.00094102
0.000946835
0.000952464
0.000957903
0.000963148
0.000968192
0.000973032
0.000977662
0.000982077
0.000986272
0.000990245
0.000993995
0.000997514
0.00100076
0.00100393
0.00100655
0.00100881
0.00101083
0.0010128
0.00101436
0.00101561
0.00101655
0.00101718
0.00101748
0.00101746
0.00101713
0.00101646
0.00101545
0.0010141
0.00101241
0.00101036
0.00100798
0.00100525
0.00100219
0.000998798
0.000995082
0.000991052
0.000986719
0.000982092
0.000977183
0.000972
0.000966526
0.000960649
0.000953763
0.000944864
0.000935065
0.000924921
0.000914619
0.000904237
0.000893818
0.000883397
0.000873
0.00086265
0.000852369
0.000842179
0.0008321
0.000822147
0.000812337
0.000802676
0.000793157
0.000783744
0.000774465
0.000765138
0.000755557
0.000744313
0.000710019
3.25953e-06
5.40749e-05
0.000113436
0.000158446
0.000191092
0.000215
0.00023349
0.000248955
0.000262906
0.00027617
0.000289112
0.000301831
0.000314292
0.000326411
0.000338089
0.000349237
0.000359777
0.000369646
0.000378794
0.000387179
0.000394767
0.000401506
0.000407295
0.00041199
0.000415971
0.000419487
0.000422014
0.000423167
0.00042256
0.000419705
0.000415018
0.000410923
0.000409292
0.000424555
0.000446376
0.000470161
0.000492721
0.000515171
0.000535262
0.000550842
0.000566194
0.000581618
0.00059735
0.000613298
0.000629457
0.000645784
0.000662268
0.000678895
0.000695662
0.000712564
0.000729602
0.000746776
0.000764089
0.000781543
0.000799139
0.00081688
0.000834766
0.000852799
0.000870979
0.000889306
0.000907778
0.000926396
0.000945156
0.000964055
0.000983089
0.00100225
0.00102155
0.00104096
0.00106048
0.00108011
0.00109984
0.00111966
0.00113956
0.00115953
0.00117956
0.00119964
0.00121976
0.0012399
0.00126007
0.00128024
0.0013004
0.00132054
0.00134065
0.00136072
0.00138074
0.00140069
0.00142056
0.00144034
0.00146002
0.00147957
0.00149899
0.00151824
0.00153729
0.00155609
0.00157459
0.0015927
0.00161035
0.00162753
0.0016444
0.00166103
0.00167741
0.00169352
0.00170935
0.0017249
0.00174015
0.00175509
0.00176973
0.00178404
0.00179802
0.00181166
0.00182496
0.0018379
0.00185048
0.00186269
0.00187453
0.00188598
0.00189703
0.00190768
0.00191792
0.00192773
0.00193712
0.00194607
0.00195456
0.0019626
0.00197017
0.00197726
0.00198385
0.00198996
0.00199588
0.00200064
0.00200472
0.0020084
0.0020117
0.00201431
0.00201629
0.00201763
0.00201832
0.00201836
0.00201775
0.00201647
0.0020145
0.00201185
0.0020085
0.00200445
0.0019997
0.00199425
0.00198812
0.00198131
0.00197383
0.00196571
0.00195696
0.0019476
0.00193766
0.00192717
0.00191613
0.00190453
0.00189223
0.00187875
0.00186332
0.00184663
0.00182927
0.00181151
0.00179352
0.00177536
0.00175713
0.00173887
0.00172063
0.00170246
0.00168441
0.00166652
0.00164883
0.00163137
0.00161416
0.00159721
0.00158049
0.00156394
0.00154729
0.00152989
0.00150918
0.00146174
5.04681e-06
6.93879e-05
0.00014431
0.000202978
0.000246656
0.000279315
0.000304515
0.00032495
0.000342505
0.000358384
0.000373283
0.000387552
0.000401337
0.000414671
0.000427542
0.00043993
0.000451822
0.000463228
0.000474181
0.000484746
0.000495017
0.00050512
0.000515214
0.00052549
0.000536165
0.000547333
0.00055886
0.000570489
0.000581901
0.000592941
0.000603947
0.000616116
0.000630991
0.000650993
0.000673804
0.000697614
0.000721432
0.000745119
0.000767994
0.00079032
0.000812662
0.000835101
0.000857713
0.000880504
0.000903481
0.000926639
0.000949976
0.000973491
0.000997183
0.00102105
0.0010451
0.00106933
0.00109374
0.00111835
0.00114315
0.00116814
0.00119333
0.00121871
0.00124429
0.00127006
0.00129602
0.00132217
0.0013485
0.00137501
0.00140169
0.00142854
0.00145554
0.00148269
0.00150998
0.00153739
0.00156492
0.00159255
0.00162026
0.00164806
0.00167591
0.00170381
0.00173174
0.00175969
0.00178763
0.00181556
0.00184345
0.00187129
0.00189906
0.00192674
0.00195431
0.00198177
0.00200907
0.00203622
0.00206318
0.00208993
0.00211645
0.0021427
0.00216864
0.00219424
0.00221944
0.00224419
0.00226847
0.00229232
0.0023158
0.00233892
0.00236167
0.00238405
0.00240603
0.0024276
0.00244875
0.00246946
0.00248973
0.00250954
0.00252888
0.00254774
0.00256612
0.00258399
0.00260136
0.0026182
0.00263452
0.00265029
0.00266552
0.00268018
0.00269428
0.00270778
0.0027207
0.00273301
0.0027447
0.00275575
0.00276617
0.00277592
0.002785
0.00279361
0.00280155
0.00280825
0.00281389
0.00281915
0.00282368
0.00282735
0.00283015
0.00283208
0.00283312
0.00283327
0.00283251
0.00283082
0.0028282
0.00282463
0.00282009
0.00281458
0.00280811
0.00280068
0.00279229
0.00278296
0.0027727
0.00276153
0.00274949
0.0027366
0.00272289
0.0027084
0.00269314
0.00267712
0.00266022
0.00264213
0.00262244
0.00260148
0.00257967
0.00255727
0.00253447
0.00251139
0.00248811
0.00246472
0.0024413
0.0024179
0.00239461
0.00237147
0.00234855
0.00232591
0.00230359
0.00228161
0.00225997
0.00223859
0.0022172
0.00219497
0.00216879
0.00211998
6.78661e-06
8.21523e-05
0.000169951
0.000239882
0.000293213
0.000333647
0.000364972
0.00039013
0.000411275
0.000429892
0.000446942
0.000463007
0.000478414
0.00049334
0.000507882
0.000522107
0.000536078
0.000549871
0.000563583
0.000577336
0.000591282
0.000605597
0.000620483
0.00063615
0.000652782
0.000670478
0.000689197
0.000708741
0.000728791
0.000749034
0.000769485
0.000790548
0.000812916
0.000837034
0.000862477
0.000888802
0.000915716
0.000943013
0.000970567
0.000997971
0.00102547
0.00105312
0.00108097
0.001109
0.00113723
0.00116567
0.00119431
0.00122316
0.00125221
0.00128147
0.00131095
0.00134062
0.00137052
0.00140064
0.00143098
0.00146156
0.00149236
0.00152339
0.00155464
0.00158611
0.00161779
0.00164969
0.00168179
0.00171408
0.00174656
0.00177922
0.00181205
0.00184503
0.00187815
0.0019114
0.00194476
0.00197821
0.00201175
0.00204535
0.002079
0.00211268
0.00214636
0.00218004
0.00221368
0.00224727
0.00228079
0.00231422
0.00234754
0.00238072
0.00241374
0.00244659
0.00247923
0.00251164
0.0025438
0.00257569
0.00260726
0.00263851
0.00266938
0.00269986
0.00272991
0.00275952
0.00278869
0.00281741
0.0028457
0.00287355
0.00290095
0.00292789
0.00295434
0.0029803
0.00300575
0.00303067
0.00305506
0.00307889
0.00310216
0.00312486
0.00314697
0.00316848
0.00318939
0.00320967
0.00322933
0.00324834
0.00326671
0.00328441
0.00330144
0.00331779
0.00333343
0.00334837
0.00336259
0.00337607
0.00338879
0.00340074
0.00341198
0.00342271
0.00343236
0.00344082
0.00344809
0.00345491
0.00346078
0.00346565
0.00346952
0.00347237
0.00347418
0.00347493
0.0034746
0.00347319
0.00347065
0.00346699
0.00346217
0.00345621
0.00344908
0.0034408
0.00343137
0.0034208
0.00340911
0.00339632
0.00338246
0.00336756
0.00335165
0.00333477
0.00331695
0.00329819
0.00327845
0.00325754
0.00323529
0.00321182
0.00318742
0.00316229
0.00313662
0.00311053
0.00308413
0.00305752
0.00303078
0.00300401
0.00297729
0.00295069
0.00292429
0.00289818
0.00287241
0.00284704
0.00282209
0.00279751
0.00277305
0.00274784
0.00271879
0.00267247
8.41699e-06
9.28021e-05
0.000191361
0.000270995
0.000332942
0.000380529
0.00041767
0.000447478
0.000472309
0.000493865
0.000513329
0.000531483
0.000548831
0.000565691
0.00058227
0.000598721
0.000615168
0.000631733
0.000648542
0.000665729
0.000683435
0.000701812
0.000721012
0.00074118
0.000762433
0.000784828
0.000808335
0.000832821
0.000858074
0.000883881
0.000910137
0.000936906
0.000964371
0.00099265
0.00102169
0.0010514
0.00108168
0.00111241
0.00114347
0.00117475
0.00120623
0.00123793
0.00126984
0.00130196
0.00133429
0.00136683
0.00139959
0.00143257
0.00146578
0.00149921
0.00153288
0.00156679
0.00160094
0.00163532
0.00166993
0.00170477
0.00173984
0.00177513
0.00181065
0.00184638
0.00188233
0.00191848
0.00195483
0.00199137
0.00202809
0.00206497
0.00210201
0.00213919
0.0021765
0.00221393
0.00225145
0.00228905
0.00232672
0.00236443
0.00240217
0.00243992
0.00247765
0.00251535
0.00255299
0.00259056
0.00262803
0.00266538
0.00270259
0.00273963
0.00277648
0.00281311
0.00284951
0.00288564
0.00292148
0.00295701
0.00299219
0.00302701
0.00306143
0.00309543
0.003129
0.00316211
0.00319476
0.00322693
0.00325862
0.00328983
0.00332052
0.0033507
0.00338033
0.00340941
0.00343792
0.00346585
0.00349317
0.00351989
0.00354597
0.00357142
0.00359623
0.00362037
0.00364385
0.00366664
0.00368874
0.00371014
0.00373083
0.0037508
0.00377004
0.00378854
0.00380628
0.00382326
0.00383946
0.00385486
0.00386946
0.00388323
0.00389635
0.00390876
0.00391999
0.00393004
0.00393896
0.00394723
0.00395448
0.00396066
0.00396576
0.00396976
0.00397263
0.00397436
0.00397491
0.00397426
0.00397239
0.00396928
0.0039649
0.00395925
0.00395232
0.00394409
0.00393458
0.0039238
0.00391175
0.00389846
0.00388395
0.00386825
0.0038514
0.00383343
0.00381438
0.00379426
0.00377306
0.0037507
0.00372711
0.00370235
0.0036766
0.00365003
0.00362279
0.003595
0.00356679
0.00353826
0.00350951
0.00348064
0.00345174
0.00342292
0.00339426
0.00336586
0.00333781
0.0033102
0.00328307
0.00325643
0.00323008
0.00320324
0.00317318
0.00313064
9.89367e-06
0.000101571
0.000209083
0.000297142
0.000366829
0.000421073
0.000463813
0.000498261
0.000526909
0.000551625
0.000573763
0.000594277
0.000613823
0.000632846
0.000651654
0.00067047
0.000689471
0.000708805
0.000728605
0.000748997
0.000770096
0.000792009
0.000814832
0.000838644
0.000863501
0.00088942
0.000916367
0.000944258
0.000972965
0.00100235
0.00103233
0.00106284
0.00109392
0.00112556
0.00115776
0.00119048
0.00122367
0.00125727
0.00129121
0.00132544
0.00135993
0.00139465
0.00142959
0.00146475
0.00150013
0.00153572
0.00157153
0.00160756
0.00164381
0.00168029
0.001717
0.00175394
0.0017911
0.0018285
0.00186612
0.00190396
0.00194203
0.00198031
0.00201881
0.00205751
0.00209642
0.00213553
0.00217482
0.00221429
0.00225393
0.00229373
0.00233367
0.00237374
0.00241393
0.00245423
0.00249461
0.00253505
0.00257556
0.00261609
0.00265664
0.00269718
0.0027377
0.00277817
0.00281858
0.00285889
0.00289909
0.00293916
0.00297906
0.00301878
0.0030583
0.00309758
0.00313661
0.00317535
0.00321379
0.00325189
0.00328964
0.003327
0.00336395
0.00340048
0.00343656
0.00347217
0.00350731
0.00354194
0.00357607
0.00360967
0.00364273
0.00367523
0.00370716
0.00373849
0.00376921
0.00379932
0.00382878
0.00385759
0.00388574
0.00391321
0.00394
0.00396608
0.00399146
0.00401613
0.00404006
0.00406327
0.00408573
0.00410743
0.00412838
0.00414856
0.00416796
0.00418657
0.00420438
0.00422137
0.00423754
0.00425288
0.00426764
0.00428144
0.0042942
0.00430577
0.00431629
0.00432601
0.00433467
0.00434225
0.00434871
0.00435405
0.00435822
0.00436121
0.00436298
0.00436349
0.00436273
0.00436067
0.00435727
0.00435253
0.00434642
0.00433894
0.00433009
0.00431986
0.00430827
0.00429533
0.00428106
0.00426549
0.00424865
0.00423057
0.00421129
0.00419083
0.00416921
0.00414639
0.00412237
0.00409719
0.00407097
0.00404383
0.00401592
0.00398735
0.00395823
0.00392868
0.00389881
0.00386871
0.00383851
0.0038083
0.0037782
0.00374832
0.00371879
0.00368969
0.00366114
0.00363317
0.00360567
0.00357798
0.00354786
0.00350881
1.11852e-05
0.00010862
0.000223454
0.000318883
0.000395383
0.000455838
0.00050396
0.000543011
0.000575565
0.000603605
0.000628614
0.00065168
0.000673582
0.000694873
0.000715947
0.000737087
0.000758508
0.000780376
0.00080283
0.000825983
0.000849923
0.000874724
0.000900437
0.000927101
0.000954729
0.000983315
0.00101282
0.00104319
0.00107434
0.00110619
0.00113865
0.00117167
0.00120521
0.00123926
0.00127378
0.00130873
0.0013441
0.00137984
0.00141591
0.00145227
0.00148889
0.00152574
0.00156281
0.00160009
0.00163758
0.00167527
0.00171317
0.00175128
0.0017896
0.00182813
0.00186687
0.00190582
0.00194499
0.00198437
0.00202395
0.00206375
0.00210375
0.00214396
0.00218436
0.00222497
0.00226576
0.00230673
0.00234788
0.0023892
0.00243068
0.00247231
0.00251407
0.00255596
0.00259796
0.00264006
0.00268224
0.00272449
0.00276678
0.00280912
0.00285146
0.00289381
0.00293612
0.0029784
0.00302061
0.00306273
0.00310474
0.00314661
0.00318833
0.00322987
0.00327121
0.00331231
0.00335316
0.00339373
0.00343399
0.00347393
0.0035135
0.0035527
0.00359149
0.00362985
0.00366776
0.00370521
0.00374216
0.00377861
0.00381454
0.00384992
0.00388474
0.00391899
0.00395263
0.00398566
0.00401806
0.00404981
0.00408089
0.0041113
0.00414103
0.00417005
0.00419837
0.00422596
0.00425282
0.00427894
0.00430432
0.00432895
0.00435282
0.00437592
0.00439825
0.0044198
0.00444057
0.00446055
0.00447973
0.00449809
0.00451564
0.00453242
0.00454858
0.0045637
0.00457791
0.00459097
0.00460307
0.00461425
0.00462438
0.00463343
0.00464139
0.00464822
0.00465389
0.00465838
0.00466163
0.00466363
0.00466433
0.00466371
0.00466172
0.00465836
0.00465358
0.00464739
0.00463976
0.00463069
0.00462019
0.00460826
0.00459492
0.00458018
0.00456408
0.00454664
0.00452789
0.00450787
0.00448659
0.00446407
0.00444031
0.00441537
0.00438932
0.00436227
0.00433433
0.00430561
0.00427623
0.0042463
0.00421593
0.00418523
0.00415432
0.00412332
0.00409236
0.00406155
0.00403105
0.00400098
0.00397147
0.00394263
0.0039144
0.00388629
0.00385649
0.00382083
1.22735e-05
0.000114107
0.000234799
0.000336615
0.000419071
0.000485212
0.000538434
0.000581974
0.000618438
0.000649874
0.000677855
0.000703565
0.00072788
0.000751441
0.00077471
0.00079802
0.000821612
0.00084567
0.000870345
0.000895759
0.000921973
0.000949027
0.000976948
0.00100575
0.00103542
0.00106595
0.0010973
0.00112943
0.00116226
0.00119575
0.00122984
0.00126446
0.00129958
0.00133515
0.00137115
0.00140754
0.00144429
0.00148138
0.00151879
0.00155651
0.00159447
0.00163264
0.00167101
0.00170956
0.00174829
0.0017872
0.0018263
0.00186558
0.00190505
0.00194471
0.00198455
0.00202458
0.00206481
0.00210522
0.00214583
0.00218663
0.00222762
0.00226879
0.00231016
0.00235171
0.00239344
0.00243534
0.00247742
0.00251966
0.00256206
0.00260461
0.0026473
0.00269012
0.00273307
0.00277612
0.00281926
0.00286249
0.00290578
0.00294913
0.00299251
0.0030359
0.00307929
0.00312266
0.00316598
0.00320924
0.00325242
0.00329548
0.00333841
0.00338118
0.00342377
0.00346614
0.00350829
0.00355017
0.00359177
0.00363305
0.00367399
0.00371457
0.00375476
0.00379453
0.00383386
0.00387273
0.00391111
0.00394899
0.00398634
0.00402313
0.00405936
0.004095
0.00413003
0.00416442
0.00419818
0.00423127
0.00426368
0.0042954
0.00432642
0.00435672
0.00438629
0.00441513
0.00444322
0.00447056
0.00449715
0.00452297
0.00454803
0.00457232
0.00459583
0.00461857
0.00464054
0.00466172
0.00468212
0.00470173
0.00472053
0.00473867
0.00475604
0.00477251
0.00478812
0.00480268
0.00481633
0.00482903
0.00484068
0.00485129
0.00486084
0.00486931
0.00487665
0.00488283
0.00488781
0.00489155
0.00489401
0.00489515
0.00489493
0.00489332
0.00489029
0.00488581
0.00487987
0.00487245
0.00486355
0.00485316
0.00484129
0.00482796
0.00481317
0.00479696
0.00477935
0.00476037
0.00474005
0.0047184
0.00469546
0.00467127
0.0046459
0.00461943
0.00459195
0.00456358
0.00453442
0.00450459
0.00447418
0.00444333
0.00441216
0.00438078
0.00434935
0.00431799
0.00428688
0.00425616
0.00422601
0.00419655
0.00416781
0.00413943
0.00411001
0.00407718
1.31506e-05
0.000118181
0.000243401
0.000350551
0.000438212
0.000509495
0.00056747
0.0006153
0.000655579
0.000690381
0.00072133
0.000749677
0.000776363
0.000802102
0.000827451
0.000852739
0.000878207
0.000904021
0.000930267
0.00095722
0.000984937
0.00101346
0.00104279
0.00107295
0.00110392
0.00113566
0.00116816
0.00120137
0.00123523
0.00126971
0.00130474
0.00134029
0.0013763
0.00141275
0.00144959
0.00148679
0.00152433
0.00156216
0.00160027
0.00163861
0.00167713
0.00171584
0.0017547
0.00179369
0.00183283
0.0018721
0.00191153
0.0019511
0.00199083
0.00203072
0.00207078
0.002111
0.00215139
0.00219195
0.00223269
0.00227361
0.00231471
0.00235599
0.00239745
0.0024391
0.00248093
0.00252295
0.00256515
0.00260752
0.00265008
0.0026928
0.00273569
0.00277873
0.00282193
0.00286527
0.00290873
0.00295232
0.00299601
0.00303979
0.00308365
0.00312757
0.00317153
0.00321551
0.00325949
0.00330345
0.00334737
0.00339122
0.00343498
0.00347863
0.00352213
0.00356546
0.00360859
0.0036515
0.00369415
0.00373652
0.00377858
0.0038203
0.00386165
0.00390261
0.00394314
0.00398322
0.00402283
0.00406194
0.00410052
0.00413855
0.00417601
0.00421287
0.00424912
0.00428473
0.00431969
0.00435397
0.00438756
0.00442044
0.00445261
0.00448405
0.00451475
0.0045447
0.0045739
0.00460233
0.00463
0.0046569
0.00468303
0.00470839
0.00473299
0.00475681
0.00477987
0.00480217
0.00482371
0.00484448
0.00486451
0.00488387
0.00490245
0.00492025
0.00493724
0.00495332
0.00496852
0.00498279
0.004996
0.00500824
0.00501949
0.00502971
0.00503886
0.00504692
0.00505382
0.00505953
0.00506399
0.00506717
0.00506901
0.00506948
0.00506854
0.00506614
0.00506228
0.00505691
0.00505002
0.00504161
0.00503168
0.00502021
0.00500722
0.00499273
0.00497676
0.00495932
0.00494045
0.00492016
0.0048985
0.00487551
0.00485123
0.00482575
0.00479914
0.00477152
0.00474297
0.0047136
0.00468353
0.00465288
0.00462177
0.00459035
0.00455874
0.00452711
0.00449564
0.00446449
0.00443387
0.00440394
0.00437478
0.00434615
0.004317
0.00428609
1.38177e-05
0.00012099
0.000249525
0.00036099
0.000453112
0.000528955
0.000591271
0.000643107
0.00068701
0.000725043
0.000758857
0.000789753
0.000818647
0.000846198
0.000873045
0.000899681
0.000926434
0.000953551
0.000981249
0.00100959
0.00103859
0.00106829
0.00109868
0.00112979
0.00116158
0.00119404
0.00122714
0.00126084
0.0012951
0.00132988
0.00136514
0.00140082
0.00143691
0.00147334
0.0015101
0.00154715
0.00158446
0.00162202
0.00165982
0.0016979
0.00173628
0.00177478
0.00181332
0.00185193
0.0018906
0.00192937
0.00196823
0.00200721
0.00204632
0.00208556
0.00212495
0.00216448
0.00220417
0.00224402
0.00228405
0.00232426
0.00236466
0.00240525
0.00244604
0.00248704
0.00252825
0.00256968
0.00261133
0.00265319
0.00269527
0.00273758
0.0027801
0.00282283
0.00286578
0.00290892
0.00295226
0.00299578
0.00303947
0.00308332
0.00312731
0.00317143
0.00321566
0.00325998
0.00330436
0.00334879
0.00339324
0.00343769
0.0034821
0.00352645
0.00357071
0.00361486
0.00365886
0.00370267
0.00374628
0.00378964
0.00383273
0.00387551
0.00391796
0.00396003
0.0040017
0.00404294
0.00408371
0.004124
0.00416376
0.00420298
0.00424163
0.00427967
0.0043171
0.00435388
0.00438999
0.00442543
0.00446016
0.00449417
0.00452745
0.00455999
0.00459177
0.0046228
0.00465305
0.00468253
0.00471124
0.00473917
0.00476632
0.00479271
0.00481833
0.00484319
0.0048673
0.00489066
0.00491329
0.0049352
0.0049564
0.00497692
0.00499674
0.00501588
0.00503427
0.00505186
0.00506863
0.00508449
0.00509929
0.00511323
0.00512625
0.00513834
0.00514943
0.00515951
0.0051685
0.00517637
0.00518305
0.0051885
0.00519266
0.00519549
0.00519692
0.00519693
0.00519546
0.0051925
0.005188
0.00518195
0.00517433
0.00516514
0.00515436
0.00514201
0.0051281
0.00511264
0.00509564
0.00507714
0.00505717
0.00503575
0.00501295
0.00498883
0.00496345
0.00493691
0.00490931
0.00488074
0.00485132
0.00482117
0.00479041
0.00475919
0.00472766
0.00469599
0.00466434
0.00463293
0.00460196
0.00457163
0.00454208
0.00451316
0.00448407
0.00445441
1.42866e-05
0.00012271
0.000253441
0.00036824
0.00046407
0.000543849
0.000610018
0.000665476
0.000712734
0.000753713
0.000789926
0.000822788
0.000853419
0.000882706
0.000911315
0.000939558
0.000967739
0.000996091
0.00102477
0.00105386
0.00108345
0.00111359
0.00114429
0.00117556
0.0012074
0.00123978
0.00127269
0.00130609
0.00133995
0.00137423
0.00140889
0.0014439
0.00147921
0.0015148
0.00155064
0.0015867
0.00162294
0.00165937
0.00169605
0.00173302
0.00177029
0.00180761
0.00184496
0.00188231
0.00191961
0.00195694
0.00199433
0.00203181
0.00206939
0.00210709
0.00214493
0.00218291
0.00222107
0.00225941
0.00229794
0.00233669
0.00237567
0.00241488
0.00245435
0.00249408
0.00253409