/*--------------------------------*- C++ -*----------------------------------*\
  =========                 |
  \\      /  F ield         | OpenFOAM: The Open Source CFD Toolbox
   \\    /   O peration     | Website:  https://openfoam.org
    \\  /    A nd           | Version:  8
     \\/     M anipulation  |
\*---------------------------------------------------------------------------*/
FoamFile
{
    version     2.0;
    format      ascii;
    class       volScalarField;
    location    "220";
    object      p;
}
// * * * * * * * * * * * * * * * * * * * * * * * * * * * * * * * * * * * * * //

dimensions      [0 2 -2 0 0 0 0];

internalField   nonuniform List<scalar> 
12225
(
-1.86959
-4.05818
-5.1582
-5.47888
-5.66021
-5.82932
-5.96097
-6.05629
-6.13311
-6.20079
-6.26115
-6.3165
-6.36693
-6.41415
-6.45853
-6.49575
-6.54191
-6.51527
-5.03302
-5.80149
-5.96195
-5.86974
-5.85726
-5.92519
-6.00285
-6.06875
-6.12858
-6.1863
-6.24127
-6.29265
-6.34114
-6.38702
-6.43129
-6.47055
-6.51586
-6.54712
-5.43416
-5.41917
-5.54653
-5.62492
-5.71987
-5.84011
-5.94744
-6.03244
-6.10446
-6.17008
-6.23054
-6.28591
-6.33765
-6.38611
-6.43282
-6.47564
-6.52423
-6.56661
-5.31222
-5.25532
-5.49693
-5.65527
-5.75705
-5.86332
-5.96112
-6.0413
-6.11024
-6.17358
-6.23248
-6.28692
-6.33808
-6.38633
-6.43308
-6.47758
-6.52571
-6.57326
-5.30188
-5.32633
-5.55439
-5.69597
-5.77963
-5.87174
-5.96305
-6.0409
-6.10863
-6.17109
-6.22951
-6.28388
-6.33516
-6.38384
-6.43117
-6.47718
-6.52538
-6.57522
-5.35983
-5.40878
-5.58307
-5.70699
-5.78854
-5.87641
-5.96454
-6.04117
-6.1083
-6.17022
-6.22827
-6.28255
-6.33386
-6.38279
-6.43042
-6.47716
-6.52517
-6.57492
-5.42015
-5.4644
-5.59959
-5.71593
-5.7997
-5.88388
-5.96787
-6.04261
-6.10884
-6.17003
-6.22754
-6.28156
-6.33275
-6.38174
-6.42943
-6.47636
-6.52388
-6.57245
-5.47366
-5.51131
-5.62128
-5.72958
-5.81259
-5.89223
-5.97171
-6.04427
-6.10944
-6.16981
-6.22668
-6.28034
-6.33132
-6.38023
-6.42778
-6.47451
-6.52125
-6.56823
-5.52337
-5.5565
-5.64742
-5.74538
-5.82547
-5.90087
-5.97608
-6.04626
-6.11016
-6.16958
-6.2257
-6.27887
-6.3295
-6.37813
-6.42533
-6.47154
-6.51727
-6.56251
-5.57038
-5.59963
-5.67515
-5.76235
-5.83856
-5.91012
-5.98126
-6.0488
-6.11118
-6.16947
-6.22469
-6.2772
-6.32731
-6.37546
-6.42209
-6.46753
-6.51208
-6.55557
-5.61464
-5.64013
-5.70332
-5.78048
-5.85216
-5.91998
-5.98722
-6.05193
-6.11255
-6.16955
-6.22373
-6.2754
-6.32481
-6.37229
-6.41816
-6.46264
-6.50591
-6.54772
-5.65261
-5.67495
-5.72913
-5.79795
-5.86505
-5.92943
-5.99325
-6.0553
-6.11413
-6.16982
-6.22291
-6.27367
-6.32229
-6.369
-6.41403
-6.45752
-6.49958
-6.53992
-5.68766
-5.70737
-5.75418
-5.81554
-5.87802
-5.93899
-5.99958
-6.05898
-6.11594
-6.17023
-6.22214
-6.2719
-6.31963
-6.36547
-6.40957
-6.45201
-6.49286
-6.53185
-5.72437
-5.74156
-5.78155
-5.83554
-5.89284
-5.94997
-6.00706
-6.06351
-6.11825
-6.17082
-6.2213
-6.2698
-6.31639
-6.36112
-6.40408
-6.44529
-6.48478
-6.52234
-5.76149
-5.77627
-5.81024
-5.8573
-5.90915
-5.9621
-6.01551
-6.06878
-6.12098
-6.17153
-6.2203
-6.26728
-6.31247
-6.35586
-6.39746
-6.43727
-6.4753
-6.51137
-5.79704
-5.80966
-5.83857
-5.8795
-5.92603
-5.97469
-6.02438
-6.07438
-6.12384
-6.17213
-6.21895
-6.26418
-6.30774
-6.34958
-6.38966
-6.42795
-6.46445
-6.49904
-5.82812
-5.83899
-5.86392
-5.89984
-5.94168
-5.98636
-6.03255
-6.07942
-6.12616
-6.1721
-6.21685
-6.2602
-6.302
-6.34217
-6.38064
-6.41737
-6.45234
-6.48549
-5.85037
-5.86001
-5.88226
-5.9147
-5.95311
-5.9947
-6.03809
-6.08238
-6.12677
-6.17059
-6.21341
-6.25495
-6.29505
-6.33359
-6.37049
-6.40572
-6.43925
-6.47106
-5.8569
-5.86605
-5.88725
-5.91837
-5.95543
-5.99567
-6.03766
-6.08054
-6.12352
-6.16597
-6.20741
-6.24759
-6.28634
-6.32355
-6.35916
-6.39313
-6.42547
-6.45619
-5.84057
-5.85034
-5.87292
-5.90598
-5.94494
-5.98659
-6.02949
-6.07295
-6.11624
-6.15872
-6.19998
-6.2398
-6.27807
-6.3147
-6.34967
-6.38298
-6.41463
-6.44469
-5.81359
-5.82438
-5.84963
-5.88663
-5.92937
-5.97383
-6.01886
-6.06403
-6.10859
-6.15186
-6.19354
-6.23355
-6.27184
-6.30836
-6.34313
-6.37616
-6.40751
-6.43725
-5.77828
-5.79009
-5.81943
-5.86299
-5.91123
-5.95917
-6.00692
-6.05458
-6.10106
-6.14557
-6.18802
-6.2285
-6.26703
-6.30363
-6.33834
-6.37125
-6.40242
-6.43197
-5.73767
-5.74956
-5.784
-5.83725
-5.89276
-5.94467
-5.9955
-6.04588
-6.09432
-6.14013
-6.18348
-6.22459
-6.26351
-6.3003
-6.33506
-6.36795
-6.39906
-6.42852
-5.69392
-5.7049
-5.74665
-5.81105
-5.87319
-5.92982
-5.98539
-6.03919
-6.08938
-6.13613
-6.18018
-6.22179
-6.26099
-6.29788
-6.33265
-6.36549
-6.39652
-6.42586
-5.64697
-5.65247
-5.71511
-5.79329
-5.8552
-5.91341
-5.97449
-6.03279
-6.08525
-6.13323
-6.17818
-6.22038
-6.25985
-6.29682
-6.33158
-6.36434
-6.39528
-6.42459
-5.60364
-5.56731
-5.67683
-5.78778
-5.84999
-5.90523
-5.96739
-6.02707
-6.08023
-6.12888
-6.17453
-6.21727
-6.25707
-6.29424
-6.3291
-6.36192
-6.39289
-6.4222
-5.61786
-5.4589
-5.5878
-5.74186
-5.83193
-5.90325
-5.97213
-6.03298
-6.08571
-6.13393
-6.17914
-6.22134
-6.26057
-6.29717
-6.33149
-6.36381
-6.39437
-6.4234
-5.74104
-5.56066
-5.57481
-5.64692
-5.73526
-5.83443
-5.92507
-5.99879
-6.06043
-6.1155
-6.16575
-6.21146
-6.2532
-6.29163
-6.32726
-6.36054
-6.39193
-6.42205
-5.44842
-6.0395
-6.12832
-6.00404
-5.94967
-5.97679
-6.02371
-6.0669
-6.10839
-6.15051
-6.19194
-6.23121
-6.26811
-6.30278
-6.33529
-6.36578
-6.39449
-6.42318
-2.45909
-4.22239
-5.22707
-5.52618
-5.67532
-5.81891
-5.93289
-6.01379
-6.07796
-6.13476
-6.18596
-6.23193
-6.27355
-6.31172
-6.34696
-6.37905
-6.40786
-6.43161
-7.31181
-7.31187
-7.31234
-7.31329
-7.31459
-7.31621
-7.31815
-7.3204
-7.323
-7.32597
-7.32933
-7.33313
-7.3374
-7.34218
-7.34753
-7.3535
-7.36015
-7.36754
-7.37575
-7.38489
-7.39502
-7.40614
-7.4181
-7.43065
-7.4437
-7.45763
-7.47275
-7.48862
-7.50458
-7.52099
-7.53964
-7.56108
-7.58497
-7.61273
-7.64328
-7.67198
-7.69598
-7.71592
-7.73363
-7.75382
-7.77781
-7.80326
-7.82983
-7.85713
-7.88496
-7.91318
-7.94165
-7.9703
-7.99901
-8.0277
-8.05629
-8.08468
-8.11279
-8.14054
-8.16781
-8.19452
-8.22056
-8.24583
-8.2702
-8.29357
-8.3158
-8.33678
-8.35634
-8.37437
-8.39069
-8.40518
-8.41765
-8.42796
-8.43592
-8.44138
-8.44413
-8.44403
-8.44085
-8.43444
-8.42459
-8.41113
-8.39384
-8.37256
-8.34706
-8.31718
-8.28269
-8.24343
-8.19919
-8.14981
-8.09509
-8.0349
-7.96903
-7.89733
-7.81955
-7.73549
-7.645
-7.54799
-7.44449
-7.33451
-7.21805
-7.09495
-6.96486
-6.82735
-6.6823
-6.52982
-6.36996
-6.20269
-6.02801
-5.84587
-5.65627
-5.45921
-5.25468
-5.04274
-4.82342
-4.59681
-4.36297
-4.12203
-3.87409
-3.61931
-3.35783
-3.08985
-2.81555
-2.53517
-2.24897
-1.95722
-1.66022
-1.35826
-1.05168
-0.7408
-0.426004
-0.107681
0.213735
0.53779
0.863992
1.19187
1.52092
1.85067
2.18058
2.51009
2.83866
3.16575
3.49078
3.81321
4.1325
4.44814
4.75962
5.06643
5.3681
5.66412
5.95407
6.23754
6.51415
6.78358
7.04553
7.29975
7.54605
7.78427
8.01429
8.23604
8.4495
8.65469
8.8516
9.04051
9.22167
9.39493
9.56026
9.71783
9.86785
10.0106
10.1462
10.2751
10.3974
10.5134
10.6233
10.7275
10.8262
10.9196
11.0082
11.0923
11.1725
11.2495
11.3251
11.401
11.4899
11.5874
-7.30997
-7.31044
-7.31114
-7.31193
-7.31263
-7.31334
-7.31427
-7.31557
-7.31729
-7.31946
-7.32212
-7.32526
-7.3289
-7.33307
-7.33779
-7.34311
-7.34908
-7.35574
-7.36316
-7.37137
-7.38034
-7.38997
-7.4002
-7.41109
-7.42296
-7.43603
-7.44992
-7.46457
-7.48068
-7.49933
-7.51929
-7.53877
-7.5582
-7.57611
-7.59235
-7.60997
-7.63221
-7.65979
-7.69185
-7.72383
-7.75238
-7.78016
-7.80782
-7.83561
-7.86361
-7.89182
-7.92018
-7.94865
-7.97716
-8.00563
-8.03399
-8.06217
-8.09007
-8.11762
-8.14473
-8.17129
-8.19721
-8.22238
-8.24669
-8.27003
-8.29227
-8.31328
-8.33292
-8.35106
-8.36754
-8.38222
-8.39493
-8.40552
-8.4138
-8.41963
-8.4228
-8.42316
-8.42049
-8.41464
-8.4054
-8.3926
-8.37602
-8.35549
-8.3308
-8.30177
-8.2682
-8.22991
-8.1867
-8.13839
-8.08481
-8.02579
-7.96117
-7.89078
-7.81443
-7.73195
-7.6432
-7.54803
-7.4463
-7.33787
-7.2226
-7.10033
-6.97094
-6.83448
-6.69095
-6.54021
-6.38218
-6.21679
-6.04403
-5.86384
-5.67622
-5.48114
-5.27864
-5.06873
-4.85147
-4.62692
-4.39515
-4.15628
-3.91042
-3.6577
-3.39828
-3.13233
-2.86005
-2.58167
-2.29742
-2.00758
-1.71243
-1.41228
-1.10745
-0.798261
-0.485085
-0.168307
0.151658
0.474354
0.799307
1.12603
1.45405
1.78288
2.11199
2.44086
2.76892
3.09563
3.42044
3.74279
4.06216
4.37803
4.6899
4.99726
5.29961
5.59647
5.88741
6.17199
6.44985
6.72064
6.98407
7.23987
7.48784
7.72781
7.95965
8.18328
8.39867
8.60588
8.80488
8.99551
9.17783
9.35213
9.51855
9.67725
9.82843
9.97232
10.1091
10.2392
10.3626
10.4797
10.5907
10.696
10.7957
10.8902
10.9798
11.065
11.1464
11.2247
11.3019
11.3793
11.4701
11.5614
-7.30474
-7.30614
-7.3081
-7.30962
-7.31051
-7.31114
-7.31185
-7.31284
-7.31423
-7.31609
-7.31843
-7.32129
-7.32468
-7.32862
-7.33315
-7.33829
-7.34408
-7.35056
-7.35776
-7.36571
-7.37441
-7.38382
-7.39393
-7.40483
-7.41671
-7.42975
-7.44395
-7.45936
-7.47627
-7.49488
-7.5147
-7.53487
-7.55497
-7.57425
-7.59253
-7.61106
-7.63143
-7.65463
-7.68066
-7.70806
-7.73534
-7.76261
-7.78995
-7.81741
-7.84501
-7.87276
-7.90063
-7.92858
-7.95656
-7.9845
-8.01235
-8.04002
-8.06745
-8.09454
-8.12122
-8.14739
-8.17295
-8.19779
-8.22181
-8.2449
-8.26693
-8.28777
-8.30729
-8.32535
-8.3418
-8.3565
-8.36928
-8.38
-8.38846
-8.39452
-8.39798
-8.39868
-8.39643
-8.39105
-8.38234
-8.37013
-8.35421
-8.3344
-8.31051
-8.28234
-8.2497
-8.21241
-8.17027
-8.1231
-8.07071
-8.01295
-7.94964
-7.88059
-7.80566
-7.72468
-7.63755
-7.54413
-7.44427
-7.3378
-7.22452
-7.10426
-6.97691
-6.8425
-6.70102
-6.55241
-6.39657
-6.23345
-6.06299
-5.88515
-5.69992
-5.50727
-5.30723
-5.09982
-4.88509
-4.66308
-4.43389
-4.1976
-3.95433
-3.70421
-3.44739
-3.18403
-2.91433
-2.6385
-2.35678
-2.06944
-1.77674
-1.47899
-1.17651
-0.869621
-0.558679
-0.244065
0.0738244
0.394537
0.717611
1.04256
1.36893
1.69623
2.02395
2.35156
2.67851
3.00427
3.32828
3.65001
3.96892
4.28451
4.59626
4.90368
5.20627
5.50354
5.79506
6.08039
6.35916
6.63101
6.89564
7.15279
7.40223
7.64377
7.87729
8.10268
8.31985
8.52878
8.72951
8.92207
9.10662
9.2833
9.45216
9.61329
9.76686
9.91308
10.0522
10.1844
10.3099
10.429
10.542
10.6491
10.7505
10.8467
10.938
11.0248
11.1079
11.1879
11.2672
11.3456
11.4375
11.5159
-7.29672
-7.29919
-7.30295
-7.30587
-7.30767
-7.3089
-7.30998
-7.31115
-7.31257
-7.31437
-7.31661
-7.31934
-7.32259
-7.32639
-7.33078
-7.33577
-7.3414
-7.3477
-7.3547
-7.36241
-7.37085
-7.38004
-7.38999
-7.4008
-7.4126
-7.42549
-7.43951
-7.45468
-7.47103
-7.48853
-7.50701
-7.52619
-7.54587
-7.56583
-7.58601
-7.60672
-7.62843
-7.65141
-7.67575
-7.70115
-7.72713
-7.75351
-7.78017
-7.80707
-7.83416
-7.86142
-7.88882
-7.91631
-7.94384
-7.97135
-7.99878
-8.02607
-8.05313
-8.07989
-8.10625
-8.13214
-8.15746
-8.1821
-8.20595
-8.2289
-8.25082
-8.2716
-8.2911
-8.30918
-8.32569
-8.34049
-8.35342
-8.36431
-8.37301
-8.37934
-8.38312
-8.38419
-8.38235
-8.37742
-8.36921
-8.35755
-8.34223
-8.32306
-8.29986
-8.27244
-8.24059
-8.20414
-8.1629
-8.11667
-8.06529
-8.00857
-7.94634
-7.87842
-7.80464
-7.72485
-7.63893
-7.54675
-7.44816
-7.34302
-7.23114
-7.11238
-6.98664
-6.85388
-6.71407
-6.56715
-6.41304
-6.25168
-6.08302
-5.90702
-5.72364
-5.53289
-5.33476
-5.12929
-4.91651
-4.69649
-4.46928
-4.23499
-3.99373
-3.74561
-3.49079
-3.22942
-2.9617
-2.68784
-2.40807
-2.12264
-1.83182
-1.53591
-1.23522
-0.930087
-0.620853
-0.307892
0.00840107
0.327587
0.64921
0.972804
1.29791
1.62404
1.95069
2.27732
2.60341
2.92842
3.25181
3.57304
3.89159
4.20695
4.51861
4.82606
5.12881
5.42639
5.71833
6.00423
6.28368
6.55635
6.82193
7.08011
7.33068
7.57346
7.80831
8.0351
8.25376
8.46427
8.66666
8.86099
9.04743
9.22606
9.3969
9.56
9.71553
9.86366
10.0046
10.1386
10.2658
10.3866
10.5011
10.6097
10.7127
10.8102
10.9028
10.9909
11.0752
11.1563
11.2364
11.3142
11.4035
11.4674
-7.288
-7.29156
-7.2973
-7.30183
-7.30479
-7.30691
-7.30866
-7.31032
-7.31209
-7.31413
-7.31653
-7.31939
-7.32273
-7.32662
-7.33108
-7.33614
-7.34185
-7.34823
-7.35531
-7.36313
-7.3717
-7.38105
-7.39121
-7.40224
-7.41423
-7.42725
-7.44134
-7.4565
-7.47268
-7.48981
-7.50776
-7.5264
-7.54564
-7.56544
-7.58585
-7.60703
-7.62911
-7.65214
-7.67607
-7.70076
-7.72604
-7.75176
-7.77784
-7.80422
-7.83084
-7.85766
-7.88464
-7.91174
-7.93889
-7.96605
-7.99315
-8.02013
-8.0469
-8.0734
-8.09954
-8.12523
-8.15036
-8.17486
-8.19859
-8.22146
-8.24333
-8.26409
-8.28359
-8.30171
-8.3183
-8.3332
-8.34626
-8.35733
-8.36622
-8.37278
-8.37683
-8.37819
-8.37668
-8.37211
-8.36431
-8.35307
-8.33821
-8.31954
-8.29687
-8.27
-8.23875
-8.20293
-8.16236
-8.11683
-8.06619
-8.01024
-7.94882
-7.88174
-7.80884
-7.72997
-7.64498
-7.55374
-7.45612
-7.35195
-7.24112
-7.12348
-6.99893
-6.8674
-6.72884
-6.58318
-6.43034
-6.27028
-6.10292
-5.92825
-5.74622
-5.55683
-5.36008
-5.15601
-4.94464
-4.72603
-4.50024
-4.26738
-4.02753
-3.78082
-3.5274
-3.26743
-3.00108
-2.72858
-2.45014
-2.16602
-1.87647
-1.58179
-1.28229
-0.978301
-0.670176
-0.358273
-0.0429994
0.275226
0.595943
0.918721
1.24308
1.56855
1.89459
2.22071
2.54636
2.87102
3.19415
3.51522
3.8337
4.14909
4.46088
4.76855
5.07161
5.36957
5.662
5.94846
6.22857
6.50196
6.76833
7.0274
7.27893
7.52274
7.75866
7.98659
8.20644
8.41818
8.6218
8.81738
9.00506
9.18491
9.35697
9.5213
9.67804
9.82738
9.9695
10.1046
10.233
10.3548
10.4704
10.58
10.6838
10.7823
10.8757
10.9645
11.0493
11.1307
11.2106
11.2866
11.372
11.4225
-7.28032
-7.28493
-7.29239
-7.29843
-7.30257
-7.30565
-7.3082
-7.31051
-7.31281
-7.31528
-7.31805
-7.32121
-7.32484
-7.32899
-7.3337
-7.33901
-7.34497
-7.35161
-7.35897
-7.36709
-7.37598
-7.38568
-7.3962
-7.40759
-7.41989
-7.43314
-7.44736
-7.46256
-7.47869
-7.4957
-7.51351
-7.53201
-7.55115
-7.57091
-7.59132
-7.61245
-7.63438
-7.6571
-7.68059
-7.70474
-7.72946
-7.75466
-7.78026
-7.80619
-7.8324
-7.85885
-7.88548
-7.91225
-7.93911
-7.96599
-7.99284
-8.01958
-8.04615
-8.07247
-8.09845
-8.12401
-8.14905
-8.17347
-8.19715
-8.22
-8.24187
-8.26266
-8.28222
-8.30042
-8.31711
-8.33214
-8.34535
-8.35659
-8.36568
-8.37246
-8.37675
-8.37838
-8.37715
-8.37289
-8.36541
-8.35452
-8.34003
-8.32175
-8.29949
-8.27306
-8.24226
-8.20692
-8.16684
-8.12184
-8.07174
-8.01636
-7.95553
-7.88907
-7.81682
-7.73863
-7.65434
-7.56383
-7.46693
-7.36353
-7.25348
-7.13667
-7.013
-6.88238
-6.74474
-6.60001
-6.44813
-6.28902
-6.12264
-5.94895
-5.76791
-5.57954
-5.38382
-5.18077
-4.97044
-4.75288
-4.52814
-4.29632
-4.05752
-3.81185
-3.55945
-3.30048
-3.03513
-2.7636
-2.48611
-2.2029
-1.91425
-1.62042
-1.32173
-1.01851
-0.71111
-0.399899
-0.0852756
0.232336
0.552504
0.874798
1.19875
1.52386
1.84962
2.17551
2.501
2.82557
3.14868
3.4698
3.78842
4.10403
4.4161
4.72411
5.02758
5.32601
5.61896
5.906
6.18676
6.46086
6.72799
6.98787
7.24025
7.48493
7.72175
7.95059
8.17136
8.38403
8.58858
8.78506
8.97357
9.15423
9.32707
9.4922
9.64973
9.79985
9.94275
10.0786
10.2077
10.3303
10.4465
10.5567
10.6611
10.76
10.8539
10.943
11.028
11.1091
11.1881
11.2617
11.3435
11.3822
-7.27495
-7.28043
-7.28922
-7.2965
-7.3017
-7.3057
-7.30904
-7.31204
-7.31494
-7.31793
-7.32116
-7.32475
-7.32876
-7.33328
-7.33835
-7.34401
-7.35032
-7.35732
-7.36503
-7.37349
-7.38274
-7.39279
-7.40367
-7.4154
-7.42799
-7.44146
-7.45581
-7.47105
-7.48715
-7.50408
-7.52178
-7.5402
-7.55929
-7.57904
-7.59944
-7.62053
-7.64231
-7.66479
-7.68793
-7.71169
-7.736
-7.76079
-7.78601
-7.81159
-7.83748
-7.86363
-7.89
-7.91653
-7.94317
-7.96986
-7.99653
-8.02314
-8.04959
-8.07581
-8.10172
-8.12724
-8.15225
-8.17666
-8.20037
-8.22325
-8.24519
-8.26606
-8.28572
-8.30404
-8.32086
-8.33605
-8.34943
-8.36084
-8.37013
-8.37712
-8.38163
-8.38348
-8.3825
-8.37849
-8.37127
-8.36066
-8.34646
-8.32847
-8.30652
-8.28041
-8.24994
-8.21494
-8.17522
-8.13059
-8.08088
-8.0259
-7.96548
-7.89945
-7.82766
-7.74993
-7.66614
-7.57614
-7.47977
-7.37691
-7.26743
-7.15122
-7.02818
-6.89821
-6.76124
-6.61719
-6.46599
-6.30758
-6.14191
-5.96893
-5.78864
-5.601
-5.40604
-5.20375
-4.9942
-4.7774
-4.55345
-4.32239
-4.08436
-3.83945
-3.5878
-3.32957
-3.06494
-2.79411
-2.5173
-2.23475
-1.94672
-1.65348
-1.35535
-1.05265
-0.745734
-0.434975
-0.120765
0.196462
0.516307
0.838325
1.16207
1.48703
1.81268
2.13851
2.46401
2.78863
3.11186
3.43317
3.75204
4.06795
4.38037
4.68879
4.9927
5.29164
5.58514
5.87279
6.15418
6.42896
6.69679
6.95738
7.2105
7.45592
7.69348
7.92307
8.14458
8.35797
8.56323
8.76039
8.94956
9.1308
9.30422
9.46991
9.62801
9.77867
9.92211
10.0585
10.1881
10.3111
10.4277
10.5383
10.643
10.7422
10.8362
10.9254
11.0101
11.0907
11.1683
11.2394
11.3179
11.3462
-7.27261
-7.27869
-7.28837
-7.29656
-7.30261
-7.30739
-7.31146
-7.31511
-7.3186
-7.32212
-7.32584
-7.32988
-7.33432
-7.33924
-7.3447
-7.35076
-7.35744
-7.3648
-7.37287
-7.38168
-7.39125
-7.40162
-7.41279
-7.42478
-7.4376
-7.45125
-7.46573
-7.48103
-7.49714
-7.51402
-7.53165
-7.55
-7.56903
-7.58873
-7.60909
-7.63011
-7.65178
-7.67409
-7.69701
-7.72051
-7.74454
-7.76906
-7.794
-7.81933
-7.845
-7.87096
-7.89715
-7.92353
-7.95004
-7.97663
-8.00323
-8.02978
-8.0562
-8.08241
-8.10833
-8.13387
-8.15893
-8.18342
-8.2072
-8.23019
-8.25224
-8.27323
-8.29303
-8.3115
-8.32848
-8.34383
-8.35738
-8.36897
-8.37844
-8.38562
-8.39032
-8.39237
-8.39158
-8.38777
-8.38075
-8.37034
-8.35634
-8.33856
-8.31682
-8.29092
-8.26067
-8.22589
-8.1864
-8.142
-8.09252
-8.03779
-7.97764
-7.91188
-7.84037
-7.76295
-7.67947
-7.58979
-7.49377
-7.39127
-7.28218
-7.16637
-7.04376
-6.91423
-6.77772
-6.63413
-6.48341
-6.32549
-6.16032
-5.98786
-5.80808
-5.62098
-5.42656
-5.22483
-5.01583
-4.7996
-4.5762
-4.34571
-4.10823
-3.86386
-3.61275
-3.35505
-3.09094
-2.8206
-2.54427
-2.26216
-1.97455
-1.68171
-1.38394
-1.08157
-0.774953
-0.464461
-0.150496
0.166528
0.486207
0.808113
1.13179
1.45673
1.78241
2.1083
2.4339
2.75868
3.08211
3.40367
3.72285
4.03911
4.35193
4.66079
4.96518
5.26463
5.55869
5.84691
6.1289
6.40428
6.67273
6.93395
7.18768
7.43372
7.6719
7.90208
8.12419
8.33815
8.54396
8.74165
8.93131
9.11301
9.28686
9.45296
9.61146
9.76252
9.90632
10.0431
10.173
10.2962
10.4131
10.5239
10.6288
10.7281
10.8221
10.911
10.9953
11.075
11.1512
11.2197
11.2951
11.3144
-7.27351
-7.27994
-7.29007
-7.29882
-7.30547
-7.31087
-7.31552
-7.31973
-7.32374
-7.32775
-7.33192
-7.33638
-7.34123
-7.34653
-7.35236
-7.35877
-7.3658
-7.37349
-7.38186
-7.39097
-7.40082
-7.41143
-7.42283
-7.43501
-7.44799
-7.46177
-7.47634
-7.4917
-7.50782
-7.52469
-7.54228
-7.56059
-7.57957
-7.59922
-7.61953
-7.64048
-7.66206
-7.68425
-7.70704
-7.73038
-7.75425
-7.7786
-7.80339
-7.82858
-7.85412
-7.87998
-7.90609
-7.93241
-7.95889
-7.98546
-8.01207
-8.03864
-8.06511
-8.09138
-8.11738
-8.14302
-8.16819
-8.19279
-8.21671
-8.23984
-8.26204
-8.28319
-8.30315
-8.32178
-8.33893
-8.35444
-8.36816
-8.37992
-8.38954
-8.39687
-8.40172
-8.40392
-8.40327
-8.39959
-8.3927
-8.38241
-8.36853
-8.35086
-8.32923
-8.30343
-8.27329
-8.23861
-8.19922
-8.15493
-8.10556
-8.05095
-7.99091
-7.92528
-7.85391
-7.77664
-7.69333
-7.60382
-7.50799
-7.4057
-7.29683
-7.18127
-7.05891
-6.92967
-6.79344
-6.65017
-6.49976
-6.34217
-6.17733
-6.00522
-5.8258
-5.63908
-5.44503
-5.2437
-5.03509
-4.81927
-4.59627
-4.36619
-4.1291
-3.88513
-3.6344
-3.37707
-3.11331
-2.84331
-2.56729
-2.28548
-1.99813
-1.70553
-1.40798
-1.10579
-0.799338
-0.488975
-0.175124
0.141831
0.461466
0.783379
1.1071
1.43212
1.7579
2.08393
2.4097
2.73469
3.0584
3.38028
3.69982
4.01647
4.32972
4.63903
4.94391
5.24386
5.53843
5.82718
6.1097
6.38562
6.6546
6.91634
7.17058
7.41712
7.65577
7.88642
8.10896
8.32335
8.52956
8.72764
8.91764
9.09967
9.27381
9.44019
9.59894
9.75025
9.89428
10.0312
10.1613
10.2848
10.4018
10.5126
10.6175
10.7167
10.8105
10.8991
10.9828
11.0615
11.1361
11.202
11.2746
11.2862
-7.27755
-7.28407
-7.29427
-7.30323
-7.31024
-7.31604
-7.32113
-7.32576
-7.33019
-7.33459
-7.33914
-7.34395
-7.34913
-7.35475
-7.36089
-7.36758
-7.37489
-7.38283
-7.39146
-7.40078
-7.41083
-7.42163
-7.43317
-7.44549
-7.45857
-7.47242
-7.48704
-7.50242
-7.51855
-7.5354
-7.55297
-7.57125
-7.5902
-7.60982
-7.63009
-7.651
-7.67253
-7.69467
-7.71739
-7.74067
-7.76447
-7.78875
-7.81348
-7.83862
-7.86414
-7.88998
-7.9161
-7.94245
-7.96897
-7.99561
-8.0223
-8.04897
-8.07554
-8.10194
-8.12808
-8.15386
-8.17919
-8.20395
-8.22804
-8.25133
-8.2737
-8.29502
-8.31515
-8.33393
-8.35123
-8.36689
-8.38074
-8.39263
-8.40237
-8.4098
-8.41474
-8.41701
-8.41643
-8.41281
-8.40596
-8.3957
-8.38184
-8.36418
-8.34255
-8.31675
-8.28659
-8.2519
-8.21249
-8.16818
-8.1188
-8.06417
-8.00412
-7.9385
-7.86713
-7.78989
-7.7066
-7.61715
-7.52138
-7.41916
-7.31039
-7.19494
-7.07272
-6.94362
-6.80756
-6.66446
-6.51424
-6.35685
-6.19223
-6.02035
-5.84119
-5.65472
-5.46095
-5.25989
-5.05158
-4.83604
-4.61333
-4.38354
-4.14674
-3.90304
-3.65259
-3.39552
-3.132
-2.86224
-2.58642
-2.30479
-2.0176
-1.72514
-1.4277
-1.1256
-0.819205
-0.508888
-0.19505
0.121914
0.44159
0.763567
1.08739
1.41255
1.7385
2.06473
2.39073
2.716
3.04002
3.36226
3.68217
3.99924
4.31291
4.62267
4.92801
5.22843
5.52348
5.8127
6.09569
6.37207
6.64148
6.90365
7.1583
7.40522
7.64424
7.87522
8.09807
8.31275
8.51924
8.71756
8.90778
9.09
9.2643
9.43084
9.58972
9.74115
9.88528
10.0223
10.1525
10.276
10.393
10.5038
10.6086
10.7076
10.8011
10.8892
10.9722
11.0497
11.1226
11.1861
11.256
11.2611
-7.28439
-7.29077
-7.3007
-7.30958
-7.31669
-7.3227
-7.32803
-7.33295
-7.33765
-7.34233
-7.34714
-7.35221
-7.35763
-7.36349
-7.36983
-7.37673
-7.38421
-7.39233
-7.4011
-7.41056
-7.42073
-7.43162
-7.44325
-7.45563
-7.46875
-7.48264
-7.49727
-7.51265
-7.52877
-7.54561
-7.56317
-7.58142
-7.60036
-7.61997
-7.64024
-7.66115
-7.68268
-7.70482
-7.72755
-7.75083
-7.77464
-7.79894
-7.8237
-7.84889
-7.87445
-7.90036
-7.92657
-7.95302
-7.97966
-8.00642
-8.03325
-8.06007
-8.0868
-8.11337
-8.13968
-8.16564
-8.19114
-8.21608
-8.24034
-8.26379
-8.28632
-8.30779
-8.32805
-8.34696
-8.36437
-8.38013
-8.39406
-8.406
-8.41579
-8.42325
-8.4282
-8.43046
-8.42984
-8.42618
-8.41927
-8.40893
-8.39497
-8.37722
-8.35547
-8.32954
-8.29926
-8.26444
-8.22489
-8.18044
-8.13093
-8.07617
-8.016
-7.95026
-7.87879
-7.80145
-7.71809
-7.62857
-7.53276
-7.43052
-7.32174
-7.2063
-7.08411
-6.95506
-6.81907
-6.67606
-6.52595
-6.36867
-6.20419
-6.03246
-5.85347
-5.66718
-5.47361
-5.27276
-5.06466
-4.84933
-4.62685
-4.39727
-4.16069
-3.91721
-3.66696
-3.41008
-3.14675
-2.87714
-2.60146
-2.31995
-2.03287
-1.74048
-1.4431
-1.14106
-0.834688
-0.52438
-0.210507
0.106514
0.426286
0.748373
1.07235
1.39768
1.72382
2.05027
2.37654
2.70212
3.02647
3.34907
3.66937
3.98683
4.30091
4.61109
4.91686
5.21771
5.51317
5.80281
6.08619
6.36294
6.63271
6.8952
7.15015
7.39734
7.6366
7.86779
8.09084
8.30568
8.5123
8.71074
8.90106
9.08334
9.2577
9.42425
9.58317
9.73459
9.87872
10.0157
10.1459
10.2693
10.3862
10.4969
10.6015
10.7002
10.7933
10.8808
10.9629
11.0393
11.1105
11.1716
11.239
11.2386
-7.29354
-7.2996
-7.30899
-7.31753
-7.32452
-7.33053
-7.33593
-7.34095
-7.34578
-7.35061
-7.35556
-7.36077
-7.36631
-7.37227
-7.37872
-7.3857
-7.39327
-7.40145
-7.41027
-7.41978
-7.42998
-7.4409
-7.45255
-7.46494
-7.47807
-7.49195
-7.50657
-7.52194
-7.53805
-7.55489
-7.57244
-7.5907
-7.60965
-7.62929
-7.64958
-7.67053
-7.69211
-7.7143
-7.73708
-7.76042
-7.7843
-7.80869
-7.83355
-7.85884
-7.88453
-7.91058
-7.93693
-7.96353
-7.99032
-8.01726
-8.04425
-8.07125
-8.09816
-8.1249
-8.15138
-8.17751
-8.20317
-8.22826
-8.25266
-8.27625
-8.29888
-8.32044
-8.34078
-8.35974
-8.37719
-8.39295
-8.40687
-8.41878
-8.42851
-8.43588
-8.44073
-8.44286
-8.4421
-8.43827
-8.43118
-8.42064
-8.40648
-8.3885
-8.36651
-8.34035
-8.30982
-8.27474
-8.23495
-8.19025
-8.14049
-8.0855
-8.0251
-7.95915
-7.88748
-7.80996
-7.72644
-7.63678
-7.54084
-7.4385
-7.32964
-7.21414
-7.09191
-6.96285
-6.82687
-6.68388
-6.53381
-6.37661
-6.21222
-6.0406
-5.86173
-5.67559
-5.48217
-5.28149
-5.07357
-4.85844
-4.63614
-4.40676
-4.17037
-3.92709
-3.67702
-3.42033
-3.15716
-2.88771
-2.61217
-2.33077
-2.04377
-1.75146
-1.45413
-1.15212
-0.845761
-0.535433
-0.221513
0.0955853
0.415458
0.737684
1.06182
1.38732
1.71365
2.04034
2.36687
2.69274
3.01742
3.34035
3.66101
3.97884
4.29329
4.60385
4.90999
5.2112
5.50702
5.79699
6.08069
6.35772
6.62776
6.89047
7.14561
7.39296
7.63234
7.86363
8.08675
8.30163
8.50828
8.70672
8.89702
9.07925
9.25356
9.42004
9.57888
9.73021
9.87424
10.0111
10.1411
10.2644
10.3812
10.4916
10.5959
10.6943
10.7869
10.8738
10.955
11.03
11.0996
11.1585
11.2235
11.2186
-7.30445
-7.31006
-7.31869
-7.32669
-7.33336
-7.33918
-7.34447
-7.34943
-7.35423
-7.35904
-7.36399
-7.36918
-7.37472
-7.38067
-7.38709
-7.39405
-7.40158
-7.40974
-7.41854
-7.42802
-7.43819
-7.44908
-7.4607
-7.47306
-7.48616
-7.50002
-7.51462
-7.52998
-7.54608
-7.56291
-7.58048
-7.59876
-7.61775
-7.63743
-7.65778
-7.67879
-7.70043
-7.72269
-7.74556
-7.769
-7.793
-7.81752
-7.84253
-7.86799
-7.89385
-7.92006
-7.94657
-7.97334
-8.0003
-8.02739
-8.05455
-8.0817
-8.10876
-8.13565
-8.16226
-8.1885
-8.21426
-8.23942
-8.26388
-8.2875
-8.31015
-8.3317
-8.352
-8.3709
-8.38825
-8.4039
-8.41767
-8.42942
-8.43895
-8.44611
-8.45072
-8.45259
-8.45155
-8.44742
-8.44002
-8.42915
-8.41465
-8.39632
-8.37398
-8.34746
-8.31657
-8.28114
-8.24099
-8.19596
-8.14586
-8.09055
-8.02984
-7.9636
-7.89167
-7.8139
-7.73016
-7.6403
-7.54419
-7.44169
-7.33271
-7.21712
-7.09482
-6.96572
-6.82971
-6.68674
-6.53671
-6.37957
-6.21527
-6.04377
-5.86503
-5.67904
-5.4858
-5.28531
-5.07758
-4.86266
-4.64057
-4.41141
-4.17524
-3.93218
-3.68233
-3.42584
-3.16286
-2.89358
-2.61819
-2.33692
-2.05004
-1.75781
-1.46055
-1.15858
-0.852251
-0.541902
-0.227948
0.0892166
0.409171
0.731529
1.0558
1.38144
1.70793
2.03482
2.3616
2.68773
3.01269
3.33593
3.65689
3.97503
4.2898
4.60066
4.9071
5.2086
5.50468
5.79489
6.0788
6.35602
6.62619
6.88901
7.14422
7.39161
7.631
7.86227
8.08533
8.30014
8.50668
8.70501
8.89517
9.07727
9.25141
9.41773
9.57639
9.72755
9.87139
10.0081
10.1379
10.2609
10.3775
10.4876
10.5916
10.6896
10.7816
10.8677
10.948
11.0218
11.0897
11.1465
11.2092
11.2006
-7.31658
-7.32165
-7.32941
-7.3367
-7.34288
-7.34833
-7.35332
-7.35804
-7.36264
-7.36726
-7.37203
-7.37707
-7.38245
-7.38826
-7.39456
-7.40139
-7.40881
-7.41686
-7.42556
-7.43494
-7.44503
-7.45584
-7.46739
-7.47968
-7.49274
-7.50655
-7.52112
-7.53646
-7.55254
-7.56938
-7.58695
-7.60525
-7.62427
-7.64399
-7.66439
-7.68547
-7.70719
-7.72957
-7.75255
-7.77614
-7.80028
-7.82496
-7.85012
-7.87573
-7.90173
-7.92809
-7.95473
-7.98162
-8.00869
-8.03589
-8.06313
-8.09036
-8.11748
-8.1444
-8.17103
-8.19726
-8.22299
-8.2481
-8.27247
-8.29598
-8.31849
-8.33986
-8.35996
-8.37864
-8.39574
-8.41111
-8.42458
-8.43599
-8.44518
-8.45196
-8.45618
-8.45764
-8.45618
-8.45161
-8.44376
-8.43245
-8.41749
-8.3987
-8.37591
-8.34894
-8.31761
-8.28174
-8.24117
-8.19573
-8.14524
-8.08956
-8.0285
-7.96194
-7.88971
-7.81168
-7.7277
-7.63763
-7.54134
-7.4387
-7.3296
-7.21392
-7.09157
-6.96244
-6.82645
-6.68351
-6.53355
-6.37651
-6.21234
-6.04099
-5.86243
-5.67665
-5.48363
-5.28338
-5.07591
-4.86125
-4.63944
-4.41055
-4.17466
-3.93187
-3.68229
-3.42605
-3.16331
-2.89425
-2.61906
-2.33798
-2.05126
-1.75917
-1.46203
-1.16015
-0.853863
-0.543541
-0.229593
0.0875859
0.407589
0.730021
1.05437
1.38008
1.70668
2.03373
2.36069
2.68704
3.01221
3.33567
3.65686
3.97523
4.29022
4.60131
4.90794
5.20963
5.50587
5.79621
6.08021
6.35749
6.62768
6.89049
7.14565
7.39295
7.63222
7.86334
8.08622
8.30084
8.50718
8.70528
8.89521
9.07706
9.25095
9.41702
9.57542
9.72633
9.86992
10.0064
10.1359
10.2587
10.3749
10.4848
10.5884
10.6858
10.7773
10.8627
10.9419
11.0145
11.0808
11.1356
11.1961
11.1846
-7.32947
-7.33396
-7.34078
-7.34725
-7.35279
-7.35768
-7.36219
-7.36646
-7.37066
-7.37491
-7.37935
-7.38407
-7.38916
-7.39471
-7.40076
-7.40738
-7.41459
-7.42245
-7.43099
-7.44022
-7.45017
-7.46086
-7.4723
-7.4845
-7.49746
-7.5112
-7.52571
-7.541
-7.55705
-7.57386
-7.59142
-7.60973
-7.62876
-7.64852
-7.66898
-7.69013
-7.71195
-7.73442
-7.75752
-7.7812
-7.80544
-7.8302
-7.85544
-7.88111
-7.90716
-7.93354
-7.9602
-7.98708
-8.01412
-8.04127
-8.06845
-8.09559
-8.12259
-8.14937
-8.17583
-8.20187
-8.22737
-8.25223
-8.27632
-8.29951
-8.32168
-8.34269
-8.3624
-8.38067
-8.39733
-8.41224
-8.42523
-8.43616
-8.44483
-8.4511
-8.45478
-8.45571
-8.45371
-8.4486
-8.4402
-8.42834
-8.41284
-8.39352
-8.37021
-8.34272
-8.3109
-8.27455
-8.23353
-8.18765
-8.13676
-8.08069
-8.0193
-7.95242
-7.87992
-7.80164
-7.71745
-7.62719
-7.53076
-7.42801
-7.31884
-7.20313
-7.08078
-6.95169
-6.81578
-6.67295
-6.52314
-6.36627
-6.20232
-6.0312
-5.85292
-5.66742
-5.47472
-5.27479
-5.06766
-4.85336
-4.63191
-4.40339
-4.16787
-3.92543
-3.67621
-3.42031
-3.15789
-2.88913
-2.61424
-2.33343
-2.04695
-1.7551
-1.45815
-1.15642
-0.850257
-0.540057
-0.226194
0.0909186
0.410897
0.733302
1.05762
1.38331
1.70995
2.03706
2.36412
2.69057
3.01586
3.33944
3.66075
3.97924
4.29435
4.60553
4.91225
5.21398
5.51025
5.80058
6.08454
6.36173
6.63181
6.89447
7.14944
7.39651
7.63553
7.86638
8.08898
8.30328
8.5093
8.70707
8.89668
9.07819
9.25176
9.4175
9.57559
9.72618
9.86947
10.0056
10.1349
10.2573
10.3732
10.4827
10.5859
10.6829
10.7737
10.8583
10.9366
11.0079
11.0727
11.1257
11.184
11.1704
-7.34329
-7.3472
-7.35308
-7.35864
-7.36336
-7.36749
-7.37127
-7.37485
-7.3784
-7.38206
-7.38595
-7.39017
-7.39481
-7.39994
-7.40561
-7.41189
-7.41879
-7.42637
-7.43465
-7.44364
-7.45338
-7.46387
-7.47512
-7.48716
-7.49997
-7.51356
-7.52794
-7.54311
-7.55905
-7.57577
-7.59326
-7.61151
-7.6305
-7.65022
-7.67067
-7.69181
-7.71361
-7.73605
-7.7591
-7.78272
-7.80688
-7.83154
-7.85665
-7.88218
-7.90806
-7.93425
-7.9607
-7.98735
-8.01413
-8.04101
-8.06788
-8.09469
-8.12134
-8.14773
-8.17378
-8.19937
-8.2244
-8.24876
-8.27232
-8.29497
-8.31658
-8.33701
-8.35613
-8.37378
-8.38983
-8.40411
-8.41647
-8.42675
-8.43478
-8.44041
-8.44345
-8.44374
-8.4411
-8.43537
-8.42636
-8.4139
-8.39782
-8.37794
-8.35409
-8.32608
-8.29376
-8.25695
-8.2155
-8.16922
-8.11797
-8.06158
-7.9999
-7.93278
-7.86006
-7.7816
-7.69727
-7.60692
-7.51042
-7.40766
-7.29852
-7.18288
-7.06064
-6.9317
-6.79597
-6.65337
-6.50382
-6.34726
-6.18363
-6.01289
-5.83499
-5.64992
-5.45765
-5.25818
-5.05153
-4.83771
-4.61675
-4.38873
-4.15371
-3.91177
-3.66303
-3.4076
-3.14564
-2.87732
-2.60285
-2.32245
-2.03636
-1.74484
-1.4482
-1.14676
-0.840879
-0.530929
-0.217291
0.0996373
0.419451
0.741679
1.0658
1.39134
1.71789
2.04493
2.37194
2.69835
3.02361