/*--------------------------------*- C++ -*----------------------------------*\
  =========                 |
  \\      /  F ield         | OpenFOAM: The Open Source CFD Toolbox
   \\    /   O peration     | Website:  https://openfoam.org
    \\  /    A nd           | Version:  8
     \\/     M anipulation  |
\*---------------------------------------------------------------------------*/
FoamFile
{
    version     2.0;
    format      ascii;
    class       surfaceScalarField;
    location    "220";
    object      phi;
}
// * * * * * * * * * * * * * * * * * * * * * * * * * * * * * * * * * * * * * //

dimensions      [0 3 -1 0 0 0 0];

internalField   nonuniform List<scalar> 
24170
(
3.12901e-06
5.94007e-08
3.04663e-06
8.23797e-08
2.97353e-06
7.30925e-08
2.9049e-06
6.86329e-08
2.84057e-06
6.43278e-08
2.78325e-06
5.73217e-08
2.73393e-06
4.9321e-08
2.69198e-06
4.19478e-08
2.65631e-06
3.56681e-08
2.62587e-06
3.04384e-08
2.59968e-06
2.61879e-08
2.5769e-06
2.27761e-08
2.55688e-06
2.00263e-08
2.53902e-06
1.78611e-08
2.52295e-06
1.60623e-08
2.50763e-06
1.53179e-08
2.49362e-06
1.40112e-08
1.91779e-08
2.47444e-06
3.45306e-06
2.35856e-08
3.457e-06
7.84384e-08
3.45054e-06
7.95532e-08
3.43909e-06
8.00891e-08
3.42431e-06
7.91052e-08
3.40706e-06
7.4571e-08
3.38784e-06
6.85381e-08
3.36732e-06
6.2472e-08
3.34617e-06
5.68126e-08
3.32499e-06
5.16175e-08
3.30426e-06
4.69159e-08
3.28426e-06
4.27779e-08
3.26518e-06
3.91075e-08
3.24706e-06
3.59795e-08
3.22999e-06
3.31309e-08
3.21393e-06
3.13808e-08
3.1992e-06
2.87391e-08
3.05884e-08
3.18779e-06
3.66816e-06
1.79426e-08
3.6792e-06
6.73973e-08
3.68543e-06
7.33256e-08
3.68946e-06
7.60543e-08
3.69106e-06
7.75065e-08
3.69009e-06
7.55359e-08
3.68696e-06
7.16731e-08
3.68212e-06
6.73107e-08
3.67597e-06
6.29613e-08
3.66883e-06
5.87526e-08
3.66099e-06
5.47587e-08
3.65269e-06
5.10802e-08
3.64411e-06
4.76859e-08
3.63542e-06
4.46686e-08
3.62668e-06
4.18744e-08
3.61827e-06
3.9785e-08
3.60962e-06
3.73937e-08
3.68775e-08
3.60333e-06
3.92585e-06
1.74821e-08
3.93592e-06
5.73268e-08
3.94257e-06
6.66739e-08
3.94811e-06
7.05129e-08
3.95253e-06
7.3091e-08
3.95548e-06
7.25864e-08
3.95715e-06
7.00017e-08
3.95778e-06
6.66749e-08
3.95757e-06
6.3172e-08
3.95666e-06
5.96624e-08
3.95518e-06
5.6234e-08
3.95327e-06
5.2998e-08
3.951e-06
4.99558e-08
3.94848e-06
4.71859e-08
3.94574e-06
4.46083e-08
3.94307e-06
4.24619e-08
3.94015e-06
4.03073e-08
3.88024e-08
3.93823e-06
4.2082e-06
1.64096e-08
4.21598e-06
4.95416e-08
4.22168e-06
6.09756e-08
4.22679e-06
6.5407e-08
4.23154e-06
6.83417e-08
4.23551e-06
6.86135e-08
4.23868e-06
6.6832e-08
4.24116e-06
6.4196e-08
4.24305e-06
6.12782e-08
4.24445e-06
5.82655e-08
4.24543e-06
5.52541e-08
4.24607e-06
5.23528e-08
4.24644e-06
4.95881e-08
4.2466e-06
4.70195e-08
4.2466e-06
4.46111e-08
4.24659e-06
4.24688e-08
4.24651e-06
4.03927e-08
3.85145e-08
4.2468e-06
4.51071e-06
1.47869e-08
4.51688e-06
4.33683e-08
4.52213e-06
5.57265e-08
4.52695e-06
6.05893e-08
4.53166e-06
6.3628e-08
4.53591e-06
6.43633e-08
4.53959e-06
6.31566e-08
4.54275e-06
6.10329e-08
4.54547e-06
5.85533e-08
4.54782e-06
5.5917e-08
4.54985e-06
5.32303e-08
4.5516e-06
5.05941e-08
4.55314e-06
4.80522e-08
4.55451e-06
4.56477e-08
4.55575e-06
4.33687e-08
4.55697e-06
4.12518e-08
4.55817e-06
3.91964e-08
3.71736e-08
4.55951e-06
4.83433e-06
1.31767e-08
4.83963e-06
3.80705e-08
4.84475e-06
5.06014e-08
4.84946e-06
5.58849e-08
4.85409e-06
5.89939e-08
4.85841e-06
6.00444e-08
4.86228e-06
5.92826e-08
4.86575e-06
5.75658e-08
4.86887e-06
5.54358e-08
4.87168e-06
5.31029e-08
4.87423e-06
5.06815e-08
4.87656e-06
4.8266e-08
4.8787e-06
4.59091e-08
4.8807e-06
4.36441e-08
4.8826e-06
4.14702e-08
4.88446e-06
3.93919e-08
4.88631e-06
3.73508e-08
3.52859e-08
4.88819e-06
5.18105e-06
1.17102e-08
5.18575e-06
3.33643e-08
5.19075e-06
4.5599e-08
5.19541e-06
5.12328e-08
5.19999e-06
5.44071e-08
5.20435e-06
5.56838e-08
5.20835e-06
5.5285e-08
5.212e-06
5.39134e-08
5.21536e-06
5.20811e-08
5.21845e-06
5.00087e-08
5.22132e-06
4.78158e-08
5.22399e-06
4.55931e-08
5.2265e-06
4.33968e-08
5.22889e-06
4.12562e-08
5.23118e-06
3.91753e-08
5.23343e-06
3.71472e-08
5.23564e-06
3.51336e-08
3.30837e-08
5.23785e-06
5.55269e-06
1.03548e-08
5.55689e-06
2.91682e-08
5.56169e-06
4.07919e-08
5.5663e-06
4.66238e-08
5.57087e-06
4.98419e-08
5.57527e-06
5.12777e-08
5.57938e-06
5.11789e-08
5.58318e-06
5.01116e-08
5.58672e-06
4.85448e-08
5.59002e-06
4.6707e-08
5.59311e-06
4.47207e-08
5.59603e-06
4.26743e-08
5.5988e-06
4.06251e-08
5.60146e-06
3.86019e-08
5.60402e-06
3.66116e-08
5.60652e-06
3.46466e-08
5.60897e-06
3.26808e-08
3.06842e-08
5.61137e-06
5.95104e-06
9.09176e-09
5.95479e-06
2.5421e-08
5.95936e-06
3.6219e-08
5.96391e-06
4.20685e-08
5.96846e-06
4.52944e-08
5.9729e-06
4.68326e-08
5.97711e-06
4.69749e-08
5.98104e-06
4.61749e-08
5.98474e-06
4.48492e-08
5.98822e-06
4.32273e-08
5.99151e-06
4.14339e-08
5.99462e-06
3.95547e-08
5.9976e-06
3.76471e-08
6.00046e-06
3.57408e-08
6.00323e-06
3.38461e-08
6.00592e-06
3.1959e-08
6.00853e-06
3.00634e-08
2.81485e-08
6.01107e-06
6.37798e-06
7.92067e-09
6.38135e-06
2.20582e-08
6.38567e-06
3.18909e-08
6.39016e-06
3.75831e-08
6.39468e-06
4.07702e-08
6.39915e-06
4.23604e-08
6.40344e-06
4.26853e-08
6.4075e-06
4.21139e-08
6.41135e-06
4.10062e-08
6.41499e-06
3.95846e-08
6.41845e-06
3.79739e-08
6.42175e-06
3.6257e-08
6.4249e-06
3.44902e-08
6.42794e-06
3.27051e-08
6.43087e-06
3.09155e-08
6.4337e-06
2.91227e-08
6.43645e-06
2.7319e-08
2.55085e-08
6.43909e-06
5.74176e-06
6.99451e-09
5.74434e-06
1.94755e-08
5.74781e-06
2.84218e-08
5.75154e-06
3.38554e-08
5.75534e-06
3.69678e-08
5.75913e-06
3.85683e-08
5.76281e-06
3.9003e-08
5.76633e-06
3.85929e-08
5.76969e-06
3.76514e-08
5.77289e-06
3.63879e-08
5.77593e-06
3.49248e-08
5.77885e-06
3.33427e-08
5.78164e-06
3.16966e-08
5.78433e-06
3.00194e-08
5.78691e-06
2.83277e-08
5.78941e-06
2.66275e-08
5.79181e-06
2.49168e-08
2.32099e-08
5.79411e-06
6.99914e-06
6.01096e-09
7.00187e-06
1.67424e-08
7.00563e-06
2.46577e-08
7.0098e-06
2.96887e-08
7.01412e-06
3.26477e-08
7.01847e-06
3.42142e-08
7.02275e-06
3.47295e-08
7.02687e-06
3.44682e-08
7.03083e-06
3.36943e-08
7.03462e-06
3.25981e-08
7.03825e-06
3.12969e-08
7.04172e-06
2.98673e-08
7.04506e-06
2.83624e-08
7.04826e-06
2.6816e-08
7.05134e-06
2.52474e-08
7.0543e-06
2.36674e-08
7.05714e-06
2.20791e-08
2.05045e-08
7.05984e-06
8.53188e-06
4.97763e-09
8.53474e-06
1.38864e-08
8.53877e-06
2.06262e-08
8.54336e-06
2.50899e-08
8.54822e-06
2.77915e-08
8.55317e-06
2.92606e-08
8.55809e-06
2.98104e-08
8.56289e-06
2.96716e-08
8.56752e-06
2.90579e-08
8.57199e-06
2.81336e-08
8.57628e-06
2.70066e-08
8.5804e-06
2.57482e-08
8.58435e-06
2.4408e-08
8.58815e-06
2.30199e-08
8.59179e-06
2.16052e-08
8.59528e-06
2.01785e-08
8.59861e-06
1.87469e-08
1.73367e-08
8.60178e-06
1.04003e-05
3.90371e-09
1.04033e-05
1.09268e-08
1.04075e-05
1.63491e-08
1.04125e-05
2.00679e-08
1.0418e-05
2.23828e-08
1.04235e-05
2.36707e-08
1.04292e-05
2.41922e-08
1.04347e-05
2.41346e-08
1.04401e-05
2.36623e-08
1.04453e-05
2.29081e-08
1.04504e-05
2.19652e-08
1.04552e-05
2.08968e-08
1.04599e-05
1.97474e-08
1.04643e-05
1.8549e-08
1.04686e-05
1.73236e-08
1.04727e-05
1.60875e-08
1.04766e-05
1.48503e-08
1.36397e-08
1.04803e-05
1.26779e-05
2.79407e-09
1.2681e-05
7.85805e-09
1.26855e-05
1.18248e-08
1.26909e-05
1.46171e-08
1.26969e-05
1.63944e-08
1.27032e-05
1.7396e-08
1.27096e-05
1.78115e-08
1.27159e-05
1.77804e-08
1.27222e-05
1.74198e-08
1.27283e-05
1.68275e-08
1.27341e-05
1.60758e-08
1.27398e-05
1.5216e-08
1.27453e-05
1.42853e-08
1.27505e-05
1.33109e-08
1.27555e-05
1.23132e-08
1.27603e-05
1.1308e-08
1.27649e-05
1.03052e-08
9.33109e-09
1.27692e-05
1.54543e-05
1.63798e-09
1.54576e-05
4.63407e-09
1.54624e-05
6.99579e-09
1.54683e-05
8.67763e-09
1.5475e-05
9.75292e-09
1.5482e-05
1.03467e-08
1.54893e-05
1.05684e-08
1.54965e-05
1.0502e-08
1.55037e-05
1.02177e-08
1.55108e-05
9.77529e-09
1.55176e-05
9.2213e-09
1.55243e-05
8.59023e-09
1.55306e-05
7.90801e-09
1.55368e-05
7.19462e-09
1.55426e-05
6.46563e-09
1.55482e-05
5.73381e-09
1.55535e-05
5.00711e-09
4.30823e-09
1.55585e-05
1.88389e-05
3.95334e-10
1.88424e-05
1.1303e-09
1.88477e-05
1.68841e-09
1.88543e-05
2.05878e-09
1.88618e-05
2.26077e-09
1.88698e-05
2.32201e-09
1.88781e-05
2.26439e-09
1.88865e-05
2.10763e-09
1.88949e-05
1.8718e-09
1.89031e-05
1.57521e-09
1.89111e-05
1.23314e-09
1.89188e-05
8.58237e-10
1.89262e-05
4.61374e-10
1.89334e-05
5.1842e-11
1.89402e-05
-3.62392e-10
1.89467e-05
-7.74097e-10
1.89529e-05
-1.17902e-09
-1.55993e-09
1.89588e-05
2.29648e-05
-1.03506e-09
2.29688e-05
-2.94256e-09
2.2975e-05
-4.51692e-09
2.29828e-05
-5.71576e-09
2.29916e-05
-6.55992e-09
2.30011e-05
-7.13579e-09
2.30109e-05
-7.53071e-09
2.30208e-05
-7.79928e-09
2.30306e-05
-7.97829e-09
2.30403e-05
-8.09889e-09
2.30497e-05
-8.18493e-09
2.30588e-05
-8.25081e-09
2.30676e-05
-8.30456e-09
2.3076e-05
-8.35038e-09
2.3084e-05
-8.39041e-09
2.30917e-05
-8.42464e-09
2.3099e-05
-8.4538e-09
-8.46726e-09
2.31059e-05
1.68118e-05
-2.15794e-09
1.6815e-05
-6.11439e-09
1.68198e-05
-9.34768e-09
1.68258e-05
-1.17141e-08
1.68325e-05
-1.32728e-08
1.68397e-05
-1.42517e-08
1.6847e-05
-1.48384e-08
1.68543e-05
-1.51366e-08
1.68615e-05
-1.52253e-08
1.68686e-05
-1.51765e-08
1.68755e-05
-1.50429e-08
1.68821e-05
-1.48576e-08
1.68884e-05
-1.46412e-08
1.68945e-05
-1.44077e-08
1.69003e-05
-1.41655e-08
1.69057e-05
-1.39194e-08
1.6911e-05
-1.36726e-08
-1.34188e-08
1.69159e-05
1.46356e-05
-3.23639e-09
1.46387e-05
-9.20227e-09
1.46434e-05
-1.40629e-08
1.46492e-05
-1.74587e-08
1.46555e-05
-1.95608e-08
1.4662e-05
-2.08188e-08
1.46687e-05
-2.15029e-08
1.46753e-05
-2.17492e-08
1.46818e-05
-2.16886e-08
1.4688e-05
-2.14376e-08
1.46941e-05
-2.10719e-08
1.46999e-05
-2.06361e-08
1.47054e-05
-2.01606e-08
1.47106e-05
-1.96662e-08
1.47156e-05
-1.91665e-08
1.47204e-05
-1.86688e-08
1.47249e-05
-1.8178e-08
-1.76901e-08
1.47292e-05
1.27411e-05
-4.2463e-09
1.27443e-05
-1.23309e-08
1.27491e-05
-1.88943e-08
1.27547e-05
-2.31056e-08
1.27607e-05
-2.55424e-08
1.27669e-05
-2.69784e-08
1.27731e-05
-2.76766e-08
1.27791e-05
-2.77861e-08
1.27849e-05
-2.75142e-08
1.27905e-05
-2.70261e-08
1.27958e-05
-2.64115e-08
1.28009e-05
-2.57219e-08
1.28058e-05
-2.49943e-08
1.28104e-05
-2.42545e-08
1.28147e-05
-2.35179e-08
1.28188e-05
-2.27926e-08
1.28227e-05
-2.20837e-08
-2.13882e-08
1.28264e-05
1.10918e-05
-5.09014e-09
1.1095e-05
-1.55536e-08
1.11001e-05
-2.40209e-08
1.11057e-05
-2.87308e-08
1.11115e-05
-3.12785e-08
1.11173e-05
-3.27928e-08
1.1123e-05
-3.34053e-08
1.11285e-05
-3.32982e-08
1.11338e-05
-3.27738e-08
1.11388e-05
-3.20296e-08
1.11435e-05
-3.11573e-08
1.1148e-05
-3.02136e-08
1.11523e-05
-2.92417e-08
1.11563e-05
-2.827e-08
1.11601e-05
-2.73139e-08
1.11637e-05
-2.63814e-08
1.11671e-05
-2.54764e-08
-2.45968e-08
1.11703e-05
9.65582e-06
-5.69727e-09
9.65925e-06
-1.89781e-08
9.66459e-06
-2.93666e-08
9.67009e-06
-3.42277e-08
9.67564e-06
-3.68366e-08
9.6812e-06
-3.83517e-08
9.68654e-06
-3.87375e-08
9.69156e-06
-3.83251e-08
9.6963e-06
-3.75175e-08
9.70078e-06
-3.65087e-08
9.705e-06
-3.53777e-08
9.70897e-06
-3.4184e-08
9.71271e-06
-3.29752e-08
9.71622e-06
-3.17807e-08
9.71952e-06
-3.06156e-08
9.72262e-06
-2.94869e-08
9.72554e-06
-2.8397e-08
-2.73419e-08
9.72829e-06
8.40532e-06
-5.66773e-09
8.40964e-06
-2.32933e-08
8.41487e-06
-3.46017e-08
8.4199e-06
-3.92551e-08
8.42526e-06
-4.22019e-08
8.43067e-06
-4.37587e-08
8.43575e-06
-4.38218e-08
8.44046e-06
-4.30297e-08
8.44483e-06
-4.18849e-08
8.44888e-06
-4.05638e-08
8.45264e-06
-3.9136e-08
8.45612e-06
-3.76637e-08
8.45934e-06
-3.61966e-08
8.46232e-06
-3.47625e-08
8.46508e-06
-3.33764e-08
8.46764e-06
-3.20445e-08
8.47001e-06
-3.07688e-08
-2.95458e-08
8.47221e-06
7.31455e-06
-2.92976e-09
7.32119e-06
-2.99366e-08
7.32674e-06
-4.01526e-08
7.33169e-06
-4.42061e-08
7.33709e-06
-4.75988e-08
7.34241e-06
-4.90784e-08
7.34728e-06
-4.86982e-08
7.35169e-06
-4.74409e-08
7.35567e-06
-4.5861e-08
7.35922e-06
-4.41175e-08
7.36238e-06
-4.22904e-08
7.36517e-06
-4.04526e-08
7.36763e-06
-3.86567e-08
7.36979e-06
-3.69269e-08
7.37169e-06
-3.52783e-08
7.37336e-06
-3.37137e-08
7.37482e-06
-3.22334e-08
-3.08282e-08
7.37611e-06
6.36245e-06
4.68635e-09
6.37189e-06
-3.93785e-08
6.37932e-06
-4.75795e-08
6.38596e-06
-5.08465e-08
6.39224e-06
-5.38801e-08
6.39755e-06
-5.43903e-08
6.40184e-06
-5.29916e-08
6.40532e-06
-5.092e-08
6.40812e-06
-4.86592e-08
6.4103e-06
-4.63006e-08
6.41193e-06
-4.39211e-08
6.41308e-06
-4.1598e-08
6.4138e-06
-3.93819e-08
6.41417e-06
-3.72911e-08
6.41423e-06
-3.53393e-08
6.41404e-06
-3.35227e-08
6.41365e-06
-3.18422e-08
-3.02779e-08
6.41309e-06
5.5412e-06
8.94879e-09
5.55032e-06
-4.85016e-08
5.55834e-06
-5.55977e-08
5.56604e-06
-5.85482e-08
5.5725e-06
-6.03411e-08
5.57683e-06
-5.87143e-08
5.57907e-06
-5.52322e-08
5.57963e-06
-5.14783e-08
5.57887e-06
-4.79045e-08
5.57708e-06
-4.45143e-08
5.57449e-06
-4.13262e-08
5.57127e-06
-3.83831e-08
5.56759e-06
-3.56932e-08
5.56354e-06
-3.32481e-08
5.55925e-06
-3.1045e-08
5.55479e-06
-2.90667e-08
5.55026e-06
-2.73151e-08
-2.5741e-08
5.54573e-06
4.86004e-06
-2.34875e-08
4.86539e-06
-5.38441e-08
4.86524e-06
-5.54524e-08
4.86217e-06
-5.54787e-08
4.857e-06
-5.51705e-08
4.8495e-06
-5.12133e-08
4.8398e-06
-4.55353e-08
4.82841e-06
-4.0084e-08
4.81583e-06
-3.533e-08
4.80255e-06
-3.12345e-08
4.78895e-06
-2.77267e-08
4.77531e-06
-2.47438e-08
4.76182e-06
-2.22078e-08
4.74862e-06
-2.00477e-08
4.7358e-06
-1.82172e-08
4.72341e-06
-1.66833e-08
4.71158e-06
-1.54837e-08
-1.51379e-08
4.70098e-06
4.17919e-06
4.12534e-06
4.06989e-06
4.01441e-06
3.95924e-06
3.90803e-06
3.86249e-06
3.82241e-06
3.78708e-06
3.75585e-06
3.72812e-06
3.70337e-06
3.68117e-06
3.66112e-06
3.6429e-06
3.62622e-06
3.61073e-06
3.5956e-06
1.34976e-08
-1.35344e-08
2.68003e-08
-1.33561e-08
3.44644e-08
-7.70879e-09
3.56125e-08
-1.18865e-09
3.0818e-08
4.75805e-09
2.12582e-08
9.52356e-09
8.17428e-09
1.30525e-08
-7.43e-09
1.55715e-08
-2.48484e-08
1.73926e-08
-4.36346e-08
1.87589e-08
-6.34951e-08
1.98402e-08
-8.42735e-08
2.0756e-08
-1.05862e-07
2.15726e-08
-1.28201e-07
2.23208e-08
-1.51226e-07
2.30118e-08
-1.74888e-07
2.36483e-08
-1.99133e-07
2.42342e-08
-2.23925e-07
2.47803e-08
-2.49242e-07
2.53065e-08
-2.751e-07
2.58461e-08
-3.01566e-07
2.64557e-08
-3.28763e-07
2.71822e-08
-3.56805e-07
2.80312e-08
-3.85833e-07
2.90115e-08
-4.16007e-07
3.01623e-08
-4.47496e-07
3.14729e-08
-4.8039e-07
3.28852e-08
-5.14826e-07
3.44229e-08
-5.49199e-07
3.43667e-08
-5.81082e-07
3.18762e-08
-6.11971e-07
3.08847e-08
-6.43385e-07
3.1411e-08
-6.76531e-07
3.31419e-08
-7.15378e-07
3.88444e-08
-7.59448e-07
4.4065e-08
-8.04364e-07
4.49115e-08
-8.48732e-07
4.43601e-08
-8.97545e-07
4.88058e-08
-9.40668e-07
4.31121e-08
-9.73745e-07
3.30667e-08
-1.01147e-06
3.77133e-08
-1.05188e-06
4.03995e-08
-1.09375e-06
4.18613e-08
-1.13631e-06
4.25479e-08
-1.17917e-06
4.28528e-08
-1.22214e-06
4.29554e-08
-1.2651e-06
4.29455e-08
-1.30797e-06
4.28666e-08
-1.35073e-06
4.27431e-08
-1.39333e-06
4.25889e-08
-1.43575e-06
4.24113e-08
-1.47798e-06
4.22151e-08
-1.51999e-06
4.2002e-08
-1.56178e-06
4.17732e-08
-1.60332e-06
4.1528e-08
-1.6446e-06
4.12658e-08
-1.6856e-06
4.0985e-08
-1.7263e-06
4.06844e-08
-1.76668e-06
4.0362e-08
-1.80671e-06
4.00159e-08
-1.84637e-06
3.96443e-08
-1.88563e-06
3.92455e-08
-1.92446e-06
3.88176e-08
-1.96284e-06
3.8359e-08
-2.00072e-06
3.78681e-08
-2.03808e-06
3.73433e-08
-2.07487e-06
3.67834e-08
-2.11108e-06
3.61871e-08
-2.14664e-06
3.55538e-08
-2.18154e-06
3.48821e-08
-2.21572e-06
3.41719e-08
-2.24915e-06
3.3422e-08
-2.2818e-06
3.26324e-08
-2.31361e-06
3.18023e-08
-2.34455e-06
3.09319e-08
-2.37459e-06
3.00206e-08
-2.40367e-06
2.90692e-08
-2.43177e-06
2.80775e-08
-2.45883e-06
2.70466e-08
-2.48482e-06
2.59758e-08
-2.5097e-06
2.48666e-08
-2.53344e-06
2.37185e-08
-2.55598e-06
2.2533e-08
-2.5773e-06
2.13079e-08
-2.59735e-06
2.00446e-08
-2.61611e-06
1.87402e-08
-2.6335e-06
1.73959e-08
-2.64951e-06
1.60088e-08
-2.66408e-06
1.45793e-08
-2.67716e-06
1.31056e-08
-2.68872e-06
1.15799e-08
-2.6987e-06
9.99534e-09
-2.70703e-06
8.34026e-09
-2.71362e-06
6.60152e-09
-2.71838e-06
4.76191e-09
-2.72119e-06
2.81734e-09
-2.722e-06
8.15818e-10
-2.72091e-06
-1.08269e-09
-2.71811e-06
-2.80249e-09
-2.71368e-06
-4.43686e-09
-2.70764e-06
-6.05854e-09
-2.69997e-06
-7.68946e-09
-2.69067e-06
-9.33533e-09
-2.67972e-06
-1.09991e-08
-2.66709e-06
-1.26767e-08
-2.65277e-06
-1.43699e-08
-2.63674e-06
-1.60732e-08
-2.619e-06
-1.77896e-08
-2.59952e-06
-1.95137e-08
-2.5783e-06
-2.12493e-08
-2.55532e-06
-2.29903e-08
-2.5306e-06
-2.47406e-08
-2.50411e-06
-2.64933e-08
-2.47585e-06
-2.82518e-08
-2.44583e-06
-3.00086e-08
-2.41405e-06
-3.17667e-08
-2.3805e-06
-3.35186e-08
-2.3452e-06
-3.52669e-08
-2.30815e-06
-3.70046e-08
-2.26937e-06
-3.87333e-08
-2.22888e-06
-4.04476e-08
-2.18669e-06
-4.21471e-08
-2.14282e-06
-4.3825e-08
-2.09729e-06
-4.54793e-08
-2.05012e-06
-4.71036e-08
-2.00135e-06
-4.86994e-08
-1.95099e-06
-5.02703e-08
-1.89908e-06
-5.18075e-08
-1.84567e-06
-5.33053e-08
-1.7908e-06
-5.47575e-08
-1.73453e-06
-5.61538e-08
-1.6769e-06
-5.75018e-08
-1.61798e-06
-5.88007e-08
-1.55783e-06
-6.00356e-08
-1.49652e-06
-6.12081e-08
-1.43413e-06
-6.23094e-08
-1.37073e-06
-6.33449e-08
-1.3064e-06
-6.43041e-08
-1.24124e-06
-6.5192e-08
-1.17531e-06
-6.59953e-08
-1.1087e-06
-6.67099e-08
-1.0415e-06
-6.73241e-08
-9.738e-07
-6.78339e-08
-9.05708e-07
-6.82364e-08
-8.37327e-07
-6.85321e-08
-7.6877e-07
-6.87195e-08
-7.00137e-07
-6.87992e-08
-6.31542e-07
-6.87699e-08
-5.63087e-07
-6.86335e-08
-4.94886e-07
-6.83884e-08
-4.27037e-07
-6.80398e-08
-3.59652e-07
-6.75852e-08
-2.92823e-07
-6.70329e-08
-2.26658e-07
-6.63764e-08
-1.61243e-07
-6.56296e-08
-9.66138e-08
-6.48472e-08
-3.27867e-08
-6.40454e-08
3.02964e-08
-6.32987e-08
9.25673e-08
-6.24765e-08
1.53718e-07
-6.13472e-08
2.13554e-07
-6.00216e-08
2.72022e-07
-5.86464e-08
3.2911e-07
-5.72551e-08
3.84809e-07
-5.58597e-08
4.39122e-07
-5.44644e-08
4.92052e-07
-5.30748e-08
5.43609e-07
-5.16931e-08
5.93803e-07
-5.0324e-08
6.42646e-07
-4.89657e-08
6.90147e-07
-4.76167e-08
7.36302e-07
-4.62639e-08
7.8109e-07
-4.48903e-08
8.24449e-07
-4.34527e-08
8.66241e-07
-4.18798e-08
9.06183e-07
-4.00161e-08
9.43667e-07
-3.75496e-08
9.7733e-07
-3.37136e-08
1.00378e-06
-2.64905e-08
1.01341e-06
-9.67031e-09
3.57648e-08
9.77594e-07
8.11095e-09
-2.16765e-08
8.75953e-09
-1.40415e-08
4.73363e-09
-3.70775e-09
-2.45604e-09
5.98035e-09
-1.23148e-08
1.45989e-08
-2.47579e-08
2.19493e-08
-3.9695e-08
2.79742e-08
-5.69179e-08
3.27787e-08
-7.61172e-08
3.65784e-08
-9.69931e-08
3.96206e-08
-1.19294e-07
4.21292e-08
-1.4283e-07
4.42797e-08
-1.67463e-07
4.61955e-08
-1.9311e-07
4.79568e-08
-2.1972e-07
4.96136e-08
-2.47279e-07
5.11989e-08
-2.75792e-07
5.27397e-08
-3.05284e-07
5.42648e-08
-3.35793e-07
5.58085e-08
-3.67368e-07
5.74131e-08
-4.00047e-07
5.91278e-08
-4.33872e-07
6.09982e-08
-4.68899e-07
6.30513e-08
-5.05191e-07
6.52928e-08
-5.42721e-07
6.76843e-08
-5.81357e-07
7.00991e-08
-6.20811e-07
7.23318e-08
-6.60532e-07
7.41362e-08
-7.01165e-07
7.4994e-08
-7.44231e-07
7.49375e-08
-7.8871e-07
7.53606e-08
-8.33848e-07
7.65451e-08
-8.79216e-07
7.85071e-08
-9.22325e-07
8.19506e-08
-9.63646e-07
8.53815e-08
-1.00581e-06
8.70668e-08
-1.04925e-06
8.7802e-08
-1.0888e-06
8.83435e-08
-1.13173e-06
8.60402e-08
-1.18133e-06
8.26556e-08
-1.22581e-06
8.21948e-08
-1.26777e-06
8.23439e-08
-1.30841e-06
8.25012e-08
-1.34838e-06
8.25042e-08
-1.38788e-06
8.23532e-08
-1.42702e-06
8.20888e-08
-1.46583e-06
8.17452e-08
-1.50431e-06
8.13459e-08
-1.54248e-06
8.09053e-08
-1.58033e-06
8.04324e-08
-1.61786e-06
7.99316e-08
-1.65506e-06
7.9405e-08
-1.69191e-06
7.88524e-08
-1.72842e-06
7.82729e-08
-1.76457e-06
7.76639e-08
-1.80033e-06
7.70228e-08
-1.8357e-06
7.63464e-08
-1.87066e-06
7.56316e-08
-1.90518e-06
7.48746e-08
-1.93925e-06
7.40723e-08
-1.97284e-06
7.32212e-08
-2.00592e-06
7.23183e-08
-2.03847e-06
7.13604e-08
-2.07047e-06
7.03448e-08
-2.10188e-06
6.92688e-08
-2.13268e-06
6.81301e-08
-2.16283e-06
6.69264e-08
-2.19231e-06
6.56562e-08
-2.22108e-06
6.43178e-08
-2.24912e-06
6.29098e-08
-2.27638e-06
6.14313e-08
-2.30285e-06
5.98812e-08
-2.32848e-06
5.8259e-08
-2.35325e-06
5.65642e-08
-2.37713e-06
5.47965e-08
-2.40007e-06
5.29559e-08
-2.42206e-06
5.10431e-08
-2.44305e-06
4.90582e-08
-2.46301e-06
4.70018e-08
-2.48192e-06
4.48744e-08
-2.49974e-06
4.26768e-08
-2.51644e-06
4.04094e-08
-2.53199e-06
3.80728e-08
-2.54635e-06
3.56668e-08
-2.55951e-06
3.31921e-08
-2.57142e-06
3.06484e-08
-2.58207e-06
2.80371e-08
-2.59141e-06
2.5358e-08
-2.59944e-06
2.26128e-08
-2.60612e-06
1.97977e-08
-2.61144e-06
1.69096e-08
-2.61538e-06
1.39447e-08
-2.61793e-06
1.0904e-08
-2.61912e-06
7.79632e-09
-2.619e-06
4.64021e-09
-2.61765e-06
1.47021e-09
-2.61515e-06
-1.67536e-09
-2.61144e-06
-4.79843e-09
-2.60631e-06
-7.93643e-09
-2.59965e-06
-1.11038e-08
-2.59142e-06
-1.43036e-08
-2.58159e-06
-1.7538e-08
-2.57014e-06
-2.08087e-08
-2.55706e-06
-2.41139e-08
-2.54232e-06
-2.74509e-08
-2.52591e-06
-3.08165e-08
-2.50781e-06
-3.42074e-08
-2.488e-06
-3.76218e-08
-2.46648e-06
-4.10567e-08
-2.44324e-06
-4.45108e-08
-2.41826e-06
-4.79806e-08
-2.39154e-06
-5.14644e-08
-2.36308e-06
-5.49576e-08
-2.33287e-06
-5.84579e-08
-2.30092e-06
-6.19594e-08
-2.26721e-06
-6.54592e-08
-2.23176e-06
-6.8951e-08
-2.19458e-06
-7.24308e-08
-2.15566e-06
-7.58926e-08
-2.11503e-06
-7.93326e-08
-2.07271e-06
-8.27441e-08
-2.02871e-06
-8.61225e-08
-1.98305e-06
-8.94584e-08
-1.93575e-06
-9.27456e-08
-1.88684e-06
-9.59757e-08
-1.83635e-06
-9.91469e-08
-1.78431e-06
-1.02257e-07
-1.73076e-06
-1.05302e-07
-1.67573e-06
-1.08268e-07
-1.61929e-06
-1.11139e-07
-1.56147e-06
-1.139e-07
-1.50234e-06
-1.16562e-07
-1.44196e-06
-1.19115e-07
-1.38039e-06
-1.21542e-07
-1.3177e-06
-1.23834e-07
-1.25398e-06
-1.25985e-07
-1.1893e-06
-1.27991e-07
-1.12376e-06
-1.29845e-07
-1.05743e-06
-1.31539e-07
-9.90404e-07
-1.33065e-07
-9.22767e-07
-1.34404e-07
-8.54613e-07
-1.35546e-07
-7.8604e-07
-1.36475e-07
-7.1716e-07
-1.37193e-07
-6.48078e-07
-1.3769e-07
-5.78909e-07
-1.37972e-07
-5.09761e-07
-1.3803e-07
-4.40749e-07
-1.37872e-07
-3.71979e-07
-1.37491e-07
-3.03564e-07
-1.36897e-07
-2.35607e-07
-1.36089e-07
-1.68216e-07
-1.35074e-07
-1.01484e-07
-1.33862e-07
-3.5473e-08
-1.32488e-07
2.97692e-08
-1.3097e-07
9.41366e-08
-1.29314e-07
1.5751e-07
-1.27514e-07
2.19697e-07
-1.2558e-07
2.80553e-07
-1.23423e-07
3.40126e-07
-1.21011e-07
3.98451e-07
-1.18432e-07
4.555e-07
-1.1578e-07
5.11258e-07
-1.13093e-07
5.65714e-07
-1.10394e-07
6.18869e-07
-1.07694e-07
6.70729e-07
-1.05007e-07
7.21305e-07
-1.02338e-07
7.70611e-07
-9.96951e-08
8.1866e-07
-9.70781e-08
8.65465e-07
-9.44803e-08
9.11027e-07
-9.18818e-08
9.55328e-07
-8.9243e-08
9.98314e-07
-8.6487e-08
1.03986e-06
-8.34704e-08
1.07972e-06
-7.99107e-08
1.1174e-06
-7.52558e-08
1.15189e-06
-6.82278e-08
1.18157e-06
-5.61891e-08
1.20423e-06
-3.23416e-08
2.13537e-08
1.21862e-06
-2.50539e-09
-1.91941e-08
-1.10958e-08
-5.47507e-09
-2.20284e-08
7.20978e-09
-3.4469e-08
1.84089e-08
-4.82198e-08
2.83393e-08
-6.33433e-08
3.70625e-08
-7.99735e-08
4.45952e-08
-9.82023e-08
5.09978e-08
-1.18032e-07
5.63993e-08
-1.39396e-07
6.09753e-08
-1.62187e-07
6.49128e-08
-1.86298e-07
6.83823e-08
-2.11633e-07
7.15235e-08
-2.38127e-07
7.4443e-08
-2.65738e-07
7.72185e-08
-2.94453e-07
7.99069e-08
-3.2427e-07
8.25521e-08
-3.55203e-07
8.51916e-08
-3.87259e-07
8.78597e-08
-4.2044e-07
9.0589e-08
-4.54725e-07
9.34081e-08
-4.90067e-07
9.63336e-08
-5.2638e-07
9.93589e-08
-5.63535e-07
1.02441e-07
-6.0135e-07
1.05494e-07
-6.3964e-07
1.08382e-07
-6.78248e-07
1.10934e-07
-7.17104e-07
1.12987e-07
-7.56539e-07
1.14425e-07
-7.96954e-07
1.15349e-07
-8.37861e-07
1.16265e-07
-8.78755e-07
1.17436e-07
-9.19103e-07
1.18852e-07
-9.57857e-07
1.20702e-07
-9.94964e-07
1.22484e-07
-1.03136e-06
1.23459e-07
-1.06725e-06
1.23685e-07
-1.10231e-06
1.23401e-07
-1.13853e-06
1.2226e-07
-1.17658e-06
1.20693e-07
-1.21401e-06
1.19625e-07
-1.25059e-06
1.18914e-07
-1.28645e-06
1.18361e-07
-1.32179e-06
1.17842e-07
-1.35675e-06
1.17303e-07
-1.39139e-06
1.16728e-07
-1.42577e-06
1.16117e-07
-1.4599e-06
1.15471e-07
-1.49379e-06
1.14793e-07
-1.52745e-06
1.14085e-07
-1.56086e-06
1.13345e-07
-1.59404e-06
1.12573e-07
-1.62696e-06
1.11765e-07
-1.65961e-06
1.10917e-07
-1.69197e-06
1.10026e-07
-1.72404e-06
1.09087e-07
-1.7558e-06
1.08095e-07
-1.78722e-06
1.07045e-07
-1.81828e-06
1.05932e-07
-1.84897e-06
1.04752e-07
-1.87926e-06
1.035e-07
-1.90912e-06
1.02171e-07
-1.93853e-06
1.00762e-07
-1.96745e-06
9.92673e-08
-1.99588e-06
9.76849e-08
-2.02377e-06
9.60112e-08
-2.05109e-06
9.42431e-08
-2.07782e-06
9.23782e-08
-2.10392e-06
9.04144e-08
-2.12937e-06
8.83499e-08
-2.15412e-06
8.61831e-08
-2.17816e-06
8.39128e-08
-2.20145e-06
8.15382e-08
-2.22395e-06
7.90586e-08
-2.24563e-06
7.64738e-08
-2.26646e-06
7.37837e-08
-2.28641e-06
7.09889e-08
-2.30545e-06
6.80899e-08
-2.32354e-06
6.50874e-08
-2.34066e-06
6.19821e-08
-2.35676e-06
5.87751e-08
-2.37183e-06
5.54674e-08
-2.38582e-06
5.20599e-08
-2.39871e-06
4.85536e-08
-2.41047e-06
4.49498e-08
-2.42108e-06
4.12498e-08
-2.4305e-06
3.74556e-08
-2.43871e-06
3.35694e-08
-2.44569e-06
2.9593e-08
-2.45141e-06
2.55275e-08
-2.45586e-06
2.13724e-08
-2.45904e-06
1.71294e-08
-2.46094e-06
1.28056e-08
-2.46156e-06
8.41259e-09
-2.46089e-06
3.9698e-09
-2.45891e-06
-5.03105e-10
-2.45559e-06
-4.99692e-09
-2.45086e-06
-9.53138e-09
-2.44468e-06
-1.4129e-08
-2.437e-06
-1.87937e-08
-2.42779e-06
-2.35214e-08
-2.41704e-06
-2.83091e-08
-2.40471e-06
-3.31542e-08
-2.3908e-06
-3.80518e-08
-2.37528e-06
-4.29988e-08
-2.35813e-06
-4.7989e-08
-2.33935e-06
-5.30198e-08
-2.3189e-06
-5.80857e-08
-2.29679e-06
-6.31851e-08
-2.273e-06
-6.83125e-08
-2.24753e-06
-7.34657e-08
-2.22036e-06
-7.86385e-08
-2.19149e-06
-8.38275e-08
-2.16092e-06
-8.90255e-08
-2.12865e-06
-9.42277e-08
-2.09467e-06
-9.94258e-08
-2.059e-06
-1.04614e-07
-2.02163e-06
-1.09782e-07
-1.98258e-06
-1.14925e-07
-1.94186e-06
-1.20033e-07
-1.89949e-06
-1.25099e-07
-1.85548e-06
-1.30112e-07
-1.80986e-06
-1.35062e-07
-1.76265e-06
-1.39937e-07
-1.71387e-06
-1.44728e-07
-1.66356e-06
-1.49427e-07
-1.61175e-06
-1.54031e-07
-1.55848e-06
-1.58532e-07
-1.5038e-06
-1.62914e-07
-1.44774e-06
-1.67153e-07
-1.39036e-06
-1.71232e-07
-1.33172e-06
-1.75152e-07
-1.27188e-06
-1.78903e-07
-1.21092e-06
-1.82463e-07
-1.1489e-06
-1.85817e-07
-1.0859e-06
-1.88956e-07
-1.022e-06
-1.91869e-07
-9.57294e-07
-1.94549e-07
-8.91866e-07
-1.96982e-07
-8.25802e-07
-1.99154e-07
-7.59194e-07
-2.01046e-07
-6.92134e-07
-2.02637e-07
-6.24726e-07
-2.03917e-07
-5.57075e-07
-2.04876e-07
-4.89291e-07
-2.05508e-07
-4.21484e-07
-2.05811e-07
-3.53765e-07
-2.05784e-07
-2.86242e-07
-2.05427e-07
-2.19025e-07
-2.04743e-07
-1.5222e-07
-2.03734e-07
-8.59294e-08
-2.02414e-07
-2.02338e-08
-2.00802e-07
4.4778e-08
-1.98909e-07
1.09e-07
-1.96743e-07
1.7232e-07
-1.94324e-07
2.34647e-07
-1.91673e-07
2.95908e-07
-1.88809e-07
3.56022e-07
-1.85725e-07
4.14939e-07
-1.82374e-07
4.72658e-07
-1.78761e-07
5.29165e-07
-1.74971e-07
5.84437e-07
-1.71082e-07
6.38455e-07
-1.67142e-07
6.91213e-07
-1.63182e-07
7.42713e-07
-1.59224e-07
7.92964e-07
-1.55286e-07
8.41981e-07
-1.51384e-07
8.89782e-07
-1.47524e-07
9.36388e-07
-1.43711e-07
9.81813e-07
-1.39933e-07
1.02607e-06
-1.36162e-07
1.06914e-06
-1.32342e-07
1.11099e-06
-1.28362e-07
1.15152e-06
-1.24021e-07
1.19052e-06
-1.18941e-07
1.22765e-06
-1.12405e-07
1.26233e-06
-1.02926e-07
1.29382e-06
-8.76952e-08
1.32222e-06
-6.07671e-08
-8.13422e-09
1.35169e-06
-1.09566e-08
-8.25627e-09
-2.55096e-08
9.06051e-09
-4.10848e-08
2.27741e-08
-5.72718e-08
3.45872e-08
-7.40608e-08
4.51208e-08
-9.15772e-08
5.45715e-08
-1.09993e-07
6.30042e-08
-1.2947e-07
7.04675e-08
-1.50118e-07
7.70414e-08
-1.71992e-07
8.28421e-08
-1.95091e-07
8.80065e-08
-2.1939e-07
9.26742e-08
-2.44844e-07
9.69718e-08
-2.71412e-07
1.01005e-07
-2.99057e-07
1.04859e-07
-3.2775e-07
1.08594e-07
-3.5746e-07
1.12258e-07
-3.88156e-07
1.15883e-07
-4.19791e-07
1.1949e-07
-4.52299e-07
1.23093e-07
-4.85584e-07
1.2669e-07
-5.19524e-07
1.30269e-07
-5.53964e-07
1.33795e-07
-5.88736e-07
1.37208e-07
-6.23668e-07
1.40423e-07
-6.58632e-07
1.43341e-07
-6.93563e-07
1.45862e-07
-7.28489e-07
1.47909e-07
-7.63525e-07
1.49457e-07
-7.98768e-07
1.50588e-07
-8.34028e-07
1.51522e-07
-8.69026e-07
1.52431e-07
-9.03548e-07
1.53371e-07
-9.37202e-07
1.54353e-07
-9.69888e-07
1.55166e-07
-1.00197e-06
1.55537e-07
-1.03372e-06
1.55428e-07
-1.06525e-06
1.54928e-07
-1.09706e-06
1.54065e-07
-1.12937e-06
1.52999e-07
-1.16173e-06
1.51984e-07
-1.1939e-06
1.51079e-07
-1.2258e-06
1.50259e-07
-1.25744e-06
1.49482e-07
-1.28886e-06
1.48717e-07
-1.32008e-06
1.47943e-07
-1.35112e-06
1.47152e-07
-1.38199e-06
1.46336e-07
-1.41269e-06
1.45492e-07
-1.44322e-06
1.44615e-07
-1.47358e-06
1.43701e-07
-1.50376e-06
1.42745e-07
-1.53374e-06
1.41742e-07
-1.56351e-06
1.40686e-07
-1.59306e-06
1.3957e-07
-1.62237e-06
1.3839e-07
-1.65141e-06
1.37137e-07
-1.68018e-06
1.35807e-07
-1.70865e-06
1.34392e-07
-1.73679e-06
1.32887e-07
-1.76458e-06
1.31286e-07
-1.792e-06
1.29582e-07
-1.81901e-06
1.27772e-07
-1.8456e-06
1.2585e-07
-1.87173e-06
1.23812e-07
-1.89738e-06
1.21654e-07
-1.92252e-06
1.19371e-07
-1.9471e-06
1.16962e-07
-1.97112e-06
1.14423e-07
-1.99452e-06
1.11751e-07
-2.01729e-06
1.08946e-07
-2.03939e-06
1.06005e-07
-2.06078e-06
1.02928e-07
-2.08144e-06
9.9714e-08
-2.10133e-06
9.63622e-08
-2.12043e-06
9.28729e-08
-2.13869e-06
8.92468e-08
-2.15609e-06
8.54845e-08
-2.17259e-06
8.15869e-08
-2.18817e-06
7.75552e-08
-2.20279e-06
7.3391e-08
-2.21642e-06
6.90956e-08
-2.22904e-06
6.46709e-08
-2.24061e-06
6.01186e-08
-2.2511e-06
5.54409e-08
-2.2605e-06
5.06402e-08
-2.26876e-06
4.57193e-08
-2.27588e-06
4.06814e-08
-2.28181e-06
3.55302e-08
-2.28654e-06
3.02672e-08
-2.29006e-06
2.48965e-08
-2.29236e-06
1.94216e-08
-2.2934e-06
1.38501e-08
-2.29318e-06
8.1923e-09
-2.29167e-06
2.46074e-09
-2.28884e-06
-3.33563e-09
-2.28465e-06
-9.19724e-09
-2.27904e-06
-1.51371e-08
-2.27201e-06
-2.11663e-08
-2.26353e-06
-2.72862e-08
-2.25358e-06
-3.34926e-08
-2.24212e-06
-3.97808e-08
-2.22915e-06
-4.6146e-08
-2.21465e-06
-5.25819e-08
-2.19859e-06
-5.90836e-08
-2.18095e-06
-6.5644e-08
-2.16173e-06
-7.22592e-08
-2.14091e-06
-7.89226e-08
-2.11848e-06
-8.56313e-08
-2.09442e-06
-9.23782e-08
-2.06874e-06
-9.91599e-08
-2.04141e-06
-1.05968e-07
-2.01244e-06
-1.12799e-07
-1.98183e-06
-1.19641e-07
-1.94956e-06
-1.2649e-07
-1.91565e-06
-1.33333e-07
-1.88009e-06
-1.40163e-07