/*--------------------------------*- C++ -*----------------------------------*\
  =========                 |
  \\      /  F ield         | OpenFOAM: The Open Source CFD Toolbox
   \\    /   O peration     | Website:  https://openfoam.org
    \\  /    A nd           | Version:  8
     \\/     M anipulation  |
\*---------------------------------------------------------------------------*/
FoamFile
{
    version     2.0;
    format      ascii;
    class       volVectorField;
    location    "220";
    object      U;
}
// * * * * * * * * * * * * * * * * * * * * * * * * * * * * * * * * * * * * * //

dimensions      [0 1 -1 0 0 0 0];

internalField   nonuniform List<vector> 
12225
(
(9.85697 -0.886445 0)
(9.66664 -0.740746 0)
(9.45571 -0.429481 0)
(9.22452 -0.222213 0)
(9.00649 -0.106457 0)
(8.81437 -0.0458682 0)
(8.64747 -0.0151741 0)
(8.50528 0.000450745 0)
(8.38361 0.00838619 0)
(8.28084 0.0122795 0)
(8.19241 0.0139917 0)
(8.11622 0.0149972 0)
(8.04943 0.0153827 0)
(7.99037 0.0156074 0)
(7.93705 0.0155671 0)
(7.89042 0.0157914 0)
(7.83636 0.0163022 0)
(7.82661 0.0105032 0)
(10.0545 0.227567 0)
(10.121 0.326912 0)
(10.1196 0.261572 0)
(10.0856 0.186542 0)
(10.0434 0.13467 0)
(9.99672 0.101116 0)
(9.944 0.0792882 0)
(9.88525 0.0645684 0)
(9.82389 0.0542633 0)
(9.76137 0.0466773 0)
(9.6999 0.0409139 0)
(9.64007 0.0363697 0)
(9.58277 0.0327169 0)
(9.52837 0.0298653 0)
(9.47649 0.0274163 0)
(9.42899 0.026563 0)
(9.38115 0.0238833 0)
(9.34738 0.033054 0)
(10.0035 0.0579189 0)
(10.0303 0.0560086 0)
(10.0561 0.0337819 0)
(10.0703 0.0328991 0)
(10.077 0.0406489 0)
(10.0778 0.046547 0)
(10.0725 0.0493621 0)
(10.0614 0.0503085 0)
(10.0461 0.0502086 0)
(10.0277 0.0494983 0)
(10.0072 0.0484596 0)
(9.98498 0.0473027 0)
(9.96183 0.0461294 0)
(9.93819 0.0450825 0)
(9.91426 0.0440585 0)
(9.89088 0.0437267 0)
(9.86752 0.0428548 0)
(9.84572 0.0451677 0)
(9.99779 0.0110543 0)
(10.011 0.0266105 0)
(10.035 0.0371537 0)
(10.0525 0.0480894 0)
(10.0644 0.0554568 0)
(10.0734 0.0581899 0)
(10.0795 0.058361 0)
(10.0824 0.0576212 0)
(10.0828 0.0565756 0)
(10.0812 0.0553848 0)
(10.0781 0.0541204 0)
(10.0738 0.0529021 0)
(10.0684 0.0517285 0)
(10.0623 0.0507089 0)
(10.0555 0.0497491 0)
(10.0486 0.0492638 0)
(10.0415 0.0485596 0)
(10.0345 0.0489916 0)
(9.99935 0.00719898 0)
(10.009 0.0316574 0)
(10.0275 0.0439261 0)
(10.0418 0.0499277 0)
(10.0528 0.0536175 0)
(10.0629 0.0552434 0)
(10.0716 0.0555251 0)
(10.0783 0.0552382 0)
(10.0834 0.054699 0)
(10.0873 0.0540014 0)
(10.0901 0.0532015 0)
(10.092 0.0523962 0)
(10.0931 0.0516043 0)
(10.0938 0.050905 0)
(10.0939 0.0502597 0)
(10.0939 0.049867 0)
(10.0937 0.0494055 0)
(10.0937 0.0492862 0)
(10.0003 0.00917947 0)
(10.0083 0.0311735 0)
(10.0227 0.0409481 0)
(10.035 0.0453984 0)
(10.045 0.0490443 0)
(10.0548 0.0513808 0)
(10.0637 0.0523637 0)
(10.0714 0.0525999 0)
(10.0779 0.0524704 0)
(10.0834 0.0521138 0)
(10.0883 0.0516077 0)
(10.0924 0.0510416 0)
(10.0961 0.0504538 0)
(10.0993 0.0499014 0)
(10.1021 0.049375 0)
(10.1048 0.0489566 0)
(10.1075 0.0484964 0)
(10.1102 0.0480334 0)
(10.0005 0.00894609 0)
(10.0071 0.0270895 0)
(10.0191 0.0364179 0)
(10.0302 0.0413963 0)
(10.0396 0.0454208 0)
(10.0487 0.0480873 0)
(10.0573 0.049358 0)
(10.0649 0.0498302 0)
(10.0717 0.049907 0)
(10.0778 0.0497355 0)
(10.0833 0.0493948 0)
(10.0884 0.0489636 0)
(10.093 0.0484878 0)
(10.0972 0.0480073 0)
(10.1013 0.0475231 0)
(10.1051 0.0470593 0)
(10.1089 0.046532 0)
(10.1128 0.0458723 0)
(10.0004 0.00791748 0)
(10.006 0.023384 0)
(10.0161 0.0327408 0)
(10.0263 0.0381076 0)
(10.0351 0.0421033 0)
(10.0436 0.0447872 0)
(10.0517 0.0461993 0)
(10.0592 0.0468347 0)
(10.0659 0.0470593 0)
(10.0721 0.0470189 0)
(10.0779 0.0467934 0)
(10.0832 0.0464538 0)
(10.0882 0.0460478 0)
(10.0929 0.0456048 0)
(10.0974 0.0451283 0)
(10.1018 0.0446154 0)
(10.1061 0.0440095 0)
(10.1103 0.0432308 0)
(10.0004 0.00696199 0)
(10.0051 0.0204324 0)
(10.0137 0.0294597 0)
(10.0229 0.034868 0)
(10.0312 0.0387195 0)
(10.0391 0.0413816 0)
(10.0468 0.0429142 0)
(10.054 0.0436889 0)
(10.0606 0.0440299 0)
(10.0667 0.0440882 0)
(10.0725 0.0439457 0)
(10.0779 0.0436688 0)
(10.083 0.0433036 0)
(10.0879 0.0428747 0)
(10.0926 0.0423851 0)
(10.0971 0.041823 0)
(10.1016 0.0411452 0)
(10.106 0.0402928 0)
(10.0004 0.00613132 0)
(10.0043 0.0178677 0)
(10.0116 0.0262826 0)
(10.0199 0.0315889 0)
(10.0276 0.035314 0)
(10.0351 0.0379403 0)
(10.0424 0.0395521 0)
(10.0493 0.0404294 0)
(10.0557 0.0408568 0)
(10.0617 0.0409877 0)
(10.0674 0.0409049 0)
(10.0728 0.0406707 0)
(10.0779 0.0403282 0)
(10.0828 0.0399 0)
(10.0875 0.0393892 0)
(10.0921 0.0387837 0)
(10.0965 0.0380509 0)
(10.1009 0.0371569 0)
(10.0003 0.00537151 0)
(10.0037 0.0155589 0)
(10.0099 0.0232451 0)
(10.0173 0.0283538 0)
(10.0245 0.0319366 0)
(10.0315 0.034486 0)
(10.0384 0.0361226 0)
(10.045 0.0370635 0)
(10.0512 0.0375509 0)
(10.057 0.0377335 0)
(10.0626 0.0376932 0)
(10.0679 0.0374876 0)
(10.0729 0.0371575 0)
(10.0778 0.0367244 0)
(10.0825 0.036193 0)
(10.087 0.0355545 0)
(10.0914 0.0347866 0)
(10.0956 0.0338758 0)
(10.0003 0.00470638 0)
(10.0032 0.0136179 0)
(10.0086 0.0205988 0)
(10.0152 0.0254421 0)
(10.0219 0.0288588 0)
(10.0285 0.0313023 0)
(10.035 0.0329194 0)
(10.0414 0.0338862 0)
(10.0474 0.0344066 0)
(10.0531 0.0346193 0)
(10.0585 0.0346043 0)
(10.0637 0.0344153 0)
(10.0687 0.0340908 0)
(10.0734 0.0336521 0)
(10.078 0.033106 0)
(10.0824 0.0324483 0)
(10.0867 0.0316645 0)
(10.0908 0.0307576 0)
(10.0003 0.00409162 0)
(10.0028 0.0118492 0)
(10.0075 0.0180999 0)
(10.0134 0.0226016 0)
(10.0197 0.0258176 0)
(10.0259 0.0281299 0)
(10.032 0.0296949 0)
(10.0381 0.0306604 0)
(10.0439 0.0311951 0)
(10.0494 0.0314244 0)
(10.0547 0.0314246 0)
(10.0598 0.0312462 0)
(10.0646 0.0309253 0)
(10.0693 0.030483 0)
(10.0738 0.0299286 0)
(10.0781 0.0292626 0)
(10.0822 0.0284772 0)
(10.0862 0.0275872 0)
(10.0002 0.00345658 0)
(10.0024 0.0100107 0)
(10.0064 0.0154194 0)
(10.0117 0.0194544 0)
(10.0174 0.0223862 0)
(10.0232 0.0245072 0)
(10.029 0.0259692 0)
(10.0347 0.0268955 0)
(10.0403 0.0274195 0)
(10.0456 0.0276485 0)
(10.0507 0.0276526 0)
(10.0557 0.0274786 0)
(10.0604 0.0271593 0)
(10.0649 0.026716 0)
(10.0693 0.02616 0)
(10.0735 0.0254968 0)
(10.0775 0.0247244 0)
(10.0813 0.0238664 0)
(10.0002 0.0027972 0)
(10.002 0.00810108 0)
(10.0055 0.0125674 0)
(10.0101 0.0160059 0)
(10.0153 0.0185513 0)
(10.0206 0.0204056 0)
(10.026 0.0217002 0)
(10.0314 0.0225354 0)
(10.0367 0.0230118 0)
(10.0418 0.0232153 0)
(10.0468 0.0232069 0)
(10.0515 0.0230278 0)
(10.0561 0.0227075 0)
(10.0605 0.0222665 0)
(10.0647 0.021718 0)
(10.0687 0.021071 0)
(10.0726 0.0203286 0)
(10.0762 0.0195191 0)
(10.0002 0.00211278 0)
(10.0017 0.00612228 0)
(10.0047 0.00955233 0)
(10.0087 0.0122608 0)
(10.0134 0.0143004 0)
(10.0183 0.0157951 0)
(10.0233 0.0168435 0)
(10.0283 0.0175213 0)
(10.0333 0.0179001 0)
(10.0382 0.0180431 0)
(10.0429 0.0179986 0)
(10.0475 0.0178009 0)
(10.0519 0.017475 0)
(10.0561 0.0170394 0)
(10.0601 0.0165077 0)
(10.064 0.015891 0)
(10.0677 0.015195 0)
(10.0712 0.0144492 0)
(10.0002 0.00140032 0)
(10.0015 0.00406012 0)
(10.0041 0.00635785 0)
(10.0076 0.00820173 0)
(10.0118 0.00960487 0)
(10.0163 0.0106315 0)
(10.0209 0.0113422 0)
(10.0256 0.0117856 0)
(10.0303 0.0120067 0)
(10.035 0.012046 0)
(10.0395 0.0119365 0)
(10.0439 0.011703 0)
(10.0481 0.0113644 0)
(10.0521 0.0109356 0)
(10.056 0.0104286 0)
(10.0597 0.00985385 0)
(10.0632 0.0092178 0)
(10.0666 0.00854806 0)
(10.0001 0.000643368 0)
(10.0013 0.00186261 0)
(10.0036 0.00291162 0)
(10.0069 0.00374859 0)
(10.0107 0.00437387 0)
(10.0148 0.00480979 0)
(10.0192 0.00507919 0)
(10.0237 0.00520187 0)
(10.0281 0.00519708 0)
(10.0325 0.00508295 0)
(10.0368 0.00487489 0)
(10.041 0.00458538 0)
(10.0451 0.0042248 0)
(10.0489 0.00380215 0)
(10.0526 0.00332539 0)
(10.0562 0.00280234 0)
(10.0595 0.00223767 0)
(10.0628 0.00165477 0)
(10.0001 -0.000201222 0)
(10.0012 -0.000592401 0)
(10.0035 -0.000959829 0)
(10.0066 -0.0012913 0)
(10.0102 -0.00158615 0)
(10.0143 -0.00185849 0)
(10.0185 -0.00212613 0)
(10.0228 -0.00240127 0)
(10.0271 -0.00269123 0)
(10.0314 -0.00300171 0)
(10.0356 -0.00333701 0)
(10.0396 -0.00369958 0)
(10.0435 -0.00409004 0)
(10.0472 -0.00450774 0)
(10.0508 -0.00495107 0)
(10.0542 -0.00541727 0)
(10.0575 -0.00590509 0)
(10.0606 -0.00639781 0)
(10.0001 -0.00100923 0)
(10.0013 -0.00294833 0)
(10.0037 -0.00468151 0)
(10.007 -0.00612682 0)
(10.0108 -0.00728089 0)
(10.015 -0.00820356 0)
(10.0193 -0.00895621 0)
(10.0237 -0.00958081 0)
(10.0281 -0.0101117 0)
(10.0323 -0.0105803 0)
(10.0365 -0.0110114 0)
(10.0405 -0.0114216 0)
(10.0443 -0.011822 0)
(10.048 -0.01222 0)
(10.0516 -0.0126205 0)
(10.0549 -0.0130256 0)
(10.0581 -0.0134376 0)
(10.0611 -0.0138458 0)
(10.0002 -0.00170605 0)
(10.0015 -0.00500596 0)
(10.0041 -0.007934 0)
(10.0078 -0.0102873 0)
(10.012 -0.0120868 0)
(10.0165 -0.0134825 0)
(10.021 -0.0145805 0)
(10.0255 -0.0154378 0)
(10.03 -0.0161112 0)
(10.0344 -0.0166592 0)
(10.0386 -0.0171262 0)
(10.0426 -0.0175407 0)
(10.0465 -0.017922 0)
(10.0502 -0.0182836 0)
(10.0537 -0.0186347 0)
(10.057 -0.0189809 0)
(10.0602 -0.0193262 0)
(10.0632 -0.0196637 0)
(10.0002 -0.00236783 0)
(10.0017 -0.00703926 0)
(10.0047 -0.0111839 0)
(10.009 -0.0143556 0)
(10.0137 -0.0166542 0)
(10.0185 -0.01839 0)
(10.0234 -0.0197229 0)
(10.0282 -0.0207239 0)
(10.0329 -0.0214742 0)
(10.0374 -0.0220549 0)
(10.0416 -0.0225226 0)
(10.0457 -0.0229137 0)
(10.0496 -0.0232547 0)
(10.0533 -0.0235652 0)
(10.0568 -0.0238579 0)
(10.0602 -0.0241406 0)
(10.0633 -0.0244187 0)
(10.0663 -0.024688 0)
(10.0002 -0.00298724 0)
(10.0018 -0.00909833 0)
(10.0054 -0.014456 0)
(10.0105 -0.0183475 0)
(10.0159 -0.0210938 0)
(10.0211 -0.0231182 0)
(10.0263 -0.0245759 0)
(10.0314 -0.0255919 0)
(10.0363 -0.0263205 0)
(10.0409 -0.0268716 0)
(10.0453 -0.0273016 0)
(10.0495 -0.027646 0)
(10.0534 -0.0279343 0)
(10.0571 -0.0281886 0)
(10.0607 -0.0284233 0)
(10.064 -0.0286466 0)
(10.0671 -0.0288639 0)
(10.0701 -0.029073 0)
(10.0001 -0.00353327 0)
(10.0018 -0.0115525 0)
(10.0063 -0.0178912 0)
(10.0123 -0.0219914 0)
(10.0183 -0.0250607 0)
(10.024 -0.0274723 0)
(10.0297 -0.0291125 0)
(10.0351 -0.0301244 0)
(10.0401 -0.0307786 0)
(10.0449 -0.0312398 0)
(10.0494 -0.0315756 0)
(10.0536 -0.0318266 0)
(10.0576 -0.0320265 0)
(10.0614 -0.0321993 0)
(10.0649 -0.0323583 0)
(10.0682 -0.0325109 0)
(10.0713 -0.0326607 0)
(10.0743 -0.0328041 0)
(9.99991 -0.00338191 0)
(10.0016 -0.0149693 0)
(10.0073 -0.0227294 0)
(10.0142 -0.0262433 0)
(10.0206 -0.0288324 0)
(10.0268 -0.0311997 0)
(10.0331 -0.0329228 0)
(10.039 -0.0340125 0)
(10.0444 -0.0347137 0)
(10.0494 -0.0351788 0)
(10.0541 -0.0354782 0)
(10.0584 -0.035666 0)
(10.0623 -0.0357883 0)
(10.066 -0.0358761 0)
(10.0694 -0.0359473 0)
(10.0726 -0.0360119 0)
(10.0755 -0.0360746 0)
(10.0783 -0.0361341 0)
(9.9986 -0.00039894 0)
(9.99909 -0.0157574 0)
(10.0075 -0.0274322 0)
(10.0166 -0.0324949 0)
(10.0238 -0.0348729 0)
(10.0306 -0.0362301 0)
(10.0376 -0.0369833 0)
(10.0441 -0.0374512 0)
(10.0499 -0.0378009 0)
(10.055 -0.0380492 0)
(10.0595 -0.0381951 0)
(10.0636 -0.0382638 0)
(10.0672 -0.0382853 0)
(10.0703 -0.0382809 0)
(10.0731 -0.0382658 0)
(10.0755 -0.0382481 0)
(10.0777 -0.038232 0)
(10.0795 -0.0382153 0)
(9.99488 0.001335 0)
(9.99288 -0.00809325 0)
(10.006 -0.0203532 0)
(10.0202 -0.0322792 0)
(10.0307 -0.0404822 0)
(10.0392 -0.0441545 0)
(10.0467 -0.0450676 0)
(10.0529 -0.0449237 0)
(10.0578 -0.0444574 0)
(10.0616 -0.0438624 0)
(10.0646 -0.0432183 0)
(10.0668 -0.0425821 0)
(10.0682 -0.0419881 0)
(10.0691 -0.0414444 0)
(10.0694 -0.0409606 0)
(10.0693 -0.0405334 0)
(10.0688 -0.0401598 0)
(10.068 -0.0398144 0)
(9.99473 -0.0305617 0)
(9.99925 -0.0228724 0)
(10.0147 -0.00263663 0)
(10.0304 -0.00191134 0)
(10.0434 -0.0116614 0)
(10.0533 -0.0209256 0)
(10.0594 -0.027283 0)
(10.0619 -0.0315112 0)
(10.0615 -0.0342864 0)
(10.0591 -0.0359831 0)
(10.055 -0.0369152 0)
(10.0497 -0.037349 0)
(10.0435 -0.0374748 0)
(10.0365 -0.0374125 0)
(10.0289 -0.0372523 0)
(10.021 -0.0370496 0)
(10.0128 -0.0368692 0)
(10.0046 -0.0366797 0)
(10.0273 -0.182758 0)
(10.0763 -0.288314 0)
(10.0871 -0.247756 0)
(10.0777 -0.186521 0)
(10.0664 -0.140298 0)
(10.0537 -0.108224 0)
(10.0365 -0.085884 0)
(10.0145 -0.0704242 0)
(9.98938 -0.0596554 0)
(9.96234 -0.0518816 0)
(9.93437 -0.0460595 0)
(9.90605 -0.041562 0)
(9.87787 -0.0380062 0)
(9.85016 -0.0351312 0)
(9.82317 -0.032765 0)
(9.797 -0.0308442 0)
(9.77191 -0.0293276 0)
(9.74792 -0.0285083 0)
(9.93574 0.689319 0)
(9.86861 0.609605 0)
(9.76453 0.380623 0)
(9.62664 0.217441 0)
(9.48589 0.119266 0)
(9.3572 0.0631855 0)
(9.24267 0.0315739 0)
(9.14112 0.0136141 0)
(9.05144 0.00326099 0)
(8.97246 -0.0028003 0)
(8.90255 -0.00635585 0)
(8.84038 -0.00847519 0)
(8.78468 -0.00972596 0)
(8.73457 -0.0104723 0)
(8.68914 -0.0109754 0)
(8.64779 -0.0112446 0)
(8.6096 -0.0114516 0)
(8.57426 -0.012112 0)
(0.00618775 -0.0144948 -8.30839e-19)
(0.0190123 -0.0191153 6.24419e-19)
(0.028242 -0.0135385 0)
(0.0323698 -0.00481738 0)
(0.0306279 0.00351713 0)
(0.0239928 0.00995483 -2.87433e-19)
(0.0136957 0.0142987 0)
(0.000750559 0.0169572 0)
(-0.0140564 0.0184837 0)
(-0.0302352 0.0193718 0)
(-0.0474905 0.0199504 1.54673e-19)
(-0.0656303 0.0203876 0)
(-0.0845472 0.0207533 0)
(-0.104173 0.0210631 0)
(-0.124454 0.0213132 0)
(-0.145345 0.021503 9.5927e-20)
(-0.166798 0.0216519 0)
(-0.18877 0.0218065 0)
(-0.211237 0.0220326 0)
(-0.234206 0.022424 0)
(-0.257727 0.0231321 0)
(-0.281891 0.0242441 0)
(-0.306799 0.025674 0)
(-0.332499 0.0272781 6.52383e-20)
(-0.359076 0.0288952 -6.41087e-20)
(-0.386783 0.0301557 6.33069e-20)
(-0.415866 0.0306535 6.26522e-20)
(-0.446232 0.0304152 0)
(-0.477304 0.0242738 0)
(-0.508407 0.011289 -5.79252e-20)
(-0.536921 0.00582376 -5.529e-20)
(-0.564087 0.00880811 0)
(-0.594403 0.019355 0)
(-0.626287 0.0444879 -4.65354e-20)
(-0.663265 0.068586 0)
(-0.705146 0.0792889 0)
(-0.747517 0.0849918 4.43882e-20)
(-0.78706 0.102412 0)
(-0.827345 0.0773936 5.98966e-20)
(-0.866584 0.028814 1.28148e-19)
(-0.897546 0.0304357 0)
(-0.933416 0.03242 0)
(-0.971155 0.0337989 0)
(-1.01004 0.0343137 0)
(-1.04938 0.0344484 0)
(-1.08896 0.0343813 1.06296e-19)
(-1.12864 0.0342128 1.03445e-19)
(-1.16832 0.0339825 1.00772e-19)
(-1.20797 0.0337155 0)
(-1.24754 0.0334249 -9.58979e-20)
(-1.28702 0.0331183 0)
(-1.32639 0.0328007 9.15649e-20)
(-1.36564 0.0324738 8.95729e-20)
(-1.40474 0.0321394 0)
(-1.44368 0.0317967 0)
(-1.48245 0.031446 0)
(-1.52104 0.0310858 8.25562e-20)
(-1.55942 0.0307158 0)
(-1.59758 0.030334 0)
(-1.63549 0.0299398 0)
(-1.67314 0.0295315 0)
(-1.7105 0.0291086 0)
(-1.74754 0.0286694 0)
(-1.78423 0.0282132 0)
(-1.82055 0.0277388 0)
(-1.85647 0.0272458 -7.06221e-20)
(-1.89196 0.0267333 0)
(-1.92697 0.0262011 0)
(-1.96148 0.0256487 6.74089e-20)
(-1.99546 0.0250759 6.63951e-20)
(-2.02885 0.0244826 0)
(-2.06164 0.0238687 -6.44388e-20)
(-2.09378 0.0232343 6.34915e-20)
(-2.12523 0.0225796 0)
(-2.15596 0.0219047 -6.16479e-20)
(-2.18593 0.0212103 0)
(-2.21509 0.0204971 0)
(-2.24342 0.0197658 5.89804e-20)
(-2.27086 0.019017 0)
(-2.29739 0.018251 -5.72462e-20)
(-2.32296 0.017469 0)
(-2.34754 0.0166713 5.55314e-20)
(-2.37109 0.0158586 5.46773e-20)
(-2.39357 0.0150309 5.38232e-20)
(-2.41494 0.014189 1.05936e-19)
(-2.43517 0.0133316 -1.0422e-19)
(-2.4542 0.0124577 0)
(-2.47201 0.0115616 0)
(-2.48853 0.0106354 0)
(-2.50373 0.00966498 -9.7261e-20)
(-2.51757 0.00863423 -9.54836e-20)
(-2.52998 0.00753526 9.36857e-20)
(-2.54092 0.00637212 0)
(-2.55032 0.00516182 -9.00255e-20)
(-2.55809 0.00392995 -8.81653e-20)
(-2.56412 0.00271236 -8.62865e-20)
(-2.5683 0.00155566 0)
(-2.57053 0.000517021 0)
(-2.57115 -0.000408029 0)
(-2.57024 -0.00128339 -7.83715e-20)
(-2.56782 -0.00214732 0)
(-2.56389 -0.00300918 0)
(-2.55841 -0.00387193 7.19195e-20)
(-2.55139 -0.00473664 0)
(-2.54278 -0.00560183 0)
(-2.53258 -0.00646853 6.49584e-20)
(-2.52076 -0.00733467 0)
(-2.5073 -0.00820228 0)
(-2.49218 -0.00906935 -5.74022e-20)
(-2.47539 -0.00993835 -5.47342e-20)
(-2.45691 -0.0108069 0)
(-2.43673 -0.0116775 4.91506e-20)
(-2.41484 -0.0125475 0)
(-2.39123 -0.0134192 -4.32061e-20)
(-2.36589 -0.01429 0)
(-2.33882 -0.0151621 -3.68603e-20)
(-2.31 -0.0160332 -3.35229e-20)
(-2.27944 -0.0169051 0)
(-2.24714 -0.0177753 0)
(-2.2131 -0.0186452 0)
(-2.17734 -0.0195125 0)
(-2.13986 -0.0203785 0)
(-2.10067 -0.0212413 0)
(-2.05978 -0.0221024 0)
(-2.01721 -0.0229605 -1.96751e-21)
(-1.97297 -0.0238189 -2.71023e-21)
(-1.92708 -0.0246834 0)
(-1.87956 -0.0255303 0)
(-1.83045 -0.0263578 0)
(-1.77979 -0.0271885 0)
(-1.72761 -0.0280153 -5.86138e-20)
(-1.67395 -0.0288343 0)
(-1.61887 -0.0296402 8.33871e-20)
(-1.56242 -0.0304322 -9.66554e-20)
(-1.50466 -0.0312112 0)
(-1.44565 -0.0319735 0)
(-1.38546 -0.0327209 0)
(-1.32417 -0.0334487 1.56516e-19)
(-1.26184 -0.0341574 1.73404e-19)
(-1.19857 -0.03484 0)
(-1.13441 -0.0354936 2.09871e-19)
(-1.06944 -0.036111 2.29581e-19)
(-1.00375 -0.0366896 -2.50371e-19)
(-0.937444 -0.0372272 0)
(-0.870613 -0.0377227 0)
(-0.803362 -0.0381742 -3.20052e-19)
(-0.735794 -0.0385808 0)
(-0.668014 -0.0389406 0)
(-0.600127 -0.0392534 0)
(-0.532239 -0.0395177 0)
(-0.464455 -0.0397348 4.67001e-19)
(-0.396878 -0.0399027 5.02286e-19)
(-0.329608 -0.0400251 0)
(-0.262754 -0.0401031 5.80308e-19)
(-0.196401 -0.0401419 0)
(-0.130626 -0.0401544 0)
(-0.0655695 -0.0401164 7.20284e-19)
(-0.00103025 -0.0396759 0)
(0.0630432 -0.0385725 7.45478e-19)
(0.126317 -0.0371625 0)
(0.188523 -0.03573 0)
(0.249577 -0.0343407 6.95971e-19)
(0.30943 -0.0330045 0)
(0.368068 -0.0317212 6.69693e-19)
(0.425483 -0.0304875 0)
(0.481675 -0.0292998 0)
(0.536647 -0.0281552 0)
(0.590406 -0.0270515 -6.27262e-19)
(0.642959 -0.0259855 0)
(0.694313 -0.0249531 6.09542e-19)
(0.744469 -0.0239472 0)
(0.79341 -0.0229576 0)
(0.841094 -0.0219664 0)
(0.887409 -0.0209449 0)
(0.932184 -0.0198334 0)
(0.974781 -0.0185181 0)
(1.01494 -0.016725 0)
(1.04744 -0.0137481 -1.11756e-18)
(1.07842 -0.0077943 0)
(1.05211 0.00854425 0)
(0.00456487 -0.0383787 1.85521e-18)
(0.00853352 -0.0311703 -8.81501e-19)
(0.00661755 -0.0147998 0)
(0.00160035 0.00132393 2.70653e-19)
(-0.00591428 0.0155624 0)
(-0.0158512 0.027213 1.01344e-19)
(-0.0280938 0.0361738 -1.84178e-19)
(-0.0424805 0.042777 -1.6926e-19)
(-0.0587711 0.047559 0)
(-0.0766892 0.0510661 -1.45228e-19)
(-0.0959883 0.0537402 -6.77373e-20)
(-0.116476 0.0558889 0)
(-0.13801 0.0577044 0)
(-0.160496 0.0592959 0)
(-0.183878 0.0607211 0)
(-0.20813 0.0620111 -5.09702e-20)
(-0.233247 0.0631887 0)
(-0.259245 0.0642804 9.35462e-20)
(-0.286158 0.0653228 0)
(-0.314034 0.0663652 0)
(-0.342919 0.067472 -8.47219e-20)
(-0.372849 0.0687131 0)
(-0.403845 0.0701437 8.09445e-20)
(-0.435943 0.0718072 -3.98333e-20)
(-0.469218 0.0737116 3.93493e-20)
(-0.503662 0.0757905 -3.90089e-20)
(-0.539092 0.0779237 -3.87505e-20)
(-0.574899 0.0799407 0)
(-0.611508 0.081266 0)
(-0.649718 0.0817558 3.67542e-20)
(-0.688977 0.0826419 -3.54493e-20)
(-0.729926 0.0835497 0)
(-0.771128 0.0843261 0)
(-0.810956 0.0860539 3.17809e-20)
(-0.849541 0.0873046 0)
(-0.887665 0.0863786 0)
(-0.925954 0.0846603 -3.16689e-20)
(-0.96402 0.0838386 0)
(-1.00403 0.0840475 3.23744e-20)
(-1.04581 0.0851855 -6.46004e-20)
(-1.08857 0.0872271 0)
(-1.12819 0.0883372 0)
(-1.16619 0.0886861 -1.19965e-19)
(-1.20339 0.0885263 -1.17403e-19)
(-1.24013 0.0880279 -1.14968e-19)
(-1.27655 0.0873263 5.61663e-20)
(-1.31271 0.0865001 -5.53869e-20)
(-1.34862 0.0855974 -1.62705e-19)
(-1.3843 0.0846454 1.06374e-19)
(-1.41974 0.0836613 5.23885e-20)
(-1.45495 0.0826536 0)
(-1.48991 0.0816282 -5.06073e-20)
(-1.52461 0.0805866 4.94718e-20)
(-1.55906 0.0795295 0)
(-1.59324 0.0784555 0)
(-1.62713 0.0773633 0)
(-1.66073 0.0762501 -4.67342e-20)
(-1.69401 0.0751142 0)
(-1.72695 0.0739523 9.04463e-20)
(-1.75955 0.0727624 0)
(-1.79177 0.0715417 8.78775e-20)
(-1.82359 0.0702885 0)
(-1.855 0.0690004 -8.54447e-20)
(-1.88596 0.067676 0)
(-1.91646 0.0663133 8.31251e-20)
(-1.94645 0.0649113 -4.08724e-20)
(-1.97593 0.063469 0)
(-2.00485 0.0619858 -7.98136e-20)
(-2.03319 0.0604613 -3.94922e-20)
(-2.06092 0.0588954 -3.8962e-20)
(-2.08802 0.0572881 0)
(-2.11444 0.0556398 -3.76993e-20)
(-2.14016 0.0539507 -3.74032e-20)
(-2.16514 0.0522216 0)
(-2.18937 0.0504532 3.63811e-20)
(-2.2128 0.0486466 -7.1557e-20)
(-2.23541 0.0468033 0)
(-2.25716 0.0449246 -3.48569e-20)
(-2.27802 0.0430121 0)
(-2.29797 0.0410669 1.01359e-19)
(-2.31696 0.0390906 0)
(-2.33497 0.0370844 -9.82903e-20)
(-2.35197 0.0350494 -3.22883e-20)
(-2.36793 0.0329856 3.16494e-20)
(-2.38281 0.0308946 6.22606e-20)
(-2.39659 0.0287768 -6.12112e-20)
(-2.40924 0.0266351 0)
(-2.42072 0.0244713 0)
(-2.43102 0.0222887 0)
(-2.44009 0.0200852 1.70845e-19)
(-2.44793 0.017854 5.58385e-20)
(-2.45451 0.0155848 -5.46761e-20)
(-2.45982 0.0132675 0)
(-2.46387 0.0108969 -5.2298e-20)
(-2.46666 0.00847659 5.10768e-20)
(-2.46827 0.00603132 4.98429e-20)
(-2.46878 0.00361577 0)
(-2.46828 0.00130595 0)
(-2.46654 -0.000892458 0)
(-2.46339 -0.00303559 4.46052e-20)
(-2.45877 -0.00515753 0)
(-2.45266 -0.00726955 -8.38485e-20)
(-2.44504 -0.00937542 -1.21431e-19)
(-2.43587 -0.0114753 7.81467e-20)
(-2.42513 -0.0135668 0)
(-2.41281 -0.0156487 3.62577e-20)
(-2.39887 -0.0177178 0)
(-2.38331 -0.0197743 6.60644e-20)
(-2.3661 -0.0218153 -3.1634e-20)
(-2.34724 -0.0238415 -3.00298e-20)
(-2.32669 -0.0258498 0)
(-2.30446 -0.0278407 -7.92389e-20)
(-2.28053 -0.0298105 4.95382e-20)
(-2.25488 -0.0317594 2.27509e-20)
(-2.22752 -0.0336828 0)
(-2.19843 -0.0355809 1.90933e-20)
(-2.16762 -0.0374492 5.22304e-20)
(-2.13507 -0.0392874 0)
(-2.10079 -0.0410914 2.72895e-20)
(-2.06479 -0.0428608 2.32946e-20)
(-2.02707 -0.044592 1.92118e-20)
(-1.98764 -0.0462835 0)
(-1.94653 -0.0479301 0)
(-1.90373 -0.0495299 0)
(-1.85926 -0.0510787 -1.41192e-21)
(-1.81314 -0.0525781 1.75672e-21)
(-1.76539 -0.0540277 0)
(-1.71605 -0.0554286 1.20422e-20)
(-1.66514 -0.0567745 1.69203e-20)
(-1.61271 -0.0580511 0)
(-1.55879 -0.0592533 2.80922e-20)
(-1.50342 -0.0603929 6.44595e-20)
(-1.44666 -0.0614681 -3.87046e-20)
(-1.38856 -0.0624676 -4.183e-20)
(-1.32919 -0.0633897 0)
(-1.26861 -0.0642318 0)
(-1.2069 -0.0649949 0)
(-1.14413 -0.0656766 -6.73169e-20)
(-1.08038 -0.0662767 7.07258e-20)
(-1.01572 -0.0667905 1.56476e-19)
(-0.95025 -0.0672115 -8.59286e-20)
(-0.884037 -0.0675347 8.9536e-20)
(-0.817177 -0.0677549 9.89368e-20)
(-0.74977 -0.0678739 0)
(-0.681921 -0.06789 0)
(-0.613735 -0.0678071 -1.16313e-19)
(-0.545321 -0.0676239 0)
(-0.476787 -0.0673448 0)
(-0.408242 -0.0669697 2.78224e-19)
(-0.339794 -0.0665029 0)
(-0.271549 -0.0659471 1.52249e-19)
(-0.203615 -0.0653063 -1.62811e-19)
(-0.136088 -0.0645788 0)
(-0.069072 -0.0637743 1.74894e-19)
(-0.00258925 -0.0629215 0)
(0.0633036 -0.0620405 0)
(0.128461 -0.0611299 -1.90243e-19)
(0.192717 -0.0600488 3.82639e-19)
(0.255869 -0.0586258 -1.9524e-19)
(0.317895 -0.0569686 0)
(0.378844 -0.0552444 0)
(0.438715 -0.0535226 2.00072e-19)
(0.497476 -0.0518246 0)
(0.555111 -0.0501596 2.04442e-19)
(0.611613 -0.0485308 0)
(0.66698 -0.0469411 0)
(0.721219 -0.0453916 0)
(0.774339 -0.0438837 2.13458e-19)
(0.826351 -0.0424156 0)
(0.877266 -0.0409829 -2.16042e-19)
(0.927089 -0.0395758 0)
(0.975809 -0.0381775 0)
(1.02339 -0.0367556 4.36395e-19)
(1.06974 -0.0352527 -4.37978e-19)
(1.1147 -0.0335523 0)
(1.15778 -0.0314358 0)
(1.19866 -0.0283382 0)
(1.2344 -0.0232001 1.33622e-18)
(1.26815 -0.012409 0)
(1.28153 0.0119484 -9.20423e-19)
(-0.0017338 -0.0418833 -9.38685e-22)
(-0.00634553 -0.0207855 8.40533e-19)
(-0.0144392 0.00121645 0)
(-0.0246648 0.0208603 -3.37174e-19)
(-0.0363305 0.038015 0)
(-0.0491836 0.0526548 0)
(-0.0633092 0.0648015 2.659e-23)
(-0.0788337 0.0746288 1.0497e-19)
(-0.0958078 0.0824666 9.88697e-20)
(-0.1142 0.0887234 9.37188e-20)
(-0.13393 0.0938015 0)
(-0.154898 0.0980429 0)
(-0.177014 0.101708 -8.14196e-20)
(-0.200207 0.104982 -1.56275e-19)
(-0.22443 0.107989 1.5038e-19)
(-0.249662 0.110815 0)
(-0.275899 0.113525 1.40344e-19)
(-0.30315 0.116177 -6.80462e-20)
(-0.331431 0.118833 0)
(-0.360754 0.121559 1.28975e-19)
(-0.391117 0.124425 6.29875e-20)
(-0.422485 0.127487 -1.23494e-19)
(-0.454792 0.130768 -6.0586e-20)
(-0.48795 0.134245 0)
(-0.521839 0.137844 1.17445e-19)
(-0.556307 0.14139 1.15509e-19)
(-0.59118 0.144584 0)
(-0.626291 0.147087 1.10895e-19)
(-0.661773 0.14849 0)
(-0.697971 0.14878 1.0463e-19)
(-0.734847 0.149047 5.08065e-20)
(-0.772167 0.149841 0)
(-0.809244 0.151043 0)
(-0.845334 0.153245 0)
(-0.879987 0.155377 0)
(-0.913407 0.155756 0)
(-0.946288 0.15479 0)
(-0.97899 0.153467 8.89308e-20)
(-1.01211 0.150427 -1.31544e-19)
(-1.04628 0.146607 0)
(-1.08094 0.144384 0)
(-1.11501 0.142817 0)
(-1.14844 0.141418 1.9423e-22)
(-1.18137 0.139988 7.95107e-20)
(-1.21394 0.138482 1.5585e-19)
(-1.24625 0.136906 -1.52989e-19)
(-1.27834 0.135276 -7.50416e-20)
(-1.31024 0.133609 7.38969e-20)
(-1.34197 0.131915 -1.65975e-22)
(-1.37354 0.130201 7.12655e-20)
(-1.40494 0.128468 0)
(-1.43616 0.126719 6.89857e-20)
(-1.46721 0.124952 -1.6739e-22)
(-1.49806 0.123164 0)
(-1.52872 0.121351 0)
(-1.55916 0.119511 -6.48807e-20)
(-1.58937 0.117638 0)
(-1.61933 0.11573 0)
(-1.64902 0.113782 6.19511e-20)
(-1.67843 0.111789 1.22486e-19)
(-1.70754 0.10975 -6.05529e-20)
(-1.73632 0.10766 0)
(-1.76474 0.105516 5.88987e-20)
(-1.79279 0.103317 0)
(-1.82043 0.10106 5.69976e-20)
(-1.84765 0.0987445 5.65288e-20)
(-1.87441 0.096368 -1.11228e-19)
(-1.90069 0.0939304 -5.47157e-20)
(-1.92646 0.0914313 0)
(-1.95169 0.0888707 1.06757e-19)
(-1.97634 0.086249 0)
(-2.0004 0.0835667 1.55889e-19)
(-2.02382 0.0808248 1.02393e-19)
(-2.04658 0.0780244 1.00952e-19)
(-2.06865 0.0751671 -9.95145e-20)
(-2.08999 0.0722544 1.47228e-19)
(-2.11058 0.0692887 0)
(-2.13038 0.0662719 0)
(-2.14937 0.0632063 -9.37544e-20)
(-2.1675 0.0600939 -1.38543e-19)
(-2.18476 0.0569374 0)
(-2.2011 0.0537386 4.47642e-20)
(-2.2165 0.0504998 0)
(-2.23093 0.0472225 -1.29663e-19)
(-2.24436 0.0439088 -1.16062e-22)
(-2.25675 0.0405605 1.02567e-22)
(-2.26809 0.0371802 8.18257e-20)
(-2.27835 0.0337703 0)
(-2.28749 0.0303342 -7.86869e-20)
(-2.2955 0.0268735 -4.80578e-23)
(-2.30235 0.0233896 0)
(-2.30804 0.0198853 0)
(-2.31255 0.0163672 0)
(-2.31588 0.0128469 7.04594e-20)
(-2.31803 0.00934226 0)
(-2.31897 0.00587395 0)
(-2.3187 0.00245335 0)
(-2.31714 -0.000940198 0)
(-2.31424 -0.00433079 0)
(-2.30995 -0.00771816 5.96405e-20)
(-2.30424 -0.0110986 0)
(-2.29708 -0.014471 5.56464e-20)
(-2.28844 -0.0178341 5.36592e-20)
(-2.2783 -0.021185 -5.16419e-20)
(-2.26664 -0.024521 0)
(-2.25343 -0.0278378 -4.75143e-20)
(-2.23865 -0.0311331 0)
(-2.22229 -0.0344038 -4.3258e-20)
(-2.20432 -0.0376482 4.108e-20)
(-2.18474 -0.0408635 1.17161e-19)
(-2.16352 -0.0440479 0)
(-2.14066 -0.0471981 1.03648e-19)
(-2.11613 -0.0503117 3.26874e-20)
(-2.08994 -0.053385 0)
(-2.06207 -0.0564145 5.52914e-20)
(-2.03251 -0.0593963 5.04707e-20)
(-2.00127 -0.0623263 -6.79539e-20)
(-1.96833 -0.0652003 0)
(-1.93371 -0.0680145 -1.73292e-20)
(-1.8974 -0.0707652 -1.47446e-20)
(-1.85942 -0.0734481 -3.73256e-20)
(-1.81977 -0.0760586 0)
(-1.77847 -0.0785908 0)
(-1.73552 -0.0810394 0)
(-1.69095 -0.0834 -2.33139e-21)
(-1.64478 -0.0856712 0)
(-1.59703 -0.0878522 0)
(-1.54773 -0.0899412 -7.4052e-21)
(-1.49691 -0.0919302 -1.03634e-20)
(-1.44461 -0.0938064 0)
(-1.39088 -0.0955594 0)
(-1.33575 -0.0971966 -3.89866e-20)
(-1.27928 -0.0987155 0)
(-1.22153 -0.100104 5.15676e-20)
(-1.16256 -0.101357 5.64817e-20)
(-1.10244 -0.102473 0)
(-1.04124 -0.103449 0)
(-0.979044 -0.104284 -7.60692e-20)
(-0.915924 -0.104973 -1.63285e-21)
(-0.851965 -0.105513 -1.66318e-21)
(-0.787249 -0.105895 0)
(-0.72186 -0.106112 -2.08028e-19)
(-0.655893 -0.106159 0)
(-0.589446 -0.106038 0)
(-0.522625 -0.105746 0)
(-0.455536 -0.10529 1.32924e-19)
(-0.388284 -0.104669 0)
(-0.320978 -0.103888 -2.90629e-19)
(-0.253726 -0.102952 -1.54281e-19)
(-0.186633 -0.101866 0)
(-0.119802 -0.100633 -1.68557e-19)
(-0.0533372 -0.0992654 0)
(0.0126991 -0.0977832 0)
(0.0782036 -0.0962019 -5.55334e-19)
(0.143055 -0.0945122 3.77542e-19)
(0.20715 -0.0927095 0)
(0.270408 -0.0908139 3.93714e-19)
(0.332749 -0.0888342 -2.02427e-19)
(0.394095 -0.0867419 0)
(0.454419 -0.0845391 0)
(0.513722 -0.0822732 0)
(0.571979 -0.0799896 -6.48982e-19)
(0.629164 -0.0777116 0)
(0.685259 -0.0754543 -2.23957e-19)
(0.74026 -0.0732264 0)
(0.794169 -0.0710355 0)
(0.846995 -0.0688867 0)
(0.898753 -0.0667835 0)
(0.94946 -0.0647258 0)
(0.999132 -0.0627082 0)
(1.04778 -0.0607179 -4.82534e-19)
(1.0954 -0.0587299 0)
(1.14197 -0.0566972 -2.46103e-19)
(1.18741 -0.0545341 7.41547e-19)
(1.2316 -0.052078 0)
(1.27416 -0.049019 0)
(1.31491 -0.0446894 -5.0335e-19)
(1.35202 -0.0377764 -5.08648e-19)
(1.38852 -0.0253497 5.13256e-19)
(1.41432 0.000107046 5.26668e-19)
(-0.00745308 -0.0276051 -2.79758e-18)
(-0.017585 0.00157235 -1.00411e-18)
(-0.0295341 0.026356 -3.62587e-19)
(-0.0433567 0.0477008 -1.29985e-19)
(-0.058064 0.0663701 0)
(-0.0733392 0.0826595 1.88499e-19)
(-0.0893134 0.0966992 -8.61778e-20)
(-0.106173 0.108631 0)
(-0.12405 0.118675 -7.61589e-20)
(-0.143021 0.127123 0)
(-0.163108 0.134291 1.39029e-19)
(-0.184297 0.140481 0)
(-0.206554 0.145951 6.43617e-20)
(-0.229843 0.150908 1.24325e-19)
(-0.25413 0.155506 -1.20332e-19)
(-0.279387 0.15986 0)
(-0.30559 0.164056 -1.13378e-19)
(-0.332717 0.168158 0)
(-0.360737 0.172219 0)
(-0.389605 0.176279 -1.05007e-19)
(-0.419251 0.180362 0)
(-0.449577 0.18447 -1.29379e-22)
(-0.480455 0.188564 0)
(-0.511738 0.192554 0)
(-0.543277 0.196291 1.49469e-22)
(-0.574936 0.199581 -9.27236e-20)
(-0.606617 0.202211 -9.08032e-20)
(-0.638286 0.203998 -8.85317e-20)
(-0.67002 0.204856 0)
(-0.701925 0.204951 -1.6765e-19)
(-0.733998 0.204803 0)
(-0.766039 0.20478 -7.9219e-20)
(-0.797789 0.204986 0)
(-0.828977 0.205493 0)
(-0.859317 0.205806 7.39388e-20)
(-0.888913 0.205306 0)
(-0.91814 0.203964 -7.1046e-20)
(-0.947247 0.201935 5.11418e-23)
(-0.976465 0.199114 1.36713e-19)
(-1.00603 0.195925 -1.34019e-19)
(-1.03586 0.193067 0)
(-1.06565 0.190529 0)
(-1.09529 0.188184 -6.31645e-20)
(-1.12472 0.185924 0)
(-1.15399 0.183693 -6.10311e-20)
(-1.1831 0.181465 5.99588e-20)
(-1.21209 0.179231 5.89287e-20)
(-1.24095 0.176986 0)
(-1.26971 0.17473 -5.69861e-20)
(-1.29836 0.17246 -5.60688e-20)
(-1.3269 0.170173 1.10225e-19)
(-1.35532 0.167866 -5.43302e-20)
(-1.38361 0.165533 -5.35044e-20)
(-1.41176 0.16317 0)
(-1.43976 0.160772 0)
(-1.46759 0.158332 5.11753e-20)
(-1.49524 0.155846 0)