# vtk DataFile Version 2.0
track0
ASCII
DATASET POLYDATA
POINTS 12040 float
-0.0205 0.001 1e-05
-0.02052 0.000999985 1e-05
-0.02054 0.000999974 1e-05
-0.02056 0.000999965 1e-05
-0.02058 0.000999959 1e-05
-0.0206 0.000999956 1e-05
-0.0205 0.00367778 1e-05
-0.02052 0.00367778 1e-05
-0.02054 0.00367777 1e-05
-0.02056 0.00367777 1e-05
-0.02058 0.00367777 1e-05
-0.0206 0.00367777 1e-05
-0.0205 0.00635556 1e-05
-0.02052 0.00635555 1e-05
-0.02054 0.00635555 1e-05
-0.02056 0.00635555 1e-05
-0.02058 0.00635555 1e-05
-0.0206 0.00635555 1e-05
-0.0205 0.00903333 1e-05
-0.02052 0.00903333 1e-05
-0.02054 0.00903333 1e-05
-0.02056 0.00903333 1e-05
-0.02058 0.00903333 1e-05
-0.0206 0.00903333 1e-05
-0.0205 0.0117111 1e-05
-0.02052 0.0117111 1e-05
-0.02054 0.0117111 1e-05
-0.02056 0.0117111 1e-05
-0.02058 0.0117111 1e-05
-0.0206 0.0117111 1e-05
-0.0205 0.0143889 1e-05
-0.02052 0.0143889 1e-05
-0.02054 0.0143889 1e-05
-0.02056 0.0143889 1e-05
-0.02058 0.0143889 1e-05
-0.0206 0.0143889 1e-05
-0.0205 0.0170667 1e-05
-0.02052 0.0170667 1e-05
-0.02054 0.0170667 1e-05
-0.02056 0.0170667 1e-05
-0.02058 0.0170667 1e-05
-0.0206 0.0170667 1e-05
-0.0205 0.0197444 1e-05
-0.02052 0.0197444 1e-05
-0.02054 0.0197444 1e-05
-0.02056 0.0197444 1e-05
-0.02058 0.0197444 1e-05
-0.0206 0.0197444 1e-05
-0.0205 0.0224222 1e-05
-0.02052 0.0224222 1e-05
-0.02054 0.0224222 1e-05
-0.02056 0.0224222 1e-05
-0.02058 0.0224222 1e-05
-0.0206 0.0224222 1e-05
-0.0205 0.0251 1e-05
-0.02052 0.0250998 1e-05
-0.02054 0.0250997 1e-05
-0.02056 0.0250995 1e-05
-0.02058 0.0250995 1e-05
-0.0206 0.0250994 1e-05
-0.0205 0.001 1e-05
-0.0202034 0.00100022 1e-05
-0.0199069 0.00100067 1e-05
-0.0196103 0.00100133 1e-05
-0.0193137 0.00100219 1e-05
-0.0190172 0.00100326 1e-05
-0.0187132 0.00100467 1e-05
-0.0184093 0.00100589 1e-05
-0.0181054 0.00100711 1e-05
-0.0178015 0.00100832 1e-05
-0.0174976 0.00100954 1e-05
-0.0172058 0.00101083 1e-05
-0.016914 0.00101193 1e-05
-0.0166222 0.00101303 1e-05
-0.0163305 0.00101413 1e-05
-0.0160387 0.00101523 1e-05
-0.0157586 0.00101636 1e-05
-0.0154784 0.00101744 1e-05
-0.0151983 0.00101856 1e-05
-0.0149182 0.00101971 1e-05
-0.0146381 0.0010209 1e-05
-0.0143744 0.00102208 1e-05
-0.0141107 0.00102327 1e-05
-0.013847 0.00102449 1e-05
-0.0135833 0.00102574 1e-05
-0.0133606 0.00102682 1e-05
-0.0133472 0.00102688 1e-05
-0.0133338 0.00102695 1e-05
-0.0133203 0.00102702 1e-05
-0.0133069 0.00102708 1e-05
-0.0132934 0.00102715 1e-05
-0.0130353 0.00102844 1e-05
-0.0127771 0.00102974 1e-05
-0.0125189 0.00103106 1e-05
-0.0122607 0.00103239 1e-05
-0.0120025 0.00103374 1e-05
-0.0117547 0.00103505 1e-05
-0.0115068 0.00103637 1e-05
-0.0112589 0.00103769 1e-05
-0.0110111 0.00103901 1e-05
-0.0107632 0.00104034 1e-05
-0.0105252 0.00104161 1e-05
-0.0102873 0.00104289 1e-05
-0.0100493 0.00104417 1e-05
-0.00981133 0.00104545 1e-05
-0.00957337 0.00104672 1e-05
-0.00934491 0.00104794 1e-05
-0.00911645 0.00104916 1e-05
-0.00888799 0.00105038 1e-05
-0.00865954 0.0010516 1e-05
-0.00843108 0.00105281 1e-05
-0.00821175 0.00105397 1e-05
-0.00799242 0.00105512 1e-05
-0.00777309 0.00105627 1e-05
-0.00755376 0.00105742 1e-05
-0.00733443 0.00105857 1e-05
-0.00712387 0.00105966 1e-05
-0.0069133 0.00106075 1e-05
-0.00670273 0.00106183 1e-05
-0.00649216 0.00106291 1e-05
-0.0062816 0.00106399 1e-05
-0.00607944 0.00106501 1e-05
-0.00587729 0.00106603 1e-05
-0.00567514 0.00106705 1e-05
-0.00547298 0.00106807 1e-05
-0.00527083 0.00106908 1e-05
-0.00507675 0.00107004 1e-05
-0.00488267 0.001071 1e-05
-0.0046886 0.00107196 1e-05
-0.00449452 0.00107292 1e-05
-0.00430044 0.00107387 1e-05
-0.00411412 0.00107477 1e-05
-0.0039278 0.00107567 1e-05
-0.00374147 0.00107658 1e-05
-0.00355515 0.00107747 1e-05
-0.00336883 0.00107837 1e-05
-0.00318995 0.00107922 1e-05
-0.00301107 0.00108007 1e-05
-0.00283219 0.00108092 1e-05
-0.00265331 0.00108176 1e-05
-0.00247443 0.0010826 1e-05
-0.0023027 0.00108341 1e-05
-0.00213097 0.00108421 1e-05
-0.00195924 0.00108501 1e-05
-0.0017875 0.00108581 1e-05
-0.00161577 0.00108661 1e-05
-0.0014509 0.00108737 1e-05
-0.00128603 0.00108813 1e-05
-0.00112116 0.00108889 1e-05
-0.000956289 0.00108965 1e-05
-0.000791418 0.00109041 1e-05
-0.000633135 0.00109113 1e-05
-0.000474851 0.00109186 1e-05
-0.000316567 0.00109258 1e-05
-0.000158284 0.0010933 1e-05
0 0.00109403 1e-05
0.000105677 0.0010945 1e-05
0.000211355 0.00109498 1e-05
0.000317032 0.00109545 1e-05
0.00042271 0.00109592 1e-05
0.000528387 0.00109638 1e-05
0.000634886 0.00109685 1e-05
0.000741385 0.00109731 1e-05
0.000847885 0.00109777 1e-05
0.000954384 0.00109822 1e-05
0.00106088 0.00109868 1e-05
0.00116821 0.00109913 1e-05
0.00127554 0.00109957 1e-05
0.00138286 0.00110002 1e-05
0.00149019 0.00110045 1e-05
0.00159752 0.00110088 1e-05
0.00170568 0.00110131 1e-05
0.00181384 0.00110173 1e-05
0.001922 0.00110214 1e-05
0.00203016 0.00110255 1e-05
0.00213833 0.00110294 1e-05
0.00224733 0.00110333 1e-05
0.00235633 0.00110371 1e-05
0.00246533 0.00110409 1e-05
0.00257434 0.00110445 1e-05
0.00268334 0.00110481 1e-05
0.00279319 0.00110516 1e-05
0.00290304 0.0011055 1e-05
0.00301289 0.00110584 1e-05
0.00312274 0.00110617 1e-05
0.00323259 0.00110649 1e-05
0.00334329 0.0011068 1e-05
0.003454 0.00110711 1e-05
0.0035647 0.00110741 1e-05
0.0036754 0.00110771 1e-05
0.00378611 0.00110799 1e-05
0.00389767 0.00110827 1e-05
0.00400924 0.00110854 1e-05
0.0041208 0.00110881 1e-05
0.00423237 0.00110906 1e-05
0.00434393 0.00110931 1e-05
0.00445636 0.00110955 1e-05
0.00456879 0.00110979 1e-05
0.00468123 0.00111002 1e-05
0.00479366 0.00111024 1e-05
0.00490609 0.00111045 1e-05
0.0050194 0.00111066 1e-05
0.0051327 0.00111086 1e-05
0.00524601 0.00111105 1e-05
0.00535932 0.00111123 1e-05
0.00547262 0.00111141 1e-05
0.00558681 0.00111158 1e-05
0.005701 0.00111174 1e-05
0.00581518 0.0011119 1e-05
0.00592937 0.00111204 1e-05
0.00604356 0.00111218 1e-05
0.00615863 0.00111231 1e-05
0.00627371 0.00111244 1e-05
0.00638878 0.00111256 1e-05
0.00650386 0.00111267 1e-05
0.00661893 0.00111277 1e-05
0.0067349 0.00111287 1e-05
0.00685087 0.00111296 1e-05
0.00696684 0.00111304 1e-05
0.00708281 0.00111312 1e-05
0.00719878 0.00111318 1e-05
0.00726999 0.00111322 1e-05
0.0073412 0.00111325 1e-05
0.0074124 0.00111328 1e-05
0.00748361 0.00111331 1e-05
0.00755247 0.00111334 1e-05
0.0075986 0.00111335 1e-05
0.00764474 0.00111336 1e-05
0.00769087 0.00111338 1e-05
0.007737 0.00111339 1e-05
0.00778313 0.0011134 1e-05
0.00790091 0.00111342 1e-05
0.00801869 0.00111343 1e-05
0.00813647 0.00111344 1e-05
0.00825425 0.00111344 1e-05
0.00837203 0.00111343 1e-05
0.00849073 0.00111341 1e-05
0.00860942 0.00111338 1e-05
0.00872812 0.00111335 1e-05
0.00884682 0.00111331 1e-05
0.00896551 0.00111326 1e-05
0.00908513 0.0011132 1e-05
0.00920475 0.00111313 1e-05
0.00932437 0.00111306 1e-05
0.00944398 0.00111298 1e-05
0.0095636 0.00111289 1e-05
0.00968415 0.00111278 1e-05
0.0098047 0.00111268 1e-05
0.00992525 0.00111256 1e-05
0.0100458 0.00111244 1e-05
0.0101663 0.00111231 1e-05
0.0102878 0.00111216 1e-05
0.0104093 0.00111201 1e-05
0.0105308 0.00111186 1e-05
0.0106523 0.00111169 1e-05
0.0107738 0.00111152 1e-05
0.0108962 0.00111133 1e-05
0.0110186 0.00111114 1e-05
0.0111411 0.00111094 1e-05
0.0112635 0.00111073 1e-05
0.0113859 0.00111052 1e-05
0.0115093 0.00111028 1e-05
0.0116327 0.00111004 1e-05
0.0117561 0.0011098 1e-05
0.0118795 0.00110955 1e-05
0.0120028 0.00110929 1e-05
0.0121272 0.001109 1e-05
0.0122515 0.00110872 1e-05
0.0123759 0.00110844 1e-05
0.0125002 0.00110814 1e-05
0.0126245 0.00110784 1e-05
0.0127498 0.0011075 1e-05
0.0128752 0.00110718 1e-05
0.0130005 0.00110685 1e-05
0.0131258 0.0011065 1e-05
0.0132511 0.00110615 1e-05
0.0133774 0.00110577 1e-05
0.0135036 0.0011054 1e-05
0.0136299 0.00110502 1e-05
0.0137562 0.00110463 1e-05
0.0138825 0.00110423 1e-05
0.0140098 0.00110381 1e-05
0.014137 0.00110339 1e-05
0.0142643 0.00110296 1e-05
0.0143915 0.00110252 1e-05
0.0145188 0.00110207 1e-05
0.0146471 0.0011016 1e-05
0.0147753 0.00110113 1e-05
0.0149036 0.00110065 1e-05
0.0150318 0.00110016 1e-05
0.0151601 0.00109967 1e-05
0.0152893 0.00109915 1e-05
0.0154186 0.00109863 1e-05
0.0155478 0.0010981 1e-05
0.0156771 0.00109756 1e-05
0.0158063 0.00109702 1e-05
0.0159366 0.00109645 1e-05
0.0160668 0.00109588 1e-05
0.0161971 0.0010953 1e-05
0.0163274 0.00109471 1e-05
0.0164576 0.00109412 1e-05
0.0165889 0.00109351 1e-05
0.0167201 0.00109288 1e-05
0.0168514 0.00109225 1e-05
0.0169827 0.00109161 1e-05
0.0171139 0.00109097 1e-05
0.0172462 0.00109031 1e-05
0.0173785 0.00108964 1e-05
0.0175108 0.00108896 1e-05
0.0176431 0.00108826 1e-05
0.0177754 0.00108757 1e-05
0.0179087 0.00108686 1e-05
0.018042 0.00108614 1e-05
0.0181753 0.00108541 1e-05
0.0183087 0.00108466 1e-05
0.018442 0.00108392 1e-05
0.0185763 0.00108316 1e-05
0.0187107 0.00108239 1e-05
0.018845 0.00108161 1e-05
0.0189794 0.00108081 1e-05
0.0191137 0.00108002 1e-05
0.0192491 0.00107921 1e-05
0.0193845 0.00107839 1e-05
0.0195199 0.00107755 1e-05
0.0196553 0.00107671 1e-05
0.0197907 0.00107586 1e-05
0.0199272 0.00107501 1e-05
0.0200636 0.00107414 1e-05
0.0202001 0.00107325 1e-05
0.0203365 0.00107235 1e-05
0.020473 0.00107145 1e-05
0.0206105 0.00107056 1e-05
0.020748 0.00106964 1e-05
0.0208855 0.00106869 1e-05
0.021023 0.00106774 1e-05
0.0211606 0.0010668 1e-05
0.0212991 0.00106585 1e-05
0.0214377 0.00106488 1e-05
0.0215763 0.00106389 1e-05
0.0217149 0.00106288 1e-05
0.0218535 0.00106189 1e-05
0.0219931 0.00106089 1e-05
0.0221328 0.00105987 1e-05
0.0222724 0.00105883 1e-05
0.0224121 0.00105777 1e-05
0.0225517 0.00105673 1e-05
0.0226925 0.00105568 1e-05
0.0228332 0.00105461 1e-05
0.022974 0.00105351 1e-05
0.0231147 0.00105241 1e-05
0.0232555 0.00105131 1e-05
0.0233973 0.00105022 1e-05
0.0235391 0.00104909 1e-05
0.023681 0.00104794 1e-05
0.0238228 0.00104679 1e-05
0.0239647 0.00104564 1e-05
0.0241076 0.00104449 1e-05
0.0242505 0.00104332 1e-05
0.0243935 0.00104212 1e-05
0.0245364 0.00104091 1e-05
0.0246794 0.00103971 1e-05
0.0248234 0.00103851 1e-05
0.0249675 0.00103729 1e-05
0.0251115 0.00103603 1e-05
0.0252556 0.00103477 1e-05
[...]
POINT_DATA 12040
 FIELD attributes 1
U 3 12040 float
10.0004 	0.00734813 	0 10.0004 	0.0058785 	0 10.0003 	0.00440888 	0 10.0002 	0.00293925 	0 10.0001 	0.00146962 	0 10 	0 	0
10.0001 	0.000878045 	0 10 	0.000702436 	0 10 	0.000526827 	0 10 	0.000351218 	0 10 	0.000175609 	0 10 	0 	0
10.0001 	0.000465813 	0 10.0001 	0.00037246 	0 10.0001 	0.000279108 	0 10 	0.000185755 	0 10 	9.24022e-05 	0 10 	0 	0
10 	0.000265959 	0 10 	0.000212767 	0 10 	0.000159575 	0 10 	0.000106384 	0 10 	5.31918e-05 	0 10 	0 	0
10 	8.0344e-05 	0 10 	6.42752e-05 	0 10 	4.82064e-05 	0 10 	3.21376e-05 	0 10 	1.60688e-05 	0 10 	0 	0
10 	-2.62699e-05 	0 10 	-2.10159e-05 	0 10 	-1.57619e-05 	0 10 	-1.0508e-05 	0 10 	-5.25398e-06 	0 10 	0 	0
10 	-0.000216136 	0 10 	-0.000172909 	0 10 	-0.000129682 	0 10 	-8.64544e-05 	0 10 	-4.32272e-05 	0 10 	0 	0
10 	-0.000377669 	0 10 	-0.000302135 	0 10 	-0.000226602 	0 10 	-0.000151068 	0 10 	-7.55338e-05 	0 10 	0 	0
9.99999 	-0.000426489 	0 9.99999 	-0.000341191 	0 9.99999 	-0.000255894 	0 10 	-0.000170596 	0 10 	-8.52978e-05 	0 10 	0 	0
9.17387 	0.0871272 	0 9.1308 	0.0697018 	0 9.08741 	0.0522761 	0 9.04368 	0.0348501 	0 8.99963 	0.017424 	0 8.95524 	0 	0
10.0004 	0.00734813 	0 10.0024 	0.015206 	0 10.0045 	0.0222275 	0 10.0065 	0.0292045 	0 10.0086 	0.0361374 	0 10.0136 	0.0463291 	0 10.0164 	0.0402095 	0 10.0208 	0.0401598 	0 10.0253 	0.0401103 	0 10.0297 	0.0400609 	0 10.0356 	0.0445194 	0 10.0385 	0.0378808 	0 10.0425 	0.0378373 	0 10.0465 	0.0377937 	0 10.0504 	0.0377501 	0 10.0545 	0.0408519 	0 10.0567 	0.0387735 	0 10.0592 	0.0400825 	0 10.0616 	0.0413932 	0 10.064 	0.0427056 	0 10.0662 	0.0451641 	0 10.0677 	0.045275 	0 10.0691 	0.0464777 	0 10.0704 	0.0476815 	0 10.0717 	0.0488864 	0 10.0729 	0.0499049 	0 10.0729 	0.0499668 	0 10.073 	0.0500287 	0 10.0731 	0.0500906 	0 10.0732 	0.0501525 	0 10.0732 	0.0502051 	0 10.0738 	0.0508312 	0 10.0743 	0.0514514 	0 10.0748 	0.0520721 	0 10.0753 	0.0526933 	0 10.0758 	0.0531507 	0 10.0757 	0.0534455 	0 10.0754 	0.053635 	0 10.075 	0.0538247 	0 10.0747 	0.0540144 	0 10.0741 	0.0539659 	0 10.0737 	0.0541097 	0 10.0726 	0.0540852 	0 10.0715 	0.0540608 	0 10.0705 	0.0540363 	0 10.0689 	0.0537428 	0 10.0685 	0.0538215 	0 10.0669 	0.0536867 	0 10.0653 	0.0535518 	0 10.0637 	0.0534169 	0 10.0612 	0.0529957 	0 10.0611 	0.0530478 	0 10.0591 	0.0528514 	0 10.0571 	0.0526549 	0 10.0551 	0.0524584 	0 10.0516 	0.0519629 	0 10.0522 	0.052013 	0 10.0499 	0.0517895 	0 10.0476 	0.051566 	0 10.0453 	0.0513423 	0 10.0407 	0.0508116 	0 10.0421 	0.0508805 	0 10.0396 	0.0506511 	0 10.0371 	0.0504216 	0 10.0346 	0.050192 	0 10.0289 	0.0496417 	0 10.0313 	0.0497353 	0 10.0287 	0.0495155 	0 10.0261 	0.0492957 	0 10.0234 	0.0490759 	0 10.0165 	0.0485277 	0 10.0202 	0.0486547 	0 10.0175 	0.0484456 	0 10.0147 	0.0482365 	0 10.012 	0.0480274 	0 10.004 	0.0474719 	0 10.0088 	0.0476296 	0 10.0061 	0.0474653 	0 10.0034 	0.0473009 	0 10.0006 	0.0471365 	0 9.99142 	0.0466343 	0 9.9976 	0.0468515 	0 9.99492 	0.0466936 	0 9.99224 	0.0465356 	0 9.98956 	0.0463776 	0 9.97914 	0.0458303 	0 9.98669 	0.0460521 	0 9.98409 	0.0460154 	0 9.9815 	0.0459787 	0 9.9789 	0.045942 	0 9.96731 	0.0455665 	0 9.97633 	0.0458498 	9.10169e-22 9.97433 	0.0456934 	5.89714e-21 9.97232 	0.0455369 	1.08843e-20 9.97032 	0.0453805 	1.58715e-20 9.95825 	0.0447676 	1.34789e-20 9.96849 	0.0448702 	9.26735e-20 9.96668 	0.0445567 	8.60112e-20 9.96488 	0.0442431 	7.93453e-20 9.96307 	0.0439295 	7.26759e-20 9.9508 	0.0432482 	-1.47476e-20 9.96088 	0.043205 	-3.99616e-20 9.95912 	0.0429095 	-4.44575e-20 9.95735 	0.042614 	-4.89519e-20 9.95559 	0.0423185 	-5.34447e-20 9.94352 	0.0417481 	-2.10717e-20 9.95314 	0.0415439 	-1.85372e-20 9.95123 	0.040981 	-1.29051e-20 9.94931 	0.040418 	-7.27341e-21 9.9474 	0.0398549 	-1.64214e-21 9.93553 	0.0390691 	6.9152e-21 9.94474 	0.0387529 	-5.63817e-21 9.94264 	0.0379443 	-2.39406e-20 9.94052 	0.0371356 	-4.22451e-20 9.9384 	0.0363267 	-6.05515e-20 9.92664 	0.0352538 	-8.63478e-20 9.93528 	0.0350055 	-1.21808e-19 9.93282 	0.0341874 	-1.09644e-19 9.93036 	0.033369 	-9.7473e-20 9.92789 	0.0325505 	-8.52942e-20 9.91613 	0.0313464 	-2.94324e-20 9.92403 	0.0312215 	3.35776e-20 9.92118 	0.0304818 	4.68351e-20 9.91832 	0.0297417 	6.00835e-20 9.91545 	0.0290015 	7.33226e-20 9.90376 	0.0277735 	3.61953e-20 9.91084 	0.0276908 	-4.52677e-20 9.9076 	0.0269878 	-5.12312e-20 9.90436 	0.0262845 	-5.71806e-20 9.90111 	0.025581 	-6.31159e-20 9.88958 	0.0243635 	-3.32512e-22 9.89572 	0.024243 	5.88317e-20 9.89207 	0.0235469 	4.95849e-20 9.88842 	0.0228506 	4.0324e-20 9.88477 	0.022154 	3.1049e-20 9.87348 	0.020984 	-2.82318e-20 9.87848 	0.0207986 	-8.17412e-20 9.87438 	0.0201094 	-1.03539e-19 9.87027 	0.01942 	-1.25331e-19 9.86616 	0.0187303 	-1.47117e-19 9.85521 	0.0176402 	-1.34472e-19 9.85885 	0.0173852 	-1.53037e-19 9.85428 	0.0167073 	-1.40819e-19 9.84969 	0.016029 	-1.28597e-19 9.84511 	0.0153505 	-1.1637e-19 9.83466 	0.0143565 	-8.22523e-20 9.83668 	0.0140391 	-6.90415e-20 9.83162 	0.0133779 	-5.08803e-20 9.82656 	0.0127163 	-3.27209e-20 9.8215 	0.0120545 	-1.45631e-20 9.81178 	0.0111603 	1.97418e-21 9.81188 	0.0107752 	0 9.80636 	0.0101263 	0 9.80084 	0.00947702 	0 9.79531 	0.00882748 	0 9.78662 	0.00802845 	0 9.78445 	0.00756147 	-1.63848e-20 9.77847 	0.0069189 	-3.50001e-20 9.77249 	0.00627602 	-5.3617e-20 9.76649 	0.00563283 	-7.22356e-20 9.75919 	0.00492929 	-9.14089e-20 9.75685 	0.00461392 	-9.47581e-20 9.75293 	0.00422629 	-9.52029e-20 9.74901 	0.00383854 	-9.56459e-20 9.74509 	0.00345067 	-9.6087e-20 9.7413 	0.00307547 	-9.65117e-20 9.73872 	0.00282265 	-9.72336e-20 9.73615 	0.00256977 	-9.79557e-20 9.73357 	0.00231684 	-9.86781e-20 9.731 	0.00206385 	-9.94007e-20 9.72591 	0.00169818 	-9.93917e-20 9.72129 	0.00116893 	-7.41796e-20 9.71434 	0.000536288 	-4.5606e-20 9.70738 	-9.67404e-05 	-1.70417e-20 9.70042 	-0.000730155 	1.15133e-20 9.68456 	-0.00175373 	4.89842e-20 9.68536 	-0.00202731 	4.98489e-20 9.67798 	-0.00265412 	5.0972e-20 9.6706 	-0.00328134 	5.20929e-20 9.6632 	-0.00390898 	5.32116e-20 9.64068 	-0.0051767 	5.64355e-20 9.64678 	-0.00522487 	4.44627e-20 9.63899 	-0.00584576 	3.24874e-20 9.63119 	-0.0064671 	2.05109e-20 9.62338 	-0.0070889 	8.5332e-21 9.59453 	-0.00855666 	-1.06787e-21 9.60563 	-0.00842214 	-8.03334e-21 9.59745 	-0.0090374 	-1.94656e-20 9.58926 	-0.00965315 	-3.08967e-20 9.58106 	-0.0102694 	-4.23267e-20 9.54636 	-0.0118855 	-5.37721e-20 9.56205 	-0.0116186 	-5.35788e-20 9.55351 	-0.0122304 	-6.08269e-20 9.54496 	-0.0128428 	-6.8072e-20 9.5364 	-0.0134557 	-7.53141e-20 9.49646 	-0.0151658 	-9.39374e-20 9.51624 	-0.0148173 	-1.48692e-19 9.50737 	-0.015426 	-1.39365e-19 9.49848 	-0.0160353 	-1.30051e-19 9.48958 	-0.0166451 	-1.20749e-19 9.44507 	-0.0183896 	-4.09571e-20 9.46838 	-0.0180107 	-2.61449e-20 9.45919 	-0.0186159 	-1.83233e-20 9.44999 	-0.0192217 	-1.05008e-20 9.44078 	-0.0198281 	-2.67765e-21 9.39242 	-0.0215493 	0 9.41866 	-0.0211884 	0 9.40919 	-0.0217911 	0 9.3997 	-0.0223944 	0 9.39021 	-0.0229983 	0 9.33876 	-0.024646 	0 9.36734 	-0.0243498 	1.56272e-21 9.3576 	-0.0249519 	8.84351e-21 9.34786 	-0.0255547 	1.61235e-20 9.3381 	-0.0261581 	2.34028e-20 9.28431 	-0.0276847 	4.11419e-20 9.31463 	-0.0275026 	1.58651e-19 9.30467 	-0.0281046 	1.61532e-19 9.29469 	-0.0287072 	1.64428e-19 9.28469 	-0.0293105 	1.67337e-19 9.22928 	-0.0306637 	4.133e-20 9.2608 	-0.0306386 	2.20625e-20 9.25062 	-0.031239 	1.55539e-20 9.24043 	-0.0318401 	9.04439e-21 9.22753 	-0.032473 	3.78136e-21 9.17384 	-0.0335755 	1.7386e-20 9.20192 	-0.0337852 	1.03504e-19 9.1957 	-0.0343415 	1.13834e-19 9.18533 	-0.0349403 	1.15037e-19 9.16825 	-0.0355795 	9.98865e-20 9.11818 	-0.0364163 	3.96127e-21 9.1429 	-0.0368436 	-9.79846e-20 9.14013 	-0.037402 	-1.28283e-19 9.1296 	-0.037998 	-1.38383e-19 9.10907 	-0.038593 	-1.27304e-19 9.06246 	-0.0391846 	-6.09329e-20 9.08402 	-0.0398093 	-1.76346e-19 9.08414 	-0.0404126 	-2.16471e-19 9.07347 	-0.0410055 	-2.187e-19 9.05014 	-0.0415118 	-1.71608e-19 9.00682 	-0.0418808 	-4.65991e-20 9.02543 	-0.0426823 	-2.46446e-20 9.02794 	-0.0433677 	-1.07796e-20 9.01715 	-0.0439575 	-3.59146e-21 8.99163 	-0.0443368 	0 8.95141 	-0.0445061 	0 8.96729 	-0.0454636 	0 8.97171 	-0.0462625 	0 8.96082 	-0.046849 	0 8.93367 	-0.0470701 	2.0136e-21 8.89635 	-0.0470626 	5.28705e-21 8.90972 	-0.0481563 	2.16596e-21 8.91563 	-0.0490943 	0 8.90468 	-0.0496775 	0 8.87638 	-0.0497153 	2.39876e-21 8.84174 	-0.0495533 	5.67633e-21 8.85282 	-0.0507636 	2.55473e-21 8.85987 	-0.0518605 	1.18422e-21 8.84886 	-0.0524407 	7.71033e-21 8.81985 	-0.0522766 	2.42177e-20 8.78769 	-0.0519816 	4.24787e-20 8.79669 	-0.0532908 	1.66524e-19 8.80456 	-0.0545612 	2.83977e-19 8.79352 	-0.0551383 	2.87393e-19 8.76416 	-0.0547591 	1.67027e-19 8.73427 	-0.0543513 	4.29844e-20 8.7414 	-0.0557421 	2.4986e-20 8.74848 	-0.0571344 	6.98875e-21 8.7372 	-0.057669 	2.95179e-22 8.70939 	-0.057168 	3.4491e-21 8.68159 	-0.0566666 	6.60286e-21 8.68703 	-0.0581237 	3.60884e-21 8.69242 	-0.0595822 	6.15594e-22 8.6815 	-0.0600865 	2.0635e-21 8.65559 	-0.0595098 	-1.81912e-21 8.6297 	-0.0589327 	-5.70079e-21 8.63362 	-0.0604418 	-4.863e-20 8.6375 	-0.0619524 	-9.1563e-20 8.62699 	-0.0624266 	-9.29034e-20 8.60281 	-0.0617899 	-5.36251e-20 8.57866 	-0.0611527 	-1.43448e-20 8.58124 	-0.0627032 	8.37915e-20 8.58376 	-0.0642552 	1.81923e-19 8.5737 	-0.0647009 	1.90376e-19 8.5511 	-0.0640177 	1.08642e-19 8.52853 	-0.063334 	2.69077e-20 8.52991 	-0.0649198 	1.56493e-20 8.53124 	-0.0665071 	4.38748e-21 8.52165 	-0.0669257 	4.83298e-22 8.50049 	-0.066205 	5.05194e-21 8.47935 	-0.0654839 	9.62234e-21 8.47969 	-0.0670936 	4.1479e-21 8.47997 	-0.068705 	-1.33153e-21 8.47088 	-0.0690974 	-2.06313e-20 8.451 	-0.0683521 	-7.01733e-20 8.43115 	-0.0676062 	-1.19718e-19 8.43057 	-0.069226 	-2.49391e-19 8.42993 	-0.0708472 	-3.7906e-19 8.42135 	-0.0712148 	-3.6407e-19 8.40264 	-0.0704609 	-2.15435e-19 8.38395 	-0.0697063 	-6.68007e-20 8.38256 	-0.0713238 	5.59431e-20 8.3811 	-0.072939 	1.78345e-19 8.37274 	-0.0732528 	1.75973e-19 8.3554 	-0.0725418 	8.96139e-20 8.33777 	-0.0717948 	3.49513e-22 8.33566 	-0.073406 	-8.82458e-20 8.33266 	-0.0748378 	-1.65745e-19 8.32446 	-0.0751581 	-1.74939e-19 8.30928 	-0.0746145 	-1.13355e-19 8.29261 	-0.0738833 	-3.64435e-20 8.28987 	-0.0754846 	-2.53149e-20 8.28562 	-0.0767323 	-1.42838e-20 8.27756 	-0.0770606 	-3.49956e-21 8.26426 	-0.0766883 	1.37719e-20 8.24846 	-0.075979 	3.41619e-20 8.24516 	-0.0775679 	1.2565e-20 8.23992 	-0.078634 	-2.40275e-21 8.23199 	-0.078972 	-8.14692e-21 8.22033 	-0.0787725 	-3.07403e-21 8.20532 	-0.0780902 	1.17086e-20 8.20153 	-0.0796662 	-4.66308e-21 8.19549 	-0.0805555 	-1.5416e-20 8.18769 	-0.0809048 	-2.17513e-20 8.17745 	-0.0808774 	-3.3777e-20 8.16316 	-0.080226 	-5.5222e-20 8.15893 	-0.0817887 	5.22664e-20 8.15228 	-0.0825072 	8.58727e-20 8.14461 	-0.0828693 	8.82908e-20 8.13559 	-0.0830121 	6.95375e-20 8.12196 	-0.0823942 	-2.2494e-20 8.11735 	-0.083944 	6.82671e-20 8.11024 	-0.0844985 	8.47817e-20 8.10269 	-0.0848748 	8.79916e-20 8.09473 	-0.0851847 	8.57182e-20 8.08171 	-0.0846029 	1.01942e-20 8.07674 	-0.0861405 	-6.40702e-22 8.06932 	-0.0865383 	-4.7303e-22 8.06187 	-0.0869302 	-2.46377e-22 8.0544 	-0.0873223 	-1.97456e-23 8.04237 	-0.08686 	1.80032e-20 8.03681 	-0.0882266 	0 8.02947 	-0.0886351 	0 8.02212 	-0.0890439 	0 8.01475 	-0.0894529 	0 8.00391 	-0.0891732 	1.49904e-20 7.99788 	-0.0903705 	0 7.99064 	-0.0907972 	0 7.98338 	-0.0912241 	0 7.9761 	-0.0916514 	0 7.96631 	-0.0915503 	0 7.95993 	-0.0925862 	0 7.95277 	-0.0930324 	0 7.94559 	-0.0934787 	0 7.9384 	-0.0939254 	0 7.92952 	-0.0939988 	-8.29085e-21 7.92289 	-0.0948814 	0 7.91581 	-0.0953481 	0 7.90871 	-0.095815 	0 7.90159 	-0.0962823 	0 7.89351 	-0.0965263 	-1.01836e-20 7.88672 	-0.097263 	0 7.8797 	-0.0977513 	0 7.87267 	-0.0982399 	0 7.86562 	-0.0987287 	0 7.85823 	-0.0991391 	-3.6533e-21 7.8544 	-0.0995127 	-4.82977e-21 7.85051 	-0.0997989 	-1.05712e-20 7.84661 	-0.100085 	-1.63129e-20 7.84271 	-0.100372 	-2.20551e-20 7.83889 	-0.100652 	-2.76659e-20 7.83571 	-0.100879 	-3.19013e-20 7.83252 	-0.101106 	-3.61365e-20 7.82933 	-0.101333 	-4.03714e-20 7.82614 	-0.10156 	-4.46061e-20 7.8233 	-0.101718 	-4.88438e-20 7.81609 	-0.102317 	-4.74651e-20 7.80898 	-0.102853 	-4.68417e-20 7.80186 	-0.10339 	-4.62156e-20 7.79472 	-0.103928 	-4.55868e-20 7.7887 	-0.104243 	-4.7461e-20 7.78122 	-0.105005 	-3.71232e-20 7.77416 	-0.105566 	-2.67727e-20 7.76708 	-0.106128 	-1.64209e-20 7.75998 	-0.10669 	-6.06762e-21 7.75478 	-0.106883 	0 7.74703 	-0.107804 	-2.64994e-21 7.74001 	-0.108392 	-7.40837e-21 7.73296 	-0.10898 	-1.21661e-20 7.72589 	-0.109568 	-1.6923e-20 7.72148 	-0.109647 	-2.16457e-20 7.71347 	-0.110723 	-5.05217e-20 7.70647 	-0.111338 	-7.00711e-20 7.69944 	-0.111954 	-8.96221e-20 7.6924 	-0.112569 	-1.09175e-19 7.68876 	-0.112538 	-1.01413e-19 7.68047 	-0.113767 	-7.90589e-20 7.67349 	-0.114411 	-6.80473e-20 7.66648 	-0.115055 	-5.70292e-20 7.65945 	-0.115699 	-4.60049e-20 7.65656 	-0.115566 	-6.79923e-20 7.648 	-0.116936 	-8.18906e-20 7.64101 	-0.117618 	-6.40407e-20 7.63402 	-0.118292 	-4.57844e-20 7.62753 	-0.118868 	-2.57338e-20 7.62484 	-0.118739 	7.19926e-21 7.61631 	-0.120121 	1.15225e-20 7.60901 	-0.120968 	8.47416e-21 7.60202 	-0.121674 	3.4713e-21 7.59631 	-0.12214 	0 7.59354 	-0.122062 	0 7.58503 	-0.123459 	0 7.57742 	-0.124466 	0 7.57042 	-0.125204 	0 7.56547 	-0.125566 	0 7.56263 	-0.125541 	0 7.55413 	-0.126953 	0 7.5462 	-0.128118 	-6.74667e-21 7.53918 	-0.128889 	-2.4249e-20 7.53496 	-0.129152 	-4.18036e-20 7.53203 	-0.12918 	-5.93834e-20 7.52355 	-0.13061 	-4.04175e-20 7.51528 	-0.131929 	-2.07121e-20 7.50825 	-0.132734 	2.41437e-21 7.50473 	-0.132905 	8.85925e-21 7.50172 	-0.132986 	1.2926e-20 7.49323 	-0.134435 	4.50996e-20 7.48469 	-0.135883 	7.72716e-20 7.47785 	-0.136695 	9.43299e-20 7.47474 	-0.136829 	7.95809e-20 7.47162 	-0.136964 	6.48304e-20 7.46312 	-0.138433 	4.10996e-20 7.45457 	-0.139902 	1.73604e-20 7.44815 	-0.140743 	2.51111e-21 7.44493 	-0.14093 	1.17554e-20 7.4417 	-0.141118 	2.10004e-20 7.43318 	-0.142609 	8.36236e-20 7.42461 	-0.144101 	1.4625e-19 7.41858 	-0.144971 	1.469e-19 7.41524 	-0.145212 	8.48983e-20 7.4119 	-0.145453 	2.28948e-20 7.40335 	-0.146968 	1.44366e-20 7.39476 	-0.148483 	5.98191e-21 7.3891 	-0.149385 	6.14711e-21 7.38564 	-0.149679 	1.51685e-20 7.38216 	-0.149973 	2.41909e-20 7.37359 	-0.151513 	8.53428e-20 7.36496 	-0.153053 	1.46498e-19 7.35966 	-0.153988 	1.47182e-19 7.35606 	-0.154336 	8.66805e-20 7.35244 	-0.154683 	2.61771e-20 7.34382 	-0.156249 	1.79672e-20 7.33556 	-0.157745 	9.74845e-21 7.33044 	-0.15869 	1.4349e-21 7.32645 	-0.159184 	0 7.32269 	-0.159585 	0 7.31402 	-0.161178 	0 7.30647 	-0.162568 	0 7.30124 	-0.163554 	0 7.29677 	-0.164228 	0 7.29285 	-0.164682 	0 7.28412 	-0.166302 	0 7.27727 	-0.167591 	0 7.27191 	-0.168618 	0 7.26696 	-0.169471 	5.23903e-21 7.26287 	-0.169976 	2.09212e-20 7.25407 	-0.171626 	3.62279e-21 7.2479 	-0.172816 	6.7126e-21 7.2424 	-0.173884 	1.5205e-20 7.23696 	-0.174913 	2.40252e-20 7.2327 	-0.175471 	3.67282e-20 7.2239 	-0.177135 	1.19802e-19 7.21829 	-0.178244 	1.24278e-19 7.21265 	-0.179353 	1.28731e-19 7.20697 	-0.180463 	1.33163e-19 7.20228 	-0.181166 	4.94608e-20 7.19418 	-0.182725 	1.24446e-19 7.18842 	-0.183876 	1.12707e-19 7.18262 	-0.185027 	1.00946e-19 7.17679 	-0.186178 	8.91633e-20 7.17158 	-0.187063 	3.79905e-20 7.16415 	-0.188521 	3.27034e-20 7.15822 	-0.189713 	3.3176e-20 7.15226 	-0.190904 	3.36538e-20 7.14626 	-0.192096 	3.41366e-20 7.14053 	-0.193162 	4.44642e-20 7.13418 	-0.194431 	4.77968e-20 7.12854 	-0.195573 	4.54714e-20 7.12286 	-0.196716 	4.31325e-20 7.11714 	-0.197859 	4.07801e-20 7.11173 	-0.198933 	3.85556e-20 7.11119 	-0.199037 	3.84819e-20 7.11065 	-0.19914 	3.84081e-20 7.11011 	-0.199244 	3.83343e-20 7.10956 	-0.199348 	3.82604e-20 7.10912 	-0.199441 	3.85532e-20 7.10265 	-0.200723 	3.259e-20 7.09619 	-0.201994 	2.60992e-20 7.08969 	-0.203266 	1.96167e-20 7.08315 	-0.204537 	1.31425e-20 7.07782 	-0.205676 	8.52224e-22 7.07048 	-0.207122 	-2.46753e-22 7.06383 	-0.208433 	-1.74788e-22 7.05713 	-0.209745 	-1.02799e-22 7.05039 	-0.211057 	-3.07833e-23 7.04606 	-0.212113 	0 7.03781 	-0.213723 	-4.82292e-21 7.03096 	-0.215074 	-1.83466e-20 7.02405 	-0.216425 	-3.18645e-20 7.01711 	-0.217776 	-4.53766e-20 7.01377 	-0.218752 	-5.56943e-20 7.00459 	-0.220524 	-4.37096e-20 6.99752 	-0.221913 	-2.87374e-20 6.9904 	-0.223303 	-1.37593e-20 6.98387 	-0.224629 	7.3331e-23 6.98091 	-0.225587 	7.27157e-21 6.97144 	-0.227404 	1.00184e-21 6.96348 	-0.228949 	8.70507e-21 6.95614 	-0.230376 	2.24004e-20 6.95063 	-0.231614 	3.92429e-20 6.94743 	-0.232616 	6.00123e-20 6.93774 	-0.234464 	3.8373e-20 6.92879 	-0.236176 	1.90715e-20 6.92121 	-0.23764 	4.00778e-21 6.91674 	-0.23879 	-2.21549e-21 6.9133 	-0.239834 	-5.4838e-21 6.90337 	-0.241713 	-5.61392e-20 6.89339 	-0.243591 	-1.06776e-19 6.88582 	-0.245066 	-1.07743e-19 6.88215 	-0.246151 	-6.79151e-20 6.87845 	-0.247236 	-2.80877e-20 6.86829 	-0.249145 	-6.8495e-20 6.85806 	-0.251053 	-1.0891e-19 6.85076 	-0.252569 	-1.08616e-19 6.84683 	-0.253693 	-6.62156e-20 6.84286 	-0.254817 	-2.38145e-20 6.83244 	-0.256754 	-6.63524e-20 6.82196 	-0.258691 	-1.08896e-19 6.81492 	-0.260248 	-1.04902e-19 6.81072 	-0.26141 	-5.68464e-20 6.80647 	-0.262572 	-8.78654e-21 6.7958 	-0.264536 	-6.0614e-21 6.78524 	-0.266483 	-3.32875e-21 6.77857 	-0.268049 	-3.83624e-22 6.77379 	-0.269295 	0 6.76926 	-0.270492 	0 6.75832 	-0.272483 	0 6.74891 	-0.27432 	0 6.74196 	-0.275916 	0 6.73601 	-0.277341 	0 6.73119 	-0.278572 	0 6.71997 	-0.280588 	0 6.71173 	-0.282314 	-2.27121e-21 6.70449 	-0.283938 	-5.34498e-21 6.69733 	-0.285541 	-7.80648e-21 6.69221 	-0.286805 	2.2817e-22 6.68112 	-0.288805 	-5.06071e-20 6.67365 	-0.290455 	-4.74636e-20 6.66613 	-0.292106 	-4.42984e-20 6.65855 	-0.293756 	-4.11116e-20 6.6523 	-0.295182 	-5.69346e-21 6.64242 	-0.297063 	-7.32034e-21 6.63466 	-0.298738 	1.22088e-21 6.62684 	-0.300412 	9.76339e-21 6.61896 	-0.302087 	1.83072e-20 6.61143 	-0.303696 	2.44318e-20 6.60753 	-0.304448 	3.24838e-20 6.60425 	-0.30514 	3.25601e-20 6.60097 	-0.305832 	3.26336e-20 6.59768 	-0.306523 	3.27042e-20 6.59447 	-0.307195 	3.27701e-20 6.58934 	-0.308203 	3.3654e-20 6.58418 	-0.30921 	3.4535e-20 6.57901 	-0.310218 	3.5413e-20 6.57381 	-0.311225 	3.6288e-20 6.56923 	-0.312154 	4.008e-20 6.56007 	-0.313956 	4.07526e-20 6.55116 	-0.315671 	3.85985e-20 6.54219 	-0.317386 	3.64495e-20 6.53316 	-0.3191 	3.43054e-20 6.52583 	-0.320604 	1.91453e-20 6.51573 	-0.322572 	3.33488e-20 6.50648 	-0.324305 	2.73832e-20 6.49715 	-0.326038 	2.14293e-20 6.48802 	-0.32774 	1.33187e-20 6.48125 	-0.329158 	-1.49041e-20 6.47056 	-0.331198 	-7.89797e-21 6.46056 	-0.333042 	-6.85737e-21 6.45087 	-0.334791 	-8.75579e-21 6.44258 	-0.336371 	-9.32121e-21 6.43546 	-0.337808 	-8.74774e-21 6.42439 	-0.339858 	-7.41804e-21 6.41338 	-0.341873 	-5.57767e-21 6.40333 	-0.343635 	-4.05602e-23 6.3959 	-0.34509 	5.11685e-21 6.38844 	-0.346542 	1.0275e-20 6.37698 	-0.3486 	6.08114e-21 6.36545 	-0.350658 	1.89119e-21 6.35573 	-0.352419 	0 6.34797 	-0.353884 	0 6.34016 	-0.355349 	0 6.32831 	-0.357413 	0 6.31637 	-0.359477 	0 6.30693 	-0.361254 	0 6.29876 	-0.362741 	0 6.29058 	-0.364216 	0 6.27833 	-0.366284 	0 6.26717 	-0.368222 	1.89725e-21 6.25753 	-0.369985 	6.36063e-21 6.24824 	-0.37165 	1.08313e-20 6.23968 	-0.373132 	1.53144e-20 6.22703 	-0.375201 	1.17535e-20 6.21687 	-0.376988 	1.22416e-20 6.20684 	-0.378753 	1.30546e-20 6.19675 	-0.380516 	1.38735e-20 6.18745 	-0.382084 	1.59578e-20 6.17562 	-0.384018 	3.62781e-21 6.16528 	-0.385782 	-2.23486e-21 6.15486 	-0.387546 	-8.0849e-21 6.14437 	-0.389309 	-1.39223e-20 6.13387 	-0.391059 	-1.90388e-20 6.13307 	-0.391185 	-1.87461e-20 6.13238 	-0.3913 	-1.85399e-20 6.13168 	-0.391414 	-1.83336e-20 6.13098 	-0.391529 	-1.81273e-20 6.13029 	-0.391644 	-1.7922e-20 6.12069 	-0.393294 	-1.72982e-20 6.11102 	-0.394943 	-1.66913e-20 6.1013 	-0.396592 	-1.61013e-20 6.09151 	-0.398241 	-1.55283e-20 6.08181 	-0.399739 	-4.5673e-21 6.07159 	-0.401673 	1