# vtk DataFile Version 2.0
track0
ASCII
DATASET POLYDATA
POINTS 12040 float
-0.0205 0.001 1e-05
-0.02052 0.000999985 1e-05
-0.02054 0.000999974 1e-05
-0.02056 0.000999965 1e-05
-0.02058 0.000999959 1e-05
-0.0206 0.000999956 1e-05
-0.0205 0.00367778 1e-05
-0.02052 0.00367778 1e-05
-0.02054 0.00367777 1e-05
-0.02056 0.00367777 1e-05
-0.02058 0.00367777 1e-05
-0.0206 0.00367777 1e-05
-0.0205 0.00635556 1e-05
-0.02052 0.00635555 1e-05
-0.02054 0.00635555 1e-05
-0.02056 0.00635555 1e-05
-0.02058 0.00635555 1e-05
-0.0206 0.00635555 1e-05
-0.0205 0.00903333 1e-05
-0.02052 0.00903333 1e-05
-0.02054 0.00903333 1e-05
-0.02056 0.00903333 1e-05
-0.02058 0.00903333 1e-05
-0.0206 0.00903333 1e-05
-0.0205 0.0117111 1e-05
-0.02052 0.0117111 1e-05
-0.02054 0.0117111 1e-05
-0.02056 0.0117111 1e-05
-0.02058 0.0117111 1e-05
-0.0206 0.0117111 1e-05
-0.0205 0.0143889 1e-05
-0.02052 0.0143889 1e-05
-0.02054 0.0143889 1e-05
-0.02056 0.0143889 1e-05
-0.02058 0.0143889 1e-05
-0.0206 0.0143889 1e-05
-0.0205 0.0170667 1e-05
-0.02052 0.0170667 1e-05
-0.02054 0.0170667 1e-05
-0.02056 0.0170667 1e-05
-0.02058 0.0170667 1e-05
-0.0206 0.0170667 1e-05
-0.0205 0.0197444 1e-05
-0.02052 0.0197444 1e-05
-0.02054 0.0197444 1e-05
-0.02056 0.0197444 1e-05
-0.02058 0.0197444 1e-05
-0.0206 0.0197444 1e-05
-0.0205 0.0224222 1e-05
-0.02052 0.0224222 1e-05
-0.02054 0.0224222 1e-05
-0.02056 0.0224222 1e-05
-0.02058 0.0224222 1e-05
-0.0206 0.0224222 1e-05
-0.0205 0.0251 1e-05
-0.02052 0.0250998 1e-05
-0.02054 0.0250997 1e-05
-0.02056 0.0250995 1e-05
-0.02058 0.0250995 1e-05
-0.0206 0.0250994 1e-05
-0.0205 0.001 1e-05
-0.0202034 0.00100022 1e-05
-0.0199069 0.00100067 1e-05
-0.0196103 0.00100133 1e-05
-0.0193137 0.00100219 1e-05
-0.0190172 0.00100326 1e-05
-0.0187132 0.00100467 1e-05
-0.0184093 0.00100589 1e-05
-0.0181054 0.00100711 1e-05
-0.0178015 0.00100832 1e-05
-0.0174976 0.00100954 1e-05
-0.0172058 0.00101083 1e-05
-0.016914 0.00101193 1e-05
-0.0166222 0.00101303 1e-05
-0.0163305 0.00101413 1e-05
-0.0160387 0.00101523 1e-05
-0.0157586 0.00101636 1e-05
-0.0154784 0.00101744 1e-05
-0.0151983 0.00101856 1e-05
-0.0149182 0.00101971 1e-05
-0.0146381 0.0010209 1e-05
-0.0143744 0.00102208 1e-05
-0.0141107 0.00102327 1e-05
-0.013847 0.00102449 1e-05
-0.0135833 0.00102574 1e-05
-0.0133606 0.00102682 1e-05
-0.0133472 0.00102688 1e-05
-0.0133338 0.00102695 1e-05
-0.0133203 0.00102702 1e-05
-0.0133069 0.00102708 1e-05
-0.0132934 0.00102715 1e-05
-0.0130353 0.00102844 1e-05
-0.0127771 0.00102974 1e-05
-0.0125189 0.00103106 1e-05
-0.0122607 0.00103239 1e-05
-0.0120025 0.00103374 1e-05
-0.0117547 0.00103505 1e-05
-0.0115068 0.00103637 1e-05
-0.0112589 0.00103769 1e-05
-0.0110111 0.00103901 1e-05
-0.0107632 0.00104034 1e-05
-0.0105252 0.00104161 1e-05
-0.0102873 0.00104289 1e-05
-0.0100493 0.00104417 1e-05
-0.00981133 0.00104545 1e-05
-0.00957337 0.00104672 1e-05
-0.00934491 0.00104794 1e-05
-0.00911645 0.00104916 1e-05
-0.00888799 0.00105038 1e-05
-0.00865954 0.0010516 1e-05
-0.00843108 0.00105281 1e-05
-0.00821175 0.00105397 1e-05
-0.00799242 0.00105512 1e-05
-0.00777309 0.00105627 1e-05
-0.00755376 0.00105742 1e-05
-0.00733443 0.00105857 1e-05
-0.00712387 0.00105966 1e-05
-0.0069133 0.00106075 1e-05
-0.00670273 0.00106183 1e-05
-0.00649216 0.00106291 1e-05
-0.0062816 0.00106399 1e-05
-0.00607944 0.00106501 1e-05
-0.00587729 0.00106603 1e-05
-0.00567514 0.00106705 1e-05
-0.00547298 0.00106807 1e-05
-0.00527083 0.00106908 1e-05
-0.00507675 0.00107004 1e-05
-0.00488267 0.001071 1e-05
-0.0046886 0.00107196 1e-05
-0.00449452 0.00107292 1e-05
-0.00430044 0.00107387 1e-05
-0.00411412 0.00107477 1e-05
-0.0039278 0.00107567 1e-05
-0.00374147 0.00107658 1e-05
-0.00355515 0.00107747 1e-05
-0.00336883 0.00107837 1e-05
-0.00318995 0.00107922 1e-05
-0.00301107 0.00108007 1e-05
-0.00283219 0.00108092 1e-05
-0.00265331 0.00108176 1e-05
-0.00247443 0.0010826 1e-05
-0.0023027 0.00108341 1e-05
-0.00213097 0.00108421 1e-05
-0.00195924 0.00108501 1e-05
-0.0017875 0.00108581 1e-05
-0.00161577 0.00108661 1e-05
-0.0014509 0.00108737 1e-05
-0.00128603 0.00108813 1e-05
-0.00112116 0.00108889 1e-05
-0.000956289 0.00108965 1e-05
-0.000791418 0.00109041 1e-05
-0.000633135 0.00109113 1e-05
-0.000474851 0.00109186 1e-05
-0.000316567 0.00109258 1e-05
-0.000158284 0.0010933 1e-05
0 0.00109403 1e-05
0.000105677 0.0010945 1e-05
0.000211355 0.00109498 1e-05
0.000317032 0.00109545 1e-05
0.00042271 0.00109592 1e-05
0.000528387 0.00109638 1e-05
0.000634886 0.00109685 1e-05
0.000741385 0.00109731 1e-05
0.000847885 0.00109777 1e-05
0.000954384 0.00109822 1e-05
0.00106088 0.00109868 1e-05
0.00116821 0.00109913 1e-05
0.00127554 0.00109957 1e-05
0.00138286 0.00110002 1e-05
0.00149019 0.00110045 1e-05
0.00159752 0.00110088 1e-05
0.00170568 0.00110131 1e-05
0.00181384 0.00110173 1e-05
0.001922 0.00110214 1e-05
0.00203016 0.00110255 1e-05
0.00213833 0.00110294 1e-05
0.00224733 0.00110333 1e-05
0.00235633 0.00110371 1e-05
0.00246533 0.00110409 1e-05
0.00257434 0.00110445 1e-05
0.00268334 0.00110481 1e-05
0.00279319 0.00110516 1e-05
0.00290304 0.0011055 1e-05
0.00301289 0.00110584 1e-05
0.00312274 0.00110617 1e-05
0.00323259 0.00110649 1e-05
0.00334329 0.0011068 1e-05
0.003454 0.00110711 1e-05
0.0035647 0.00110741 1e-05
0.0036754 0.00110771 1e-05
0.00378611 0.00110799 1e-05
0.00389767 0.00110827 1e-05
0.00400924 0.00110854 1e-05
0.0041208 0.00110881 1e-05
0.00423237 0.00110906 1e-05
0.00434393 0.00110931 1e-05
0.00445636 0.00110955 1e-05
0.00456879 0.00110979 1e-05
0.00468123 0.00111002 1e-05
0.00479366 0.00111024 1e-05
0.00490609 0.00111045 1e-05
0.0050194 0.00111066 1e-05
0.0051327 0.00111086 1e-05
0.00524601 0.00111105 1e-05
0.00535932 0.00111123 1e-05
0.00547262 0.00111141 1e-05
0.00558681 0.00111158 1e-05
0.005701 0.00111174 1e-05
0.00581518 0.0011119 1e-05
0.00592937 0.00111204 1e-05
0.00604356 0.00111218 1e-05
0.00615863 0.00111231 1e-05
0.00627371 0.00111244 1e-05
0.00638878 0.00111256 1e-05
0.00650386 0.00111267 1e-05
0.00661893 0.00111277 1e-05
0.0067349 0.00111287 1e-05
0.00685087 0.00111296 1e-05
0.00696684 0.00111304 1e-05
0.00708281 0.00111312 1e-05
0.00719878 0.00111318 1e-05
0.00726999 0.00111322 1e-05
0.0073412 0.00111325 1e-05
0.0074124 0.00111328 1e-05
0.00748361 0.00111331 1e-05
0.00755247 0.00111334 1e-05
0.0075986 0.00111335 1e-05
0.00764474 0.00111336 1e-05
0.00769087 0.00111338 1e-05
0.007737 0.00111339 1e-05
0.00778313 0.0011134 1e-05
0.00790091 0.00111342 1e-05
0.00801869 0.00111343 1e-05
0.00813647 0.00111344 1e-05
0.00825425 0.00111344 1e-05
0.00837203 0.00111343 1e-05
0.00849073 0.00111341 1e-05
0.00860942 0.00111338 1e-05
0.00872812 0.00111335 1e-05
0.00884682 0.00111331 1e-05
0.00896551 0.00111326 1e-05
0.00908513 0.0011132 1e-05
0.00920475 0.00111313 1e-05
0.00932437 0.00111306 1e-05
0.00944398 0.00111298 1e-05
0.0095636 0.00111289 1e-05
0.00968415 0.00111278 1e-05
0.0098047 0.00111268 1e-05
0.00992525 0.00111256 1e-05
0.0100458 0.00111244 1e-05
0.0101663 0.00111231 1e-05
0.0102878 0.00111216 1e-05
0.0104093 0.00111201 1e-05
0.0105308 0.00111186 1e-05
0.0106523 0.00111169 1e-05
0.0107738 0.00111152 1e-05
0.0108962 0.00111133 1e-05
0.0110186 0.00111114 1e-05
0.0111411 0.00111094 1e-05
0.0112635 0.00111073 1e-05
0.0113859 0.00111052 1e-05
0.0115093 0.00111028 1e-05
0.0116327 0.00111004 1e-05
0.0117561 0.0011098 1e-05
0.0118795 0.00110955 1e-05
0.0120028 0.00110929 1e-05
0.0121272 0.001109 1e-05
0.0122515 0.00110872 1e-05
0.0123759 0.00110844 1e-05
0.0125002 0.00110814 1e-05
0.0126245 0.00110784 1e-05
0.0127498 0.0011075 1e-05
0.0128752 0.00110718 1e-05
0.0130005 0.00110685 1e-05
0.0131258 0.0011065 1e-05
0.0132511 0.00110615 1e-05
0.0133774 0.00110577 1e-05
0.0135036 0.0011054 1e-05
0.0136299 0.00110502 1e-05
0.0137562 0.00110463 1e-05
0.0138825 0.00110423 1e-05
0.0140098 0.00110381 1e-05
0.014137 0.00110339 1e-05
0.0142643 0.00110296 1e-05
0.0143915 0.00110252 1e-05
0.0145188 0.00110207 1e-05
0.0146471 0.0011016 1e-05
0.0147753 0.00110113 1e-05
0.0149036 0.00110065 1e-05
0.0150318 0.00110016 1e-05
0.0151601 0.00109967 1e-05
0.0152893 0.00109915 1e-05
0.0154186 0.00109863 1e-05
0.0155478 0.0010981 1e-05
0.0156771 0.00109756 1e-05
0.0158063 0.00109702 1e-05
0.0159366 0.00109645 1e-05
0.0160668 0.00109588 1e-05
0.0161971 0.0010953 1e-05
0.0163274 0.00109471 1e-05
0.0164576 0.00109412 1e-05
0.0165889 0.00109351 1e-05
0.0167201 0.00109288 1e-05
0.0168514 0.00109225 1e-05
0.0169827 0.00109161 1e-05
0.0171139 0.00109097 1e-05
0.0172462 0.00109031 1e-05
0.0173785 0.00108964 1e-05
0.0175108 0.00108896 1e-05
0.0176431 0.00108826 1e-05
0.0177754 0.00108757 1e-05
0.0179087 0.00108686 1e-05
0.018042 0.00108614 1e-05
0.0181753 0.00108541 1e-05
0.0183087 0.00108466 1e-05
0.018442 0.00108392 1e-05
0.0185763 0.00108316 1e-05
0.0187107 0.00108239 1e-05
0.018845 0.00108161 1e-05
0.0189794 0.00108081 1e-05
0.0191137 0.00108002 1e-05
0.0192491 0.00107921 1e-05
0.0193845 0.00107839 1e-05
0.0195199 0.00107755 1e-05
0.0196553 0.00107671 1e-05
0.0197907 0.00107586 1e-05
0.0199272 0.00107501 1e-05
0.0200636 0.00107414 1e-05
0.0202001 0.00107325 1e-05
0.0203365 0.00107235 1e-05
0.020473 0.00107145 1e-05
0.0206105 0.00107056 1e-05
0.020748 0.00106964 1e-05
0.0208855 0.00106869 1e-05
0.021023 0.00106774 1e-05
0.0211606 0.0010668 1e-05
0.0212991 0.00106585 1e-05
0.0214377 0.00106488 1e-05
0.0215763 0.00106389 1e-05
0.0217149 0.00106288 1e-05
0.0218535 0.00106189 1e-05
0.0219931 0.00106089 1e-05
0.0221328 0.00105987 1e-05
0.0222724 0.00105883 1e-05
0.0224121 0.00105777 1e-05
0.0225517 0.00105673 1e-05
0.0226925 0.00105568 1e-05
0.0228332 0.00105461 1e-05
0.022974 0.00105351 1e-05
0.0231147 0.00105241 1e-05
0.0232555 0.00105131 1e-05
0.0233973 0.00105022 1e-05
0.0235391 0.00104909 1e-05
0.023681 0.00104794 1e-05
0.0238228 0.00104679 1e-05
0.0239647 0.00104564 1e-05
0.0241076 0.00104449 1e-05
0.0242505 0.00104332 1e-05
0.0243935 0.00104212 1e-05
0.0245364 0.00104091 1e-05
0.0246794 0.00103971 1e-05
0.0248234 0.00103851 1e-05
0.0249675 0.00103729 1e-05
0.0251115 0.00103603 1e-05
0.0252556 0.00103477 1e-05
[...]
POINT_DATA 12040
 FIELD attributes 2
p 1 12040 float
-4.82737 -4.82406 -4.82075 -4.81744 -4.81414 -4.81083
-4.98036 -4.98033 -4.98031 -4.98029 -4.98027 -4.98025
-5.15411 -5.15399 -5.15386 -5.15374 -5.15362 -5.15351
-5.24704 -5.24699 -5.24694 -5.24688 -5.24683 -5.24677
-5.29175 -5.29164 -5.29153 -5.29141 -5.2913 -5.29119
-5.29798 -5.29782 -5.29766 -5.2975 -5.29734 -5.29718
-5.27081 -5.27074 -5.27067 -5.2706 -5.27053 -5.27046
-5.2011 -5.20106 -5.20102 -5.20098 -5.20094 -5.2009
-5.07979 -5.0798 -5.0798 -5.07981 -5.07982 -5.07982
-2.86726 -2.88658 -2.90578 -2.92484 -2.94377 -2.96256
-4.82737 -4.8267 -4.82314 -4.8195 -4.81578 -4.80751 -4.82144 -4.83648 -4.85152 -4.86656 -4.89104 -4.91284 -4.9428 -4.97277 -5.00273 -5.03551 -5.0512 -5.07293 -5.09466 -5.1164 -5.13976 -5.1587 -5.17965 -5.2006 -5.22156 -5.23926 -5.24032 -5.24139 -5.24245 -5.24352 -5.24458 -5.26629 -5.28799 -5.3097 -5.3314 -5.35284 -5.37165 -5.39027 -5.4089 -5.42752 -5.44557 -5.46126 -5.47666 -5.49207 -5.50748 -5.52233 -5.53618 -5.54978 -5.56338 -5.57698 -5.59014 -5.60293 -5.61546 -5.628 -5.64053 -5.65264 -5.66454 -5.67613 -5.68773 -5.69933 -5.71051 -5.72159 -5.7324 -5.74321 -5.75401 -5.76447 -5.77493 -5.78513 -5.79534 -5.80554 -5.81542 -5.8254 -5.83519 -5.84498 -5.85477 -5.86435 -5.87402 -5.88342 -5.89283 -5.90223 -5.91142 -5.92088 -5.93047 -5.94006 -5.94965 -5.95938 -5.96932 -5.97901 -5.98869 -5.99838 -6.00789 -6.01789 -6.02873 -6.03956 -6.0504 -6.06143 -6.07139 -6.0821 -6.0928 -6.1035 -6.11375 -6.12305 -6.13188 -6.1407 -6.14953 -6.15755 -6.1647 -6.17287 -6.18105 -6.18922 -6.19813 -6.20629 -6.2149 -6.2235 -6.23211 -6.24083 -6.24895 -6.25609 -6.26322 -6.27036 -6.27664 -6.28333 -6.28875 -6.29416 -6.29957 -6.30394 -6.30956 -6.31415 -6.31873 -6.32332 -6.32696 -6.33183 -6.33581 -6.33978 -6.34376 -6.34693 -6.35084 -6.354 -6.35716 -6.36032 -6.36288 -6.36578 -6.36813 -6.37048 -6.37283 -6.37481 -6.37697 -6.37878 -6.38059 -6.3824 -6.38403 -6.38582 -6.38741 -6.38901 -6.3906 -6.3921 -6.3937 -6.3952 -6.39669 -6.39818 -6.39965 -6.40054 -6.40139 -6.40225 -6.4031 -6.40393 -6.40448 -6.40504 -6.40559 -6.40615 -6.40674 -6.40803 -6.40938 -6.41072 -6.41206 -6.4136 -6.41472 -6.41606 -6.4174 -6.41874 -6.4205 -6.42142 -6.4228 -6.42418 -6.42556 -6.42766 -6.42837 -6.42985 -6.43133 -6.43282 -6.43538 -6.4359 -6.43751 -6.43912 -6.44074 -6.44377 -6.44407 -6.44578 -6.44749 -6.4492 -6.45267 -6.45276 -6.45458 -6.45639 -6.45821 -6.46215 -6.4621 -6.46405 -6.46601 -6.46796 -6.47234 -6.47221 -6.4743 -6.4764 -6.4785 -6.48325 -6.48306 -6.48529 -6.48753 -6.48977 -6.49483 -6.49463 -6.49701 -6.49939 -6.50194 -6.50711 -6.50722 -6.50948 -6.512 -6.51496 -6.52009 -6.52054 -6.52272 -6.52539 -6.52872 -6.53379 -6.53459 -6.53674 -6.53955 -6.54322 -6.54821 -6.54937 -6.55151 -6.55448 -6.55842 -6.56333 -6.56484 -6.56703 -6.57014 -6.57432 -6.57916 -6.581 -6.58327 -6.58652 -6.59089 -6.59567 -6.59783 -6.60022 -6.60361 -6.60813 -6.61284 -6.61531 -6.61783 -6.62136 -6.626 -6.63067 -6.63342 -6.63617 -6.63985 -6.6445 -6.64914 -6.65214 -6.65515 -6.65897 -6.6636 -6.66822 -6.67148 -6.67474 -6.67868 -6.68331 -6.68794 -6.69144 -6.69495 -6.69901 -6.70364 -6.70827 -6.712 -6.71574 -6.71991 -6.72452 -6.72912 -6.73306 -6.73699 -6.74124 -6.74583 -6.75042 -6.7545 -6.75859 -6.76293 -6.76752 -6.77212 -6.77632 -6.78053 -6.78495 -6.78957 -6.7942 -6.7985 -6.80283 -6.80733 -6.81196 -6.81662 -6.82101 -6.82545 -6.83001 -6.83467 -6.83937 -6.84383 -6.84836 -6.85298 -6.85767 -6.86241 -6.86693 -6.87153 -6.8762 -6.88092 -6.88571 -6.89027 -6.89493 -6.89964 -6.90437 -6.90919 -6.91378 -6.9185 -6.92323 -6.92798 -6.93282 -6.93743 -6.94218 -6.94693 -6.95169 -6.95653 -6.96117 -6.96593 -6.97069 -6.97545 -6.98028 -6.98494 -6.98969 -6.99444 -6.9992 -7.004 -7.00866 -7.01339 -7.01813 -7.02286 -7.02763 -7.03228 -7.03697 -7.04167 -7.04638 -7.05109 -7.05571 -7.06036 -7.06502 -7.06967 -7.07433 -7.07688 -7.07945 -7.08202 -7.08459 -7.0871 -7.08913 -7.09116 -7.09319 -7.09522 -7.09726 -7.10177 -7.10629 -7.1108 -7.11531 -7.11984 -7.12426 -7.12868 -7.1331 -7.13752 -7.14196 -7.14628 -7.15059 -7.1549 -7.15922 -7.16355 -7.16776 -7.17195 -7.17613 -7.18032 -7.18453 -7.18861 -7.19265 -7.19668 -7.20072 -7.20476 -7.2087 -7.21256 -7.21643 -7.22029 -7.22414 -7.22791 -7.23161 -7.23528 -7.23895 -7.2426 -7.24618 -7.24969 -7.25316 -7.2566 -7.26002 -7.26338 -7.26669 -7.26992 -7.2731 -7.27626 -7.27938 -7.28247 -7.28544 -7.28833 -7.2912 -7.29406 -7.29691 -7.29959 -7.30216 -7.30473 -7.30729 -7.30985 -7.31223 -7.31446 -7.3167 -7.31894 -7.32118 -7.32324 -7.32511 -7.32698 -7.32888 -7.33077 -7.33248 -7.33397 -7.33545 -7.33697 -7.33849 -7.33983 -7.34089 -7.34196 -7.34307 -7.34417 -7.34507 -7.34574 -7.34637 -7.34704 -7.34765 -7.3481 -7.34837 -7.34851 -7.34873 -7.3488 -7.34876 -7.34862 -7.34826 -7.34797 -7.34747 -7.34692 -7.34634 -7.34544 -7.34462 -7.34351 -7.34241 -7.3413 -7.33991 -7.33845 -7.33676 -7.33507 -7.33339 -7.3315 -7.32935 -7.32705 -7.32475 -7.32245 -7.32005 -7.3174 -7.31466 -7.31193 -7.3092 -7.30664 -7.30639 -7.30615 -7.30591 -7.30566 -7.30541 -7.30184 -7.29827 -7.2947 -7.29113 -7.28743 -7.2833 -7.27902 -7.27474 -7.27047 -7.26593 -7.26123 -7.2562 -7.25119 -7.24617 -7.24074 -7.23545 -7.22966 -7.22387 -7.21801 -7.21171 -7.20565 -7.19922 -7.19263 -7.1858 -7.17868 -7.1718 -7.16473 -7.15731 -7.14947 -7.14149 -7.13377 -7.12605 -7.11773 -7.10886 -7.09999 -7.09139 -7.08279 -7.0736 -7.06382 -7.05403 -7.04452 -7.03502 -7.02492 -7.01419 -7.00346 -6.99302 -6.98255 -6.97145 -6.95983 -6.94813 -6.93672 -6.92505 -6.91297 -6.90059 -6.8879 -6.8755 -6.86258 -6.84948 -6.83635 -6.82263 -6.80914 -6.795 -6.78086 -6.76672 -6.7522 -6.73739 -6.72218 -6.70698 -6.69178 -6.67647 -6.66995 -6.66331 -6.65667 -6.65003 -6.64358 -6.63398 -6.62438 -6.61478 -6.60519 -6.59544 -6.57834 -6.56109 -6.54385 -6.52662 -6.50894 -6.491 -6.47264 -6.45428 -6.43586 -6.41682 -6.39786 -6.37855 -6.35906 -6.33919 -6.31899 -6.29888 -6.27872 -6.25808 -6.23672 -6.21535 -6.19409 -6.17283 -6.15093 -6.12838 -6.10583 -6.08339 -6.06096 -6.03782 -6.0141 -5.99036 -5.96673 -5.94278 -5.91839 -5.89381 -5.86887 -5.84405 -5.8185 -5.7929 -5.7673 -5.74131 -5.71494 -5.68811 -5.6613 -5.63449 -5.60766 -5.60586 -5.60403 -5.6022 -5.60037 -5.59855 -5.57241 -5.54628 -5.52016 -5.49405 -5.46766 -5.43869 -5.40953 -5.38037 -5.35121 -5.32148 -5.29143 -5.26115 -5.23078 -5.20008 -5.16913 -5.13786 -5.1066 -5.07495 -5.04278 -5.01061 -4.97812 -4.94564 -4.91268 -4.8793 -4.84592 -4.81222 -4.77838 -4.7441 -4.70968 -4.6751 -4.64021 -4.60481 -4.56934 -4.53388 -4.4982 -4.46733 -4.43615 -4.40498 -4.37382 -4.34431 -4.33851 -4.33271 -4.32692 -4.32112 -4.31526 -4.27756 -4.23983 -4.20212 -4.16441 -4.12623 -4.08764 -4.04876 -4.0099 -3.97082 -3.93131 -3.89158 -3.85182 -3.81182 -3.77121 -3.73057 -3.68973 -3.64889 -3.60758 -3.56586 -3.52413 -3.4822 -3.44007 -3.39754 -3.35491 -3.31211 -3.26911 -3.2255 -3.18191 -3.13832 -3.09463 -3.07577 -3.05673 -3.03769 -3.01866 -3.0001 -2.97446 -2.94883 -2.92321 -2.89758 -2.87169 -2.82628 -2.78075 -2.73523 -2.68965 -2.64348 -2.5972 -2.55083 -2.50435 -2.45737 -2.41027 -2.36304 -2.31583 -2.26821 -2.22023 -2.17222 -2.12409 -2.0758 -2.02712 -1.9784 -1.92953 -1.8805 -1.83097 -1.78145 -1.73194 -1.68238 -1.6732 -1.66395 -1.65469 -1.64544 -1.63628 -1.59523 -1.5542 -1.51316 -1.47214 -1.43075 -1.37985 -1.32883 -1.27782 -1.22659 -1.17504 -1.12341 -1.0718 -1.01998 -0.967774 -0.915539 -0.863232 -0.810921 -0.758166 -0.705347 -0.652468 -0.599516 -0.546194 -0.492823 -0.439461 -0.386034 -0.368044 -0.349943 -0.331842 -0.313743 -0.295962 -0.260066 -0.224174 -0.188287 -0.152404 -0.11626 -0.0618517 -0.00741749 0.0470066 0.101581 0.156416 0.211294 0.26616 0.32112 0.376318 0.431552 0.486835 0.542159 0.597728 0.653286 0.708877 0.764544 0.820451 0.876349 0.932237 0.988162 0.989197 0.990236 0.991275 0.992314 0.993351 1.04854 1.10372 1.1589 1.21406 1.2695 1.32601 1.38248 1.43893 1.49554 1.55224 1.60895 1.66565 1.72247 1.77926 1.83609 1.89294 1.94988 2.00685 2.06381 2.12076 2.13957 2.15842 2.17726 2.1961 2.21466 2.25295 2.29125 2.32954 2.36782 2.40621 2.46344 2.52055 2.57765 2.63479 2.69201 2.7492 2.80638 2.86353 2.9206 2.97772 3.03482 3.0919 3.14897 3.20603 3.26305 3.28247 3.30187 3.32126 3.34066 3.35978 3.39742 3.43507 3.47271 3.51035 3.54799 3.60497 3.6618 3.71859 3.77533 3.83209 3.88881 3.94552 4.00212 4.0585 4.11493 4.17133 4.22759 4.28381 4.34002 4.39624 4.40223 4.40821 4.41418 4.42015 4.4261 4.47614 4.52617 4.5762 4.62622 4.67613 4.73194 4.78766 4.84323 4.89858 4.95397 5.0093 5.0646 5.11965 5.17462 5.22948 5.26672 5.30377 5.3408 5.37782 5.41406 5.43178 5.4495 5.46721 5.48492 5.50255 5.55687 5.61104 5.66519 5.71921 5.77311 5.8269 5.88068 5.93417 5.98736 6.04059 6.09372 6.14657 6.19932 6.25206 6.30479 6.30972 6.31461 6.3195 6.32439 6.32927 6.37668 6.42409 6.47149 6.51885 6.56596 6.61779 6.66959 6.72108 6.77226 6.82346 6.87451 6.92541 6.97603 7.02665 7.07706 7.09715 7.11709 7.137 7.15691 7.17671 7.20682 7.23692 7.26703 7.29708 7.32691 7.37646 7.42585 7.47511 7.52392 7.57272 7.62139 7.66998 7.71813 7.76623 7.8141 7.83765 7.861 7.88429 7.90757 7.93083 7.95497 7.97911 8.00325 8.02733 8.0512 8.09815 8.14489 8.19155 8.23774 8.28386 8.32984 8.37576 8.42119 8.46653 8.51166 8.53449 8.5571 8.57964 8.60218 8.62486 8.64691 8.66896 8.69101 8.713 8.73477 8.77887 8.82275 8.86656 8.90988 8.9531 8.99617 9.03916 9.08165 9.12406 9.16622 9.18771 9.20898 9.23017 9.25136 9.27285 9.29322 9.3136 9.33397 9.35428 9.37436 9.41542 9.45624 9.49701 9.5373 9.57746 9.61742 9.65735 9.69675 9.73603 9.77509 9.79762 9.81989 9.84209 9.86429 9.88707 9.90321 9.91936 9.9355 9.9516 9.9675 10.0054 10.043 10.0805 10.1177 10.1547 10.1915 10.2282 10.2645 10.3005 10.3363 10.3649 10.393 10.4211 10.4492 10.4787 10.4855 10.4922 10.499 10.5057 10.5124 10.5468 10.5811 10.6155 10.6496 10.6833 10.7168 10.7502 10.7833 10.816 10.8486 10.8809 10.9129 10.9447 10.9765 11.0081 11.0181 11.0279 11.0377 11.0475 11.0576 11.0786 11.0997 11.1207 11.1417 11.1624 11.1926 11.2225 11.2523 11.2819 11.3113 11.3404 11.3694 11.3981 11.4264 11.4546 11.4825 11.5102 11.5378 11.5654 11.5928 11.6028 11.6126 11.6224 11.6321 11.6425 11.659 11.6754 11.6919 11.7084 11.7245 11.7501 11.7759 11.8017 11.828 11.8549 11.8813 11.9078 11.9283 11.9438 11.9593 11.974 11.9888 12.0143 12.0476 12.0816 12.115 12.1333 12.1474 12.1615 12.1747 12.1748 12.1751 12.1754 12.1757 12.1761 12.1823 12.1886 12.1948 12.2018 12.2131 12.2239 12.2348 12.2448 12.254 12.2632 12.2715 12.279 12.2851 12.2912 12.2959 12.2977 12.2987 12.2997 12.3007 12.3018 12.3032 12.3046 12.306 12.3074 12.3081 12.308 12.3067 12.3054 12.3032 12.3002 12.2955 12.2907 12.2843 12.2761 12.2679 12.2578 12.2466 12.2343 12.2219 12.2079 12.1977 12.1861 12.1744 12.1627 12.1493 12.143 12.1367 12.1303 12.124 12.1169 12.0934 12.0688 12.0441 12.0188 11.9914 11.961 11.9301 11.8971 11.8612 11.8253 11.7861 11.7468 11.7045 11.6589 11.6133 11.564 11.5124 11.4591 11.4058 11.3494 11.2928 11.2332 11.1736 11.1139 11.0382 11.0361 11.0341 11.032 11.0299 11.0277 10.9515 10.8751 10.7987 10.7221 10.6421 10.5551 10.4641 10.3729 10.2801 10.1835 10.0814 9.9778 9.86987 9.75568 9.64085 9.51985 9.39879 9.27224 9.14041 9.00845 8.86982 8.73087 8.58049 8.42198 8.26187 8.09413 7.92537 7.75567 7.58553 7.41393 7.23442 7.02467 6.81475 6.60487 6.37787 6.14523 5.92903 5.71279 5.49651 5.28405 5.20283 5.10492 5.00707 4.90926 4.79922 4.58898 4.37851 4.16783 3.95692 3.71364 3.3952 3.13578 2.87559 2.61469 2.4922 2.37611 1.94107 1.51118 0.94261 0