# vtk DataFile Version 2.0
track0
ASCII
DATASET POLYDATA
POINTS 12075 float
-0.0205 0.001 1e-05
-0.02052 0.000999985 1e-05
-0.02054 0.000999974 1e-05
-0.02056 0.000999965 1e-05
-0.02058 0.000999959 1e-05
-0.0206 0.000999956 1e-05
-0.0205 0.00367778 1e-05
-0.02052 0.00367778 1e-05
-0.02054 0.00367777 1e-05
-0.02056 0.00367777 1e-05
-0.02058 0.00367777 1e-05
-0.0206 0.00367777 1e-05
-0.0205 0.00635556 1e-05
-0.02052 0.00635555 1e-05
-0.02054 0.00635555 1e-05
-0.02056 0.00635555 1e-05
-0.02058 0.00635555 1e-05
-0.0206 0.00635555 1e-05
-0.0205 0.00903333 1e-05
-0.02052 0.00903333 1e-05
-0.02054 0.00903333 1e-05
-0.02056 0.00903333 1e-05
-0.02058 0.00903333 1e-05
-0.0206 0.00903333 1e-05
-0.0205 0.0117111 1e-05
-0.02052 0.0117111 1e-05
-0.02054 0.0117111 1e-05
-0.02056 0.0117111 1e-05
-0.02058 0.0117111 1e-05
-0.0206 0.0117111 1e-05
-0.0205 0.0143889 1e-05
-0.02052 0.0143889 1e-05
-0.02054 0.0143889 1e-05
-0.02056 0.0143889 1e-05
-0.02058 0.0143889 1e-05
-0.0206 0.0143889 1e-05
-0.0205 0.0170667 1e-05
-0.02052 0.0170667 1e-05
-0.02054 0.0170667 1e-05
-0.02056 0.0170667 1e-05
-0.02058 0.0170667 1e-05
-0.0206 0.0170667 1e-05
-0.0205 0.0197444 1e-05
-0.02052 0.0197444 1e-05
-0.02054 0.0197444 1e-05
-0.02056 0.0197444 1e-05
-0.02058 0.0197444 1e-05
-0.0206 0.0197444 1e-05
-0.0205 0.0224222 1e-05
-0.02052 0.0224222 1e-05
-0.02054 0.0224222 1e-05
-0.02056 0.0224222 1e-05
-0.02058 0.0224222 1e-05
-0.0206 0.0224222 1e-05
-0.0205 0.0251 1e-05
-0.02052 0.0250998 1e-05
-0.02054 0.0250997 1e-05
-0.02056 0.0250995 1e-05
-0.02058 0.0250995 1e-05
-0.0206 0.0250994 1e-05
-0.0205 0.001 1e-05
-0.0202034 0.00100022 1e-05
-0.0199069 0.00100067 1e-05
-0.0196103 0.00100133 1e-05
-0.0193137 0.00100219 1e-05
-0.0190172 0.00100326 1e-05
-0.0187132 0.00100467 1e-05
-0.0184093 0.00100589 1e-05
-0.0181054 0.00100711 1e-05
-0.0178015 0.00100834 1e-05
-0.0174976 0.00100955 1e-05
-0.0172058 0.00101085 1e-05
-0.016914 0.00101196 1e-05
-0.0166222 0.00101307 1e-05
-0.0163305 0.00101417 1e-05
-0.0160387 0.00101527 1e-05
-0.0157586 0.00101642 1e-05
-0.0154784 0.00101751 1e-05
-0.0151983 0.00101863 1e-05
-0.0149182 0.0010198 1e-05
-0.0146381 0.001021 1e-05
-0.0143808 0.00102216 1e-05
-0.0141235 0.00102333 1e-05
-0.0138661 0.00102453 1e-05
-0.0136088 0.00102575 1e-05
-0.0133916 0.00102682 1e-05
-0.013372 0.00102692 1e-05
-0.0133523 0.00102701 1e-05
-0.0133327 0.00102711 1e-05
-0.0133131 0.00102721 1e-05
-0.0132934 0.00102731 1e-05
-0.0130353 0.00102861 1e-05
-0.0127771 0.00102993 1e-05
-0.0125189 0.00103126 1e-05
-0.0122607 0.00103261 1e-05
-0.0120025 0.00103398 1e-05
-0.0117547 0.00103531 1e-05
-0.0115068 0.00103664 1e-05
-0.0112589 0.00103798 1e-05
-0.0110111 0.00103933 1e-05
-0.0107632 0.00104068 1e-05
-0.0105252 0.00104198 1e-05
-0.0102873 0.00104328 1e-05
-0.0100493 0.00104458 1e-05
-0.00981133 0.00104589 1e-05
-0.00957337 0.00104719 1e-05
-0.00934491 0.00104844 1e-05
-0.00911645 0.00104969 1e-05
-0.00888799 0.00105094 1e-05
-0.00865954 0.00105219 1e-05
-0.00843108 0.00105344 1e-05
-0.00821175 0.00105462 1e-05
-0.00799242 0.00105582 1e-05
-0.00777309 0.00105701 1e-05
-0.00755376 0.0010582 1e-05
-0.00733443 0.00105938 1e-05
-0.00712387 0.00106052 1e-05
-0.0069133 0.00106165 1e-05
-0.00670273 0.00106278 1e-05
-0.00649217 0.00106392 1e-05
-0.0062816 0.00106504 1e-05
-0.00607944 0.00106612 1e-05
-0.00587729 0.0010672 1e-05
-0.00567514 0.00106828 1e-05
-0.00547298 0.00106936 1e-05
-0.00527083 0.00107044 1e-05
-0.00507675 0.00107147 1e-05
-0.00488267 0.00107251 1e-05
-0.0046886 0.00107354 1e-05
-0.00449452 0.00107458 1e-05
-0.00430044 0.00107562 1e-05
-0.00411412 0.00107661 1e-05
-0.0039278 0.00107761 1e-05
-0.00374147 0.00107861 1e-05
-0.00355515 0.00107962 1e-05
-0.00336883 0.00108063 1e-05
-0.00318995 0.0010816 1e-05
-0.00301107 0.00108258 1e-05
-0.00283219 0.00108357 1e-05
-0.00265331 0.00108457 1e-05
-0.00247443 0.00108558 1e-05
-0.0023027 0.00108655 1e-05
-0.00213097 0.00108754 1e-05
-0.00195924 0.00108854 1e-05
-0.00178751 0.00108956 1e-05
-0.00161577 0.0010906 1e-05
-0.0014509 0.0010916 1e-05
-0.00128603 0.00109263 1e-05
-0.00112116 0.00109369 1e-05
-0.00095629 0.00109478 1e-05
-0.000791418 0.00109591 1e-05
-0.000633135 0.00109702 1e-05
-0.000474851 0.00109817 1e-05
-0.000316568 0.00109936 1e-05
-0.000158286 0.00110059 1e-05
0 0.00110186 1e-05
0.000105677 0.00110273 1e-05
0.000211355 0.00110361 1e-05
0.000317032 0.00110451 1e-05
0.000422709 0.00110542 1e-05
0.000528387 0.00110633 1e-05
0.000634886 0.00110726 1e-05
0.000741385 0.00110818 1e-05
0.000847885 0.00110909 1e-05
0.000954384 0.00111 1e-05
0.00106088 0.0011109 1e-05
0.00116821 0.0011118 1e-05
0.00127554 0.00111269 1e-05
0.00138286 0.00111357 1e-05
0.00149019 0.00111443 1e-05
0.00159752 0.00111527 1e-05
0.00170568 0.00111611 1e-05
0.00181384 0.00111693 1e-05
0.001922 0.00111774 1e-05
0.00203016 0.00111854 1e-05
0.00213833 0.00111932 1e-05
0.00224733 0.00112008 1e-05
0.00235633 0.00112084 1e-05
0.00246533 0.00112158 1e-05
0.00257434 0.00112231 1e-05
0.00268334 0.00112303 1e-05
0.00279319 0.00112373 1e-05
0.00290304 0.00112442 1e-05
0.00301289 0.0011251 1e-05
0.00312274 0.00112577 1e-05
0.00323259 0.00112642 1e-05
0.00334329 0.00112706 1e-05
0.003454 0.0011277 1e-05
0.0035647 0.00112833 1e-05
0.0036754 0.00112894 1e-05
0.00378611 0.00112954 1e-05
0.00389767 0.00113013 1e-05
0.00400924 0.00113071 1e-05
0.0041208 0.00113129 1e-05
0.00423237 0.00113185 1e-05
0.00434393 0.0011324 1e-05
0.00445636 0.00113294 1e-05
0.00456879 0.00113348 1e-05
0.00468123 0.00113401 1e-05
0.00479366 0.00113452 1e-05
0.00490609 0.00113503 1e-05
0.0050194 0.00113553 1e-05
0.0051327 0.00113602 1e-05
0.00524601 0.00113651 1e-05
0.00535932 0.00113699 1e-05
0.00547262 0.00113746 1e-05
0.00558681 0.00113791 1e-05
0.005701 0.00113837 1e-05
0.00581518 0.00113882 1e-05
0.00592937 0.00113927 1e-05
0.00604356 0.0011397 1e-05
0.00615863 0.00114012 1e-05
0.00627371 0.00114055 1e-05
0.00638878 0.00114097 1e-05
0.00650386 0.00114138 1e-05
0.00661893 0.00114179 1e-05
0.0067349 0.00114219 1e-05
0.00685087 0.00114259 1e-05
0.00696684 0.00114298 1e-05
0.00708281 0.00114337 1e-05
0.00719878 0.00114376 1e-05
0.00731565 0.00114413 1e-05
0.00743252 0.00114451 1e-05
0.00754939 0.00114488 1e-05
0.00766626 0.00114525 1e-05
0.00778313 0.00114562 1e-05
0.00790091 0.00114597 1e-05
0.00801869 0.00114633 1e-05
0.00813647 0.00114669 1e-05
0.00825425 0.00114704 1e-05
0.00837203 0.0011474 1e-05
0.00849073 0.00114774 1e-05
0.00860942 0.00114808 1e-05
0.00872812 0.00114843 1e-05
0.00884682 0.00114877 1e-05
0.00896551 0.00114911 1e-05
0.00908513 0.00114944 1e-05
0.00920475 0.00114978 1e-05
0.00932437 0.00115012 1e-05
0.00944398 0.00115045 1e-05
0.0095636 0.00115078 1e-05
0.00968415 0.00115111 1e-05
0.0098047 0.00115144 1e-05
0.00992525 0.00115177 1e-05
0.0100458 0.00115209 1e-05
0.0101663 0.00115242 1e-05
0.0102878 0.00115274 1e-05
0.0104093 0.00115306 1e-05
0.0105308 0.00115339 1e-05
0.0106523 0.00115371 1e-05
0.0107738 0.00115403 1e-05
0.0108595 0.00115425 1e-05
0.0109453 0.00115448 1e-05
0.011031 0.0011547 1e-05
0.0111168 0.00115493 1e-05
0.0112026 0.00115515 1e-05
0.0112392 0.00115524 1e-05
0.0112759 0.00115534 1e-05
0.0113126 0.00115543 1e-05
0.0113492 0.00115553 1e-05
0.0113859 0.00115562 1e-05
0.0115093 0.00115594 1e-05
0.0116327 0.00115626 1e-05
0.0117561 0.00115658 1e-05
0.0118795 0.00115689 1e-05
0.0120028 0.00115721 1e-05
0.0121272 0.00115752 1e-05
0.0122515 0.00115784 1e-05
0.0123759 0.00115815 1e-05
0.0125002 0.00115846 1e-05
0.0126245 0.00115877 1e-05
0.0127498 0.00115909 1e-05
0.0128752 0.0011594 1e-05
0.0130005 0.00115971 1e-05
0.0131258 0.00116002 1e-05
0.0132511 0.00116033 1e-05
0.0133774 0.00116065 1e-05
0.0135036 0.00116096 1e-05
0.0136299 0.00116127 1e-05
0.0137562 0.00116158 1e-05
0.0138825 0.00116189 1e-05
0.0140098 0.0011622 1e-05
0.014137 0.00116251 1e-05
0.0142643 0.00116282 1e-05
0.0143915 0.00116313 1e-05
0.0145188 0.00116343 1e-05
0.0146471 0.00116375 1e-05
0.0147753 0.00116405 1e-05
0.0149036 0.00116436 1e-05
0.0150318 0.00116467 1e-05
0.0151601 0.00116497 1e-05
0.0152893 0.00116528 1e-05
0.0154186 0.00116559 1e-05
0.0155478 0.00116589 1e-05
0.0156771 0.0011662 1e-05
0.0158063 0.0011665 1e-05
0.0159366 0.00116681 1e-05
0.0160668 0.00116711 1e-05
0.0161971 0.00116741 1e-05
0.0163274 0.00116771 1e-05
0.0164576 0.00116801 1e-05
0.0165889 0.00116832 1e-05
0.0167201 0.00116862 1e-05
0.0168514 0.00116891 1e-05
0.0169827 0.00116921 1e-05
0.0171139 0.0011695 1e-05
0.0172462 0.00116981 1e-05
0.0173785 0.0011701 1e-05
0.0175108 0.00117039 1e-05
0.0176431 0.00117068 1e-05
0.0177754 0.00117097 1e-05
0.0179087 0.00117128 1e-05
0.018042 0.00117156 1e-05
0.0181753 0.00117185 1e-05
0.0183087 0.00117213 1e-05
0.018442 0.00117241 1e-05
0.0185763 0.00117272 1e-05
0.0187107 0.001173 1e-05
0.018845 0.00117328 1e-05
0.0189794 0.00117355 1e-05
0.0191137 0.00117382 1e-05
0.0192491 0.00117412 1e-05
0.0193845 0.0011744 1e-05
0.0195199 0.00117467 1e-05
0.0196553 0.00117493 1e-05
0.0197907 0.0011752 1e-05
0.0199272 0.00117549 1e-05
0.0200636 0.00117575 1e-05
0.0202001 0.00117601 1e-05
0.0203365 0.00117627 1e-05
0.020473 0.00117652 1e-05
0.0206105 0.0011768 1e-05
0.020748 0.00117705 1e-05
0.0208855 0.0011773 1e-05
0.021023 0.00117755 1e-05
0.0211606 0.00117779 1e-05
0.0212991 0.00117806 1e-05
0.0214377 0.0011783 1e-05
0.0215763 0.00117853 1e-05
0.0217149 0.00117877 1e-05
0.0218535 0.001179 1e-05
0.0219931 0.00117925 1e-05
0.0221328 0.00117948 1e-05
0.0222724 0.00117971 1e-05
0.0224121 0.00117992 1e-05
0.0225517 0.00118014 1e-05
0.0226925 0.00118038 1e-05
0.0228332 0.0011806 1e-05
0.022974 0.00118081 1e-05
0.0231147 0.00118101 1e-05
0.0232555 0.00118122 1e-05
0.0233973 0.00118144 1e-05
0.0235391 0.00118164 1e-05
0.023681 0.00118183 1e-05
0.0238228 0.00118202 1e-05
0.0239647 0.0011822 1e-05
0.0241076 0.00118241 1e-05
0.0242505 0.00118259 1e-05
0.0243935 0.00118276 1e-05
0.0245364 0.00118293 1e-05
0.0246794 0.0011831 1e-05
0.0248234 0.00118329 1e-05
0.0249675 0.00118345 1e-05
0.0251115 0.0011836 1e-05
0.0252556 0.00118375 1e-05
0.0253996 0.0011839 1e-05
[...]
POINT_DATA 12075
 FIELD attributes 2
p 1 12075 float
-5.47187 -5.46855 -5.46524 -5.46192 -5.45861 -5.4553
-5.62728 -5.62726 -5.62724 -5.62722 -5.62719 -5.62717
-5.8077 -5.80759 -5.80747 -5.80735 -5.80723 -5.80713
-5.90971 -5.90966 -5.90961 -5.90956 -5.90951 -5.90946
-5.96452 -5.96441 -5.9643 -5.96419 -5.96408 -5.96396
-5.98059 -5.98042 -5.98026 -5.98009 -5.97993 -5.97976
-5.96233 -5.96225 -5.96218 -5.9621 -5.96203 -5.96195
-5.89956 -5.89952 -5.89948 -5.89943 -5.89939 -5.89935
-5.78267 -5.78267 -5.78267 -5.78268 -5.78268 -5.78269
-3.57171 -3.59104 -3.61024 -3.62931 -3.64824 -3.66704
-5.47187 -5.47108 -5.46737 -5.46359 -5.45972 -5.45123 -5.46478 -5.4794 -5.49402 -5.50863 -5.53265 -5.55383 -5.58314 -5.61244 -5.64174 -5.67381 -5.68869 -5.70957 -5.73046 -5.75134 -5.77382 -5.79126 -5.81068 -5.8301 -5.84952 -5.86592 -5.8674 -5.86887 -5.87035 -5.87183 -5.8733 -5.89363 -5.91396 -5.93429 -5.95463 -5.97466 -5.99183 -6.00879 -6.02575 -6.04272 -6.05907 -6.07281 -6.08622 -6.09964 -6.11306 -6.12587 -6.13735 -6.1485 -6.15966 -6.17082 -6.18146 -6.19141 -6.20099 -6.21057 -6.22015 -6.22923 -6.23778 -6.24589 -6.25399 -6.2621 -6.26968 -6.27682 -6.28346 -6.29009 -6.29672 -6.30286 -6.30854 -6.31355 -6.31856 -6.32358 -6.32808 -6.33214 -6.33545 -6.33877 -6.34208 -6.34513 -6.34765 -6.34895 -6.35025 -6.35155 -6.35278 -6.35403 -6.35485 -6.35567 -6.3565 -6.35889 -6.36184 -6.36302 -6.3642 -6.36539 -6.36842 -6.37526 -6.38839 -6.40151 -6.41464 -6.43501 -6.45735 -6.4886 -6.51985 -6.5511 -6.58324 -6.61465 -6.64795 -6.68125 -6.71455 -6.74215 -6.76473 -6.78586 -6.807 -6.82813 -6.84576 -6.85926 -6.87175 -6.88423 -6.89671 -6.90823 -6.91716 -6.92498 -6.93281 -6.94064 -6.94833 -6.95472 -6.95972 -6.96471 -6.96971 -6.97463 -6.97957 -6.98296 -6.98635 -6.98974 -6.99252 -6.99626 -6.99843 -7.0006 -7.00277 -7.00378 -7.00588 -7.00641 -7.00694 -7.00748 -7.00682 -7.00693 -7.00566 -7.0044 -7.00314 -7.00122 -7.00002 -6.99784 -6.99567 -6.99349 -6.99122 -6.98995 -6.98807 -6.98619 -6.98431 -6.98255 -6.98198 -6.98098 -6.97998 -6.97898 -6.97802 -6.97808 -6.97776 -6.97743 -6.9771 -6.97667 -6.97698 -6.97696 -6.97695 -6.97694 -6.97679 -6.97719 -6.97743 -6.97767 -6.9779 -6.97808 -6.97875 -6.97944 -6.98013 -6.98082 -6.98155 -6.98284 -6.98427 -6.9857 -6.98713 -6.98865 -6.99091 -6.99332 -6.99573 -6.99815 -7.00062 -7.00296 -7.00539 -7.00781 -7.01024 -7.01267 -7.0137 -7.01474 -7.01577 -7.01681 -7.01793 -7.02225 -7.02665 -7.03105 -7.03544 -7.04019 -7.0451 -7.05028 -7.05547 -7.06066 -7.06637 -7.07184 -7.07772 -7.08361 -7.08949 -7.09601 -7.10208 -7.10862 -7.11517 -7.12171 -7.12896 -7.13566 -7.14287 -7.15009 -7.1573 -7.16524 -7.17261 -7.18046 -7.18832 -7.19618 -7.20476 -7.2128 -7.22128 -7.22976 -7.23824 -7.24743 -7.25611 -7.2652 -7.27428 -7.28337 -7.29311 -7.30232 -7.31194 -7.32156 -7.33119 -7.3414 -7.35104 -7.36116 -7.37127 -7.38139 -7.3921 -7.40215 -7.41271 -7.42327 -7.43383 -7.44504 -7.4554 -7.46631 -7.47721 -7.48811 -7.49973 -7.51028 -7.52143 -7.53257 -7.54372 -7.55565 -7.56631 -7.57763 -7.58895 -7.60027 -7.61249 -7.62323 -7.63469 -7.64616 -7.65764 -7.67009 -7.68091 -7.69244 -7.70401 -7.71565 -7.72817 -7.73902 -7.75054 -7.76214 -7.77388 -7.78637 -7.79718 -7.80863 -7.82021 -7.83199 -7.84446 -7.85528 -7.86663 -7.87817 -7.88995 -7.90232 -7.91316 -7.92443 -7.93589 -7.94764 -7.95989 -7.97072 -7.98188 -7.99326 -8.00496 -8.0171 -8.02792 -8.039 -8.05032 -8.06202 -8.07409 -8.08497 -8.09604 -8.10733 -8.11902 -8.131 -8.14192 -8.15296 -8.16423 -8.17593 -8.18785 -8.19873 -8.20974 -8.22103 -8.23282 -8.24479 -8.25565 -8.26663 -8.27801 -8.29 -8.30214 -8.31305 -8.32406 -8.3356 -8.3479 -8.3603 -8.37133 -8.3824 -8.39419 -8.40692 -8.41969 -8.43093 -8.44217 -8.45433 -8.46756 -8.48079 -8.49234 -8.50389 -8.51649 -8.53028 -8.54406 -8.55606 -8.56806 -8.58117 -8.59553 -8.60988 -8.62246 -8.63503 -8.64873 -8.66365 -8.67857 -8.69161 -8.70466 -8.71904 -8.73482 -8.7506 -8.76431 -8.77801 -8.79324 -8.81001 -8.82678 -8.84139 -8.856 -8.87222 -8.89005 -8.90788 -8.92352 -8.93915 -8.95645 -8.97536 -8.99428 -9.01096 -9.02766 -9.04609 -9.0662 -9.0863 -9.10414 -9.12198 -9.14168 -9.1631 -9.18451 -9.20366 -9.22281 -9.2439 -9.26673 -9.28956 -9.31015 -9.33075 -9.35334 -9.37764 -9.40193 -9.42407 -9.44621 -9.47039 -9.49614 -9.52192 -9.54565 -9.56955 -9.5953 -9.62242 -9.6497 -9.67503 -9.70069 -9.72804 -9.7566 -9.78544 -9.81243 -9.83989 -9.86882 -9.89876 -9.92907 -9.95772 -9.98694 -10.0174 -10.0486 -10.0802 -10.1104 -10.1413 -10.1732 -10.2058 -10.2388 -10.2706 -10.3032 -10.3366 -10.3706 -10.405 -10.4385 -10.4727 -10.5076 -10.5429 -10.5787 -10.6136 -10.6494 -10.6857 -10.7222 -10.7592 -10.7956 -10.8328 -10.8703 -10.9079 -10.9458 -10.9835 -11.0218 -11.0603 -11.0988 -11.1375 -11.1762 -11.2154 -11.2547 -11.2939 -11.3331 -11.3727 -11.4125 -11.4523 -11.492 -11.5315 -11.5716 -11.6115 -11.6515 -11.6914 -11.7306 -11.7708 -11.8103 -11.8499 -11.8894 -11.928 -11.9673 -12.0059 -12.0444 -12.0829 -12.1204 -12.1584 -12.1955 -12.2325 -12.2696 -12.3058 -12.342 -12.3774 -12.4128 -12.4483 -12.4831 -12.5172 -12.5507 -12.5843 -12.6178 -12.6512 -12.6659 -12.6803 -12.6948 -12.7092 -12.7219 -12.7391 -12.7562 -12.7734 -12.7906 -12.8074 -12.8362 -12.8647 -12.8931 -12.9216 -12.9489 -12.9752 -13.0002 -13.0252 -13.0502 -13.0729 -13.0966 -13.1175 -13.1385 -13.1595 -13.1766 -13.1974 -13.2138 -13.2302 -13.2456 -13.2571 -13.2732 -13.2864 -13.2976 -13.3057 -13.3115 -13.3223 -13.3323 -13.3376 -13.3371 -13.3363 -13.3409 -13.3456 -13.3439 -13.3359 -13.328 -13.3258 -13.3237 -13.315 -13.2991 -13.2833 -13.2736 -13.2611 -13.2435 -13.2233 -13.199 -13.1811 -13.1555 -13.1292 -13.103 -13.0722 -13.0494 -13.0222 -12.995 -12.9679 -12.945 -12.9361 -12.9271 -12.9182 -12.9093 -12.8985 -12.8564 -12.8124 -12.7686 -12.7248 -12.6717 -12.6254 -12.5735 -12.5193 -12.458 -12.3929 -12.336 -12.2791 -12.2125 -12.1362 -12.0598 -11.9917 -11.9195 -11.8396 -11.7587 -11.6707 -11.6098 -11.5402 -11.4706 -11.4011 -11.3408 -11.3178 -11.2948 -11.2718 -11.2487 -11.2228 -11.126 -11.0261 -10.9264 -10.8227 -10.7116 -10.6064 -10.5014 -10.3878 -10.2655 -10.1428 -10.026 -9.90139 -9.77365 -9.64604 -9.5176 -9.5147 -9.51162 -9.50846 -9.50531 -9.50216 -9.36963 -9.23729 -9.10513 -8.97074 -8.82925 -8.68753 -8.54598 -8.39813 -8.24385 -8.08887 -7.97367 -7.85473 -7.73342 -7.6122 -7.50359 -7.46324 -7.42291 -7.38259 -7.34146 -7.29903 -7.13588 -6.97043 -6.80521 -6.63443 -6.46117 -6.29036 -6.11797 -5.94115 -5.76453 -5.58566 -5.56423 -5.54252 -5.52045 -5.49839 -5.47664 -5.31737 -5.15828 -4.99937 -4.8382 -4.6739 -4.48912 -4.30457 -4.11651 -3.92804 -3.73742 -3.68582 -3.63397 -3.58165 -3.52935 -3.47858 -3.33959 -3.20072 -3.06198 -2.92205 -2.7805 -2.58787 -2.39546 -2.20198 -2.00843 -1.81324 -1.76118 -1.70912 -1.65706 -1.60502 -1.5543 -1.41174 -1.2693 -1.12698 -0.984635 -0.841314 -0.647114 -0.453141 -0.260464 -0.0680535 0.125342 0.155252 0.185077 0.21461 0.244138 0.273285 0.435654 0.59788 0.75996 0.920536 1.08186 1.26867 1.45455 1.63764 1.82052 1.98999 1.99584 2.0017 2.00755 2.01332 2.01908 2.20379 2.38805 2.57214 2.75256 2.93388 3.06717 3.1997 3.32909 3.45838 3.58171 3.62967 3.67762 3.72556 3.7725 3.81928 3.99359 4.16727 4.33798 4.50468 4.67275 4.75166 4.8301 4.90617 4.9822 5.05644 5.14444 5.2324 5.32034 5.40589 5.49119 5.65118 5.81107 5.96626 6.11923 6.27226 6.30332 6.33419 6.36398 6.39377 6.42333 6.54349 6.6636 6.78367 6.90001 7.01588 7.1549 7.29283 7.42603 7.55919 7.68925 7.69542 7.70159 7.70775 7.71371 7.71961 7.85526 7.99038 8.12547 8.25508 8.38405 8.48142 8.57777 8.67024 8.76271 8.85473 8.88599 8.91725 8.94852 8.97833 9.00786 9.12903 9.24966 9.36694 9.47933 9.59165 9.64442 9.6967 9.74628 9.79586 9.84568 9.90495 9.96423 10.0235 10.0799 10.1357 10.2407 10.3458 10.4457 10.5442 10.641 10.659 10.677 10.6939 10.7109 10.728 10.806 10.8841 10.9622 11.0364 11.1094 11.1939 11.2774 11.3568 11.4363 11.5197 11.5243 11.529 11.5336 11.5381 11.5425 11.6247 11.7066 11.7885 11.8661 11.9423 12.0025 12.0619 12.1185 12.1751 12.2353 12.2506 12.2659 12.2812 12.2959 12.3103 12.3808 12.4501 12.5192 12.5845 12.6489 12.6995 12.7491 12.7967 12.8445 12.8962 12.909 12.9219 12.9347 12.9472 12.9593 13.0184 13.0765 13.1347 13.1899 13.2441 13.2983 13.3511 13.4023 13.4536 13.5041 13.5063 13.5084 13.5105 13.5126 13.5147 13.561 13.6073 13.6536 13.6989 13.7423 13.7874 13.8325 13.8758 13.9177 13.9592 13.9874 14.0146 14.0413 14.0681 14.0979 14.1098 14.1217 14.1336 14.1453 14.1567 14.1937 14.2303 14.2668 14.3023 14.3369 14.3707 14.4045 14.4372 14.4689 14.5003 14.531 14.5606 14.59 14.6193 14.6484 14.6509 14.6534 14.6558 14.6582 14.6607 14.6855 14.7104 14.7351 14.7599 14.7837 14.8088 14.8337 14.8584 14.8825 14.9062 14.929 14.9517 14.9739 14.9956 15.0172 15.0378 15.0581 15.078 15.0979 15.1176 15.1342 15.1504 15.1666 15.1827 15.2017 15.2031 15.2045 15.2059 15.2073 15.2086 15.2254 15.2421 15.2588 15.2755 15.2919 15.3071 15.3224 15.3376 15.3527 15.3675 15.3813 15.3952 15.409 15.4226 15.4362 15.4488 15.4614 15.4739 15.4863 15.4987 15.5102 15.5217 15.533 15.5444 15.5558 15.5663 15.5768 15.5871 15.5975 15.608 15.6177 15.6272 15.6367 15.6463 15.6559 15.6647 15.6735 15.6823 15.6911 15.6999 15.7028 15.7057 15.7086 15.7115 15.7146 15.7198 15.725 15.7303 15.7355 15.7407 15.7483 15.7559 15.7635 15.771 15.7786 15.7855 15.7926 15.7996 15.8067 15.8138 15.8201 15.8266 15.8332 15.8398 15.8464 15.8523 15.8583 15.8645 15.8706 15.8768 15.8823 15.8879 15.8937 15.8995 15.9053 15.9105 15.9156 15.921 15.9265 15.932 15.9368 15.9417 15.9467 15.9519 15.957 15.9616 15.9662 15.9709 15.9758 15.9806 15.985 15.9893 15.9937 15.9983 16.0029 16.007 16.0111 16.0152 16.0196 16.024 16.0278 16.0317 16.0357 16.0398 16.0439 16.0476 16.0513 16.055 16.0589 16.0628 16.0663 16.0698 16.0734 16.077 16.0808 16.0841 16.0875 16.0909 16.0943 16.0978 16.101 16.1042 16.1075 16.1107 16.1141 16.1171 16.1203 16.1234 16.1265 16.1297 16.1327 16.1357 16.1387 16.1417 16.1448 16.1477 16.1507 16.1537 16.1566 16.1596 16.1625 16.1655 16.1685 16.1715 16.1745 16.1775 16.1805 16.1836 16.1867 16.1898 16.193 16.1963 16.1995 16.2028 16.2061 16.207 16.2079 16.2087 16.2096 16.2106 16.2134 16.2161 16.2189 16.2216 16.2244 16.2287 16.233 16.2374 16.2417 16.2461 16.2514 16.2567 16.262 16.2673 16.2729 16.2795 16.286 16.2926 16.2991 16.306 16.3145 16.3231 16.3316 16.3402 16.3496 16.3588 16.3668 16.3747 16.3826 16.3906 16.3998 16.4092 16.4186 16.4279 16.4336 16.4343 16.4349 16.4356 16.4362 16.4369 16.437 16.4366 16.4362 16.4358 16.4354 16.4311 16.4264 16.4215 16.4163 16.397 16.3614 16.3249 16.2883 16.2516 16.2079 16.1621 16.1215 16.0823 16.045 16.0102 15.9737 15.9374 15.9013 15.8655 15.8298 15.792 15.7542 15.714 15.6715 15.629 15.5841 15.5392 15.493 15.4456 15.398 15.348 15.298 15.2469 15.195 15.143 15.0883 15.0335 14.9773 14.9199 14.8622 14.8018 14.7406 14.6781 14.6147 14.5505 14.4833 14.4147 14.3453 14.2754 14.204 14.1295 14.0526 13.9755 13.8983 13.8189 13.7355 13.6497 13.5638 13.4779 13.3903 13.2966 13.201 13.1054 13.0098 12.913 12.8079 12.7015 12.5951 12.4887 12.3818 12.3234 12.2644 12.2055 12.1465 12.0803 12.0224 11.9646 11.9067 11.8489 11.7905 11.6598 11.5284 11.3971 11.2657 11.1327 10.9883 10.8419 10.6956 10.5492 10.3996 10.2399 10.0768 9.9138 9.75076 9.58308 9.40655 9.224 9.04143 8.85886 8.66845 8.47109 8.26798 8.06487 7.86123 7.65112 7.43456 7.20381 6.97013 6.73152 6.47969 6.2193 5.96432 5.7128 5.46595 5.2242 4.97314 4.69659 4.3783 4.01065 3.62212 3.21792 2.83289 2.55407 2.38828 2.23683 2.07757 1.91838 1.46706 0.733192 0