# vtk DataFile Version 2.0
track0
ASCII
DATASET POLYDATA
POINTS 12075 float
-0.0205 0.001 1e-05
-0.02052 0.000999985 1e-05
-0.02054 0.000999974 1e-05
-0.02056 0.000999965 1e-05
-0.02058 0.000999959 1e-05
-0.0206 0.000999956 1e-05
-0.0205 0.00367778 1e-05
-0.02052 0.00367778 1e-05
-0.02054 0.00367777 1e-05
-0.02056 0.00367777 1e-05
-0.02058 0.00367777 1e-05
-0.0206 0.00367777 1e-05
-0.0205 0.00635556 1e-05
-0.02052 0.00635555 1e-05
-0.02054 0.00635555 1e-05
-0.02056 0.00635555 1e-05
-0.02058 0.00635555 1e-05
-0.0206 0.00635555 1e-05
-0.0205 0.00903333 1e-05
-0.02052 0.00903333 1e-05
-0.02054 0.00903333 1e-05
-0.02056 0.00903333 1e-05
-0.02058 0.00903333 1e-05
-0.0206 0.00903333 1e-05
-0.0205 0.0117111 1e-05
-0.02052 0.0117111 1e-05
-0.02054 0.0117111 1e-05
-0.02056 0.0117111 1e-05
-0.02058 0.0117111 1e-05
-0.0206 0.0117111 1e-05
-0.0205 0.0143889 1e-05
-0.02052 0.0143889 1e-05
-0.02054 0.0143889 1e-05
-0.02056 0.0143889 1e-05
-0.02058 0.0143889 1e-05
-0.0206 0.0143889 1e-05
-0.0205 0.0170667 1e-05
-0.02052 0.0170667 1e-05
-0.02054 0.0170667 1e-05
-0.02056 0.0170667 1e-05
-0.02058 0.0170667 1e-05
-0.0206 0.0170667 1e-05
-0.0205 0.0197444 1e-05
-0.02052 0.0197444 1e-05
-0.02054 0.0197444 1e-05
-0.02056 0.0197444 1e-05
-0.02058 0.0197444 1e-05
-0.0206 0.0197444 1e-05
-0.0205 0.0224222 1e-05
-0.02052 0.0224222 1e-05
-0.02054 0.0224222 1e-05
-0.02056 0.0224222 1e-05
-0.02058 0.0224222 1e-05
-0.0206 0.0224222 1e-05
-0.0205 0.0251 1e-05
-0.02052 0.0250998 1e-05
-0.02054 0.0250997 1e-05
-0.02056 0.0250995 1e-05
-0.02058 0.0250995 1e-05
-0.0206 0.0250994 1e-05
-0.0205 0.001 1e-05
-0.0202034 0.00100022 1e-05
-0.0199069 0.00100067 1e-05
-0.0196103 0.00100133 1e-05
-0.0193137 0.00100219 1e-05
-0.0190172 0.00100326 1e-05
-0.0187132 0.00100467 1e-05
-0.0184093 0.00100589 1e-05
-0.0181054 0.00100711 1e-05
-0.0178015 0.00100834 1e-05
-0.0174976 0.00100955 1e-05
-0.0172058 0.00101085 1e-05
-0.016914 0.00101196 1e-05
-0.0166222 0.00101307 1e-05
-0.0163305 0.00101417 1e-05
-0.0160387 0.00101527 1e-05
-0.0157586 0.00101642 1e-05
-0.0154784 0.00101751 1e-05
-0.0151983 0.00101863 1e-05
-0.0149182 0.0010198 1e-05
-0.0146381 0.001021 1e-05
-0.0143808 0.00102216 1e-05
-0.0141235 0.00102333 1e-05
-0.0138661 0.00102453 1e-05
-0.0136088 0.00102575 1e-05
-0.0133916 0.00102682 1e-05
-0.013372 0.00102692 1e-05
-0.0133523 0.00102701 1e-05
-0.0133327 0.00102711 1e-05
-0.0133131 0.00102721 1e-05
-0.0132934 0.00102731 1e-05
-0.0130353 0.00102861 1e-05
-0.0127771 0.00102993 1e-05
-0.0125189 0.00103126 1e-05
-0.0122607 0.00103261 1e-05
-0.0120025 0.00103398 1e-05
-0.0117547 0.00103531 1e-05
-0.0115068 0.00103664 1e-05
-0.0112589 0.00103798 1e-05
-0.0110111 0.00103933 1e-05
-0.0107632 0.00104068 1e-05
-0.0105252 0.00104198 1e-05
-0.0102873 0.00104328 1e-05
-0.0100493 0.00104458 1e-05
-0.00981133 0.00104589 1e-05
-0.00957337 0.00104719 1e-05
-0.00934491 0.00104844 1e-05
-0.00911645 0.00104969 1e-05
-0.00888799 0.00105094 1e-05
-0.00865954 0.00105219 1e-05
-0.00843108 0.00105344 1e-05
-0.00821175 0.00105462 1e-05
-0.00799242 0.00105582 1e-05
-0.00777309 0.00105701 1e-05
-0.00755376 0.0010582 1e-05
-0.00733443 0.00105938 1e-05
-0.00712387 0.00106052 1e-05
-0.0069133 0.00106165 1e-05
-0.00670273 0.00106278 1e-05
-0.00649217 0.00106392 1e-05
-0.0062816 0.00106504 1e-05
-0.00607944 0.00106612 1e-05
-0.00587729 0.0010672 1e-05
-0.00567514 0.00106828 1e-05
-0.00547298 0.00106936 1e-05
-0.00527083 0.00107044 1e-05
-0.00507675 0.00107147 1e-05
-0.00488267 0.00107251 1e-05
-0.0046886 0.00107354 1e-05
-0.00449452 0.00107458 1e-05
-0.00430044 0.00107562 1e-05
-0.00411412 0.00107661 1e-05
-0.0039278 0.00107761 1e-05
-0.00374147 0.00107861 1e-05
-0.00355515 0.00107962 1e-05
-0.00336883 0.00108063 1e-05
-0.00318995 0.0010816 1e-05
-0.00301107 0.00108258 1e-05
-0.00283219 0.00108357 1e-05
-0.00265331 0.00108457 1e-05
-0.00247443 0.00108558 1e-05
-0.0023027 0.00108655 1e-05
-0.00213097 0.00108754 1e-05
-0.00195924 0.00108854 1e-05
-0.00178751 0.00108956 1e-05
-0.00161577 0.0010906 1e-05
-0.0014509 0.0010916 1e-05
-0.00128603 0.00109263 1e-05
-0.00112116 0.00109369 1e-05
-0.00095629 0.00109478 1e-05
-0.000791418 0.00109591 1e-05
-0.000633135 0.00109702 1e-05
-0.000474851 0.00109817 1e-05
-0.000316568 0.00109936 1e-05
-0.000158286 0.00110059 1e-05
0 0.00110186 1e-05
0.000105677 0.00110273 1e-05
0.000211355 0.00110361 1e-05
0.000317032 0.00110451 1e-05
0.000422709 0.00110542 1e-05
0.000528387 0.00110633 1e-05
0.000634886 0.00110726 1e-05
0.000741385 0.00110818 1e-05
0.000847885 0.00110909 1e-05
0.000954384 0.00111 1e-05
0.00106088 0.0011109 1e-05
0.00116821 0.0011118 1e-05
0.00127554 0.00111269 1e-05
0.00138286 0.00111357 1e-05
0.00149019 0.00111443 1e-05
0.00159752 0.00111527 1e-05
0.00170568 0.00111611 1e-05
0.00181384 0.00111693 1e-05
0.001922 0.00111774 1e-05
0.00203016 0.00111854 1e-05
0.00213833 0.00111932 1e-05
0.00224733 0.00112008 1e-05
0.00235633 0.00112084 1e-05
0.00246533 0.00112158 1e-05
0.00257434 0.00112231 1e-05
0.00268334 0.00112303 1e-05
0.00279319 0.00112373 1e-05
0.00290304 0.00112442 1e-05
0.00301289 0.0011251 1e-05
0.00312274 0.00112577 1e-05
0.00323259 0.00112642 1e-05
0.00334329 0.00112706 1e-05
0.003454 0.0011277 1e-05
0.0035647 0.00112833 1e-05
0.0036754 0.00112894 1e-05
0.00378611 0.00112954 1e-05
0.00389767 0.00113013 1e-05
0.00400924 0.00113071 1e-05
0.0041208 0.00113129 1e-05
0.00423237 0.00113185 1e-05
0.00434393 0.0011324 1e-05
0.00445636 0.00113294 1e-05
0.00456879 0.00113348 1e-05
0.00468123 0.00113401 1e-05
0.00479366 0.00113452 1e-05
0.00490609 0.00113503 1e-05
0.0050194 0.00113553 1e-05
0.0051327 0.00113602 1e-05
0.00524601 0.00113651 1e-05
0.00535932 0.00113699 1e-05
0.00547262 0.00113746 1e-05
0.00558681 0.00113791 1e-05
0.005701 0.00113837 1e-05
0.00581518 0.00113882 1e-05
0.00592937 0.00113927 1e-05
0.00604356 0.0011397 1e-05
0.00615863 0.00114012 1e-05
0.00627371 0.00114055 1e-05
0.00638878 0.00114097 1e-05
0.00650386 0.00114138 1e-05
0.00661893 0.00114179 1e-05
0.0067349 0.00114219 1e-05
0.00685087 0.00114259 1e-05
0.00696684 0.00114298 1e-05
0.00708281 0.00114337 1e-05
0.00719878 0.00114376 1e-05
0.00731565 0.00114413 1e-05
0.00743252 0.00114451 1e-05
0.00754939 0.00114488 1e-05
0.00766626 0.00114525 1e-05
0.00778313 0.00114562 1e-05
0.00790091 0.00114597 1e-05
0.00801869 0.00114633 1e-05
0.00813647 0.00114669 1e-05
0.00825425 0.00114704 1e-05
0.00837203 0.0011474 1e-05
0.00849073 0.00114774 1e-05
0.00860942 0.00114808 1e-05
0.00872812 0.00114843 1e-05
0.00884682 0.00114877 1e-05
0.00896551 0.00114911 1e-05
0.00908513 0.00114944 1e-05
0.00920475 0.00114978 1e-05
0.00932437 0.00115012 1e-05
0.00944398 0.00115045 1e-05
0.0095636 0.00115078 1e-05
0.00968415 0.00115111 1e-05
0.0098047 0.00115144 1e-05
0.00992525 0.00115177 1e-05
0.0100458 0.00115209 1e-05
0.0101663 0.00115242 1e-05
0.0102878 0.00115274 1e-05
0.0104093 0.00115306 1e-05
0.0105308 0.00115339 1e-05
0.0106523 0.00115371 1e-05
0.0107738 0.00115403 1e-05
0.0108595 0.00115425 1e-05
0.0109453 0.00115448 1e-05
0.011031 0.0011547 1e-05
0.0111168 0.00115493 1e-05
0.0112026 0.00115515 1e-05
0.0112392 0.00115524 1e-05
0.0112759 0.00115534 1e-05
0.0113126 0.00115543 1e-05
0.0113492 0.00115553 1e-05
0.0113859 0.00115562 1e-05
0.0115093 0.00115594 1e-05
0.0116327 0.00115626 1e-05
0.0117561 0.00115658 1e-05
0.0118795 0.00115689 1e-05
0.0120028 0.00115721 1e-05
0.0121272 0.00115752 1e-05
0.0122515 0.00115784 1e-05
0.0123759 0.00115815 1e-05
0.0125002 0.00115846 1e-05
0.0126245 0.00115877 1e-05
0.0127498 0.00115909 1e-05
0.0128752 0.0011594 1e-05
0.0130005 0.00115971 1e-05
0.0131258 0.00116002 1e-05
0.0132511 0.00116033 1e-05
0.0133774 0.00116065 1e-05
0.0135036 0.00116096 1e-05
0.0136299 0.00116127 1e-05
0.0137562 0.00116158 1e-05
0.0138825 0.00116189 1e-05
0.0140098 0.0011622 1e-05
0.014137 0.00116251 1e-05
0.0142643 0.00116282 1e-05
0.0143915 0.00116313 1e-05
0.0145188 0.00116343 1e-05
0.0146471 0.00116375 1e-05
0.0147753 0.00116405 1e-05
0.0149036 0.00116436 1e-05
0.0150318 0.00116467 1e-05
0.0151601 0.00116497 1e-05
0.0152893 0.00116528 1e-05
0.0154186 0.00116559 1e-05
0.0155478 0.00116589 1e-05
0.0156771 0.0011662 1e-05
0.0158063 0.0011665 1e-05
0.0159366 0.00116681 1e-05
0.0160668 0.00116711 1e-05
0.0161971 0.00116741 1e-05
0.0163274 0.00116771 1e-05
0.0164576 0.00116801 1e-05
0.0165889 0.00116832 1e-05
0.0167201 0.00116862 1e-05
0.0168514 0.00116891 1e-05
0.0169827 0.00116921 1e-05
0.0171139 0.0011695 1e-05
0.0172462 0.00116981 1e-05
0.0173785 0.0011701 1e-05
0.0175108 0.00117039 1e-05
0.0176431 0.00117068 1e-05
0.0177754 0.00117097 1e-05
0.0179087 0.00117128 1e-05
0.018042 0.00117156 1e-05
0.0181753 0.00117185 1e-05
0.0183087 0.00117213 1e-05
0.018442 0.00117241 1e-05
0.0185763 0.00117272 1e-05
0.0187107 0.001173 1e-05
0.018845 0.00117328 1e-05
0.0189794 0.00117355 1e-05
0.0191137 0.00117382 1e-05
0.0192491 0.00117412 1e-05
0.0193845 0.0011744 1e-05
0.0195199 0.00117467 1e-05
0.0196553 0.00117493 1e-05
0.0197907 0.0011752 1e-05
0.0199272 0.00117549 1e-05
0.0200636 0.00117575 1e-05
0.0202001 0.00117601 1e-05
0.0203365 0.00117627 1e-05
0.020473 0.00117652 1e-05
0.0206105 0.0011768 1e-05
0.020748 0.00117705 1e-05
0.0208855 0.0011773 1e-05
0.021023 0.00117755 1e-05
0.0211606 0.00117779 1e-05
0.0212991 0.00117806 1e-05
0.0214377 0.0011783 1e-05
0.0215763 0.00117853 1e-05
0.0217149 0.00117877 1e-05
0.0218535 0.001179 1e-05
0.0219931 0.00117925 1e-05
0.0221328 0.00117948 1e-05
0.0222724 0.00117971 1e-05
0.0224121 0.00117992 1e-05
0.0225517 0.00118014 1e-05
0.0226925 0.00118038 1e-05
0.0228332 0.0011806 1e-05
0.022974 0.00118081 1e-05
0.0231147 0.00118101 1e-05
0.0232555 0.00118122 1e-05
0.0233973 0.00118144 1e-05
0.0235391 0.00118164 1e-05
0.023681 0.00118183 1e-05
0.0238228 0.00118202 1e-05
0.0239647 0.0011822 1e-05
0.0241076 0.00118241 1e-05
0.0242505 0.00118259 1e-05
0.0243935 0.00118276 1e-05
0.0245364 0.00118293 1e-05
0.0246794 0.0011831 1e-05
0.0248234 0.00118329 1e-05
0.0249675 0.00118345 1e-05
0.0251115 0.0011836 1e-05
0.0252556 0.00118375 1e-05
0.0253996 0.0011839 1e-05
[...]
POINT_DATA 12075
 FIELD attributes 1
U 3 12075 float
10.0004 	0.00732267 	0 10.0004 	0.00585814 	0 10.0003 	0.0043936 	0 10.0002 	0.00292907 	0 10.0001 	0.00146453 	0 10 	0 	0
10 	0.00089785 	0 10 	0.00071828 	0 10 	0.00053871 	0 10 	0.00035914 	0 10 	0.00017957 	0 10 	0 	0
10.0001 	0.000492222 	0 10.0001 	0.000393629 	0 10.0001 	0.000295036 	0 10 	0.000196442 	0 10 	9.78486e-05 	0 10 	0 	0
10 	0.000304757 	0 10 	0.000243806 	0 10 	0.000182854 	0 10 	0.000121903 	0 10 	6.09514e-05 	0 10 	0 	0
10 	0.000121658 	0 10 	9.73267e-05 	0 10 	7.2995e-05 	0 10 	4.86634e-05 	0 10 	2.43317e-05 	0 10 	0 	0
10 	1.29597e-05 	0 10 	1.03677e-05 	0 10 	7.77579e-06 	0 10 	5.18386e-06 	0 10 	2.59193e-06 	0 10 	0 	0
10 	-0.000185628 	0 10 	-0.000148502 	0 10 	-0.000111377 	0 10 	-7.4251e-05 	0 10 	-3.71255e-05 	0 10 	0 	0
10 	-0.000356425 	0 10 	-0.00028514 	0 10 	-0.000213855 	0 10 	-0.00014257 	0 10 	-7.1285e-05 	0 10 	0 	0
9.99999 	-0.000414227 	0 9.99999 	-0.000331382 	0 9.99999 	-0.000248536 	0 10 	-0.000165691 	0 10 	-8.28454e-05 	0 10 	0 	0
9.17388 	0.0871005 	0 9.13081 	0.0696804 	0 9.08741 	0.05226 	0 9.04368 	0.0348394 	0 8.99963 	0.0174187 	0 8.95524 	0 	0
10.0004 	0.00732267 	0 10.0024 	0.0151871 	0 10.0044 	0.0222201 	0 10.0065 	0.0292088 	0 10.0085 	0.0361534 	0 10.0134 	0.0463807 	0 10.0162 	0.0402965 	0 10.0206 	0.0402713 	0 10.025 	0.0402464 	0 10.0295 	0.0402215 	0 10.0354 	0.0446927 	0 10.0382 	0.0380804 	0 10.0422 	0.0380567 	0 10.0461 	0.0380329 	0 10.05 	0.0380091 	0 10.0541 	0.0411165 	0 10.0562 	0.0390772 	0 10.0586 	0.0404111 	0 10.061 	0.0417467 	0 10.0633 	0.043084 	0 10.0654 	0.0455489 	0 10.0668 	0.0456771 	0 10.068 	0.0468798 	0 10.0692 	0.0480837 	0 10.0705 	0.0492886 	0 10.0715 	0.0503069 	0 10.0716 	0.0503995 	0 10.0717 	0.0504921 	0 10.0718 	0.0505847 	0 10.0719 	0.0506774 	0 10.072 	0.0507563 	0 10.0724 	0.0514213 	0 10.0728 	0.0520774 	0 10.0732 	0.052734 	0 10.0736 	0.0533912 	0 10.074 	0.0538799 	0 10.0737 	0.0542215 	0 10.0732 	0.0544544 	0 10.0727 	0.0546875 	0 10.0722 	0.0549207 	0 10.0715 	0.0549121 	0 10.0709 	0.0551133 	0 10.0697 	0.0551424 	0 10.0684 	0.0551716 	0 10.0671 	0.0552008 	0 10.0654 	0.0549592 	0 10.0648 	0.0551098 	0 10.063 	0.0550425 	0 10.0611 	0.0549751 	0 10.0593 	0.0549078 	0 10.0565 	0.0545547 	0 10.0563 	0.0547003 	0 10.054 	0.0545926 	0 10.0517 	0.0544849 	0 10.0494 	0.0543771 	0 10.0456 	0.0539743 	0 10.046 	0.0541504 	0 10.0433 	0.0540478 	0 10.0407 	0.0539452 	0 10.038 	0.0538426 	0 10.033 	0.0534411 	0 10.0342 	0.0536826 	0 10.0313 	0.0536204 	0 10.0284 	0.0535582 	0 10.0255 	0.0534961 	0 10.0192 	0.0531278 	0 10.0214 	0.0534654 	0 10.0183 	0.0534909 	0 10.0151 	0.0535164 	0 10.012 	0.0535419 	0 10.0045 	0.0532694 	0 10.0078 	0.0537579 	0 10.0045 	0.0539123 	0 10.0011 	0.0540667 	0 9.99778 	0.0542212 	0 9.98884 	0.0540738 	0 9.99338 	0.0547916 	0 9.98995 	0.0552568 	0 9.98652 	0.055722 	0 9.98309 	0.0561874 	0 9.97285 	0.0564202 	0 9.97884 	0.05758 	0 9.97533 	0.0584054 	0 9.97182 	0.059231 	0 9.96832 	0.0600569 	0 9.95664 	0.0605477 	0 9.96433 	0.062195 	0 9.96123 	0.0640824 	0 9.95815 	0.0659702 	0 9.95509 	0.0678582 	0 9.94261 	0.0696276 	0 9.95288 	0.072396 	6.23731e-22 9.95164 	0.0749245 	6.43028e-21 9.95042 	0.0774533 	1.22338e-20 9.94923 	0.0799826 	1.80343e-20 9.9372 	0.0814607 	1.43978e-20 9.95008 	0.0833325 	1.16653e-19 9.95004 	0.0843221 	1.09419e-19 9.95 	0.0853119 	1.02199e-19 9.94997 	0.0863017 	9.49925e-20 9.93791 	0.0861318 	-1.88559e-20 9.95171 	0.0861182 	-5.22884e-20 9.95171 	0.0855028 	-5.78168e-20 9.95171 	0.0848875 	-6.33414e-20 9.9517 	0.0842721 	-6.88622e-20 9.93895 	0.0833262 	-2.27665e-20 9.9525 	0.0824734 	-2.05505e-20 9.95137 	0.0810743 	-1.39488e-20 9.95022 	0.0796751 	-7.34829e-21 9.94907 	0.0782759 	-7.4906e-22 9.93489 	0.0768746 	1.01495e-20 9.94814 	0.0760347 	-2.68901e-21 9.94585 	0.0745063 	-2.41907e-20 9.94356 	0.0729777 	-4.56969e-20 9.94126 	0.0714489 	-6.72074e-20 9.92561 	0.0697425 	-1.00328e-19 9.93879 	0.0691625 	-1.60358e-19 9.93555 	0.0677754 	-1.46355e-19 9.9323 	0.0663879 	-1.32338e-19 9.92904 	0.0650001 	-1.18305e-19 9.91197 	0.0631685 	-3.28729e-20 9.92522 	0.0627953 	6.46743e-20 9.92109 	0.0615506 	8.07162e-20 9.91696 	0.0603055 	9.67401e-20 9.91282 	0.05906 	1.12746e-19 9.89432 	0.0572196 	4.13687e-20 9.90769 	0.057012 	-9.75016e-20 9.90271 	0.0558963 	-1.05145e-19 9.89771 	0.0547803 	-1.12762e-19 9.89271 	0.0536638 	-1.20353e-19 9.87275 	0.0518792 	-1.94503e-22 9.88623 	0.0518447 	1.16817e-19 9.88038 	0.0508465 	1.06607e-19 9.87453 	0.0498479 	9.63749e-20 9.86866 	0.0488489 	8.61189e-20 9.84726 	0.0471164 	-2.51946e-20 9.86074 	0.0472266 	-1.15321e-19 9.85405 	0.0463184 	-1.41383e-19 9.84735 	0.0454098 	-1.67437e-19 9.84063 	0.0445007 	-1.93482e-19 9.81787 	0.0428172 	-1.42206e-19 9.83117 	0.0430683 	-1.97e-19 9.82366 	0.0422519 	-1.82731e-19 9.81615 	0.0414351 	-1.68455e-19 9.80862 	0.0406178 	-1.54174e-19 9.78468 	0.0389968 	-8.31749e-20 9.79753 	0.0393965 	-7.45083e-20 9.78927 	0.0386833 	-5.30117e-20 9.781 	0.0379696 	-3.15173e-20 9.77272 	0.0372555 	-1.00249e-20 9.74793 	0.035709 	6.31925e-21 9.75998 	0.0362478 	0 9.75103 	0.0356406 	0 9.74207 	0.0350331 	0 9.7331 	0.034425 	0 9.70786 	0.0329612 	0 9.71871 	0.0336055 	-1.16355e-20 9.70913 	0.0330959 	-3.33561e-20 9.69955 	0.0325859 	-5.50781e-20 9.68996 	0.0320754 	-7.68016e-20 9.66474 	0.0307044 	-1.04282e-19 9.6739 	0.0314069 	-1.35496e-19 9.66376 	0.0309842 	-1.36313e-19 9.65361 	0.0305611 	-1.37127e-19 9.64345 	0.0301376 	-1.37937e-19 9.61876 	0.0288807 	-1.11375e-19 9.62574 	0.029595 	-3.86022e-20 9.61508 	0.0292529 	-4.65672e-21 9.60441 	0.0289104 	2.92833e-20 9.59374 	0.0285676 	6.32178e-20 9.57012 	0.0274548 	5.90107e-20 9.57445 	0.0281267 	8.65673e-20 9.56332 	0.0278524 	8.70442e-20 9.55219 	0.0275778 	8.75182e-20 9.54105 	0.0273029 	8.79892e-20 9.51901 	0.0263604 	6.61746e-20 9.52027 	0.0269274 	5.21722e-20 9.50874 	0.026705 	3.85454e-20 9.49721 	0.0264825 	2.4919e-20 9.48567 	0.0262596 	1.12929e-20 9.46572 	0.025515 	0 9.46355 	0.0259343 	-1.14314e-20 9.45169 	0.0257571 	-2.51453e-20 9.43983 	0.0255797 	-3.88595e-20 9.42796 	0.0254021 	-5.25741e-20 9.41057 	0.0248818 	-6.64649e-20 9.4047 	0.0251251 	-8.3228e-20 9.39257 	0.0249852 	-9.09197e-20 9.38044 	0.0248452 	-9.86102e-20 9.3683 	0.024705 	-1.063e-19 9.35382 	0.0244199 	-1.0924e-19 9.34779 	0.0244971 	-9.6233e-20 9.33915 	0.0244155 	-8.78249e-20 9.3305 	0.0243338 	-7.94177e-20 9.32186 	0.024252 	-7.10114e-20 9.31321 	0.0241702 	-6.26042e-20 9.30948 	0.0241331 	-5.90641e-20 9.30574 	0.024096 	-5.55243e-20 9.30201 	0.0240589 	-5.19846e-20 9.29828 	0.0240217 	-4.84451e-20 9.29366 	0.0239714 	-4.21262e-20 9.28181 	0.0238716 	-3.33322e-20 9.26918 	0.0237634 	-2.48171e-20 9.25655 	0.023655 	-1.63019e-20 9.24391 	0.0235465 	-7.78657e-21 9.22794 	0.0234213 	0 9.21814 	0.0233264 	0 9.20537 	0.0232297 	0 9.1926 	0.0231329 	0 9.17983 	0.023036 	0 9.16194 	0.0229744 	0 9.15368 	0.0228317 	6.69694e-21 9.14082 	0.0227401 	1.46235e-20 9.12796 	0.0226485 	2.255e-20 9.1151 	0.0225567 	3.04763e-20 9.09592 	0.0225984 	4.13911e-20 9.08878 	0.022369 	7.58318e-20 9.07587 	0.022282 	7.78144e-20 9.06296 	0.0221948 	7.97985e-20 9.05005 	0.0221076 	8.1784e-20 9.03013 	0.0222893 	4.12757e-20 9.02375 	0.0219408 	2.99144e-20 9.01083 	0.0218466 	2.27025e-20 8.99791 	0.0217524 	1.54904e-20 8.98499 	0.021658 	8.2783e-21 8.96477 	0.0219852 	8.74195e-21 8.95888 	0.021479 	4.35587e-20 8.946 	0.0213698 	4.4178e-20 8.93311 	0.0212604 	4.47988e-20 8.92022 	0.021151 	4.5421e-20 8.90008 	0.0216447 	1.32528e-21 8.89447 	0.0209813 	-5.24608e-20 8.88164 	0.0208604 	-6.20941e-20 8.86881 	0.0207393 	-7.17289e-20 8.85598 	0.020618 	-8.13653e-20 8.83616 	0.0212793 	-5.04704e-20 8.83067 	0.020457 	-1.14393e-19 8.81792 	0.0203182 	-1.15657e-19 8.80516 	0.0201793 	-1.16924e-19 8.79239 	0.0200402 	-1.18193e-19 8.77309 	0.0208537 	-4.2641e-20 8.76762 	0.0198811 	-2.57222e-20 8.75496 	0.019731 	-1.81266e-20 8.74229 	0.0195807 	-1.05308e-20 8.72961 	0.0194301 	-2.93489e-21 8.71095 	0.0203963 	0 8.70543 	0.0193025 	0 8.69287 	0.0191415 	0 8.6803 	0.0189803 	0 8.66773 	0.0188188 	0 8.64981 	0.0199049 	2.39204e-21 8.64421 	0.0186664 	0 8.6318 	0.0184868 	0 8.61939 	0.0183068 	0 8.60697 	0.0181267 	0 8.58984 	0.0193356 	2.62794e-21 8.58413 	0.017964 	1.63496e-21 8.5719 	0.0177679 	8.59169e-21 8.55965 	0.0175714 	1.55482e-20 8.5474 	0.0173746 	2.25045e-20 8.53107 	0.0186926 	3.98198e-20 8.52522 	0.0172279 	1.53174e-19 8.51314 	0.0170068 	1.55124e-19 8.50105 	0.0167855 	1.57078e-19 8.48896 	0.0165638 	1.59037e-19 8.47343 	0.017932 	3.98442e-20 8.4674 	0.0163726 	2.15269e-20 8.45548 	0.0161314 	1.44755e-20 8.44355 	0.0158898 	7.4239e-21 8.43162 	0.0156479 	3.7199e-22 8.41695 	0.0170807 	3.16811e-21 8.4107 	0.015474 	1.62574e-22 8.39894 	0.0152211 	5.93914e-21 8.38718 	0.0149679 	1.17155e-20 8.37538 	0.0147396 	1.735e-20 8.36161 	0.0161757 	1.37017e-20 8.3549 	0.0145626 	-3.25574e-20 8.34352 	0.0142403 	-3.47796e-20 8.33193 	0.0139738 	-3.50857e-20 8.32022 	0.0138425 	-3.18067e-20 8.30741 	0.015203 	1.09691e-20 8.30015 	0.0136376 	1.16428e-19 8.28919 	0.0132212 	1.34427e-19 8.27776 	0.0129497 	1.41374e-19 8.26625 	0.0129151 	1.33951e-19 8.2543 	0.0142035 	4.63647e-20 8.24653 	0.0127042 	3.43743e-20 8.2359 	0.0121885 	3.15963e-20 8.22464 	0.0118932 	3.08849e-20 8.21339 	0.0119202 	3.15305e-20 8.20227 	0.0130824 	3.69544e-20 8.19405 	0.0115402 	3.10847e-20 8.18371 	0.0109132 	-5.32144e-21 8.17264 	0.0105995 	-5.21798e-20 8.16175 	0.0107131 	-1.00794e-19 8.15133 	0.0118672 	-1.5368e-19 8.14271 	0.0103546 	-2.90648e-19 8.13257 	0.00965292 	-3.36661e-19 8.12168 	0.00934655 	-3.38353e-19 8.1112 	0.00955978 	-2.82965e-19 8.10147 	0.0106889 	-1.27066e-19 8.09253 	0.009242 	2.06054e-21 8.08252 	0.00847332 	7.61062e-20 8.07179 	0.00815915 	1.13256e-19 8.06173 	0.00843212 	9.36859e-20 8.05256 	0.00947238 	7.22198e-23 8.04329 	0.00804489 	-9.23736e-20 8.03332 	0.00719839 	-1.37189e-19 8.02272 	0.00687912 	-1.38825e-19 8.01313 	0.0072258 	-9.886e-20 8.00454 	0.00822311 	-1.82972e-20 7.99504 	0.00681166 	-6.72458e-21 7.9851 	0.00589036 	9.37309e-21 7.97464 	0.00557097 	3.10206e-20 7.96553 	0.00599966 	5.26078e-20 7.95743 	0.00697234 	7.41541e-20 7.94778 	0.00557119 	5.20452e-20 7.93786 	0.00457168 	3.79666e-20 7.92753 	0.00424899 	3.73954e-20 7.91888 	0.004757 	4.76692e-20 7.91114 	0.00570646 	6.37e-20 7.90136 	0.00431639 	4.69208e-20 7.89142 	0.00324394 	2.55122e-20 7.88119 	0.00293057 	-6.91122e-21 7.87302 	0.00353104 	-3.13642e-20 7.86564 	0.00447314 	-5.28443e-20 7.8558 	0.00310309 	5.51538e-20 7.84587 	0.00196315 	1.42321e-19 7.83576 	0.00165576 	1.54503e-19 7.82802 	0.00233953 	8.26837e-20 7.82088 	0.00326549 	-9.59041e-21 7.81098 	0.00192471 	8.05982e-20 7.80102 	0.000726119 	1.59945e-19 7.79099 	0.000422536 	1.71666e-19 7.78367 	0.00117919 	1.07368e-19 7.77675 	0.00208013 	3.27886e-20 7.76673 	0.00078093 	2.20444e-20 7.75668 	-0.000461209 	1.2426e-20 7.74673 	-0.000753979 	2.11496e-20 7.73987 	7.07232e-05 	4.03372e-20 7.73318 	0.000944903 	5.9983e-20 7.72304 	-0.000316019 	3.97711e-20 7.71287 	-0.00157833 	1.9554e-20 7.7031 	-0.001836 	1.92743e-20 7.6966 	-0.000977534 	3.90816e-20 7.69013 	-0.000118141 	5.88925e-20 7.67983 	-0.00135423 	3.85009e-20 7.6695 	-0.00259167 	1.8104e-20 7.66004 	-0.00281529 	0 7.65383 	-0.00193737 	0 7.64766 	-0.00105852 	0 7.63727 	-0.00226671 	0 7.62683 	-0.00347621 	0 7.6177 	-0.00366658 	-1.49209e-20 7.61175 	-0.00276358 	-3.33477e-20 7.60583 	-0.0018596 	-5.17781e-20 7.59534 	-0.00303268 	-3.27913e-20 7.58481 	-0.00420703 	-1.37998e-20 7.57601 	-0.00437062 	-2.66143e-20 7.57033 	-0.00346037 	-6.32166e-20 7.56467 	-0.00254916 	-9.98259e-20 7.5541 	-0.00368421 	-6.20979e-20 7.54349 	-0.00482048 	-2.43609e-20 7.53503 	-0.00496435 	-2.3054e-20 7.52963 	-0.00406831 	-5.88484e-20 7.52425 	-0.00317133 	-9.46496e-20 7.51356 	-0.00428183 	-5.77425e-20 7.50284 	-0.00539351 	-2.08266e-20 7.49473 	-0.00550847 	-4.13307e-21 7.48964 	-0.00459943 	-1.34585e-20 7.48459 	-0.00368946 	-2.27823e-20 7.47378 	-0.00477575 	-8.3433e-20 7.46294 	-0.00586317 	-1.44086e-19 7.45521 	-0.0059335 	-1.35903e-19 7.45053 	-0.00498088 	-5.74509e-20 7.44588 	-0.00402729 	2.10066e-20 7.43507 	-0.00508735 	1.1523e-20 7.42423 	-0.0061485 	2.03317e-21 7.41691 	-0.00618467 	-6.45047e-21 7.4126 	-0.00521563 	-2.28553e-20 7.40832 	-0.00424563 	-3.92636e-20 7.39751 	-0.00529009 	-2.23371e-20 7.38666 	-0.0063356 	-5.40668e-21 7.37978 	-0.00634677 	-2.89204e-21 7.37585 	-0.00537762 	-7.4383e-21 7.37196 	-0.00440752 	-1.19838e-20 7.36114 	-0.00543434 	-7.56042e-21 7.35028 	-0.00646217 	-3.13777e-21 7.34386 	-0.00643617 	-1.13527e-20 7.34038 	-0.00544795 	-1.47259e-20 7.33694 	-0.00445881 	-1.80913e-20 7.32615 	-0.00546552 	-1.40842e-19 7.31532 	-0.00647319 	-2.636e-19 7.30942 	-0.00640442 	-2.59181e-19 7.30647 	-0.00539543 	-1.37947e-19 7.30355 	-0.00438551 	-1.67082e-20 7.29289 	-0.0053826 	4.7653e-20 7.2822 	-0.0063806 	1.1201e-19 7.27686 	-0.00627359 	1.25783e-19 7.27441 	-0.00525615 	6.12392e-20 7.272 	-0.00423784 	-3.30773e-21 7.26148 	-0.0052303 	3.7955e-22 7.25096 	-0.00621862 	4.03608e-21 7.24627 	-0.00606248 	8.97812e-23 7.24435 	-0.00506901 	-1.47241e-20 7.24252 	-0.00405525 	-2.97944e-20 7.23225 	-0.00504733 	-1.42444e-20 7.22247 	-0.00594311 	0 7.21819 	-0.00578264 	0 7.21659 	-0.00487859 	-1.27718e-20 7.21533 	-0.00388701 	-2.70386e-20 7.20532 	-0.00488888 	-1.23179e-20 7.19629 	-0.00570205 	-2.25475e-21 7.19247 	-0.00554565 	-1.60547e-20 7.19125 	-0.00472815 	-4.12304e-20 7.19063 	-0.00375915 	-6.90039e-20 7.18097 	-0.00477424 	-1.50741e-19 7.17282 	-0.00551126 	-2.08388e-19 7.16951 	-0.00537606 	-1.90623e-19 7.16864 	-0.00466435 	-1.03282e-19 7.16868 	-0.00374259 	9.35858e-21 7.15942 	-0.00480071 	1.13373e-19 7.15222 	-0.00549292 	1.88101e-19 7.14944 	-0.00540802 	2.00706e-19 7.14891 	-0.004826 	1.45773e-19 7.1496 	-0.00397945 	5.49403e-20 7.1408 	-0.00510729 	3.93001e-20 7.13461 	-0.00578239 	2.32375e-20 7.13239 	-0.00577351 	6.53318e-21 7.13219 	-0.00534123 	-4.43188e-21 7.13352 	-0.00459275 	-1.11142e-20 7.12524 	-0.00580856 	-5.56447e-20 7.12012 	-0.00648595 	-7.86212e-20 7.11847 	-0.0065721 	-7.7943e-20 7.11858 	-0.0063054 	-5.55662e-20 7.12053 	-0.00567409 	-1.07772e-20 7.11282 	-0.00698596 	-3.86036e-21 7.10879 	-0.00767951 	-7.73037e-22 7.10772 	-0.0078785 	-7.48399e-22 7.10813 	-0.00779539 	-3.38064e-21 7.11069 	-0.00730657 	-9.83334e-21 7.10358 	-0.00872632 	-5.26842e-20 7.10068 	-0.00945876 	-6.78533e-20 7.10019 	-0.00979747 	-6.71653e-20 7.10089 	-0.00992512 	-5.26117e-20 7.10404 	-0.00961801 	-9.50382e-21 7.09755 	-0.0111738 	-2.81611e-21 7.09579 	-0.0119823 	-6.5975e-22 7.09589 	-0.0124969 	-2.84681e-22 7.09684 	-0.0128675 	0 7.10056 	-0.0127846 	0 7.09473 	-0.014511 	0 7.09412 	-0.0154373 	0 7.09478 	-0.0161668 	0 7.09597 	-0.0168135 	0 7.10022 	-0.0169965 	0 7.09506 	-0.0189288 	0 7.0956 	-0.020013 	1.0534e-20 7.09681 	-0.0209934 	2.23568e-20 7.09821 	-0.0219455 	3.48362e-20 7.10297 	-0.0224319 	5.81559e-20 7.0985 	-0.0245987 	1.28349e-19 7.10018 	-0.0258652 	1.19073e-19 7.10194 	-0.0271174 	1.08542e-19 7.10366 	-0.0283692 	9.7987e-20 7.10873 	-0.029187 	5.1101e-21 7.10545 	-0.0315132 	-1.21096e-19 7.10773 	-0.0330476 	-1.3953e-19 7.10998 	-0.0345814 	-1.5792e-19 7.11218 	-0.0361145 	-1.76266e-19 7.11727 	-0.0372915 	-9.53088e-20 7.11526 	-0.0397721 	-1.6997e-19 7.11796 	-0.0416291 	-1.46634e-19 7.12062 	-0.0434853 	-1.23244e-19 7.12324 	-0.0453406 	-9.98017e-20 7.12823 	-0.0469267 	5.59847e-21 7.12742 	-0.0496627 	7.77321e-20 7.1305 	-0.0519756 	9.6516e-20 7.13353 	-0.0542873 	1.15264e-19 7.13651 	-0.0565978 	1.33975e-19 7.14136 	-0.0587565 	9.60829e-20 7.14174 	-0.0619652 	1.07224e-19 7.14509 	-0.0648912 	9.25674e-20 7.14838 	-0.0678155 	7.7901e-20 7.15161 	-0.070738 	6.32249e-20 7.15611 	-0.0735859 	4.08795e-20 7.15747 	-0.0773662 	2.86805e-20 7.16095 	-0.0809418 	1.76845e-20 7.16436 	-0.0845151 	6.69335e-21 7.16768 	-0.088086 	-4.29309e-21 7.17173 	-0.0916076 	-9.60643e-21 7.17402 	-0.0959158 	-1.03148e-20 7.17755 	-0.100102 	-7.66931e-21 7.18098 	-0.104285 	-5.02645e-21 7.18432 	-0.108465 	-2.38625e-21 7.18783 	-0.112627 	0 7.18908 	-0.114881 	4.80792e-21 7.19072 	-0.117101 	1.07418e-20 7.19234 	-0.119319 	1.66786e-20 7.19394 	-0.121537 	2.26182e-20 7.19532 	-0.123477 	2.78202e-20 7.19709 	-0.126075 	3.42623e-20 7.19882 	-0.128673 	4.07001e-20 7.20053 	-0.131268 	4.71338e-20 7.2022 	-0.133863 	5.35632e-20 7.20437 	-0.136434 	5.86627e-20 7.20739 	-0.141791 	5.20384e-20 7.21061 	-0.147144 	5.74566e-20 7.21371 	-0.152492 	6.27164e-20 7.21669 	-0.157834 	6.78181e-20 7.22103 	-0.163124 	1.09594e-19 7.22325 	-0.169099 	1.21448e-19 7.22623 	-0.175086 	1.00647e-19 7.22907 	-0.181067 	7.99418e-20 7.23178 	-0.187042 	5.93315e-20 7.23681 	-0.192964 	3.76461e-21 7.23815 	-0.199578 	-4.46518e-21 7.24079 	-0.206241 	-9.50952e-21 7.24329 	-0.212897 	-1.45426e-20 7.24565 	-0.219545 	-1.95644e-20 7.25128 	-0.226171 	-2.50347e-20 7.25167 	-0.233443 	2.7507e-20 7.25387 	-0.240819 	3.7432e-20 7.25594 	-0.248188 	4.68542e-20 7.2586 	-0.255556 	4.47584e-20 7.26398 	-0.262946 	-1.39809e-21 7.26403 	-0.270942 	4.55344e-20 7.265 	-0.279011 	6.66562e-20 7.26653 	-0.287126 	7.05928e-20 7.2698 	-0.295279 	4.61288e-20 7.27442 	-0.303464 	-6.51116e-22 7.274 	-0.312219 	4.69834e-20 7.27365 	-0.320988 	8.88221e-20 7.27453 	-0.329873 	9.91641e-20 7.27828 	-0.338872 	5.98885e-20 7.28202 	-0.347871 	1.79283e-20 7.28101 	-0.35741 	1.10755e-20 7.2798 	-0.366937 	4.21007e-21 7.28051 	-0.376616 	0 7.28345 	-0.386443 	0 7.2862 	-0.396264 	0 7.28448 	-0.406599 	0 7.28254 	-0.41692 	0 7.28288 	-0.427406 	7.5932e-22 7.28474 	-0.438053 	1.24651e-20 7.28638 	-0.448696 	2.41461e-20 7.28381 	-0.459832 	9.42878e-21 7.28198 	-0.471031 	5.26952e-21 7.28163 	-0.482355 	1.99072e-20 7.28155 	-0.49372 	4.59542e-20 7.28195 	-0.505164 	8.90986e-20 7.27842 	-0.517088 	1.94656e-19 7.27694 	-0.529207 	1.87928e-19 7.27542 	-0.541329 	1.70942e-19 7.27366 	-0.553436 	1.53583e-19 7.27232 	-0.565616 	6.92545e-20 7.26945 	-0.57533 	4.57929e-20 7.26754 	-0.585144 	2.53934e-20 7.26548 	-0.594947 	4.99535e-21 7.26327 	-0.604741 	-1.54012e-20 7.26128 	-0.612998 	-3.26123e-20 7.26035 	-0.616356 	-3.96572e-20 7.2594 	-0.619712 	-4.67017e-20 7.25843 	-0.623066 	-5.37458e-20 7.25745 	-0.62642 	-6.07895e-20 7.25695 	-0.629854 	-6.37421e-20 7.25265 	-0.643319 	-3.9066e-20 7.24838 	-0.656811 	-2.62607e-20 7.24384 	-0.670283 	-1.31904e-20 7.23901 	-0.683735 	1.45149e-22 7.23632 	-0.697583 	-4.41507e-20 7.22963 	-0.711616 	-3.57303e-20 7.22344 	-0.725725 	-2.96849e-20 7.21729 	-0.739853 	-2.45353e-20 7.21257 	-0.754232 	-2.52371e-20 7.20842 	-0.768755 	-2.88478e-20 7.20013 	-0.783428 	-1.75074e-20 7.19154 	-0.798078 	-6.09153e-21 7.18436 	-0.812922 	-1.79478e-21 7.17865 	-0.827969 	-5.54124e-21 7.17261 	-0.843029 	-9.31075e-21 7.1626 	-0.858258 	-6.02318e-20 7.15312 	-0.873572 	-9.07478e-20 7.14486 	-0.889059 	-8.44956e-20 7.13641 	-0.904522 	-7.06565e-20 7.12833 	-0.919996 	-1.44718e-20 7.11939 	-0.931906 	-2.34174e-20 7.11192 	-0.943962 	-1.95747e-20 7.10425 	-0.956005 	-1.57495e-20 7.09639 	-0.968034 	-1.19419e-20 7.0894 	-0.978459 	-8.6536e-21 7.08629 	-0.982557 	-6.46113e-21 7.08315 	-0.986653 	-4.2667e-21 7.07999 	-0.990747 	-2.07033e-21 7.07682 	-0.99484 	1.20445e-22 7.07385 	-0.998952 	2.19272e-21 7.06106 	-1.01509 	0 7.04787 	-1.03108 	0 7.03431 	-1.04704 	0 7.0207 	-1.06296 	0 7.00723 	-1.07888 	0 6.99221 	-1.09534 	0 6.9768 	-1.11178 	0 6.96134 	-1.12792 	0 6.94579 	-1.14377 	0 6.92981 	-1.15965 	0 6.91236 	-1.17613 	0 6.89505 	-1.19234 	6.00068e-21 6.87756 	-1.20843 	1.44204e-20 6.85968 	-1.22448 	2.28705e-20 6.84129 	-1.24056 	3.13913e-20 6.84084 	-1.24093 	3.12985e-20 6.84039 	-1.24129 	3.13394e-20 6.83995 	-1.24165 	3.14358e-20 6.83952 	-1.24201 	3.15323e-20 6.83908 	-1.24236 	3.16285e-20 6.82132 	-1.25802 	4.40641e-20 6.80319 	-1.27365 	5.66879e-20 6.78471 	-1.28925 	6.95009e-20 6.76532 	-1.30471 	7.22332e-20 6.74397 	-1.31987 	4.71203e-20 6.72495 	-1.33606 	5.37709e-20 6.70551 	-1.35222 	6.04709e-20 6