# vtk DataFile Version 2.0
track0
ASCII
DATASET POLYDATA
POINTS 12045 float
-0.0205 0.001 1e-05
-0.02052 0.000999985 1e-05
-0.02054 0.000999974 1e-05
-0.02056 0.000999965 1e-05
-0.02058 0.000999959 1e-05
-0.0206 0.000999956 1e-05
-0.0205 0.00367778 1e-05
-0.02052 0.00367778 1e-05
-0.02054 0.00367777 1e-05
-0.02056 0.00367777 1e-05
-0.02058 0.00367777 1e-05
-0.0206 0.00367777 1e-05
-0.0205 0.00635556 1e-05
-0.02052 0.00635555 1e-05
-0.02054 0.00635555 1e-05
-0.02056 0.00635555 1e-05
-0.02058 0.00635555 1e-05
-0.0206 0.00635555 1e-05
-0.0205 0.00903333 1e-05
-0.02052 0.00903333 1e-05
-0.02054 0.00903333 1e-05
-0.02056 0.00903333 1e-05
-0.02058 0.00903333 1e-05
-0.0206 0.00903333 1e-05
-0.0205 0.0117111 1e-05
-0.02052 0.0117111 1e-05
-0.02054 0.0117111 1e-05
-0.02056 0.0117111 1e-05
-0.02058 0.0117111 1e-05
-0.0206 0.0117111 1e-05
-0.0205 0.0143889 1e-05
-0.02052 0.0143889 1e-05
-0.02054 0.0143889 1e-05
-0.02056 0.0143889 1e-05
-0.02058 0.0143889 1e-05
-0.0206 0.0143889 1e-05
-0.0205 0.0170667 1e-05
-0.02052 0.0170667 1e-05
-0.02054 0.0170667 1e-05
-0.02056 0.0170667 1e-05
-0.02058 0.0170667 1e-05
-0.0206 0.0170667 1e-05
-0.0205 0.0197444 1e-05
-0.02052 0.0197444 1e-05
-0.02054 0.0197444 1e-05
-0.02056 0.0197444 1e-05
-0.02058 0.0197444 1e-05
-0.0206 0.0197444 1e-05
-0.0205 0.0224222 1e-05
-0.02052 0.0224222 1e-05
-0.02054 0.0224222 1e-05
-0.02056 0.0224222 1e-05
-0.02058 0.0224222 1e-05
-0.0206 0.0224222 1e-05
-0.0205 0.0251 1e-05
-0.02052 0.0250998 1e-05
-0.02054 0.0250997 1e-05
-0.02056 0.0250995 1e-05
-0.02058 0.0250995 1e-05
-0.0206 0.0250994 1e-05
-0.0205 0.001 1e-05
-0.0202034 0.00100022 1e-05
-0.0199069 0.00100067 1e-05
-0.0196103 0.00100132 1e-05
-0.0193137 0.00100219 1e-05
-0.0190172 0.00100326 1e-05
-0.0187132 0.00100466 1e-05
-0.0184093 0.00100588 1e-05
-0.0181054 0.0010071 1e-05
-0.0178015 0.00100832 1e-05
-0.0174976 0.00100953 1e-05
-0.0172058 0.00101083 1e-05
-0.016914 0.00101193 1e-05
-0.0166222 0.00101303 1e-05
-0.0163305 0.00101413 1e-05
-0.0160387 0.00101522 1e-05
-0.0157586 0.00101636 1e-05
-0.0154784 0.00101744 1e-05
-0.0151983 0.00101856 1e-05
-0.0149182 0.00101971 1e-05
-0.0146381 0.0010209 1e-05
-0.0143744 0.00102208 1e-05
-0.0141108 0.00102327 1e-05
-0.0138471 0.00102449 1e-05
-0.0135834 0.00102574 1e-05
-0.0133607 0.00102682 1e-05
-0.0133473 0.00102688 1e-05
-0.0133338 0.00102695 1e-05
-0.0133204 0.00102702 1e-05
-0.0133069 0.00102708 1e-05
-0.0132934 0.00102715 1e-05
-0.0130353 0.00102844 1e-05
-0.0127771 0.00102974 1e-05
-0.0125189 0.00103106 1e-05
-0.0122607 0.0010324 1e-05
-0.0120025 0.00103375 1e-05
-0.0117547 0.00103505 1e-05
-0.0115068 0.00103637 1e-05
-0.0112589 0.00103769 1e-05
-0.0110111 0.00103901 1e-05
-0.0107632 0.00104034 1e-05
-0.0105252 0.00104162 1e-05
-0.0102873 0.0010429 1e-05
-0.0100493 0.00104417 1e-05
-0.00981133 0.00104545 1e-05
-0.00957337 0.00104673 1e-05
-0.00934491 0.00104795 1e-05
-0.00911645 0.00104917 1e-05
-0.00888799 0.00105039 1e-05
-0.00865954 0.0010516 1e-05
-0.00843108 0.00105282 1e-05
-0.00821175 0.00105397 1e-05
-0.00799242 0.00105513 1e-05
-0.00777309 0.00105628 1e-05
-0.00755376 0.00105743 1e-05
-0.00733443 0.00105858 1e-05
-0.00712387 0.00105966 1e-05
-0.0069133 0.00106075 1e-05
-0.00670273 0.00106184 1e-05
-0.00649216 0.00106292 1e-05
-0.0062816 0.001064 1e-05
-0.00607944 0.00106502 1e-05
-0.00587729 0.00106605 1e-05
-0.00567514 0.00106707 1e-05
-0.00547298 0.00106808 1e-05
-0.00527083 0.0010691 1e-05
-0.00507675 0.00107006 1e-05
-0.00488267 0.00107102 1e-05
-0.0046886 0.00107198 1e-05
-0.00449452 0.00107293 1e-05
-0.00430044 0.00107389 1e-05
-0.00411412 0.00107479 1e-05
-0.0039278 0.00107569 1e-05
-0.00374147 0.0010766 1e-05
-0.00355515 0.0010775 1e-05
-0.00336883 0.00107839 1e-05
-0.00318995 0.00107924 1e-05
-0.00301107 0.00108009 1e-05
-0.00283219 0.00108094 1e-05
-0.00265331 0.00108179 1e-05
-0.00247443 0.00108264 1e-05
-0.0023027 0.00108344 1e-05
-0.00213097 0.00108425 1e-05
-0.00195924 0.00108505 1e-05
-0.0017875 0.00108585 1e-05
-0.00161577 0.00108665 1e-05
-0.0014509 0.00108741 1e-05
-0.00128603 0.00108818 1e-05
-0.00112116 0.00108894 1e-05
-0.000956289 0.00108971 1e-05
-0.000791418 0.00109047 1e-05
-0.000633135 0.0010912 1e-05
-0.000474851 0.00109193 1e-05
-0.000316567 0.00109266 1e-05
-0.000158284 0.00109339 1e-05
0 0.00109412 1e-05
0.000105677 0.0010946 1e-05
0.000211355 0.00109508 1e-05
0.000317032 0.00109556 1e-05
0.00042271 0.00109604 1e-05
0.000528387 0.00109651 1e-05
0.000634886 0.00109698 1e-05
0.000741385 0.00109744 1e-05
0.000847885 0.00109791 1e-05
0.000954384 0.00109837 1e-05
0.00106088 0.00109883 1e-05
0.00116821 0.00109928 1e-05
0.00127554 0.00109974 1e-05
0.00138286 0.00110018 1e-05
0.00149019 0.00110062 1e-05
0.00159752 0.00110106 1e-05
0.00170568 0.00110149 1e-05
0.00181384 0.00110191 1e-05
0.001922 0.00110233 1e-05
0.00203016 0.00110274 1e-05
0.00213833 0.00110314 1e-05
0.00224733 0.00110353 1e-05
0.00235633 0.00110392 1e-05
0.00246533 0.0011043 1e-05
0.00257434 0.00110467 1e-05
0.00268334 0.00110503 1e-05
0.00279319 0.00110539 1e-05
0.00290304 0.00110574 1e-05
0.00301289 0.00110608 1e-05
0.00312274 0.00110641 1e-05
0.00323259 0.00110674 1e-05
0.00334329 0.00110705 1e-05
0.003454 0.00110737 1e-05
0.0035647 0.00110767 1e-05
0.0036754 0.00110797 1e-05
0.00378611 0.00110826 1e-05
0.00389767 0.00110854 1e-05
0.00400924 0.00110882 1e-05
0.0041208 0.00110909 1e-05
0.00423237 0.00110935 1e-05
0.00434393 0.00110961 1e-05
0.00445636 0.00110985 1e-05
0.00456879 0.00111009 1e-05
0.00468123 0.00111032 1e-05
0.00479366 0.00111055 1e-05
0.00490609 0.00111077 1e-05
0.0050194 0.00111097 1e-05
0.0051327 0.00111118 1e-05
0.00524601 0.00111137 1e-05
0.00535932 0.00111156 1e-05
0.00547262 0.00111174 1e-05
0.00558681 0.00111192 1e-05
0.005701 0.00111208 1e-05
0.00581518 0.00111224 1e-05
0.00592937 0.00111239 1e-05
0.00604356 0.00111254 1e-05
0.00615863 0.00111267 1e-05
0.00627371 0.0011128 1e-05
0.00638878 0.00111293 1e-05
0.00650386 0.00111304 1e-05
0.00661893 0.00111315 1e-05
0.0067349 0.00111325 1e-05
0.00685087 0.00111334 1e-05
0.00696684 0.00111343 1e-05
0.00708281 0.00111351 1e-05
0.00719878 0.00111358 1e-05
0.00727742 0.00111362 1e-05
0.00735606 0.00111366 1e-05
0.00743471 0.00111369 1e-05
0.00751335 0.00111373 1e-05
0.00758911 0.00111375 1e-05
0.00762791 0.00111377 1e-05
0.00766672 0.00111378 1e-05
0.00770552 0.00111379 1e-05
0.00774433 0.0011138 1e-05
0.00778313 0.00111381 1e-05
0.00790091 0.00111383 1e-05
0.00801869 0.00111385 1e-05
0.00813647 0.00111386 1e-05
0.00825425 0.00111386 1e-05
0.00837203 0.00111386 1e-05
0.00849073 0.00111384 1e-05
0.00860942 0.00111382 1e-05
0.00872812 0.00111379 1e-05
0.00884682 0.00111375 1e-05
0.00896551 0.00111371 1e-05
0.00908513 0.00111365 1e-05
0.00920475 0.00111359 1e-05
0.00932437 0.00111352 1e-05
0.00944398 0.00111344 1e-05
0.0095636 0.00111335 1e-05
0.00968415 0.00111325 1e-05
0.0098047 0.00111315 1e-05
0.00992525 0.00111303 1e-05
0.0100458 0.00111292 1e-05
0.0101663 0.00111279 1e-05
0.0102878 0.00111264 1e-05
0.0104093 0.0011125 1e-05
0.0105308 0.00111234 1e-05
0.0106523 0.00111218 1e-05
0.0107738 0.00111201 1e-05
0.0108962 0.00111182 1e-05
0.0110186 0.00111163 1e-05
0.0111411 0.00111143 1e-05
0.0112635 0.00111123 1e-05
0.0113859 0.00111102 1e-05
0.0115093 0.00111078 1e-05
0.0116327 0.00111054 1e-05
0.0117561 0.0011103 1e-05
0.0118795 0.00111005 1e-05
0.0120028 0.0011098 1e-05
0.0121272 0.00110951 1e-05
0.0122515 0.00110923 1e-05
0.0123759 0.00110895 1e-05
0.0125002 0.00110865 1e-05
0.0126245 0.00110835 1e-05
0.0127498 0.00110802 1e-05
0.0128752 0.00110769 1e-05
0.0130005 0.00110736 1e-05
0.0131258 0.00110702 1e-05
0.0132511 0.00110667 1e-05
0.0133774 0.00110629 1e-05
0.0135036 0.00110592 1e-05
0.0136299 0.00110554 1e-05
0.0137562 0.00110515 1e-05
0.0138825 0.00110475 1e-05
0.0140098 0.00110432 1e-05
0.014137 0.0011039 1e-05
0.0142643 0.00110347 1e-05
0.0143915 0.00110303 1e-05
0.0145188 0.00110258 1e-05
0.0146471 0.00110211 1e-05
0.0147753 0.00110164 1e-05
0.0149036 0.00110116 1e-05
0.0150318 0.00110067 1e-05
0.0151601 0.00110017 1e-05
0.0152893 0.00109965 1e-05
0.0154186 0.00109913 1e-05
0.0155478 0.0010986 1e-05
0.0156771 0.00109806 1e-05
0.0158063 0.00109751 1e-05
0.0159366 0.00109695 1e-05
0.0160668 0.00109637 1e-05
0.0161971 0.00109579 1e-05
0.0163274 0.0010952 1e-05
0.0164576 0.0010946 1e-05
0.0165889 0.00109398 1e-05
0.0167201 0.00109336 1e-05
0.0168514 0.00109273 1e-05
0.0169827 0.00109208 1e-05
0.0171139 0.00109143 1e-05
0.0172462 0.00109077 1e-05
0.0173785 0.0010901 1e-05
0.0175108 0.00108941 1e-05
0.0176431 0.00108871 1e-05
0.0177754 0.00108801 1e-05
0.0179087 0.0010873 1e-05
0.018042 0.00108658 1e-05
0.0181753 0.00108584 1e-05
0.0183087 0.00108509 1e-05
0.018442 0.00108434 1e-05
0.0185763 0.00108358 1e-05
0.0187107 0.0010828 1e-05
0.018845 0.00108201 1e-05
0.0189794 0.00108121 1e-05
0.0191137 0.0010804 1e-05
0.0192491 0.0010796 1e-05
0.0193845 0.00107877 1e-05
0.0195199 0.00107792 1e-05
0.0196553 0.00107707 1e-05
0.0197907 0.00107621 1e-05
0.0199272 0.00107536 1e-05
0.0200636 0.00107448 1e-05
0.0202001 0.00107358 1e-05
0.0203365 0.00107267 1e-05
0.020473 0.00107177 1e-05
0.0206105 0.00107086 1e-05
0.020748 0.00106993 1e-05
0.0208855 0.00106898 1e-05
0.021023 0.00106802 1e-05
0.0211606 0.00106706 1e-05
0.0212991 0.00106611 1e-05
0.0214377 0.00106513 1e-05
0.0215763 0.00106413 1e-05
0.0217149 0.00106311 1e-05
0.0218535 0.00106211 1e-05
0.0219931 0.0010611 1e-05
0.0221328 0.00106007 1e-05
0.0222724 0.00105901 1e-05
0.0224121 0.00105795 1e-05
0.0225517 0.00105689 1e-05
0.0226925 0.00105583 1e-05
0.0228332 0.00105475 1e-05
0.022974 0.00105364 1e-05
0.0231147 0.00105252 1e-05
0.0232555 0.00105141 1e-05
0.0233973 0.00105031 1e-05
0.0235391 0.00104917 1e-05
0.023681 0.00104801 1e-05
0.0238228 0.00104684 1e-05
0.0239647 0.00104568 1e-05
0.0241076 0.00104452 1e-05
0.0242505 0.00104333 1e-05
0.0243935 0.00104211 1e-05
0.0245364 0.00104089 1e-05
0.0246794 0.00103967 1e-05
0.0248234 0.00103846 1e-05
0.0249675 0.00103722 1e-05
0.0251115 0.00103595 1e-05
0.0252556 0.00103467 1e-05
[...]
POINT_DATA 12045
 FIELD attributes 1
U 3 12045 float
10.0004 	0.00731829 	0 10.0004 	0.00585463 	0 10.0003 	0.00439097 	0 10.0002 	0.00292732 	0 10.0001 	0.00146366 	0 10 	0 	0
10.0001 	0.000879268 	0 10 	0.000703414 	0 10 	0.000527561 	0 10 	0.000351707 	0 10 	0.000175854 	0 10 	0 	0
10.0001 	0.000466139 	0 10.0001 	0.000372721 	0 10.0001 	0.000279303 	0 10 	0.000185885 	0 10 	9.24672e-05 	0 10 	0 	0
10 	0.00026623 	0 10 	0.000212984 	0 10 	0.000159738 	0 10 	0.000106492 	0 10 	5.32461e-05 	0 10 	0 	0
10 	8.05745e-05 	0 10 	6.44596e-05 	0 10 	4.83447e-05 	0 10 	3.22298e-05 	0 10 	1.61149e-05 	0 10 	0 	0
10 	-2.60775e-05 	0 10 	-2.0862e-05 	0 10 	-1.56465e-05 	0 10 	-1.0431e-05 	0 10 	-5.2155e-06 	0 10 	0 	0
10 	-0.000216052 	0 10 	-0.000172841 	0 10 	-0.000129631 	0 10 	-8.64207e-05 	0 10 	-4.32104e-05 	0 10 	0 	0
10 	-0.00037779 	0 10 	-0.000302232 	0 10 	-0.000226674 	0 10 	-0.000151116 	0 10 	-7.55579e-05 	0 10 	0 	0
9.99999 	-0.000427537 	0 9.99999 	-0.000342029 	0 9.99999 	-0.000256522 	0 10 	-0.000171015 	0 10 	-8.55073e-05 	0 10 	0 	0
9.17387 	0.0870992 	0 9.1308 	0.0696794 	0 9.08741 	0.0522592 	0 9.04368 	0.0348389 	0 8.99962 	0.0174184 	0 8.95524 	0 	0
10.0004 	0.00731829 	0 10.0024 	0.0151683 	0 10.0045 	0.0221869 	0 10.0065 	0.0291612 	0 10.0085 	0.0360916 	0 10.0135 	0.0463065 	0 10.0163 	0.0402052 	0 10.0207 	0.0401632 	0 10.0252 	0.0401214 	0 10.0296 	0.0400798 	0 10.0356 	0.04454 	0 10.0384 	0.0378989 	0 10.0424 	0.0378545 	0 10.0464 	0.03781 	0 10.0504 	0.0377654 	0 10.0545 	0.0408666 	0 10.0567 	0.0387879 	0 10.0592 	0.0400966 	0 10.0616 	0.0414069 	0 10.064 	0.0427188 	0 10.0662 	0.0451768 	0 10.0677 	0.0452875 	0 10.0691 	0.0464898 	0 10.0704 	0.0476932 	0 10.0717 	0.0488977 	0 10.0729 	0.0499161 	0 10.0729 	0.049978 	0 10.073 	0.05004 	0 10.0731 	0.050102 	0 10.0731 	0.050164 	0 10.0732 	0.0502166 	0 10.0737 	0.0508427 	0 10.0743 	0.0514629 	0 10.0748 	0.0520835 	0 10.0753 	0.0527047 	0 10.0758 	0.0531619 	0 10.0757 	0.0534569 	0 10.0753 	0.0536466 	0 10.075 	0.0538363 	0 10.0747 	0.0540262 	0 10.0741 	0.0539777 	0 10.0737 	0.0541219 	0 10.0726 	0.0540978 	0 10.0715 	0.0540737 	0 10.0704 	0.0540495 	0 10.0689 	0.0537562 	0 10.0685 	0.0538356 	0 10.0669 	0.0537013 	0 10.0653 	0.0535669 	0 10.0636 	0.0534325 	0 10.0611 	0.0530116 	0 10.0611 	0.0530647 	0 10.0591 	0.0528691 	0 10.0571 	0.0526735 	0 10.0551 	0.0524778 	0 10.0515 	0.051983 	0 10.0521 	0.0520347 	0 10.0498 	0.0518124 	0 10.0475 	0.0515901 	0 10.0452 	0.0513677 	0 10.0406 	0.0508381 	0 10.0421 	0.0509091 	0 10.0395 	0.0506816 	0 10.037 	0.050454 	0 10.0345 	0.0502264 	0 10.0288 	0.0496783 	0 10.0312 	0.0497749 	0 10.0286 	0.0495581 	0 10.026 	0.0493414 	0 10.0233 	0.0491245 	0 10.0164 	0.0485797 	0 10.02 	0.0487109 	0 10.0173 	0.0485058 	0 10.0146 	0.0483006 	0 10.0119 	0.0480954 	0 10.0038 	0.0475446 	0 10.0087 	0.0477106 	0 10.0059 	0.0475548 	0 10.0032 	0.0473991 	0 10.0005 	0.0472432 	0 9.99124 	0.04675 	0 9.99742 	0.0469808 	0 9.99473 	0.0468383 	0 9.99205 	0.0466959 	0 9.98936 	0.0465534 	0 9.97892 	0.0460202 	0 9.98648 	0.0462556 	0 9.98387 	0.0462501 	0 9.98127 	0.0462447 	0 9.97866 	0.0462392 	0 9.96707 	0.0459049 	0 9.9761 	0.0462171 	9.70961e-22 9.97411 	0.0460924 	6.31689e-21 9.97212 	0.0459677 	1.16629e-20 9.97013 	0.0458429 	1.70091e-20 9.95806 	0.0452602 	1.44363e-20 9.96833 	0.0453854 	9.94278e-20 9.96655 	0.0450763 	9.22972e-20 9.96476 	0.0447671 	8.51628e-20 9.96298 	0.0444579 	7.80246e-20 9.9507 	0.0437692 	-1.5804e-20 9.96083 	0.0437276 	-4.28545e-20 9.95909 	0.0434219 	-4.76776e-20 9.95734 	0.0431161 	-5.2499e-20 9.9556 	0.0428103 	-5.73187e-20 9.94351 	0.0422236 	-2.2553e-20 9.95318 	0.0420137 	-1.98454e-20 9.95128 	0.0414426 	-1.38118e-20 9.94938 	0.0408714 	-7.77864e-21 9.94748 	0.0403002 	-1.74598e-21 9.93559 	0.0395067 	7.4294e-21 9.94485 	0.0391958 	-5.98802e-21 9.94274 	0.038384 	-2.55673e-20 9.94063 	0.0375721 	-4.51487e-20 9.93851 	0.03676 	-6.47323e-20 9.92671 	0.0356775 	-9.23627e-20 9.9354 	0.0354371 	-1.30512e-19 9.93294 	0.0346176 	-1.17503e-19 9.93048 	0.0337979 	-1.04487e-19 9.92801 	0.032978 	-9.14631e-20 9.91619 	0.0317637 	-3.14743e-20 9.92416 	0.0316449 	3.61891e-20 9.9213 	0.0309034 	5.03759e-20 9.91844 	0.0301617 	6.45528e-20 9.91557 	0.0294198 	7.87199e-20 9.90381 	0.028182 	3.86989e-20 9.91096 	0.0281023 	-4.88996e-20 9.90771 	0.0273969 	-5.52866e-20 9.90446 	0.0266913 	-6.16585e-20 9.9012 	0.0259854 	-6.80153e-20 9.88959 	0.0247598 	-3.59523e-22 9.8958 	0.024641 	6.34343e-20 9.89214 	0.0239426 	5.35617e-20 9.88847 	0.0232439 	4.3674e-20 9.8848 	0.0225449 	3.37713e-20 9.87341 	0.0213682 	-3.0075e-20 9.8785 	0.0211843 	-8.75905e-20 9.87438 	0.0204926 	-1.10897e-19 9.87026 	0.0198006 	-1.34197e-19 9.86612 	0.0191084 	-1.57492e-19 9.85506 	0.018012 	-1.43552e-19 9.8588 	0.0177593 	-1.63776e-19 9.8542 	0.0170788 	-1.50716e-19 9.84959 	0.016398 	-1.37651e-19 9.84498 	0.015717 	-1.24582e-19 9.83439 	0.0147164 	-8.7753e-20 9.83653 	0.0144017 	-7.3714e-20 9.83144 	0.0137373 	-5.43015e-20 9.82635 	0.0130727 	-3.48909e-20 9.82126 	0.0124077 	-1.54821e-20 9.8114 	0.0115053 	2.15703e-21 9.81162 	0.0111232 	0 9.80607 	0.0104704 	0 9.80051 	0.00981728 	0 9.79494 	0.00916387 	0 9.7861 	0.00835515 	0 9.78405 	0.00789181 	-1.74174e-20 9.77804 	0.00724533 	-3.73062e-20 9.77202 	0.00659853 	-5.71968e-20 9.76599 	0.00595143 	-7.70892e-20 9.75851 	0.0052376 	-9.76343e-20 9.7559 	0.00488692 	-1.01576e-19 9.75155 	0.00445606 	-1.021e-19 9.7472 	0.00402505 	-1.02621e-19 9.74284 	0.00359389 	-1.0314e-19 9.73864 	0.00317842 	-1.03637e-19 9.73646 	0.00296435 	-1.04285e-19 9.73428 	0.00275024 	-1.04932e-19 9.7321 	0.0025361 	-1.0558e-19 9.72992 	0.00232191 	-1.06228e-19 9.72563 	0.00201265 	-1.0622e-19 9.7206 	0.00146257 	-7.86994e-20 9.71361 	0.000825285 	-4.81653e-20 9.70661 	0.000187606 	-1.76411e-20 9.6996 	-0.000450465 	1.28732e-20 9.68412 	-0.00146179 	5.24679e-20 9.6845 	-0.00175604 	5.34019e-20 9.67707 	-0.00238776 	5.45989e-20 9.66964 	-0.0030199 	5.57935e-20 9.6622 	-0.00365247 	5.69859e-20 9.64006 	-0.00490827 	6.03663e-20 9.64572 	-0.00497732 	4.75749e-20 9.63789 	-0.00560334 	3.47808e-20 9.63005 	-0.00622983 	2.19855e-20 9.62219 	-0.00685677 	9.18904e-21 9.59373 	-0.00831254 	-1.1171e-21 9.60437 	-0.00819997 	-8.65185e-21 9.59615 	-0.00882098 	-2.08622e-20 9.58792 	-0.0094425 	-3.30713e-20 9.57967 	-0.0100645 	-4.52793e-20 9.54538 	-0.0116685 	-5.75033e-20 9.56059 	-0.0114247 	-5.74146e-20 9.55201 	-0.012043 	-6.51474e-20 9.54341 	-0.0126618 	-7.28769e-20 9.5348 	-0.0132812 	-8.06031e-20 9.49529 	-0.0149789 	-1.0033e-19 9.51458 	-0.0146548 	-1.57903e-19 9.50566 	-0.0152705 	-1.47937e-19 9.49672 	-0.0158867 	-1.37984e-19 9.48778 	-0.0165036 	-1.28045e-19 9.44372 	-0.0182347 	-4.3669e-20 9.46651 	-0.0178815 	-2.79408e-20 9.45728 	-0.0184942 	-1.9597e-20 9.44803 	-0.0191076 	-1.12524e-20 9.43877 	-0.0197215 	-2.90689e-21 9.3909 	-0.021429 	0 9.4166 	-0.0210955 	0 9.40708 	-0.0217065 	0 9.39755 	-0.0223181 	0 9.38801 	-0.0229304 	0 9.33708 	-0.0245634 	0 9.36508 	-0.0242973 	1.71482e-21 9.35531 	-0.0249083 	9.47514e-21 9.34552 	-0.02552 	1.72346e-20 9.33571 	-0.0261324 	2.49933e-20 9.28247 	-0.0276422 	4.38325e-20 9.3122 	-0.0274928 	1.68305e-19 9.3022 	-0.028104 	1.71378e-19 9.29217 	-0.028716 	1.74467e-19 9.28213 	-0.0293286 	1.77571e-19 9.22729 	-0.030663 	4.40328e-20 9.2582 	-0.0306728 	2.35698e-20 9.24799 	-0.0312828 	1.66276e-20 9.23775 	-0.0318937 	9.68453e-21 9.22509 	-0.0325318 	3.94204e-21 9.17171 	-0.0336183 	1.84427e-20 9.19945 	-0.03386 	1.10271e-19 9.19291 	-0.034431 	1.2073e-19 9.1825 	-0.0350398 	1.2202e-19 9.16568 	-0.0356835 	1.06482e-19 9.11592 	-0.036504 	4.20115e-21 9.1403 	-0.0369638 	-1.04476e-19 9.13721 	-0.0375384 	-1.36169e-19 9.12664 	-0.0381447 	-1.46924e-19 9.10637 	-0.0387431 	-1.3557e-19 9.06008 	-0.0393189 	-6.48028e-20 9.0813 	-0.0399761 	-1.87807e-19 9.0811 	-0.0405971 	-2.29862e-19 9.07039 	-0.0412008 	-2.32247e-19 9.04734 	-0.0417093 	-1.82821e-19 9.00434 	-0.0420633 	-4.9591e-20 9.02262 	-0.0428968 	-2.61997e-20 9.02479 	-0.0436014 	-1.15197e-20 9.01397 	-0.0442022 	-3.86535e-21 8.98874 	-0.0445826 	0 8.94883 	-0.0447382 	0 8.9644 	-0.045727 	0 8.96847 	-0.0465465 	0 8.95756 	-0.0471443 	0 8.93071 	-0.0473655 	2.12512e-21 8.89368 	-0.0473458 	5.60872e-21 8.90675 	-0.0484696 	2.28761e-21 8.91232 	-0.0494293 	0 8.90133 	-0.0500242 	0 8.87335 	-0.0500612 	2.53605e-21 8.83899 	-0.0498888 	6.02406e-21 8.84979 	-0.0511282 	2.70244e-21 8.8565 	-0.0522478 	1.29266e-21 8.84545 	-0.0528398 	8.23239e-21 8.81676 	-0.0526743 	2.57446e-20 8.78486 	-0.0523708 	4.51798e-20 8.7936 	-0.0537075 	1.77222e-19 8.80114 	-0.0550012 	3.01683e-19 8.79006 	-0.0555905 	3.0533e-19 8.76102 	-0.0552097 	1.77759e-19 8.73138 	-0.0547956 	4.57204e-20 8.73826 	-0.0562126 	2.6566e-20 8.7451 	-0.0576311 	7.41296e-21 8.73379 	-0.0581783 	3.01597e-22 8.70621 	-0.0576733 	3.65478e-21 8.67863 	-0.057168 	7.0078e-21 8.68385 	-0.0586498 	3.82521e-21 8.68901 	-0.0601333 	6.43463e-22 8.67807 	-0.0606499 	2.24659e-21 8.65237 	-0.0600707 	-1.87932e-21 8.62669 	-0.059491 	-6.0042e-21 8.63041 	-0.0610223 	-5.16828e-20 8.63407 	-0.0625552 	-9.73654e-20 8.62354 	-0.0630416 	-9.87842e-20 8.59956 	-0.0624052 	-5.69948e-20 8.5756 	-0.0617683 	-1.52035e-20 8.57799 	-0.0633404 	8.913e-20 8.58032 	-0.064914 	1.93458e-19 8.57025 	-0.0653725 	2.0243e-19 8.54783 	-0.0646924 	1.15532e-19 8.52543 	-0.0640117 	2.86346e-20 8.52664 	-0.0656206 	1.66621e-20 8.5278 	-0.0672311 	4.68593e-21 8.5182 	-0.0676629 	5.45754e-22 8.4972 	-0.0669451 	5.41331e-21 8.47621 	-0.0662267 	1.02827e-20 8.4764 	-0.0678575 	4.44721e-21 8.47652 	-0.0694899 	-1.3937e-21 8.46742 	-0.069895 	-2.19364e-20 8.44769 	-0.0691541 	-7.45808e-20 8.42798 	-0.0684126 	-1.27228e-19 8.42726 	-0.0700495 	-2.64984e-19 8.42648 	-0.0716879 	-4.02735e-19 8.41789 	-0.0720683 	-3.8681e-19 8.39931 	-0.0713233 	-2.28909e-19 8.38075 	-0.0705778 	-7.10099e-20 8.37923 	-0.0722122 	5.94102e-20 8.37763 	-0.0738435 	1.89369e-19 8.36927 	-0.0741706 	1.86844e-19 8.35204 	-0.0734714 	9.51998e-20 8.33452 	-0.0727351 	3.81275e-22 8.3323 	-0.0743622 	-9.37078e-20 8.32919 	-0.0758076 	-1.75878e-19 8.32098 	-0.0761415 	-1.85629e-19 8.3059 	-0.0756125 	-1.20399e-19 8.28932 	-0.0748936 	-3.87177e-20 8.28647 	-0.0765098 	-2.69073e-20 8.28213 	-0.0777692 	-1.51997e-20 8.27407 	-0.0781118 	-3.74949e-21 8.26084 	-0.0777569 	1.45593e-20 8.24512 	-0.0770619 	3.62096e-20 8.24173 	-0.0786659 	1.3268e-20 8.2364 	-0.0797428 	-2.56905e-21 8.22847 	-0.080096 	-8.66048e-21 8.21687 	-0.0799162 	-3.35508e-21 8.20193 	-0.0792498 	1.23487e-20 8.19804 	-0.0808411 	-5.05503e-21 8.19194 	-0.0817405 	-1.64263e-20 8.18414 	-0.0821056 	-2.31405e-20 8.17394 	-0.0820997 	-3.58098e-20 8.15971 	-0.0814648 	-5.85608e-20 8.15539 	-0.0830427 	5.54489e-20 8.14869 	-0.0837703 	9.04537e-20 8.141 	-0.0841485 	9.29944e-20 8.13203 	-0.0843139 	7.3741e-20 8.11845 	-0.0837133 	-2.38756e-20 8.11375 	-0.0852781 	7.23661e-20 8.1066 	-0.0858408 	8.92211e-20 8.09902 	-0.0862335 	9.25915e-20 8.0911 	-0.0865675 	9.08126e-20 8.07812 	-0.0860036 	1.07368e-20 8.07307 	-0.0875533 	-7.28195e-22 8.06561 	-0.0879617 	-4.93006e-22 8.05814 	-0.0883703 	-2.57841e-22 8.05065 	-0.0887793 	-2.27001e-23 8.03869 	-0.0883441 	1.88912e-20 8.03304 	-0.0897158 	0 8.02568 	-0.0901415 	0 8.01831 	-0.0905674 	0 8.01091 	-0.0909936 	0 8.00014 	-0.0907424 	1.56619e-20 7.99403 	-0.0919441 	0 7.98676 	-0.0923883 	0 7.97947 	-0.0928328 	0 7.97217 	-0.0932775 	0 7.96242 	-0.0932063 	0 7.95598 	-0.094246 	0 7.94879 	-0.0947099 	0 7.94158 	-0.0951741 	0 7.93435 	-0.0956386 	0 7.92552 	-0.0957433 	-8.48748e-21 7.91883 	-0.0966288 	0 7.91171 	-0.0971136 	0 7.90458 	-0.0975987 	0 7.89742 	-0.098084 	0 7.88937 	-0.0983604 	-1.01189e-20 7.88253 	-0.0990995 	0 7.87548 	-0.0996061 	0 7.86841 	-0.100113 	0 7.86132 	-0.10062 	0 7.85396 	-0.101064 	-3.12591e-21 7.85088 	-0.101371 	-4.06956e-21 7.84776 	-0.101608 	-8.91813e-21 7.84463 	-0.101845 	-1.3767e-20 7.8415 	-0.102082 	-1.86161e-20 7.83842 	-0.102314 	-2.33747e-20 7.83442 	-0.102609 	-2.89917e-20 7.83041 	-0.102904 	-3.46082e-20 7.82639 	-0.1032 	-4.02242e-20 7.82237 	-0.103495 	-4.58398e-20 7.81878 	-0.103702 	-5.14594e-20 7.81149 	-0.104337 	-4.97764e-20 7.80434 	-0.104893 	-4.91075e-20 7.79717 	-0.105448 	-4.84356e-20 7.78998 	-0.106005 	-4.77608e-20 7.78401 	-0.10632 	-4.99725e-20 7.77645 	-0.107118 	-3.90317e-20 7.76934 	-0.107699 	-2.80765e-20 7.76221 	-0.10828 	-1.71197e-20 7.75506 	-0.108862 	-6.16143e-21 7.74991 	-0.109054 	0 7.74208 	-0.110014 	-2.66627e-21 7.735 	-0.110621 	-7.68787e-21 7.7279 	-0.111229 	-1.27087e-20 7.72077 	-0.111837 	-1.77286e-20 7.71643 	-0.111914 	-2.27132e-20 7.70832 	-0.113031 	-5.36503e-20 7.70126 	-0.113666 	-7.43123e-20 7.69418 	-0.114301 	-9.49761e-20 7.68708 	-0.114937 	-1.15642e-19 7.68351 	-0.114904 	-1.06391e-19 7.67511 	-0.116174 	-8.22999e-20 7.66807 	-0.116838 	-7.06463e-20 7.66101 	-0.117503 	-5.89859e-20 7.65392 	-0.118168 	-4.73185e-20 7.6511 	-0.118033 	-7.16625e-20 7.64249 	-0.119421 	-8.63203e-20 7.63538 	-0.120149 	-6.86276e-20 7.62833 	-0.120845 	-4.93525e-20 7.62192 	-0.121416 	-2.76736e-20 7.61916 	-0.12131 	7.09302e-21 7.61057 	-0.122712 	1.16368e-20 7.60315 	-0.123606 	8.77158e-21 7.5961 	-0.124334 	3.48249e-21 7.59047 	-0.124795 	0 7.58764 	-0.124741 	0 7.57907 	-0.126158 	0 7.57133 	-0.127214 	0 7.56427 	-0.127975 	0 7.5594 	-0.128331 	0 7.55649 	-0.12833 	0 7.54793 	-0.129764 	0 7.53986 	-0.13098 	-6.31421e-21 7.53278 	-0.131775 	-2.47686e-20 7.52865 	-0.132033 	-4.32817e-20 7.52565 	-0.132086 	-6.18179e-20 7.5171 	-0.133538 	-4.17931e-20 7.5087 	-0.13491 	-2.11945e-20 7.50159 	-0.135739 	3.20567e-21 7.49817 	-0.135905 	9.1188e-21 7.49508 	-0.136012 	1.33991e-20 7.48652 	-0.137484 	4.72942e-20 7.47791 	-0.138957 	8.11874e-20 7.47111 	-0.139793 	9.82337e-20 7.46792 	-0.139953 	8.27046e-20 7.46472 	-0.140114 	6.71737e-20 7.45615 	-0.141609 	4.21253e-20 7.44753 	-0.143103 	1.70678e-20 7.44114 	-0.143968 	3.12356e-21 7.43784 	-0.144184 	1.28596e-20 7.43452 	-0.144399 	2.25965e-20 7.42593 	-0.145917 	8.85683e-20 7.41729 	-0.147435 	1.54543e-19 7.4113 	-0.148331 	1.5524e-19 7.40787 	-0.1486 	8.99379e-20 7.40444 	-0.14887 	2.46342e-20 7.39582 	-0.150413 	1.57417e-20 7.38715 	-0.151956 	6.85297e-21 7.38153 	-0.152885 	7.00874e-21 7.37798 	-0.153209 	1.65059e-20 7.37441 	-0.153533 	2.60042e-20 7.36575 	-0.155102 	9.03963e-20 7.35704 	-0.156671 	1.54792e-19 7.35179 	-0.157633 	1.55441e-19 7.34809 	-0.158012 	9.18337e-20 7.34439 	-0.15839 	2.8141e-20 7.33568 	-0.159987 	1.95149e-20 7.32756 	-0.161474 	1.08707e-20 7.32235 	-0.16245 	2.12718e-21 7.31817 	-0.163014 	0 7.31431 	-0.163447 	0 7.30556 	-0.165072 	0 7.29816 	-0.166453 	0 7.29283 	-0.167471 	0 7.28817 	-0.168218 	0 7.28415 	-0.168705 	0 7.27532 	-0.170359 	0 7.26863 	-0.171638 	0 7.26317 	-0.172699 	0 7.25802 	-0.173627 	4.18154e-21 7.25382 	-0.174167 	2.068e-20 7.24493 	-0.175851 	2.44334e-21 7.23891 	-0.177032 	7.74539e-21 7.23332 	-0.178135 	1.66911e-20 7.22768 	-0.179237 	2.56393e-20 7.22329 	-0.179835 	3.89644e-20 7.21467 	-0.18149 	1.1957e-19 7.20896 	-0.182635 	1.24197e-19 7.20321 	-0.18378 	1.28801e-19 7.19743 	-0.184925 	1.33381e-19 7.19251 	-0.18571 	5.57667e-20 7.18458 	-0.18726 	1.24203e-19 7.17872 	-0.188448 	1.11767e-19 7.17281 	-0.189636 	9.93071e-20 7.16687 	-0.190824 	8.68227e-20 7.16142 	-0.191794 	4.04091e-20 7.15417 	-0.193242 	3.59638e-20 7.14813 	-0.194472 	3.64753e-20 7.14206 	-0.195702 	3.69924e-20 7.13595 	-0.196932 	3.75151e-20 7.12998 	-0.198086 	4.43025e-20 7.12616 	-0.198859 	4.64134e-20 7.12277 	-0.199555 	4.49372e-20 7.11937 	-0.200251 	4.34558e-20 7.11596 	-0.200947 	4.19693e-20 7.11265 	-0.201619 	4.05313e-20 7.1097 	-0.202199 	4.01039e-20 7.10674 	-0.202779 	3.96753e-20 7.10377 	-0.203359 	3.92454e-20 7.10078 	-0.203939 	3.88143e-20 7.09833 	-0.204462 	4.05064e-20 7.09149 	-0.205831 	3.68067e-20 7.0849 	-0.207143 	3.00118e-20 7.07828 	-0.208455 	2.32258e-20 7.0716 	-0.209767 	1.64489e-20 7.06661 	-0.210897 	1.33308e-21 7.05888 	-0.212434 	-2.65703e-22 7.0521 	-0.213788 	-1.8558e-22 7.04527 	-0.215141 	-1.05428e-22 7.03839 	-0.216494 	-2.5246e-23 7.03441 	-0.217542 	0 7.02575 	-0.219246 	-3.23436e-21 7.01876 	-0.220639 	-1.74312e-20 7.01172 	-0.222033 	-3.16218e-20 7.00463 	-0.223427 	-4.5806e-20 7.00166 	-0.224393 	-5.6175e-20 6.99228 	-0.226221 	-4.36413e-20 6.98484 	-0.227695 	-2.82081e-20 6.97758 	-0.229129 	-1.2434e-20 6.97143 	-0.230445 	1.1103e-21 6.96833 	-0.231446 	8.66875e-21 6.95873 	-0.233308 	2.10882e-21 6.9503 	-0.234953 	7.16159e-21 6.94281 	-0.236425 	2.15374e-20 6.9377 	-0.237652 	4.01843e-20 6.93435 	-0.238698 	6.19879e-20 6.92453 	-0.240592 	3.92412e-20 6.91509 	-0.242408 	1.78805e-20 6.90735 	-0.243918 	2.0216e-21 6.9033 	-0.245056 	-2.83484e-21 6.8997 	-0.246145 	-6.27325e-21 6.88964 	-0.24807 	-5.9484e-20 6.87951 	-0.249996 	-1.12696e-19 6.87202 	-0.251519 	-1.15321e-19 6.86819 	-0.25265 	-7.35036e-20 6.86432 	-0.253781 	-3.16864e-20 6.85401 	-0.255737 	-7.41745e-20 6.84363 	-0.257693 	-1.16671e-19 6.83641 	-0.25926 	-1.15788e-19 6.83231 	-0.260431 	-7.12626e-20 6.82817 	-0.261602 	-2.67363e-20 6.8176 	-0.263587 	-7.1459e-20 6.80696 	-0.265573 	-1.16188e-19 6.80001 	-0.267182 	-1.10814e-19 6.79563 	-0.268391 	-6.03324e-20 6.7912 	-0.269601 	-9.84643e-21 6.78037 	-0.271614 	-6.99314e-21 6.77033 	-0.273545 	-4.09146e-21 6.76349 	-0.27516 	-9.98774e-22 6.7581 	-0.276525 	0 6.75339 	-0.277771 	0 6.74228 	-0.279812 	0 6.73341 	-0.281632 	0 6.72629 	-0.283277 	0 6.7197 	-0.284825 	0 6.71468 	-0.286106 	0 6.70329 	-0.288173 	0 6.6956 	-0.289879 	-2.98146e-21 6.68819 	-0.291554 	-6.22658e-21 6.68073 	-0.293228 	-9.47327e-21 6.67505 	-0.2946 	-2.92363e-21 6.66454 	-0.296579 	-4.45641e-20 6.65689 	-0.298281 	-4.11607e-20 6.64918 	-0.299983 	-3.77338e-20 6.64141 	-0.301684 	-3.42833e-20 6.63445 	-0.303243 	-9.35119e-21 6.62609 	-0.304902 	-8.1684e-21 6.61905 	-0.306431 	-2.03316e-22 6.61197 	-0.30796 	7.76288e-21 6.60484 	-0.309488 	1.57302e-20 6.5981 	-0.310922 	2.32039e-20 6.59701 	-0.311139 	2.42782e-20 6.59592 	-0.311356 	2.53524e-20 6.59483 	-0.311573 	2.64266e-20 6.59374 	-0.31179 	2.75007e-20 6.59278 	-0.31199 	2.83929e-20 6.584 	-0.313757 	2.94601e-20 6.57522 	-0.315504 	3.0992e-20 6.56637 	-0.317251 	3.25147e-20 6.55746 	-0.318998 	3.40284e-20 6.54972 	-0.320594 	4.14555e-20 6.54003 	-0.322532 	4.49483e-20 6.5309 	-0.324301 	4.27006e-20 6.5217 	-0.326069 	4.04582e-20 6.51243 	-0.327838 	3.82214e-20 6.50548 	-0.32932 	1.74029e-20 6.49494 	-0.331402 	3.75541e-20 6.48534 	-0.333217 	3.37769e-20 6.47578 	-0.335005 	2.75602e-20 6.46706 	-0.336684 	1.32735e-20 6.46003 	-0.338157 	-1.64258e-20 6.44911 	-0.340252 	-9.05659e-21 6.43852 	-0.342243 	-5.05629e-21 6.42858 	-0.344048 	-7.02667e-21 6.42071 	-0.345603 	-6.93245e-21 6.41333 	-0.347095 	-6.30686e-21 6.40202 	-0.349202 	-4.86396e-21 6.39062 	-0.351309 	-3.41271e-21 6.38077 	-0.353107 	1.41719e-21 6.37308 	-0.354615 	6.85683e-21 6.36534 	-0.356123 	1.23004e-20 6.35363 	-0.358239 	7.90386e-21 6.34184 	-0.360355 	3.51156e-21 6.33221 	-0.362186 	0 6.32416 	-0.363708 	0 6.31604 	-0.36523 	0 6.30393 	-0.367353 	0 6.29235 	-0.369406 	0 6.28281 	-0.371222 	0 6.27389 	-0.37287 	0 6.2654 	-0.374402 	0 6.25287 	-0.37653 	0 6.24226 	-0.378434 	3.44739e-21 6.23233 	-0.380256 	8.17501e-21 6.22232 	-0.382076 	1.29057e-20 6.21338 	-0.383629 	1.76539e-20 6.2011 	-0.385684 	1.50357e-20 6.19084 	-0.387508 	1.59184e-20 6.18051 	-0.389332 	1.68077e-20 6.1701 	-0.391155 	1.77035e-20 6.15997 	-0.392896 	1.91546e-20 6.15474 	-0.393755 	1.36778e-20 6.15015 	-0.394544 	1.10255e-20 6.14554 	-0.395332 	8.37579e-21 6.14092 	-0.396121 	5.72867e-21 6.13642 	-0.396886 	3.16242e-21 6.13053 	-0.397928 	-4.42041e-22 6.12462 	-0.398969 	-4.04243e-21 6.11868 	-0.400011 	-7.63872e-21 6.11272 	-0.401053 	-1.12309e-20 6.10683 	-0.402001 	-1.82476e-20 6.09652 	-0.403935 	-2.86949e-20 6.08587 	-0.40576 	-2.81062e-20 6.07515 	-0.407584 	-2.75389e-20 6.06435 	-0.409408 	-2.69932e-20 6.05372 	-0.410974 	-7.58919e-21 6.04344 	-0.413078 	2.93896e-20 6.03243 	-