/*--------------------------------*- C++ -*----------------------------------*\
| =========                 |                                                 |
| \\      /  F ield         | OpenFOAM: The Open Source CFD Toolbox           |
|  \\    /   O peration     | Version:  2312                                  |
|   \\  /    A nd           | Website:  www.openfoam.com                      |
|    \\/     M anipulation  |                                                 |
\*---------------------------------------------------------------------------*/
FoamFile
{
    version     2.0;
    format      ascii;
    arch        "LSB;label=64;scalar=64";
    class       volScalarField;
    location    "180";
    object      nut_ML_ND;
}
// * * * * * * * * * * * * * * * * * * * * * * * * * * * * * * * * * * * * * //

dimensions      [0 0 0 0 0 0 0];

internalField   nonuniform List<scalar> 
404911
(
0.336867
0.489769
0.113731
0.0739041
0.491973
0.497519
0.510396
0.0758053
0.0742245
0.0738975
0.468979
0.475154
0.511366
0.477241
0.503815
0.117713
0.465595
0.490902
0.461654
0.439705
0.442057
0.50019
0.415744
0.482831
0.566787
0.473865
0.51295
0.575367
0.571275
0.165552
0.526397
0.571803
0.531651
0.503116
0.371299
0.550944
0.501702
0.291875
0.354675
0.543494
0.504058
0.081708
0.371238
0.559266
0.546199
0.351903
0.312737
0.540158
0.528942
0.125632
0.194603
0.343283
0.375276
0.0935049
0.140614
0.141303
0.073904
0.450734
0.438458
0.415279
0.52251
0.569075
0.544963
0.580394
0.574285
0.567043
0.570299
0.532598
0.570402
0.580669
0.573322
0.585952
0.572556
0.577727
0.585251
0.526518
0.207505
0.54019
0.579996
0.572215
0.580104
0.56868
0.585319
0.573612
0.572822
0.578956
0.527701
0.5789
0.386362
0.567179
0.540148
0.076333
0.577243
0.559281
0.564335
0.578097
0.571843
0.572787
0.580753
0.533335
0.336643
0.577936
0.568585
0.343742
0.348282
0.423807
0.525506
0.509818
0.52049
0.539058
0.546257
0.541524
0.540474
0.534832
0.087069
0.510962
0.540086
0.0868839
0.356952
0.554
0.547802
0.55005
0.546187
0.490512
0.34854
0.524359
0.540661
0.546463
0.553219
0.43667
0.516425
0.43807
0.557346
0.556396
0.549989
0.548393
0.531239
0.531955
0.53163
0.42515
0.358068
0.524252
0.544477
0.548604
0.548786
0.552072
0.554358
0.559055
0.516732
0.476906
0.552813
0.554403
0.546228
0.0889712
0.485234
0.412853
0.531953
0.553619
0.556837
0.555841
0.551897
0.549715
0.551093
0.552397
0.553926
0.555466
0.55327
0.549857
0.543043
0.526691
0.517877
0.513049
0.514141
0.492162
0.521072
0.504553
0.405614
0.553533
0.54987
0.550255
0.550343
0.549764
0.547023
0.542491
0.536405
0.528087
0.53237
0.497526
0.517167
0.518273
0.499831
0.529572
0.528531
0.522164
0.447544
0.558341
0.552326
0.551454
0.548351
0.544966
0.541408
0.534944
0.337923
0.379328
0.535905
0.515019
0.51925
0.532209
0.531672
0.527786
0.517206
0.530379
0.526089
0.525542
0.498384
0.557976
0.551466
0.54963
0.547275
0.537451
0.502634
0.417566
0.509139
0.528158
0.554696
0.571609
0.562357
0.526731
0.53111
0.545573
0.533548
0.540281
0.541076
0.565645
0.553508
0.548238
0.540408
0.524366
0.337952
0.343478
0.527042
0.565892
0.553524
0.570388
0.57399
0.573505
0.571326
0.556898
0.542672
0.543263
0.56708
0.567514
0.531448
0.412471
0.550069
0.535861
0.335334
0.474275
0.547954
0.568149
0.550167
0.573023
0.574109
0.575202
0.576054
0.575644
0.572749
0.573063
0.570851
0.541925
0.522688
0.451213
0.392967
0.513282
0.505865
0.533903
0.552595
0.531551
0.57057
0.573475
0.574065
0.573958
0.572622
0.575233
0.576292
0.574846
0.554842
0.506009
0.377771
0.424093
0.305876
0.514728
0.550413
0.555354
0.566927
0.567981
0.571908
0.574506
0.574891
0.573467
0.571244
0.569872
0.573388
0.575372
0.55367
0.523545
0.489668
0.524976
0.355983
0.378595
0.413263
0.519904
0.549449
0.576777
0.579041
0.57257
0.572052
0.574556
0.573626
0.571973
0.571858
0.573388
0.573661
0.569663
0.523515
0.548265
0.504071
0.360127
0.532698
0.561605
0.549704
0.56744
0.569187
0.559183
0.581786
0.572451
0.57265
0.572154
0.579752
0.579287
0.57046
0.572787
0.568808
0.519194
0.5263
0.508626
0.552806
0.569284
0.576727
0.579557
0.572956
0.573284
0.571994
0.582253
0.579593
0.584165
0.584221
0.578197
0.572555
0.560126
0.546821
0.536248
0.379996
0.387325
0.527493
0.55623
0.571542
0.581374
0.583843
0.581839
0.577332
0.580802
0.57929
0.584249
0.577008
0.578434
0.57516
0.567227
0.561556
0.50013
0.354361
0.51701
0.565117
0.566199
0.567209
0.573619
0.580432
0.577858
0.581532
0.585354
0.58412
0.582785
0.579662
0.576249
0.572323
0.566887
0.558677
0.522224
0.418849
0.427313
0.491451
0.503584
0.567823
0.569526
0.57907
0.577871
0.58012
0.583205
0.584513
0.585697
0.584626
0.583076
0.577365
0.562854
0.547003
0.55097
0.512976
0.51549
0.560854
0.557851
0.57098
0.578009
0.581318
0.58093
0.580054
0.582855
0.579413
0.581753
0.584991
0.583592
0.579763
0.574738
0.559474
0.521252
0.475333
0.553951
0.572897
0.569137
0.579419
0.578517
0.581562
0.58297
0.578931
0.576351
0.577413
0.577696
0.580255
0.579797
0.579298
0.562746
0.555734
0.519576
0.515158
0.567672
0.566185
0.575193
0.581173
0.583413
0.580563
0.582982
0.58302
0.580041
0.576065
0.577496
0.580835
0.575431
0.575707
0.564636
0.5522
0.367459
0.538401
0.5723
0.578555
0.582413
0.583621
0.584656
0.58412
0.576635
0.585375
0.585423
0.581738
0.579442
0.574528
0.571674
0.562081
0.553864
0.523229
0.355037
0.510315
0.554679
0.57198
0.5799
0.582571
0.583998
0.582215
0.583291
0.585225
0.584985
0.584916
0.583646
0.582355
0.577768
0.548118
0.562629
0.540397
0.356127
0.378821
0.536761
0.570853
0.568713
0.579673
0.582857
0.583885
0.58492
0.585558
0.583535
0.585666
0.582442
0.580842
0.581338
0.578714
0.572169
0.550051
0.517077
0.509429
0.561533
0.573128
0.579822
0.582194
0.583386
0.583709
0.584672
0.582075
0.585583
0.585602
0.585426
0.580534
0.578181
0.57232
0.563141
0.545395
0.355823
0.421989
0.540117
0.574185
0.579039
0.581316
0.583051
0.583767
0.584054
0.583985
0.58486
0.582147
0.583313
0.583086
0.583785
0.578596
0.573341
0.552307
0.524544
0.497781
0.565966
0.576191
0.58082
0.582163
0.58344
0.583999
0.584171
0.584318
0.584342
0.584073
0.584921
0.584749
0.583671
0.579887
0.564487
0.541311
0.513971
0.540147
0.57708
0.579498
0.581279
0.582536
0.583848
0.584309
0.584332
0.584363
0.584433
0.584459
0.584165
0.58358
0.582126
0.576136
0.566457
0.549805
0.512654
0.546448
0.571113
0.58119
0.583768
0.583354
0.584382
0.585123
0.58529
0.584743
0.584323
0.584414
0.584204
0.583338
0.57985
0.573991
0.564135
0.53038
0.349988
0.441962
0.559913
0.579726
0.58085
0.582679
0.584533
0.584473
0.585358
0.583763
0.583983
0.5852
0.584018
0.583667
0.582872
0.57903
0.560845
0.550464
0.517304
0.484051
0.564213
0.577301
0.582451
0.584259
0.584588
0.584719
0.584726
0.585416
0.584274
0.585469
0.585187
0.583402
0.581692
0.578563
0.560887
0.546871
0.348062
0.530913
0.569467
0.575896
0.581648
0.584201
0.584756
0.584923
0.584886
0.584836
0.584771
0.584997
0.585099
0.583934
0.581681
0.573063
0.565039
0.543403
0.341919
0.533372
0.573391
0.579958
0.582651
0.584305
0.582499
0.58305
0.585656
0.585079
0.584806
0.584597
0.584092
0.583435
0.581119
0.574637
0.561261
0.523834
0.431517
0.550118
0.573497
0.579485
0.583238
0.58463
0.585078
0.583371
0.584177
0.58574
0.585281
0.584777
0.584141
0.583083
0.579964
0.567369
0.553174
0.518045
0.513162
0.5654
0.568981
0.576317
0.582957
0.585301
0.58563
0.585674
0.583923
0.584571
0.585587
0.585553
0.584384
0.583216
0.579824
0.566699
0.54654
0.335756
0.531339
0.573247
0.580184
0.581897
0.583881
0.585395
0.584006
0.584843
0.584215
0.585726
0.584707
0.585631
0.585407
0.583223
0.579446
0.565092
0.533128
0.336623
0.448905
0.557639
0.576403
0.57966
0.58242
0.583837
0.584836
0.583843
0.585206
0.585272
0.584905
0.585702
0.584674
0.584051
0.583505
0.576942
0.565451
0.527355
0.463169
0.56279
0.577779
0.581488
0.582702
0.583792
0.584468
0.584961
0.583962
0.584885
0.585349
0.585584
0.585716
0.58482
0.582152
0.575838
0.558163
0.518997
0.47278
0.563523
0.577943
0.581954
0.582901
0.583644
0.58432
0.584737
0.584988
0.585705
0.584698
0.585735
0.585677
0.58524
0.580615
0.569724
0.552818
0.349906
0.481115
0.563883
0.577748
0.581798
0.583031
0.583514
0.584183
0.584556
0.585041
0.585387
0.585536
0.585539
0.585184
0.58372
0.58025
0.566472
0.53294
0.344658
0.535217
0.570901
0.576485
0.580934
0.582708
0.583544
0.584092
0.584427
0.58463
0.585656
0.585447
0.58565
0.585609
0.58238
0.579979
0.565671
0.527975
0.421894
0.541852
0.576657
0.581305
0.581372
0.582453
0.583659
0.584289
0.584582
0.584559
0.584976
0.585711
0.585627
0.584646
0.583815
0.580278
0.564859
0.529466
0.45662
0.563854
0.575644
0.578916
0.582333
0.582784
0.583827
0.585031
0.585301
0.584836
0.584341
0.584637
0.58495
0.583118
0.581296
0.577076
0.566565
0.527199
0.484081
0.565324
0.57865
0.583072
0.583952
0.583784
0.583671
0.585032
0.584147
0.584761
0.585332
0.584597
0.584183
0.583677
0.582163
0.575735
0.56622
0.524251
0.470109
0.564669
0.578099
0.582621
0.58414
0.584318
0.584293
0.584327
0.585317
0.584499
0.585095
0.585284
0.584443
0.583616
0.581826
0.575322
0.565454
0.523053
0.453747
0.563403
0.576418
0.581921
0.583867
0.58438
0.584656
0.584784
0.584706
0.584668
0.585008
0.585254
0.584613
0.583614
0.580743
0.574945
0.561253
0.520915
0.472604
0.564008
0.5767
0.581881
0.583829
0.584371
0.58483
0.585054
0.585088
0.584931
0.584827
0.584737
0.584383
0.583576
0.58048
0.569887
0.553064
0.361411
0.529727
0.564563
0.576575
0.581645
0.58406
0.584699
0.585057
0.585439
0.585537
0.585462
0.585091
0.584819
0.584367
0.58355
0.5805
0.570325
0.551042
0.352671
0.529086
0.565321
0.575647
0.581755
0.584736
0.585429
0.585549
0.585709
0.585281
0.584847
0.585404
0.585473
0.584546
0.583664
0.580477
0.570102
0.551272
0.350492
0.368931
0.543607
0.565466
0.574478
0.581249
0.582123
0.584164
0.584573
0.584593
0.584779
0.585127
0.58501
0.585643
0.58546
0.583848
0.580367
0.567579
0.548683
0.350844
0.37302
0.553568
0.571455
0.571363
0.580506
0.584067
0.583301
0.585726
0.584278
0.58402
0.584157
0.584018
0.584994
0.585225
0.584052
0.579686
0.566828
0.532263
0.552622
0.570772
0.579871
0.582955
0.584162
0.584823
0.585716
0.581623
0.582782
0.583882
0.583242
0.583832
0.585755
0.583921
0.576844
0.566401
0.528283
0.351132
0.545497
0.569792
0.580437
0.583565
0.584449
0.584849
0.585239
0.585709
0.584639
0.582233
0.582105
0.584672
0.585812
0.583819
0.575953
0.563332
0.521021
0.336917
0.545759
0.567616
0.580485
0.583751
0.584579
0.58515
0.58548
0.585583
0.585698
0.584781
0.58336
0.584541
0.585804
0.584197
0.576756
0.560405
0.51954
0.340722
0.544906
0.566094
0.580205
0.583803
0.584652
0.585183
0.585733
0.58487
0.585247
0.58564
0.585642
0.585729
0.58583
0.583411
0.575609
0.558894
0.357622
0.556185
0.565059
0.579814
0.583675
0.584674
0.585056
0.585431
0.584898
0.585357
0.585658
0.585686
0.585621
0.585097
0.582057
0.571465
0.552054
0.350466
0.351077
0.555531
0.581786
0.583636
0.584571
0.585059
0.585304
0.585579
0.584555
0.585076
0.585562
0.585574
0.584091
0.580339
0.569752
0.548855
0.34266
0.216453
0.515074
0.57153
0.579244
0.584776
0.584712
0.585032
0.585565
0.585738
0.585736
0.585045
0.585723
0.585747
0.584076
0.577679
0.567534
0.545342
0.333395
0.516604
0.568123
0.572623
0.581428
0.585318
0.585099
0.585184
0.585627
0.585074
0.585629
0.585735
0.585725
0.585573
0.584169
0.57712
0.56365
0.525766
0.521603
0.556827
0.576223
0.583472
0.585289
0.58556
0.585553
0.585539
0.585714
0.585685
0.585418
0.585307
0.585227
0.58246
0.57579
0.559767
0.521554
0.347553
0.530843
0.562896
0.576427
0.579917
0.581177
0.582706
0.584434
0.585732
0.585485
0.584489
0.584164
0.585585
0.585416
0.581758
0.570161
0.552258
0.345278
0.373708
0.54768
0.570835
0.581192
0.58133
0.582473
0.56964
0.576827
0.585475
0.583995
0.58551
0.585742
0.585664
0.585377
0.580571
0.565346
0.547466
0.334726
0.449011
0.565265
0.56134
0.575615
0.582168
0.584068
0.584808
0.581174
0.571449
0.585579
0.585051
0.585734
0.58517
0.584351
0.580973
0.568751
0.54858
0.3418
0.509877
0.570495
0.571732
0.580626
0.584435
0.585081
0.584424
0.585759
0.585743
0.5822
0.585581
0.585231
0.584316
0.583595
0.581415
0.571204
0.551495
0.34739
0.428406
0.539188
0.573966
0.578135
0.580309
0.585338
0.584736
0.579534
0.585781
0.582789
0.584158
0.584418
0.584137
0.583276
0.584911
0.580505
0.570492
0.516247
0.346216
0.502325
0.568965
0.568214
0.580154
0.581504
0.585425
0.580904
0.56805
0.576393
0.58571
0.584026
0.585657
0.585158
0.583979
0.582336
0.579109
0.565524
0.541374
0.33843
0.556597
0.578256
0.582388
0.58308
0.585793
0.579859
0.568662
0.572144
0.581036
0.585757
0.585673
0.584919
0.583543
0.581319
0.57321
0.563635
0.52744
0.324811
0.547753
0.57978
0.581067
0.58301
0.585794
0.57185
0.570335
0.580291
0.580923
0.585232
0.585649
0.585607
0.583678
0.581281
0.573341
0.559976
0.521885
0.541999
0.578152
0.580791
0.583063
0.585876
0.576524
0.56577
0.574585
0.584168
0.584364
0.585715
0.585708
0.584179
0.581452
0.573667
0.555898
0.517908
0.538685
0.560787
0.578773
0.583555
0.585868
0.571815
0.56621
0.572155
0.578688
0.58406
0.585733
0.585722
0.584358
0.580427
0.572676
0.553652
0.349865
0.475473
0.561955
0.574651
0.580352
0.583883
0.58577
0.579825
0.569446
0.576519
0.581943
0.585648
0.585633
0.584636
0.584191
0.579673
0.567117
0.546863
0.343027
0.4985
0.567329
0.574292
0.580236
0.58283
0.585748
0.572276
0.572678
0.578775
0.584891
0.585775
0.584843
0.582966
0.583535
0.577234
0.566522
0.529512
0.503523
0.579636
0.584206
0.582599
0.583202
0.58572
0.578596
0.569774
0.57625
0.584606
0.585524
0.584643
0.585232
0.582958
0.57638
0.563212
0.52275
0.506375
0.58183
0.585216
0.583504
0.5831
0.585735
0.573783
0.575635
0.583948
0.58576
0.585525
0.584583
0.585292
0.582697
0.575808
0.561013
0.523147
0.504521
0.581585
0.584989
0.584543
0.58307
0.584749
0.577926
0.57728
0.583186
0.585761
0.585231
0.584361
0.584986
0.581679
0.573858
0.558394
0.360367
0.503581
0.579324
0.583524
0.583638
0.583897
0.584211
0.585759
0.582055
0.583176
0.585495
0.584623
0.583899
0.58485
0.581231
0.56923
0.550595
0.353131
0.548568
0.579691
0.57264
0.582083
0.584882
0.58577
0.58575
0.585878
0.585732
0.585355
0.584466
0.58532
0.58365
0.580811
0.566956
0.546553
0.345377
0.527921
0.541341
0.579708
0.585545
0.584835
0.575124
0.581845
0.585858
0.585066
0.584461
0.585441
0.583398
0.576733
0.561101
0.534555
0.345489
0.526695
0.570053
0.573897
0.584584
0.57496
0.571927
0.57755
0.585548
0.585528
0.584805
0.583596
0.58322
0.575347
0.557093
0.522256
0.547384
0.551896
0.568978
0.57436
0.581256
0.57662
0.572306
0.578652
0.584683
0.585734
0.584916
0.585382
0.581303
0.572849
0.554353
0.518301
0.540329
0.574963
0.578205
0.571835
0.575868
0.585795
0.577552
0.580466
0.585881
0.585323
0.584547
0.582322
0.580836
0.567047
0.549729
0.349012
0.53192
0.571104
0.566589
0.573891
0.572794
0.574805
0.584145
0.585561
0.585498
0.584011
0.583199
0.579499
0.574764
0.557964
0.544977
0.350858
0.366786
0.533941
0.56128
0.57426
0.573643
0.573487
0.574582
0.576839
0.580354
0.575728
0.572702
0.576158
0.581508
0.572062
0.549409
0.501641
0.35982
0.545558
0.5656
0.568771
0.582294
0.575355
0.575743
0.578031
0.583867
0.582069
0.577739
0.574579
0.570608
0.566342
0.524507
0.537535
0.381795
0.54873
0.560805
0.572097
0.581744
0.577703
0.57998
0.579533
0.58106
0.581596
0.575521
0.572225
0.571133
0.568468
0.521634
0.462466
0.524606
0.563503
0.525307
0.557841
0.576588
0.584745
0.582587
0.583991
0.584199
0.582653
0.579591
0.575874
0.568838
0.554584
0.518166
0.0990551
0.520006
0.5142
0.539943
0.572367
0.572114
0.576455
0.581422
0.576601
0.576558
0.578211
0.580142
0.571492
0.566829
0.554988
0.532193
0.503915
0.34755
0.431297
0.526227
0.571819
0.576355
0.576078
0.580686
0.58186
0.577631
0.574001
0.573342
0.568009
0.550862
0.55516
0.525864
0.345272
0.539643
0.475602
0.560489
0.571879
0.577615
0.58152
0.578894
0.575813
0.575306
0.575256
0.573272
0.568251
0.553249
0.541514
0.361865
0.348657
0.536392
0.555454
0.520919
0.547196
0.57606
0.582334
0.581145
0.576043
0.57511
0.572235
0.568023
0.563216
0.563437
0.523994
0.385661
0.512523
0.543743
0.553433
0.393206
0.5216
0.57192
0.579237
0.578206
0.575878
0.574228
0.572664
0.557564
0.570536
0.560459
0.523413
0.343639
0.522654
0.367821
0.522755
0.540124
0.576091
0.576868
0.575619
0.571893
0.568091
0.545201
0.56249
0.546504
0.386366
0.33545
0.417507
0.440978
0.516439
0.538091
0.531931
0.575672
0.574414
0.572419
0.55807
0.571732
0.562767
0.524524
0.337502
0.544021
0.557366
0.513705
0.512004
0.562644
0.534697
0.53064
0.57263
0.571344
0.557616
0.570055
0.554027
0.519077
0.324747
0.539395
0.555526
0.460374
0.481757
0.531945
0.564834
0.546799
0.542503
0.531198
0.533819
0.571165
0.554925
0.408718
0.317476
0.537065
0.423179
0.51154
0.505173
0.515467
0.555221
0.547262
0.563569
0.526107
0.509394
0.572579
0.558406
0.436518
0.317102
0.532867
0.4072
0.464301
0.489166
0.501613
0.540342
0.56635
0.573917
0.551706
0.520546
0.575993
0.544942
0.487262
0.336785
0.535466
0.547707
0.452282
0.468169
0.429071
0.457506
0.557746
0.56232
0.529183
0.576647
0.576851
0.546728
0.487898
0.325107
0.151956
0.547728
0.556529
0.492748
0.508995
0.408554
0.520744
0.542579
0.519993
0.509041
0.580594
0.550916
0.559128
0.506945
0.517712
0.524001
0.570016
0.528995
0.520049
0.522923
0.539671
0.560519
0.564162
0.518068
0.492567
0.572399
0.57715
0.5696
0.506376
0.0746339
0.512543
0.563148
0.523675
0.517921
0.569841
0.551377
0.386378
0.169971
0.426312
0.345271
0.562888
0.564083
0.498291
0.402309
0.348569
0.558782
0.563905
0.524886
0.351867
0.356168
0.542495
0.558987
0.564617
0.502275
0.339851
0.540132
0.379421
0.343069
0.538089
0.522627
0.555886
0.556047
0.546181
0.548387
0.528514
0.525669
0.544766
0.52608
0.520828
0.473022
0.329904
0.0742903
0.49444
0.595861
0.740403
0.744112
0.516416
0.630735
0.70361
0.737317
0.737854
0.72618
0.708102
0.694187
0.695319
0.499691
0.562244
0.61952
0.660138
0.68944
0.713128
0.730465
0.728956
0.726096
0.71738
0.709257
0.701735
0.698604
0.695335
0.680208
0.499664
0.544215
0.594186
0.611999
0.627363
0.644201
0.663915
0.68825
0.714041
0.725924
0.716993
0.708277
0.703484
0.700914
0.700192
0.694212
0.684913
0.655623
0.61956
0.654464
0.699343
0.717326
0.499311
0.527678
0.573908
0.583575
0.589562
0.602664
0.617782
0.628584
0.636692
0.658367
0.688934
0.711103
0.714146
0.699578
0.63213
0.66724
0.701168
0.692532
0.679617
0.66556
0.638268
0.612441
0.609102
0.511746
0.54074
0.56022
0.569386
0.576521
0.580932
0.580905
0.591148
0.607916
0.62005
0.623526
0.625537
0.655981
0.687191
0.699882
0.699354
0.692187
0.638613
0.67137
0.689119
0.684349
0.674355
0.65672
0.629876
0.585853
0.527656
0.564104
0.571579
0.573485
0.564291
0.562082
0.495812
0.51352
0.486194
0.59975
0.609801
0.619637
0.620188
0.620145
0.654395
0.67633
0.681012
0.685464
0.68646
0.632147
0.655644
0.690328
0.685187
0.675156
0.648337
0.401831
0.527038
0.565124
0.56533
0.5785
0.578124
0.580376
0.576007
0.573204
0.57894
0.582292
0.560863
0.614715
0.620799
0.443263
0.610077
0.494811
0.662891
0.673989
0.689327
0.697599
0.630033
0.655381
0.688053
0.669445
0.465421
0.544103
0.565788
0.574538
0.581272
0.582778
0.584249
0.57974
0.585565
0.585917
0.577971
0.581159
0.584564
0.590468
0.58116
0.577791
0.558823
0.608524
0.600503
0.657756
0.668463
0.678338
0.686755
0.688232
0.657328
0.52087
0.47663
0.541347
0.575149
0.579989
0.579243
0.582216
0.582869
0.583891
0.584587
0.580987
0.585356
0.589935
0.58116
0.580424
0.584504
0.585187
0.593537
0.603555
0.622903
0.619534
0.645253
0.651537
0.657207
0.642678
0.602215
0.433024
0.523668
0.565054
0.568573
0.573506
0.581267
0.580673
0.584362
0.584063
0.584083
0.580847
0.582918
0.585157
0.586918
0.588907
0.589971
0.590078
0.590686
0.589497
0.584681
0.577679
0.589023
0.602477
0.627682
0.63199
0.561733
0.489551
0.549844
0.57338
0.565094
0.57487
0.580991
0.581506
0.585474
0.583438
0.583013
0.58196
0.58367
0.584966
0.585127
0.58455
0.587505
0.58838
0.588658
0.58887
0.589393
0.584791
0.576439
0.524811
0.521013
0.504192
0.344335
0.503198
0.414699
0.525789
0.567464
0.578509
0.581721
0.584096
0.584121
0.585485
0.58552
0.585276
0.585134
0.585172
0.585574
0.58557
0.585445
0.585169
0.585987
0.58654
0.586362
0.586244
0.58446
0.580201
0.515537
0.405026
0.488015
0.527517
0.577199
0.579468
0.57909
0.578945
0.582666
0.586017
0.58632
0.586742
0.586496
0.585596
0.585521
0.586086
0.585796
0.58498
0.58503
0.584138
0.582941
0.582743
0.581125
0.579609
0.565873
0.528808
0.532564
0.580483
0.574014
0.582184
0.58341
0.582293
0.581131
0.576889
0.583786
0.585821
0.586057
0.585556
0.586179
0.585094
0.586814
0.58683
0.586672
0.585523
0.583953
0.58194
0.577052
0.572362
0.573074
0.559009
0.51632
0.535093
0.580019
0.588817
0.588036
0.587848
0.585785
0.583764
0.581933
0.581728
0.581794
0.585506
0.586112
0.586214
0.583192
0.583449
0.586246
0.586535
0.586231
0.585006
0.582729
0.579206
0.575169
0.541759
0.550741
0.518195
0.543856
0.584889
0.582668
0.586426
0.587066
0.587388
0.586716
0.585441
0.584357
0.584489
0.585017
0.584013
0.585193
0.585552
0.585074
0.58381
0.585746
0.586323
0.585502
0.583371
0.581256
0.576434
0.565286
0.531896
0.351168
0.502116
0.544524
0.584066
0.583733
0.587074
0.58672
0.58674
0.586547
0.586517
0.585896
0.585723
0.585806
0.586035
0.586227
0.584835
0.584565
0.585423
0.586436
0.586237
0.586003
0.585697
0.583616
0.579833
0.572823
0.537837
0.512448
0.500827
0.542664
0.583933
0.582413
0.585464
0.586709
0.587017
0.586672
0.58609
0.585249
0.584428
0.584716
0.585186
0.585329
0.58573
0.586437
0.586265
0.585025
0.584591
0.584418
0.585887
0.585681
0.583384
0.577912
0.559463
0.519298
0.502698
0.561315
0.58451
0.579907
0.583933
0.585667
0.586515
0.586071
0.585112
0.584386
0.58396
0.583411
0.583825
0.584695
0.585175
0.585395
0.585649
0.586115
0.586378
0.585034
0.57878
0.578864
0.577781
0.568128
0.561389
0.525307
0.358295
0.497238
0.556235
0.584146
0.586607
0.585352
0.58524
0.585937
0.585842
0.584669
0.583993
0.583805
0.584035
0.584249
0.584067
0.584654
0.585451
0.585997
0.586395
0.586351
0.586391
0.58596
0.581513
0.576041
0.567608
0.5447
0.543109
0.343328
0.533242
0.582286
0.580542
0.585201
0.585971
0.586074
0.586016
0.584336
0.58319
0.58341
0.583793
0.584165
0.584584
0.584842
0.58497
0.585344
0.58587
0.586372
0.586008
0.583983
0.583542
0.580489
0.572221
0.557072
0.554424
0.516426
0.525562
0.573992
0.583956
0.586247
0.586403
0.586723
0.58627
0.584719
0.581745
0.580147
0.58101
0.582687
0.583854
0.58463
0.58517
0.585377
0.58539
0.585349
0.58547
0.585758
0.583155
0.580282
0.578129
0.563904
0.554225
0.5143
0.50549
0.560374
0.581522
0.583773
0.585801
0.586769
0.586455
0.584466
0.582115
0.579448
0.577209
0.577145
0.578905
0.581749
0.583678
0.584661
0.585157
0.585312
0.585306
0.585388
0.585771
0.58427
0.580342
0.575383
0.56571
0.52098
0.529837
0.576942
0.583293
0.586149
0.587164
0.586362
0.583096
0.579359
0.577056
0.575751
0.574564
0.573954
0.575138
0.57773
0.581033
0.58337
0.584387
0.584807
0.585119
0.585662
0.585378
0.583647
0.577441
0.564027
0.538373
0.518802
0.570253
0.575522
0.583305
0.5868
0.58645
0.583141
0.577704
0.5728
0.571009
0.570824
0.570497
0.570312
0.571507
0.574009
0.577461
0.581201
0.583431
0.584481
0.585337
0.585686
0.584056
0.581044
0.576257
0.564203
0.503227
0.499514
0.554184
0.574943
0.580115
0.585382
0.586839
0.584295
0.579641
0.573627
0.568426
0.565778
0.56542
0.566182
0.567417
0.569004
0.571737
0.575758
0.579469
0.582522
0.584757
0.585765
0.584363
0.581264
0.577009
0.570795
0.526405
0.501104
0.550437
0.576038
0.579083
0.582922
0.585862
0.585796
0.581578
0.576406
0.571417
0.567216
0.564296
0.562683
0.562873
0.56466
0.56788
0.571936
0.576262
0.580973
0.584252
0.585788
0.584113
0.581728
0.576182
0.560004
0.544505
0.444464
0.524837
0.571748
0.580133
0.583187
0.584351
0.586246
0.584589
0.579318
0.57424
0.570107
0.567086
0.56516
0.563847
0.562925
0.563984
0.567605
0.573407
0.579504
0.583829
0.585904
0.58341
0.579797
0.574061
0.55644
0.546239
0.489496
0.506602
0.563712
0.574734
0.5833
0.585315
0.586177
0.586023
0.583382
0.577901
0.572925
0.569302
0.567238
0.566386
0.565771
0.565485
0.565729
0.568307
0.57423
0.58091
0.585457
0.585657
0.582461
0.574256
0.556288
0.545457
0.484522
0.549532
0.57851
0.583753
0.586248
0.586969
0.585957
0.583486
0.580526
0.576293
0.5725
0.569577
0.567649
0.567312
0.568135
0.568422
0.568895
0.571026
0.576198
0.582953
0.586311
0.585519
0.581612
0.576171
0.550045
0.484926
0.50253
0.571159
0.581588
0.585124
0.587095
0.585935
0.583178
0.580097
0.576932
0.574923
0.5721
0.570004
0.568408
0.568198
0.57005
0.572876
0.574527
0.576073
0.580968
0.585362
0.58641
0.583363
0.578256
0.561477
0.526538
0.538005
0.574744
0.583012
0.585471
0.586773
0.583605
0.579542
0.576185
0.573829
0.571908
0.571472
0.570674
0.570238
0.569229
0.570343
0.574645
0.579676
0.582724
0.585381
0.586088
0.584731
0.579511
0.565242
0.548538
0.483229
0.48365
0.555449
0.580029
0.583696
0.585603
0.586337
0.581828
0.576525
0.5729
0.570989
0.569706
0.569305
0.57001
0.570622
0.571464
0.572208
0.575365
0.580921
0.584656
0.586373
0.585248
0.581512
0.57696
0.565665
0.498923
0.528424
0.571455
0.580414
0.584039
0.586434
0.585889
0.580663
0.574108
0.57068
0.568435
0.567528
0.567932
0.569136
0.571124
0.573391
0.576414
0.578891
0.582378
0.585662
0.586299
0.583569
0.57868
0.56575
0.540803
0.365302
0.507955
0.570512
0.58183
0.58513
0.586871
0.586955
0.583219
0.577635
0.571421
0.567763
0.565824
0.565165
0.565523
0.56752
0.570235
0.573535
0.578153
0.582452
0.585036
0.586311
0.585076
0.581128
0.569446
0.546501
0.433978
0.552733
0.572876
0.583032
0.586263
0.587436
0.585995
0.582054
0.574999
0.569099
0.565737
0.564097
0.563564
0.564124
0.565761
0.569293
0.573285
0.577795
0.582557
0.585735
0.585562
0.5815
0.575643
0.563583
0.523455
0.509397
0.570337
0.581486
0.586106
0.587536
0.586454
0.584366
0.580781
0.57546
0.569566
0.565419
0.563707
0.563438
0.563871
0.565372
0.568807
0.573903
0.57845
0.58309
0.585976
0.585485
0.580646
0.566194
0.538716
0.361223
0.543581
0.576269
0.5834
0.58681
0.586936
0.584698
0.581755
0.578037
0.574442
0.570991
0.567636
0.565169
0.564543
0.565294
0.566941
0.569752
0.574662
0.580549
0.584272
0.586311
0.584454
0.577965
0.563514
0.522472
0.507288
0.570125
0.580873
0.584927
0.587182
0.585857
0.582474
0.57873
0.57521
0.572079
0.570405
0.569537
0.56813
0.567525
0.568113
0.570506
0.573779
0.577399
0.581954
0.585846
0.586138
0.582339
0.57672
0.559264
0.410158
0.543831
0.576562
0.583045
0.586064
0.586991
0.584652
0.58083
0.577011
0.573614
0.570532
0.56841
0.568173
0.56881
0.569594
0.571097
0.573673
0.578004
0.582022
0.584756
0.586413
0.584379
0.577971
0.563688
0.534533
0.506786
0.570036
0.58079
0.584753
0.586944
0.586177
0.583125
0.579333
0.575767
0.572809
0.570161
0.568052
0.56699
0.567655
0.569628
0.57266
0.575545
0.579281
0.58354
0.586107
0.585854
0.581498
0.575747
0.559965
0.417051
0.540643
0.57707
0.583531
0.585748
0.587146
0.585055
0.581224
0.57758
0.574644
0.57243
0.57045
0.568446
0.567329
0.567554
0.569476
0.572945
0.577357
0.58099
0.584226
0.586284
0.58461
0.580472
0.561565
0.533859
0.552589
0.573204
0.583774
0.58678
0.586924
0.583942
0.579779
0.576087
0.573496
0.571746
0.570666
0.569723
0.56869
0.568519
0.569994
0.573482
0.578451
0.582796
0.585426
0.586147
0.582398
0.57565
0.563656
0.450712
0.509064
0.56963
0.58169
0.586168
0.587644
0.586379
0.582978
0.578544
0.574842
0.572483
0.57109
0.570268
0.56997
0.570108
0.570325
0.571511
0.574238
0.578684
0.583915
0.586118
0.585608
0.580423
0.561498
0.538482
0.361023
0.511863
0.571914
0.583327
0.587413
0.587625
0.585636
0.582012
0.577335
0.573527
0.571327
0.57034
0.569969
0.569891
0.570232
0.571231
0.572968
0.575725
0.579623
0.583589
0.586158
0.584797
0.579465
0.556553
0.445112
0.524648
0.574964
0.584103
0.587758
0.5867
0.583778
0.580218
0.576018
0.572215
0.569851
0.56902
0.569285
0.569838
0.570448
0.571587
0.573715
0.577087
0.581111
0.584703
0.586241
0.582888
0.575598
0.549384
0.386657
0.551375
0.573623
0.584331
0.587645
0.585701
0.581817
0.577919
0.574371
0.571333
0.569027
0.567704
0.567737
0.569082
0.570628
0.572112
0.574291
0.57781
0.58224
0.585628
0.585427
0.581061
0.566162
0.53504
0.506758
0.56526
0.579286
0.585896
0.587409
0.584625
0.580331
0.57617
0.572858
0.570451
0.568942
0.567956
0.567362
0.567898
0.569956
0.572443
0.575145
0.578541
0.582741
0.585987
0.584545
0.575659
0.563642
0.428056
0.521029
0.572705
0.583267
0.587157
0.586842
0.58373
0.57937
0.574963
0.571509
0.569351
0.568372
0.568153
0.56834
0.568769
0.569883
0.572243
0.575538
0.57972
0.583647
0.586204
0.583359
0.575512
0.546785
0.363502
0.551418
0.571426
0.583102
0.587153
0.586259
0.582458
0.578084
0.574013
0.570439
0.56784
0.566998
0.567406
0.568221
0.569282
0.570691
0.572748
0.57589
0.580102
0.584353
0.58621
0.581963
0.570496
0.537343
0.505151
0.568869
0.58083
0.585853
0.587435
0.585624
0.581492
0.576565
0.572453
0.569422
0.566983
0.565543
0.565747
0.567139
0.568897
0.570879
0.573345
0.576751
0.581091
0.585119
0.585684
0.581252
0.564872
0.524975
0.523594
0.573723
0.583187
0.586281
0.587186
0.584767
0.58062
0.575422
0.570775
0.567511
0.565673
0.564628
0.564337
0.565252
0.567617
0.570481
0.573525
0.577355
0.581948
0.585586
0.584727
0.575917
0.5644
0.441015
0.540368
0.578092
0.583974
0.587215
0.586593
0.583191
0.57896
0.57436
0.569792
0.566043
0.563742
0.563077
0.563606
0.564354
0.566162
0.569557
0.573625
0.578054
0.582966
0.586175
0.584335
0.57488
0.545839
0.367031
0.55142
0.572256
0.583917
0.587341
0.586182
0.58255
0.577983
0.573699
0.569817
0.566066
0.563184
0.561728
0.561952
0.563664
0.565972
0.569265
0.573767
0.579169
0.584095
0.586246
0.581361
0.573754
0.539071
0.456734
0.567875
0.581927
0.586656
0.587487
0.585165
0.581677
0.577563
0.57348
0.570087
0.567265
0.564343
0.562132
0.561255
0.562265
0.565386
0.569721
0.574724
0.580371
0.58537
0.585588
0.580814
0.560874
0.522523
0.50706
0.571068
0.581451
0.586578
0.587428
0.584782
0.580964
0.577176
0.573567
0.57043
0.568037
0.56611
0.56416
0.56253
0.56246
0.5648
0.569614
0.575873
0.582013
0.586081
0.584713
0.575866
0.563094
0.436669
0.50999
0.572234
0.582921
0.586607
0.587386
0.584832
0.580714
0.576778
0.573657
0.571018
0.568852
0.566973
0.565489
0.564676
0.564509
0.566083
0.57021
0.576676
0.583418
0.586434
0.582518
0.576014
0.543487
0.540159
0.578057
0.584645
0.587541
0.587084
0.584763
0.580792
0.576436
0.573258
0.571223
0.56966
0.568107
0.566349
0.565125
0.565617
0.567794
0.571693
0.577794
0.584265
0.586238
0.580815
0.562935
0.532092
0.542703
0.579323