/*--------------------------------*- C++ -*----------------------------------*\
| =========                 |                                                 |
| \\      /  F ield         | OpenFOAM: The Open Source CFD Toolbox           |
|  \\    /   O peration     | Version:  2312                                  |
|   \\  /    A nd           | Website:  www.openfoam.com                      |
|    \\/     M anipulation  |                                                 |
\*---------------------------------------------------------------------------*/
FoamFile
{
    version     2.0;
    format      ascii;
    arch        "LSB;label=64;scalar=64";
    class       volScalarField;
    location    "180";
    object      omega;
}
// * * * * * * * * * * * * * * * * * * * * * * * * * * * * * * * * * * * * * //

dimensions      [0 0 -1 0 0 0 0];

internalField   nonuniform List<scalar> 
404911
(
210.665
148.292
3433.12
1536.57
126.938
141.967
118.534
602.511
340.902
281.612
230.607
277.282
131.834
203.024
387.68
1098.6
203.84
122.083
139.944
232.888
353.541
162.766
539.067
314.348
116.707
909.669
225.719
86.9347
112.834
968.218
212.93
74.8556
169.703
250.739
176.53
75.3643
157.205
399.958
187.247
72.0704
163.714
1001.79
186.952
71.2314
66.6688
354.597
306.117
72.9675
68.1665
471.662
376.978
327.21
123.025
1321.22
325.125
566.102
9402.12
89.4273
296.914
197.839
141.943
79.7311
155.01
48.7925
73.9056
112.563
94.6621
327.321
94.2634
49.7049
86.3813
29.3906
78.7108
56.6531
33.5556
582.62
2262.32
215.913
47.6246
73.1401
39.5027
79.4529
27.0468
62.7706
59.5315
40.4754
187.814
36.2627
1120.1
58.9676
89.807
2947.94
36.8291
61.6553
64.9679
43.6566
64.7608
52.1848
35.1096
205.011
586.697
37.5717
47.8899
434.273
1134.37
393.282
158.697
573.384
242.352
177.255
125.659
126.546
118.481
130.747
2187.72
410.911
136.692
4446.89
498.218
104.012
105.823
106.069
109.196
169.212
1199.32
222.229
129.207
120.095
108.179
422.778
384.028
420.878
105.436
98.7741
106.466
99.0735
140.756
138.067
92.4876
190.522
1073.42
217.696
119.592
106.028
106.456
107.538
111.446
105.36
423.147
366.216
104.917
96.4458
112.337
1685.1
191.848
884.712
173.424
103.211
92.927
100.869
100.627
106.228
110.199
110.083
106.022
101.784
100.912
99.0123
107.206
169.037
308.122
491.479
360.222
334.488
357.375
350.799
424.884
106.341
110.462
103.529
103.308
101.804
108.464
116.655
118.588
116.758
206.049
608.786
380.011
326.458
328.924
177.015
286.877
455.189
363.141
97.2349
102.666
100.67
107.585
112.536
116.094
141.325
1056.9
885.505
173.627
487.297
311.265
207.665
200.99
188.479
359.774
258.811
309.536
367.785
370.924
94.637
106.367
110.796
108.301
126.659
395.112
757.231
497.932
195.026
120.836
83.212
107.039
250.727
202.203
145.363
220.092
184.674
150.479
86.6127
108.56
109.843
124.232
204.757
1096.01
1112.1
195.451
73.0431
113.639
81.6201
75.1807
82.0917
88.5562
135.383
174.384
181.001
99.0013
89.1487
233.441
388.916
98.4557
132.296
1002.23
365.49
97.6186
64.2598
122.934
73.5571
73.4641
72.6753
74.642
77.1268
94.5797
79.5692
80.467
154.27
307.782
373.107
436.465
334.23
374.471
130.051
93.1218
200.543
76.6888
74.888
80.5676
73.629
83.821
83.5993
72.0898
73.9553
112.061
288.507
347.383
379.371
1579.58
269.134
106.709
87.2447
59.7854
67.4821
74.5398
77.8171
73.136
72.3488
71.9082
81.4478
78.3243
72.1367
143.774
312.232
349.6
163.224
925.306
878.676
783.02
216.533
120.946
38.7808
39.6204
71.9657
81.074
74.2005
69.9462
70.0578
66.1966
71.0941
75.7236
96.3803
280.166
117.061
449.102
1006.27
170.863
85.9964
132.333
76.1778
72.8245
82.0934
33.0431
70.646
68.2638
70.8352
39.8974
39.2562
76.1049
77.8366
91.4824
300.473
181.482
373.601
95.4321
69.3189
46.7895
39.8682
68.0172
64.1544
58.8522
32.4466
41.7797
28.4213
28.4104
37.8505
48.0513
79.2754
114.153
116.937
901.347
1036.2
181.748
87.2341
57.8877
33.8778
30.4251
37.4568
53.2344
38.3767
39.8691
26.9068
48.7253
44.7611
55.5693
65.0467
71.6543
289.018
782.154
264.761
84.694
65.4944
70.8322
60.0909
44.1981
56.8747
41.1597
27.4153
29.7115
30.8446
35.8258
47.2633
69.1226
87.3
76.5823
192.499
611.64
999.795
792.253
249.388
97.7763
75.7519
43.1857
55.401
48.5968
40.0335
34.0446
25.434
26.9749
28.028
40.6525
70.2541
100.078
81.1861
344.696
342.328
102.823
116.484
73.592
52.0219
38.4932
42.8249
49.9893
40.2195
57.6751
43.8358
27.9527
29.7085
36.7245
47.8204
76.0546
189.204
872.401
118.746
70.6009
82.3063
42.5293
42.9618
39.2571
36.9882
53.5732
66.8051
61.4072
59.924
44.2635
43.3824
39.7561
85.2485
87.3498
221.642
338.568
81.0804
89.9813
62.2721
37.3656
29.7627
38.2217
34.7531
37.92
48.8256
64.4588
57.3152
42.1158
64.4842
55.2255
85.397
101.392
874.661
168.571
64.9112
48.1279
34.1104
32.0451
28.7147
28.8329
51.1159
25.7185
25.269
35.3818
40.4624
62.7339
74.7377
96.8202
97.296
194.444
1068.25
366.475
104.838
67.3872
40.938
32.1933
29.0423
35.7191
34.0783
27.1786
26.0397
24.8055
27.5585
29.6463
38.4811
94.9598
58.3073
109.617
899.922
1025.49
155.38
64.7895
76.3725
39.9361
30.9864
28.3549
26.4593
25.337
34.0322
24.6345
33.8105
36.5966
32.237
36.8166
48.7097
86.1862
205.437
342.973
89.143
63.4507
41.1584
32.8813
29.2728
28.4094
26.7616
35.255
25.7135
25.0938
25.2075
40.4361
45.1552
58.2979
71.5993
105.43
893.323
1039.46
157.968
66.5118
51.0663
36.7626
30.8048
28.4345
27.395
27.6843
26.004
35.4607
33.8114
34.7199
30.6726
42.1194
53.1747
106.393
183.312
806.432
95.3813
66.8948
45.7768
34.7057
29.9935
27.8889
27.5045
27.0795
26.702
27.6051
25.1588
26.1507
28.9466
35.4793
72.5036
122.469
232.86
187.834
72.7063
66.4818
45.2933
34.1985
29.0088
27.372
27.1182
27.031
26.7711
26.0437
26.2996
27.4401
30.2107
45.4062
68.5164
95.6307
409.831
165.168
91.9748
74.9793
41.7626
33.5076
28.0464
26.319
25.3589
26.3239
26.6181
25.8459
26.2457
27.9214
35.1857
49.449
68.7941
164.281
1012.59
1056
112.655
61.3619
58.0496
44.5579
30.928
27.9065
25.1807
33.1637
32.5235
24.6041
26.2908
27.0819
28.5635
36.15
84.7335
94.655
362.732
833.095
100.882
65.317
40.3058
32.5559
28.947
26.7004
26.6215
25.2304
32.2649
26.916
24.0409
27.4491
29.8402
35.3191
80.2371
98.8182
957.145
207.852
83.8201
66.9061
40.7185
31.9392
29.2703
26.9191
26.4515
26.3466
26.367
25.7221
24.9039
27.0496
29.9644
49.853
58.6722
104.051
996.524
195.142
71.7544
49.3245
36.5233
30.4597
35.5359
35.768
24.6663
26.2912
26.1494
25.5258
26.5068
27.6564
30.7602
44.9514
66.2282
181.747
937.504
130.019
70.3108
48.5315
34.0249
29.3954
27.5158
33.4636
33.2663
24.1387
25.2257
25.4846
26.2567
27.8297
32.5281
64.0462
82.9069
350.049
344.324
89.2233
84.2376
59.1752
34.4668
27.7032
25.9487
25.0964
32.9173
32.1997
22.5074
24.1277
26.8866
28.1353
32.9691
64.447
97.2684
903.368
200.732
71.6962
49.8262
37.3961
30.9154
27.2491
33.9313
31.9138
33.4802
25.4693
31.71
27.0314
25.5807
28.4328
33.9906
67.4243
137.367
1035.13
956.021
115.992
66.1486
50.0426
35.2881
30.0994
27.3288
32.8469
31.0853
32.0562
32.4349
23.4767
30.3302
32.3523
29.1885
39.9274
62.6432
161.703
948.959
107.104
65.6603
42.9929
33.4059
29.4769
27.4048
27.2589
32.2462
32.8249
31.971
29.3396
23.535
27.1451
30.806
43.288
72.5711
327.029
933.523
105.936
66.2174
40.7534
32.6281
28.783
27.2504
26.8907
27.381
24.9052
20.4464
27.4651
28.4781
27.3206
34.4216
60.3546
84.2703
804.695
929.363
102.801
65.1281
40.4647
31.8715
28.6979
26.8722
27.1352
26.5348
25.7589
25.1223
21.6747
29.9712
34.8377
37.5211
67.0994
136.714
1033.33
198.986
88.0996
66.9742
41.9134
32.4342
28.5009
26.7139
26.7268
27.2657
24.3252
21.1493
21.9479
24.6347
34.7834
37.7093
69.0198
158.835
1057.41
178.96
72.5663
53.1108
40.6495
33.0814
28.3769
26.315
25.9235
26.6858
25.3135
21.9019
26.653
31.6824
30.8925
36.4023
73.0564
154.425
1007.15
108.168
79.6578
61.4048
38.4712
32.972
28.427
25.2172
24.556
25.5315
26.9114
24.9923
24.9845
31.9555
37.7835
45.2913
67.7528
168.185
886.148
105.139
67.2795
41.5671
33.9147
30.5731
28.6824
25.567
30.344
28.0499
24.2415
25.4477
26.0579
27.2302
30.3851
48.408
65.7081
178.843
951.868
105.429
67.0387
40.8397
32.4006
29.794
27.4128
26.8536
25.3694
31.478
29.1885
24.5684
26.4316
28.1678
31.4531
50.1324
68.8062
193.817
953.195
109.065
72.4149
41.2411
31.7983
29.2935
27.2454
26.2126
26.8208
27.4223
26.6573
24.8075
26.3473
28.2644
34.0934
51.3976
75.9906
332.544
885.829
101.912
68.5891
40.5098
31.1046
28.4947
26.9191
26.4891
26.2579
26.7547
26.142
25.6283
26.6291
28.1493
34.0956
65.67
96.5654
887.378
209.583
98.7987
66.2588
40.459
30.6913
27.4153
26.2642
25.6377
25.713
25.4206
26.0943
25.7896
26.6417
28.2408
33.9834
62.6487
98.3223
970.812
213.455
95.1839
64.3183
39.8913
30.7618
26.0033
25.0432
24.7297
21.7221
20.7842
21.3976
24.6412
27.1083
28.0933
33.8864
63.7989
96.4327
938.681
1078.77
133.08
90.4126
65.0536
37.2168
36.458
34.2642
20.4352
20.7027
21.3588
23.2547
23.5571
24.8508
25.2612
28.1807
33.7536
66.7833
107.073
924.543
965.936
101.419
64.645
72.7158
37.6764
28.1874
32.2037
26.6548
22.1145
21.938
21.725
21.2074
23.2184
30.5215
28.2372
35.5494
64.0114
144.346
106.058
65.5708
38.3169
30.6437
27.638
26.3672
24.0647
17.5247
20.6437
23.0947
21.1091
19.7883
24.4067
28.6304
42.5473
61.1724
153.902
900.76
104.71
63.5688
34.8388
28.6711
27.1325
26.3456
25.8502
23.7942
21.9933
20.1705
20.0725
23.4508
24.2473
29.3216
45.3992
67.8771
194.766
941.423
96.8214
63.2787
32.9484
27.8888
27.1156
25.8067
25.0714
25.2495
23.8017
22.2498
21.234
23.2444
24.461
29.0318
44.5985
72.5243
336.329
1039.03
95.059
63.476
32.673
27.3326
26.6371
25.9818
23.5817
20.4584
21.3358
22.7388
23.929
26.5923
25.0354
29.9784
48.4309
77.9126
750.327
88.5274
75.7799
34.4046
27.5218
26.2633
26.2393
26.0623
20.9327
24.0925
25.1422
22.6566
24.4674
26.0282
31.7562
60.3749
94.5112
852.202
657.967
113.206
33.7104
28.0461
26.4137
25.9747
26.0475
25.4909
20.2603
23.7265
24.504
24.9932
27.2373
34.0351
62.4159
97.643
951.113
2071.54
252.344
71.3061
46.6565
27.4131
26.466
26.4622
25.1959
23.5983
24.1486
20.6374
26.2335
24.4952
27.7857
39.0623
63.0114
112.821
1000.19
191.905
56.9114
61.52
37.6505
26.6101
26.5728
26.2097
25.0848
21.2718
24.0412
24.7175
23.4846
24.6223
27.2382
40.0499
66.2836
174.367
177.701
74.4675
41.6114
30.1352
27.4628
26.7395
25.7006
25.8917
23.8482
25.1296
24.1502
29.7245
25.8199
29.9048
43.253
69.4967
190.792
1084.79
148.636
71.8921
41.9851
37.6828
39.8502
40.1258
34.6601
24.9754
22.9652
20.2821
19.6226
22.837
25.5376
31.6628
59.7954
84.0344
753.377
855.601
102.386
58.331
32.7681
34.9894
36.1273
75.2958
69.568
34.039
21.1083
24.5272
26.9624
24.212
26.2771
34.7267
72.0339
92.0095
883.297
727.665
70.8204
99.4351
51.3368
36.4162
34.5756
32.4142
39.8715
80.8777
35.1333
24.208
27.4839
32.6117
33.4049
39.8185
65.7756
94.75
893.405
343.515
66.3845
67.2507
41.3721
33.4611
33.689
39.8184
29.9766
29.2811
42.3163
31.7758
33.1701
34.7481
35.144
40.1562
75.0375
101.737
929.795
911.195
151.942
67.5163
51.7082
43.2258
32.1167
24.7216
17.3387
30.2247
51.7969
40.2444
35.003
33.9587
34.9109
27.1649
36.788
66.5207
221.26
937.336
799.51
79.3009
83.9155
48.3379
42.2524
32.4285
19.0596
10.4682
15.053
29.5594
39.016
27.4344
27.1878
28.8037
30.5337
34.9735
65.6179
109.203
966.076
136.14
63.5177
43.9212
40.8524
30.3914
18.1704
10.8513
12.7389
19.3714
29.8326
23.7826
27.752
28.2353
30.3265
48.003
59.1121
152.137
1089.17
164.586
64.2049
56.9415
45.0793
30.1022
12.5683
11.8154
19.0398
19.2398
25.968
29.0582
24.7154
27.831
30.0266
46.8606
65.7011
188.814
168.642
68.6478
61.6138
48.1718
31.869
16.0179
9.57995
14.3524
24.1685
23.3131
29.7489
24.553
27.0261
29.6792
45.32
69.8148
331.723
143.775
121.623
70.6312
45.9688
32.7218
12.707
9.91821
13.0351
17.2049
22.913
27.5875
24.2996
27.6427
32.1892
48.0953
74.149
765.497
851.434
89.5967
76.0121
59.8635
43.089
30.8529
18.435
11.381
15.9565
20.5406
28.1431
30.8981
32.4734
28.2365
35.1172
63.9502
99.032
868.435
806.922
98.0957
79.8907
60.1542
45.0816
30.3915
12.5462
13.1402
17.606
25.7187
30.4907
32.5551
35.0005
29.135
39.3485
62.0111
165.221
749.138
82.4404
57.579
52.0547
45.3317
32.5892
17.0125
11.3037
15.277
24.5347
33.4067
33.7393
26.4685
29.0567
40.5298
66.0894
198.148
763.63
84.1798
57.724
50.6211
47.1931
32.712
13.3
14.7794
24.2874
31.0424
32.6059
33.7994
26.2697
29.8433
42.8258
70.7414
199.029
775.76
88.7728
57.004
44.7097
45.3343
37.7693
15.5551
15.6106
21.9246
30.6487
32.8767
34.1923
26.9525
31.3033
48.9437
75.9829
754.465
783.199
87.9258
58.1252
49.1326
44.7563
39.1549
31.7056
19.0557
20.8633
33.1597
34.8085
34.7678
26.9147
31.2601
60.1905
94.6944
859.033
201.094
88.0237
104.042
53.4852
38.4464
28.4632
26.9311
30.1059
32.2043
33.7974
34.4536
27.4003
29.4068
30.878
61.1945
98.4894
934.914
253.851
182.08
56.213
34.6259
25.2822
13.779
18.7692
29.4904
34.4961
34.1537
26.4492
28.7888
36.6806
66.1511
134.842
1067.78
237.869
105.385
74.4145
39.8694
13.8761
12.2445
15.7494
27.847
33.3858
34.4386
34.2941
28.5568
38.2895
63.0956
171.785
196.839
183.199
102.554
75.4472
44.9388
14.6351
12.3915
16.8442
24.5181
33.3385
33.8127
27.247
32.8714
45.0064
64.8381
193.593
212.676
76.2214
68.01
81.5569
60.7392
29.9392
14.8831
17.8883
29.7908
35.044
35.4634
37.7425
35.6501
67.7889
84.5712
742.069
215.47
78.7813
95.2569
75.5397
80.3873
72.2237
36.7178
32.6769
32.496
37.8123
37.4897
46.9173
60.8274
101.022
108.534
933.349
1057.31
192.069
93.9629
62.6771
66.5476
74.4294
81.1338
69.6551
44.8028
63.0008
76.3265
59.8742
36.7339
67.0803
117.644
375.089
1103.45
122.584
69.2608
77.1491
35.3438
69.0169
71.9923
65.2664
36.1667
39.9391
53.0324
66.46
76.6902
79.3561
163.663
154.028
871.787
115.771
80.9029
55.163
37.0633
59.2165
55.1614
61.3725
52.5581
43.8515
59.6986
67.5121
72.8474
86.3635
209.02
700.971
194.702
79.213
292.928
110.674
51.2246
32.9914
43.9916
40.8028
39.7768
39.9766
39.3288
41.2772
59.85
92.3304
203.134
3968.16
203.527
432.704
155.929
86.0037
77.0499
63.387
47.4079
73.7847
74.3973
56.5671
39.9662
64.1999
73.5979
104.028
193.36
678.38
946.131
515.449
215.864
76.989
67.5544
70.4245
47.2593
43.9771
64.8099
77.1967
71.8588
75.3173
121.602
115.222
221.026
1063.79
111.276
336.287
99.1655
83.8222
63.9864
43.6233
52.5506
72.0752
73.8053
70.9602
78.3433
70.425
111.409
142.45
1287.32
1053.13
126.351
83.8439
220.486
160.166
76.3355
43.6965
45.6366
71.238
73.8185
73.7392
81.1938
96.3597
83.8289
216.19
1120.21
460.361
121.256
86.8314
372.739
230.116
89.113
54.3455
59.884
73.5363
76.2621
77.6961
107.141
71.6116
92.602
224.626
1011.61
429.325
359.971
268.253
184.373
69.4868
70.2843
70.2363
79.5587
82.7071
127.261
87.6332
138.788
1021.9
592.208
402.437
342.916
292.105
138.886
216.365
73.3882
77.0998
81.095
107.82
72.9818
96.0783
214.985
1037.17
112.448
87.2583
384.652
276.516
93.7768
225.269
232.008
90.2975
91.6977
126.434
90.5815
120.488
410.047
1095.72
121.803
92.4027
390.953
365.16
191.903
93.4817
138.786
144.994
245.544
245.037
97.9695
133.414
1072.01
1020.48
121.145
427.312
381.575
391.48
273.574
125.277
171.599
92.9738
247.88
389.525
101.297
141.29
1156.76
1084.34
120.57
441.546
381.699
391.152
363.694
130.789
108.979
79.3513
154.03
395.404
106.641
214.264
1206.91
1035.69
129.627
100.101
403.343
366.188
400.018
356.826
89.1262
92.6974
238.828
101.982
118.764
218.115
1313.94
1315.6
1026.18
103.1
96.4828
382.309
380.122
495.494
210.479
138.269
257.458
404.402
123.635
236.019
103.215
410.864
367.68
375.066
91.9973
401.763
412.742
434.252
407.171
106.503
93.4275
364.957
438.297
107.775
126.847
191.848
1047.39
6163.52
480.03
92.9918
378.498
412.627
133.393
271.255
2697.49
1976.88
380.823
659.397
124.998
147.036
1027.64
359.716
649.489
126.644
139.931
456.472
709.645
484.145
154.727
122.436
163.994
1026.34
1031.14
186.636
1822.72
697.595
403.971
229.807
109.528
104.409
131.938
133.972
524.194
174.168
114.063
256.156
560.553
1352.96
1187.07
6309.47
366.617
1408.94
549.182
571.45
1235.68
470.907
292.472
212.329
215.497
225.187
242.429
265.828
477.249
1228.44
457.113
263.374
183.795
174.828
160.563
152.772
164.385
190.28
217.142
245.193
261.825
291.066
325.998
356.158
1123.61
410.354
184.877
160.516
143.297
143.148
143.988
144.271
148.459
152.655
170.683
178.666
199.207
233.079
272.619
297.467
328.853
355.526
402.633
548.429
652.252
1320.02
816.647
374.142
166.141
144.241
137.925
127.808
125.138
130.881
138.95
142.608
145.282
146.583
154.222
149.214
485.095
535.071
242.569
279.986
287.999
327.636
354.384
433.342
912.841
413.531
200.062
140.815
124.061
110.351
108.187
110.124
111.85
120.874
124.381
132.043
138.14
143.879
141.694
142.425
145.861
139.975
450.417
531.298
212.763
262.883
293.653
339.661
414.206
1552.22
295.67
104.611
75.4732
71.4179
97.0778
102.423
410.423
458.652
537.59
93.073
116.317
123.357
118.227
122.749
120.826
134.966
137.366
131.296
126.852
424.718
515.086
210.4
262.802
334.796
730.285
1358.65
276.765
120.85
106.27
57.7126
64.1782
62.0004
87.1895
113.542
95.7312
91.2644
226.606
99.3128
111.871
787.802
133.515
566.634
116.093
132.973
143.79
151.809
479.628
526.868
249.567
615.549
1119.85
221.086
152.09
97.8629
44.5122
39.5307
36.9436
57.5337
49.2833
53.1028
93.4553
92.6857
85.6024
88.1092
191.316
229.575
296.311
128.372
205.116
125.87
137.624
142.766
156.407
194.887
477.292
302.614
1212.99
214.19
118.925
81.5677
68.4314
38.7337
37.19
36.5831
35.9833
48.2297
50.0706
42.9317
80.0601
91.4953
76.6174
90.4891
87.9402
93.7975
84.8734
129.231
96.497
130.3
152.669
254.67
492
955.109
281.101
94.7448
94.9635
100.051
56.7668
55.7357
34.033
32.58
32.9895
47.5963
41.1917
37.2202
34.2434
31.9353
33.8828
37.1204
40.9751
56.0516
84.3715
142.732
110.858
111.989
110.518
141.235
407.317
1006.67
142.026
74.9045
104.232
75.0126
49.3957
53.6743
31.3359
37.8725
40.6862
46.5836
42.03
39.958
39.1426
39.2654
32.893
32.4806
35.0668
38.9539
45.458
65.0054
95.4301
451.342
413.166
524.301
4364.86
657.584
1254.1
208.222
92.5696
55.5713
44.5185
36.8421
41.4215
37.6118
38.0634
40.05
42.086
42.2531
40.5637
40.1374
40.8122
39.5489
35.9921
36.564
41.5519
49.2047
61.737
74.3551
438.718
1503.57
1146.47
240.607
89.897
51.8843
43.3017
48.408
42.2113
31.2218
30.7025
33.1259
36.1733
40.8608
42.7547
38.1375
38.1272
41.8486
41.3231
41.7768
41.9537
47.8589
59.8164
67.3316
111.189
322.564
338.704
109.523
145.055
105.867
80.4317
47.5928
37.8811
50.228
36.7975
32.5088
29.0166
27.557
28.5036
23.9764
31.8877
30.9192
31.3153
36.9911
41.328
47.5199
61.0596
63.2202
65.495
106.224
345.556
319.17
113.311
79.923
73.2056
51.9182
47.8456
44.1462
42.4246
34.7371
38.3624
32.965
31.5587
30.0298
21.6559
21.4314
27.1919
28.9057
32.2608
35.966
41.9898
53.8366
66.9005
132.601
95.6014
338.786
282.61
93.5146
98.2233
77.0473
53.0521
43.1
38.6128
35.2411
33.4498
29.4984
27.1292
33.557
32.6512
35.7576
23.4584
21.5919
25.3156
28.4369
33.3588
37.6052
42.1338
60.4586
89.3408
156.797
708.719
1022.93
271.602
90.6462
87.4446
55.8157
46.7005
41.1144
36.7519
32.214
26.7353
23.4553
21.3327
21.1148
23.5767
32.7846
35.1067
34.6633
29.7811
27.6101
27.2201
24.0764
35.6565
47.2214
71.5872
144.986
301.355
1000.1
264.849
82.9434
82.8843
52.6838
39.4082
33.2867
28.6765
26.8528
24.9562
21.68
19.3278
18.4872
18.2253
18.9263
21.3396
23.7907
27.5726
30.4133
35.2377
24.6953
25.2608
36.8117
58.5681
130.254
329.848
891.849
160.986
79.4719
87.1326
53.8049
38.8243
30.4551
24.6661
21.7213
20.2446
19.971
19.8131
18.8587
18.0757
17.8095
18.0552
18.5598
19.5939
20.4731
23.0376
32.5016
32.6005
35.5311
59.4204
88.4123
217.572
1207.55
1091.17
174.994
76.2142
59.1116
46.765
39.0333
32.5372
24.3058
20.0353
18.301
17.886
18.2529
19.0255
18.9306
18.6105
18.3844
18.6509
20.0078
21.8775
25.5602
23.3625
30.4868
41.7148
60.0944
103.223
98.592
1387.68
295.117
82.2123
86.8324
52.4651
38.186
32.5943
26.5561
20.9715
18.2508
17.4027
17.2794
17.531
18.0042
18.4471
18.4602
18.3589
18.5386
19.6542
23.3811
32.913
38.6404
47.6918
64.8563
96.0397
98.2797
317.461
339.164
106.58
71.1292
50.9967
40.2831
33.2298
27.2803
22.8218
18.7045
17.0563
16.965
17.323
17.5409
17.8918
18.2768
18.4815
18.5641
18.7154
19.5454
22.5411
29.9842
37.2088
46.066
74.8541
96.2395
330.907
867.133
144.201
69.4873
59.656
42.5348
35.2848
28.3455
22.8643
19.2218
17.0911
15.6984
15.7002
16.3583
17.2304
17.6585
18.0725
18.479
18.8798
19.4183
20.5965
23.9161
31.8143
43.7698
61.5321
76.8492
282.638
285.932
80.1645
54.5363
37.7932
31.7151
26.2272
21.2095
17.2816
15.4535
14.6617
14.0963
13.8516
14.5446
15.5417
16.5818
17.4721
18.1399
18.7976
19.7924
22.5789
27.4973
34.0445
58.3954
96.9791
177.145
339.1
91.8132
83.4302
46.8156
32.1428
24.9522
20.7444
15.9487
12.9963
12.1066
12.0607
11.8682
11.7718
12.4204
13.7003
15.1271
16.5182
17.549
18.5972
20.8347
25.5189
32.5207
41.8842
62.0227
88.4617
694.037
815.178
131.759
74.9018
58.1373
34.825
26.2807
20.5894
16.8961
13.3431
10.7604
9.6559
9.56232
9.88099
10.3767
11.0931
12.3728
14.3105
16.2405
17.7521
19.5592
22.9713
31.8236
41.678
58.793
74.0005
284.164
820.307
143.598
72.8833
63.7301
40.4844
30.3563
22.0412
17.3938
14.3837
12.0526
10.153
8.97889
8.4033
8.49601
9.20391
10.5229
12.3482
14.3981
16.8685
20.3159
24.994
32.3793
39.0476
64.4706
107.632
151.055
950.184
296.289
88.251
63.5127
42.1796
34.9105
26.5072
19.6628
15.4202
13.1955
11.4935
10.1768
9.30192
8.80288
8.48091
8.91184
10.3977
12.9889
16.4132
20.0348
25.5154
33.7386
45.6092
65.0747
102.737
133.535
786.219
660.682
113.95
85.4812
47.422
34.4153
28.5293
22.9675
17.8778
14.3167
12.3717
11.0596
10.1632
9.70534
9.35284
9.39342
9.58208
10.6815
13.3779
17.4031
23.0059
29.3476
38.4093
67.9298
101.423
130.347
774.333
152.965
70.5491
46.5169
34.0824
27.095
23.6093
19.1405
15.4399
13.1694
11.9564
10.9681
10.1702
9.78968
10.0169
10.3126
10.8749
11.9705
14.7378
19.6841
25.2719
32.6424
45.3986
64.9302
117.494
769.668
657.815
83.3714
57.5874
37.9079
28.2641
22.0249
18.2384
16.1871
13.8373
12.3944
11.2452
10.6448
10.0823
9.91803
10.4843
11.7201
13.1636
14.5359
17.9398
22.746
30.5918
41.3398
64.6746
103.519
268.607
164.64
73.9703
48.6109
35.5692
24.9443
18.6867
15.1595
13.2341
12.4664
11.4145
10.9637
10.6203
10.579
10.1832
10.5265
12.1172
14.8118
18.1888
22.8441
30.7102
35.7082
57.7058
100.579
139.774
810.63
826.385
116.842
60.2718
43.2175
34.132
23.6312
17.0828
13.457
11.659
10.9312
10.5281
10.2632
10.3497
10.5752
11.0927
11.6103
13.1062
15.8275
19.0024
23.7129
31.2704
41.7769
57.266
82.9667
719.554
234.653
81.2309
59.7925
41.1366
31.5816
23.2867
16.4602
12.5173
10.9927
10.0609
9.66419
9.71908
10.017
10.6367
11.6229
13.5488
15.4118
17.8417
21.0102
25.9765
33.6232
48.6631
85.9685
158.486
1083.16
618.965
79.0432
53.5642
38.3469
30.9046
26.6802
19.9413
14.6857
11.4199
10.0924
9.29794
9.00864
9.01637
9.5255
10.2936
11.4068
13.5866
16.5868
19.4207
22.9542
27.9019
36.9001
71.7008
130.682
774.499
128.78
82.104
45.6141
34.1641
27.0458
21.847
18.009
13.3774
10.47
9.18549
8.66788
8.48037
8.724
9.14556
10.1986
11.5377
13.4256
16.2287
20.1133
25.8745
34.4647
49.911
69.1121
297.254
601.71
80.6731
51.2804
33.9498
27.0376
22.7317
19.5785
16.1134
13.0645
10.5495
9.0105
8.51652
8.46882
8.62958
9.11773
10.2851
12.2071
14.1811
17.2588
21.3389
27.3479
38.5047
74.7695
130.86
878.185
154.379
67.4503
41.8062
30.9153
24.214
20.2123
17.2606
14.3814
12.2209
10.7921
9.62597
8.81408
8.74123
9.03571
9.68073
10.8733
12.9377
16.0015
18.8813
23.3057
31.1799
50.0602
82.5013
283.137
610.81
79.5522
53.2885
36.6718
27.5366
21.6009
17.6924
14.9244
12.9145
11.276
10.4254
10.1145
9.58892
9.39051
9.69609
10.7427
12.4364
14.3612
17.1977
21.9165
26.8682
37.064
53.4751
88.8391
770.704
154.305
68.0066
43.6928
32.9123
25.1819
19.8347
16.1802
13.6874
11.96
10.6727
9.79714
9.61441
9.75229
9.91009
10.4048
11.4441
13.5811
16.3526
19.0227
23.1663
31.492
49.9627
84.1168
161.88
627.22
80.2424
55.5585
37.8024
29.0721
22.1842
18.0241
14.9707
12.8421
11.422
10.368
9.62907
9.25043
9.43335
10.0792
11.121
12.1479
13.8287
16.6136
20.6587
25.6873
36.5075
52.2814
79.9363
730.745
160.658
65.3947
43.7934
35.3609
26.644
20.334
16.2605
13.7395
12.1164
11.1029
10.381
9.71835
9.34903
9.4212
10.1
11.4591
13.3439
15.124
17.4564
21.3125
28.4273
37.4851
85.6621
156.03
127.023
80.8927
43.0598
32.2312
24.7194
19.1521
15.2853
12.8731
11.4991
10.6956
10.2897
10.0398
9.7763
9.76541
10.3386
11.6827
13.9056
16.4682
19.2463
23.7606
32.971
51.4317
70.2105
598.301
652.115
76.983
49.594
34.857
28.2984
23.155
18.3024
14.568
12.2817
11.0557
10.4194
10.0729
9.96125
10.0693
10.2114
10.7337
11.8931
13.9108
17.3749
20.8741
25.2421
36.6496
81.9575
135.496
893.501
616.596
80.5793
43.7922
31.1054
26.2844
22.2648
17.7067
13.926
11.7219
10.6392
10.1644
9.98273
9.91771
10.0118
10.3925
11.112
12.3425
14.3456
17.0169
20.9795
26.8523
37.9288
86.8003
553.725
264.462
74.5757
41.3182
29.4338
23.3667
19.903
16.5883
13.3191
11.1951
10.1772
9.79711
9.79521
9.92458
10.0933
10.4999
11.3668
12.9348
15.2103
18.2814
22.912
31.5412
50.117
98.3552
686.912
127.546
78.5253
40.6291
27.9261
21.8084
17.859
14.9082
12.5278
10.8218
9.85887
9.44752
9.40525
9.72829
10.183
10.6931
11.5688
13.2309
16.0496
20.0128
26.3376
35.4834
72.8819
149.457
624.94
88.0459
58.0916
34.1781
25.6174
20.4494
16.5936
13.7348
11.7093
10.4103
9.726
9.40911
9.28219
9.42415
10.0093
10.8309
11.88
13.4705
16.1875
20.7484
28.9364
52.4974
71.6639
624.41
280.06
74.9126
41.8658
29.6528
23.428
19.2635
15.8099
13.0942
11.1946
10.0246
9.49413
9.35755
9.43421
9.62503
10.0051
10.7995
12.0525
14.102
16.8197
21.1491
31.1724
52.3127
104.289
873.11
123.479
83.8998
43.1532
29.4575
22.4759
17.9248
14.771
12.4709
10.8009
9.63996
9.13798
9.13668
9.32954
9.6533
10.1658
10.9446
12.2048
14.2952
17.5759
23.1583
33.8805
65.6605
142.112
660.834
80.0155
51.3903
33.7764
26.9046
21.4965
17.1426
13.8175
11.6271
10.2582
9.33744
8.79655
8.73545
9.05468
9.54644
10.1796
11.079
12.5264
14.9063
18.6417
25.4192
35.4059
77.1624
278.036
274.234
73.6746
42.5389
32.9329
25.2295
20.3385
16.4802
13.1972
10.929
9.53056
8.79468
8.44302
8.36595
8.60428
9.26783
10.1548
11.2015
12.7752
15.398
19.4181
28.1062
51.9608
71.2296
607.482
168.262
62.0205
39.4861
29.3106
22.8652
18.5044
15.2055
12.5378
10.4966
9.0666
8.20898
7.91823
8.07799
8.35761
8.9623
10.034
11.4137
13.2452
16.238
21.3422
28.6728
54.7827
109.534
887.712
133.644
87.8898
41.9352
28.6785
22.3606
17.8991
14.5355
12.0941
10.3463
9.00212
8.05617
7.55445
7.56499
8.07585
8.86036
10.0295
11.6706
14.0824
17.5162
23.2852
36.0137
54.8267
122.197
823.115
83.4516
49.4877
33.3548
26.0867
20.9765
17.225
14.1922
11.8961
10.329
9.27332
8.33587
7.67067
7.4003
7.69077
8.65951
10.1418
12.0834
14.9162
19.5681
26.6953
37.139
85.223
265.229
638.776
76.6811
50.5921
33.41
25.8879
20.7155
16.7631
13.9031
11.8158
10.3812
9.46374
8.81646
8.20944
7.73404
7.78216
8.58465
10.2345
12.7066
16.0716
21.0571
29.4123
54.4746
74.8479
647.431
585.043
79.3462
45.1458
33.4872
26.1703
20.7948
16.5872
13.6185
11.7343
10.5086
9.71469
9.07989
8.58191
8.32599
8.33171
8.98717
10.5642
13.2863
17.4627
23.3395
34.371
51.1209
118.37
171.586
63.7498
38.7018
29.3589
24.8283
20.7062
16.6078
13.3952
11.4747
10.4798
9.91145
9.42205
8.87416
8.48711
8.66098
9.45971
11.0177
13.804
18.3111
25.232
38.2223
80.3507
162.047
164.092
60.8203
38.4962
30.0918
23.638
19.6219
16.3499
13.358
11.2699
10.2483
9.86045
9.6121
9.31466
9.02571
9.08866
9.89407
11.5203
14.1583
18.6933
26.772
37.63
86.6617
560.032
136.777
89.0685
42.685
28.4089
22.2872
18.6424
15.6847
13.246
11.2853
10.0373
9.56918
9.50638
9.5264
9.53225
9.7865
10.5407
12.1802
14.7906
18.8317
26.4667
50.0562
80.9533
597.442
133.431
57.0473
35.1208
26.7447
21.3347
17.4554
14.7229
12.7201
11.2332
10.1029
9.35903
9.16259
9.36123
9.65424
10.1125
10.9944
12.5956
15.2139
19.1313
26.7163
43.1408
93.4691
732.356
124.789
55.334
34.2778
26.2112
20.8867
16.891
14.0145
12.085
10.8047
10.073
9.57009
9.17451
9.16514
9.5891
10.2235
11.2179
12.8448
15.4029
18.8814
25.9733
46.2478
80.7567
834.941
796.067
87.5346
50.4596
33.3695
25.8363
20.5595
16.4489
13.502
11.586
10.3969
9.7516
9.48581
9.39585
9.36726
9.56913
10.2228
11.3285
13.1079
15.7858
19.6743
25.8326
44.0359
109.822
613.852
85.4143
57.4997
33.7802
25.3899
20.0678
15.9398
12.9817
11.1402
10.0357
9.43941
9.20702
9.20407
9.32278
9.61102
10.2217
11.3175
13.1298
16.008
20.4484
27.5529
47.1366
116.712
602.734
78.993
41.2422
29.0515
23.3312
19.0736
15.2927
12.3495
10.5424
9.55994
8.98564
8.7302
8.77876
9.073
9.50762
10.1812
11.2864
13.0888
15.916
20.5416
30.2385
48.9371
123.097
272.854
71.4945
39.4312
28.4833
22.386
18.1493
14.6704
11.7409
9.76773
8.76487
8.25237
7.86872
7.86637
8.31124
9.11473
10.0312
11.2173
13.0754
15.9239
20.5228
30.814
65.9286
167.535
165.765
60.5201
36.6661
26.9965
21.5092
17.5022
14.163
11.4437
9.19866
7.77026
7.17072
6.96462
6.87693
7.30949
8.28063
9.63924
11.1161
13.1083
16.1647
20.7937
31.2924
67.4282
534.79
169.867
61.0259
36.6181
26.2365
20.4129
16.6754
13.645
11.2683
9.30779
7.51537
6.35196
5.95347
6.05374
6.565
7.59341
9.13716
11.0166
13.276
16.5948
21.7539
32.0849
69.8655
569.545
138.709
60.4984
36.7302
25.7312
19.516
15.5336
12.8601
10.9516
9.51534
8.14229
6.59833
5.6556
5.515
6.01455
7.17502
8.85516
10.9256
13.5647
17.179
23.4043
33.6094
73.0401
598.374
125.865
56.4762
33.5651
23.9179
18.3091
14.5964
12.1932
10.6103
9.47833
8.57276
7.54003
6.28349
5.65257
5.84414
6.88074
8.61636
10.8607
13.79
17.5386
24.5464
41.7957
73.137
664.463
131.22
56.7255
32.2955
22.336
16.9166
13.6097
11.5945
10.3008
9.32998
8.57956
8.01404
7.3892
6.59191
6.4258
7.11461
8.66595
10.8326
13.7964
18.1054
24.9525
44.1405
105.367
856.807
122.864
59.4642
34.7458
22.763
16.2694
12.8563
11.0663
10.0244
9.22658
8.42552
7.77456
7.54589
7.52951
7.46396
7.94222
9.17772
11.1693
13.9613
18.0764
25.7702
45.991
116.103
785.286
79.829
51.1582
36.0474
22.8346
15.992
12.4187
10.6817
9.77693
9.16645
8.57964
7.80769
7.30564
7.41409
8.02542
8.77657
9.8871
11.7118
14.4734
18.3253
25.4498
46.5043
119.217
602.14
99.6838
54.2091
29.4621
20.2873
14.4688
11.7704
10.3783
9.57845
9.03567
8.60018
8.18734
7.62103
7.40171
7.9205
9.02256
10.3858
12.2901
15.0958
19.2942
26.0697
45.4279
125.063
608.622
79.2904
41.7414
26.8598
18.8141
13.476
10.8307
9.85259
9.33109
8.87192
8.40886
8.03978
7.92215
7.84431
8.13364
9.09075
10.5933
12.7775
15.855
20.5868
29.9677
48.7318
116.288
282.326
74.6173
40.6514
27.5219
19.0307
13.3222
10.4938
9.3732
8.94603
8.63157
8.20431
7.69304
7.47867
7.76687
8.41123
9.30869
10.7669
13.1277
16.6717
21.995
32.5042
64.0849
144.56
159.062
63.5239
39.9327
27.9922
20.0854
14.6445
11.1139