/*--------------------------------*- C++ -*----------------------------------*\
| =========                 |                                                 |
| \\      /  F ield         | OpenFOAM: The Open Source CFD Toolbox           |
|  \\    /   O peration     | Version:  2312                                  |
|   \\  /    A nd           | Website:  www.openfoam.com                      |
|    \\/     M anipulation  |                                                 |
\*---------------------------------------------------------------------------*/
FoamFile
{
    version     2.0;
    format      ascii;
    arch        "LSB;label=64;scalar=64";
    class       volScalarField;
    location    "180";
    object      p;
}
// * * * * * * * * * * * * * * * * * * * * * * * * * * * * * * * * * * * * * //

dimensions      [0 2 -2 0 0 0 0];

internalField   nonuniform List<scalar> 
404911
(
7.77429
7.77421
7.77486
7.77492
7.77418
7.7744
7.77472
7.77485
7.7749
7.77491
7.77494
7.77426
7.77403
7.77448
7.77465
7.77476
7.77485
7.77478
7.77452
7.77449
7.77496
7.77477
7.77461
7.77541
7.77501
7.77331
7.776
7.77573
7.77557
7.77691
7.77668
7.77636
7.77605
7.77598
7.77712
7.77693
7.77675
7.77777
7.77755
7.77734
7.77713
7.77808
7.77795
7.77777
7.77753
7.77711
7.77826
7.77812
7.77795
7.77775
7.77861
7.77846
7.77831
7.77818
7.77866
7.77858
7.77946
7.7734
7.77373
7.77392
7.77433
7.77438
7.77499
7.7747
7.77452
7.77508
7.7751
7.77491
7.77547
7.77514
7.77599
7.7757
7.77545
7.77656
7.7763
7.77607
7.77577
7.77707
7.77686
7.77751
7.77726
7.77792
7.77778
7.7775
7.77828
7.77811
7.77858
7.77843
7.77829
7.77869
7.77858
7.7795
7.7797
7.77948
7.78035
7.7801
7.7799
7.78079
7.78057
7.78029
7.78119
7.78103
7.78081
7.78123
7.74315
7.74288
7.74272
7.74459
7.74439
7.74373
7.74372
7.74334
7.74307
7.74284
7.74257
7.74531
7.74505
7.74451
7.74415
7.74378
7.74354
7.74325
7.74297
7.74221
7.74637
7.74606
7.74578
7.74549
7.74523
7.74504
7.7447
7.74433
7.74394
7.74369
7.74338
7.74307
7.74281
7.74252
7.74232
7.74211
7.74717
7.74684
7.74653
7.74618
7.74589
7.74563
7.74539
7.74516
7.74492
7.74455
7.74415
7.74388
7.7436
7.74331
7.74242
7.74802
7.74767
7.74738
7.747
7.74664
7.74632
7.74604
7.74579
7.74555
7.74529
7.74504
7.74472
7.74437
7.74406
7.74381
7.74849
7.7483
7.74791
7.74761
7.74722
7.74684
7.74646
7.74617
7.74594
7.74567
7.74543
7.74517
7.74489
7.74458
7.74425
7.744
7.74952
7.74908
7.74869
7.74844
7.74812
7.74779
7.74744
7.74705
7.74664
7.74632
7.74607
7.74581
7.74554
7.74529
7.74504
7.74475
7.74446
7.75064
7.75035
7.75003
7.74975
7.7494
7.74902
7.74873
7.74835
7.74798
7.74758
7.74721
7.74681
7.74647
7.74621
7.74594
7.74567
7.74543
7.74521
7.7512
7.75088
7.75051
7.75027
7.75002
7.74963
7.74928
7.74888
7.74856
7.74821
7.74782
7.74736
7.7469
7.74662
7.74636
7.74609
7.74587
7.74557
7.75209
7.75176
7.75141
7.75105
7.75072
7.75046
7.75021
7.74986
7.74946
7.74907
7.74871
7.74836
7.74799
7.74759
7.74716
7.74681
7.74654
7.7463
7.75264
7.75231
7.75199
7.75164
7.75128
7.75094
7.75067
7.75035
7.75
7.74964
7.74928
7.74893
7.74855
7.74819
7.74786
7.74745
7.74699
7.7534
7.75313
7.7528
7.75249
7.75218
7.75186
7.75152
7.75118
7.7509
7.75059
7.7502
7.74982
7.74947
7.74912
7.74875
7.7484
7.74809
7.75401
7.7538
7.75351
7.75333
7.75305
7.75269
7.75234
7.75202
7.75171
7.75139
7.75112
7.75078
7.75039
7.75001
7.74965
7.74929
7.74892
7.74861
7.75477
7.75438
7.75413
7.7539
7.75363
7.75347
7.75321
7.75288
7.75254
7.7522
7.75193
7.75159
7.7513
7.75095
7.75057
7.7502
7.74981
7.74951
7.75554
7.75526
7.75497
7.75472
7.75434
7.75404
7.75376
7.75352
7.75328
7.75299
7.75268
7.75236
7.75214
7.75182
7.75145
7.75107
7.75074
7.75038
7.75594
7.75569
7.75541
7.75513
7.75484
7.7545
7.75422
7.75392
7.75361
7.75339
7.75309
7.75278
7.7525
7.75229
7.75198
7.75163
7.75128
7.75086
7.7567
7.75645
7.75608
7.75584
7.75558
7.75527
7.75496
7.75469
7.75441
7.75412
7.75379
7.75355
7.75328
7.75299
7.75264
7.75241
7.75202
7.75171
7.75707
7.75688
7.75661
7.75633
7.75602
7.75572
7.75548
7.75512
7.75477
7.75456
7.75431
7.75402
7.75372
7.75344
7.75316
7.75286
7.75256
7.75228
7.75774
7.75746
7.7572
7.75705
7.75681
7.75657
7.75625
7.75594
7.75564
7.7553
7.75491
7.75469
7.75446
7.7542
7.75395
7.75363
7.75333
7.75303
7.75827
7.75796
7.75779
7.75744
7.75724
7.75702
7.75676
7.75647
7.75616
7.75584
7.75551
7.7551
7.75484
7.75458
7.75437
7.75411
7.75381
7.7589
7.75863
7.75842
7.75808
7.75791
7.75764
7.75742
7.75721
7.75697
7.75668
7.75636
7.75601
7.75567
7.75528
7.75502
7.75477
7.75452
7.75426
7.75928
7.75905
7.75876
7.75857
7.75831
7.75809
7.75783
7.75762
7.75741
7.75718
7.7569
7.75659
7.75623
7.75587
7.75552
7.7552
7.75494
7.75471
7.75971
7.75945
7.75923
7.75899
7.75872
7.75846
7.75823
7.75803
7.7578
7.75762
7.75742
7.75713
7.75682
7.75647
7.75612
7.75582
7.75545
7.75515
7.76028
7.76006
7.75985
7.75963
7.7594
7.75917
7.75891
7.75867
7.75836
7.75814
7.75792
7.75774
7.75755
7.75734
7.75703
7.75673
7.75637
7.75602
7.76083
7.76064
7.76042
7.76018
7.76001
7.75979
7.75956
7.75932
7.75909
7.75884
7.75857
7.75832
7.75806
7.75786
7.75765
7.75746
7.75715
7.75691
7.76114
7.76096
7.76078
7.76056
7.76036
7.76016
7.75995
7.75974
7.75948
7.7592
7.75897
7.75874
7.75847
7.75822
7.75801
7.75779
7.75756
7.7573
7.76162
7.76148
7.76129
7.76111
7.76091
7.7607
7.7605
7.76029
7.76009
7.75989
7.75963
7.7594
7.75915
7.7589
7.75867
7.75842
7.7581
7.75801
7.76188
7.76176
7.76162
7.76145
7.76125
7.76103
7.76083
7.76063
7.76042
7.76023
7.76003
7.7598
7.75957
7.75934
7.75908
7.75889
7.75862
7.75836
7.76218
7.76203
7.76189
7.76175
7.76157
7.76137
7.76115
7.76095
7.76075
7.76055
7.76036
7.76015
7.75994
7.75971
7.75948
7.75925
7.759
7.75875
7.76253
7.76227
7.76209
7.76199
7.76187
7.76171
7.76149
7.76128
7.76107
7.76088
7.76069
7.76049
7.76028
7.76007
7.75987
7.75961
7.75936
7.75915
7.76298
7.76292
7.76271
7.76242
7.7622
7.76212
7.762
7.76186
7.76166
7.76145
7.76121
7.76102
7.76082
7.76062
7.76042
7.7602
7.75999
7.75975
7.76348
7.76319
7.76304
7.76285
7.76264
7.76244
7.76228
7.76215
7.76201
7.76182
7.76162
7.76137
7.76117
7.76097
7.76077
7.76055
7.76035
7.76014
7.76382
7.76363
7.76343
7.76323
7.76301
7.76278
7.76258
7.76243
7.76228
7.76214
7.76197
7.76177
7.76154
7.76133
7.76113
7.76094
7.76073
7.76049
7.76408
7.76397
7.76378
7.76359
7.76341
7.7632
7.76296
7.76271
7.76256
7.76242
7.76227
7.7621
7.76191
7.7617
7.76149
7.76128
7.76109
7.76471
7.76443
7.7643
7.76413
7.76394
7.76375
7.7636
7.76339
7.76315
7.76287
7.7627
7.76256
7.76241
7.76223
7.76205
7.76185
7.76165
7.76144
7.76498
7.76484
7.76464
7.76448
7.7643
7.7641
7.76392
7.76377
7.7636
7.76337
7.76305
7.76286
7.76271
7.76256
7.76238
7.76219
7.762
7.76182
7.7653
7.76515
7.76495
7.7648
7.76465
7.76447
7.76429
7.76411
7.76393
7.76377
7.76358
7.76335
7.76307
7.7629
7.76273
7.76255
7.76236
7.76216
7.76585
7.76562
7.76543
7.76527
7.76509
7.76493
7.7648
7.76464
7.76446
7.76427
7.7641
7.76391
7.76373
7.76351
7.76328
7.76309
7.76291
7.76271
7.76611
7.76592
7.76577
7.76558
7.76541
7.76522
7.76506
7.76493
7.76479
7.7646
7.76442
7.76424
7.76404
7.76387
7.76368
7.76348
7.76328
7.76308
7.76644
7.76625
7.76607
7.7659
7.76573
7.76554
7.76535
7.76518
7.76505
7.76494
7.76479
7.76457
7.7644
7.76419
7.76401
7.76384
7.76365
7.76345
7.76667
7.76665
7.76642
7.76624
7.76607
7.76588
7.76569
7.7655
7.76532
7.76516
7.76505
7.76493
7.76472
7.76455
7.76435
7.76418
7.764
7.76379
7.76712
7.76698
7.76679
7.76659
7.76639
7.76623
7.76605
7.76585
7.76566
7.76549
7.7653
7.76516
7.76504
7.76485
7.7647
7.76453
7.76434
7.76767
7.76743
7.7673
7.76709
7.76694
7.76675
7.76655
7.76638
7.7662
7.76601
7.76583
7.76567
7.76547
7.76532
7.76517
7.76502
7.76485
7.7647
7.7679
7.76775
7.7676
7.76744
7.76726
7.7671
7.76691
7.7667
7.76652
7.76635
7.76618
7.766
7.76584
7.76564
7.76547
7.76533
7.76517
7.765
7.76824
7.76808
7.76792
7.76776
7.76759
7.76743
7.76727
7.76711
7.76689
7.7667
7.76652
7.76635
7.76617
7.76599
7.76583
7.76565
7.76549
7.76532
7.76851
7.7684
7.76827
7.7681
7.76793
7.76775
7.7676
7.76744
7.76729
7.76711
7.76693
7.76671
7.76653
7.76635
7.76616
7.76598
7.76581
7.76563
7.76885
7.76867
7.76857
7.76845
7.76829
7.76811
7.76793
7.76777
7.76761
7.76746
7.7673
7.76711
7.76691
7.76673
7.76653
7.76637
7.76616
7.76598
7.7692
7.76903
7.76888
7.76875
7.76862
7.76847
7.76828
7.7681
7.76794
7.76778
7.76762
7.76745
7.76727
7.76708
7.7669
7.76671
7.76653
7.76633
7.76951
7.76937
7.7692
7.76904
7.7689
7.76877
7.76862
7.76844
7.76825
7.76809
7.76794
7.76778
7.76761
7.76743
7.76725
7.76708
7.76688
7.76668
7.76984
7.76965
7.76955
7.76936
7.76918
7.76902
7.7689
7.76876
7.76858
7.76839
7.76821
7.76807
7.76793
7.76776
7.76759
7.76741
7.76723
7.76708
7.77032
7.77015
7.76997
7.76985
7.76971
7.76952
7.76934
7.76915
7.76901
7.7689
7.76876
7.76858
7.76842
7.76822
7.76807
7.76791
7.76774
7.76757
7.7674
7.7706
7.77048
7.77033
7.77013
7.77
7.76987
7.7697
7.76954
7.76935
7.76919
7.76904
7.76889
7.76871
7.76855
7.76839
7.76823
7.76807
7.76792
7.7708
7.77062
7.77046
7.7703
7.77015
7.77001
7.76989
7.76973
7.76951
7.76934
7.76919
7.769
7.76886
7.7687
7.76854
7.76839
7.76823
7.77129
7.77111
7.77096
7.77077
7.7706
7.77044
7.77029
7.77015
7.77004
7.76987
7.76967
7.76949
7.76932
7.76914
7.769
7.76884
7.76869
7.76852
7.77163
7.77146
7.77129
7.77112
7.77094
7.77077
7.7706
7.77043
7.77028
7.77017
7.77001
7.76981
7.76965
7.76948
7.76931
7.76915
7.76899
7.76883
7.7719
7.7718
7.77163
7.77146
7.77128
7.77111
7.77094
7.77077
7.77057
7.7704
7.77028
7.77015
7.76996
7.7698
7.76963
7.76949
7.7693
7.76916
7.77212
7.77196
7.7718
7.77163
7.77145
7.77128
7.77113
7.77098
7.77077
7.77059
7.7704
7.77028
7.77013
7.76996
7.7698
7.76963
7.76946
7.77246
7.77228
7.77212
7.77197
7.77179
7.77161
7.77144
7.7713
7.77115
7.77091
7.77074
7.77056
7.77042
7.77027
7.77011
7.76995
7.76979
7.77303
7.77277
7.77264
7.77248
7.77229
7.77213
7.77196
7.77177
7.77158
7.77144
7.77129
7.77108
7.7709
7.77074
7.77059
7.77043
7.77026
7.77009
7.77339
7.77323
7.77299
7.77283
7.77266
7.77246
7.77229
7.77212
7.77194
7.77177
7.77161
7.77145
7.77128
7.77109
7.77092
7.77074
7.7706
7.77373
7.77357
7.77337
7.7732
7.77303
7.77282
7.77261
7.77243
7.77228
7.77211
7.77194
7.7718
7.77161
7.77144
7.77126
7.77108
7.77091
7.77423
7.77406
7.77388
7.77372
7.77354
7.77336
7.77322
7.77301
7.77276
7.77257
7.7724
7.77224
7.77209
7.77194
7.77177
7.7716
7.77143
7.77125
7.77455
7.77437
7.77417
7.77403
7.77386
7.77367
7.77358
7.77347
7.77319
7.77293
7.77276
7.77258
7.77236
7.7722
7.77207
7.77192
7.77177
7.77159
7.77481
7.77464
7.77447
7.77433
7.77416
7.77399
7.77379
7.77375
7.77372
7.77336
7.77315
7.77295
7.77274
7.77254
7.77234
7.7722
7.77206
7.77193
7.77518
7.77502
7.77479
7.77463
7.77446
7.77427
7.77414
7.77395
7.77376
7.77364
7.77349
7.77332
7.77311
7.77291
7.7727
7.7725
7.77236
7.77221
7.77586
7.77565
7.77537
7.77521
7.77499
7.77478
7.77457
7.77438
7.77432
7.77423
7.77402
7.77385
7.77369
7.7735
7.77333
7.77314
7.77292
7.7727
7.77253
7.77617
7.77601
7.77579
7.77559
7.77538
7.77517
7.77496
7.77477
7.77458
7.77449
7.77434
7.7742
7.77403
7.77388
7.7737
7.77352
7.77334
7.77311
7.77292
7.77619
7.77618
7.77598
7.77577
7.77553
7.77528
7.77512
7.77497
7.77484
7.77469
7.77454
7.77438
7.77421
7.77405
7.77388
7.77371
7.77351
7.77331
7.77676
7.77651
7.77635
7.77616
7.77591
7.77561
7.77537
7.77524
7.77516
7.77502
7.7749
7.77471
7.77456
7.7744
7.77422
7.77405
7.77387
7.77728
7.777
7.77676
7.77653
7.77631
7.77605
7.77576
7.77554
7.77543
7.77535
7.77519
7.77507
7.77489
7.77473
7.77456
7.7744
7.77421
7.7778
7.7775
7.77727
7.777
7.77678
7.77654
7.77629
7.77604
7.77586
7.77569
7.77555
7.7754
7.77524
7.77507
7.77492
7.77474
7.77457
7.77837
7.77823
7.77801
7.77777
7.77753
7.77726
7.77703
7.7768
7.77657
7.77636
7.77615
7.77594
7.77575
7.77558
7.77541
7.77524
7.77508
7.77491
7.77874
7.77862
7.7784
7.7782
7.77799
7.77775
7.77748
7.77728
7.77704
7.7768
7.77659
7.77636
7.77615
7.77597
7.77578
7.7756
7.77541
7.77896
7.77884
7.77871
7.77859
7.77839
7.77817
7.77791
7.7777
7.77748
7.77724
7.777
7.77678
7.77657
7.77637
7.77617
7.77596
7.77577
7.77921
7.77911
7.77895
7.77882
7.77868
7.77851
7.77829
7.77811
7.77792
7.7777
7.77743
7.7772
7.77698
7.77676
7.77655
7.77634
7.77615
7.77961
7.77937
7.77921
7.77903
7.77892
7.77878
7.7786
7.77844
7.77825
7.77802
7.77783
7.77762
7.77739
7.77717
7.77698
7.77675
7.77654
7.78007
7.77986
7.77958
7.77936
7.77919
7.77908
7.77891
7.77872
7.77855
7.77835
7.77816
7.77797
7.77776
7.77756
7.77735
7.77713
7.77693
7.78063
7.78029
7.78004
7.77979
7.77959
7.7794
7.77924
7.77906
7.77886
7.77868
7.77847
7.77828
7.77811
7.77791
7.77772
7.77751
7.77729
7.78068
7.78054
7.78028
7.78003
7.77983
7.77961
7.7794
7.77922
7.779
7.77881
7.7786
7.77843
7.77825
7.77806
7.77786
7.77765
7.78103
7.781
7.78079
7.7805
7.78024
7.78005
7.77984
7.77962
7.77938
7.77916
7.77897
7.77877
7.77859
7.7784
7.77821
7.78202
7.7817
7.78139
7.7812
7.78102
7.78077
7.78051
7.78031
7.7801
7.77982
7.77955
7.7793
7.77914
7.77895
7.77874
7.77856
7.78277
7.78245
7.78204
7.78171
7.78147
7.78126
7.78102
7.7808
7.78052
7.7803
7.78004
7.77974
7.77943
7.77927
7.77911
7.7789
7.78358
7.78318
7.78282
7.78242
7.78209
7.78185
7.78165
7.78137
7.7811
7.78082
7.78054
7.78033
7.78001
7.77968
7.77949
7.77926
7.78481
7.78441
7.78398
7.7836
7.78322
7.78284
7.78249
7.78222
7.782
7.7817
7.78142
7.78109
7.78071
7.78055
7.78028
7.77998
7.78541
7.78507
7.78468
7.78432
7.78396
7.78358
7.78321
7.78287
7.78258
7.78236
7.78215
7.78183
7.78146
7.78109
7.78075
7.78061
7.78622
7.78579
7.78533
7.785
7.78464
7.78431
7.78393
7.78359
7.78326
7.78301
7.78276
7.7826
7.78229
7.7819
7.7815
7.78116
7.78704
7.78659
7.78608
7.78558
7.78526
7.78495
7.78459
7.78424
7.78391
7.78361
7.78339
7.78312
7.78287
7.78256
7.78222
7.78187
7.78766
7.78721
7.78688
7.78648
7.78601
7.7856
7.78529
7.78497
7.78462
7.78425
7.78394
7.78364
7.78342
7.78315
7.78279
7.78256
7.7882
7.78788
7.78751
7.78714
7.78674
7.78634
7.786
7.78564
7.78534
7.78496
7.78458
7.78425
7.784
7.7837
7.7835
7.78871
7.7885
7.78815
7.78779
7.78745
7.78702
7.78663
7.78631
7.78599
7.78566
7.78533
7.78495
7.78455
7.78431
7.78402
7.78374
7.7893
7.78901
7.78874
7.78843
7.7881
7.78774
7.78736
7.78691
7.78661
7.78629
7.78592
7.7856
7.78525
7.7849
7.78459
7.78437
7.78985
7.78957
7.7893
7.789
7.78865
7.78828
7.78797
7.78765
7.78728
7.78694
7.7866
7.78624
7.78592
7.78555
7.78524
7.79003
7.78979
7.78956
7.78925
7.78889
7.78854
7.78817
7.78788
7.78758
7.78729
7.78693
7.7866
7.78622
7.78583
7.79063
7.79036
7.79007
7.78977
7.7895
7.78911
7.78881
7.78844
7.78814
7.78785
7.78756
7.78719
7.78691
7.79167
7.79131
7.79096
7.79067
7.79033
7.78997
7.78967
7.78935
7.78904
7.7887
7.78837
7.78804
7.78778
7.78745
7.79234
7.79195
7.79158
7.79124
7.7909
7.79057
7.79024
7.78993
7.7896
7.78932
7.78895
7.7886
7.78831
7.78803
7.79293
7.7926
7.79222
7.79179
7.79143
7.7911
7.79076
7.79044
7.79011
7.78989
7.78955
7.78919
7.78889
7.78862
7.79339
7.79314
7.79285
7.7924
7.79192
7.79157
7.79129
7.791
7.79066
7.79034
7.7901
7.78967
7.78939
7.78918
7.79386
7.79356
7.79331
7.79299
7.79253
7.79203
7.79168
7.79148
7.79127
7.79093
7.79061
7.79036
7.78995
7.78957
7.79435
7.79407
7.7937
7.79345
7.79311
7.79267
7.79211
7.79171
7.7915
7.7913
7.79109
7.79086
7.79066
7.79354
7.79323
7.79279
7.79229
7.79179
7.79156
7.79129
7.791
7.79086
7.79363
7.79336
7.79299
7.79251
7.79203
7.79168
7.79143
7.79114
7.79423
7.79391
7.79349
7.79328
7.7928
7.79223
7.79203
7.79521
7.79475
7.79424
7.79379
7.79351
7.79302
7.79246
7.79494
7.7946
7.7942
7.79378
7.79326
7.79612
7.79564
7.79502
7.79486
7.79445
7.79404
7.7976
7.79733
7.79687
7.79651
7.795
7.79819
7.798
7.79783
7.79765
7.79738
7.79527
7.79907
7.79803
7.79774
7.79738
7.79678
7.79959
7.79912
7.79831
7.37567
7.25269
7.08223
7.65396
7.63053
7.59828
7.56503
7.51022
7.4314
7.32467
7.20073
6.78916
7.7058
7.69936
7.6899
7.67971
7.66368
7.64577
7.62199
7.59024
7.55019
7.49803
7.43204
7.33266
7.22285
7.10545
7.03561
7.71951
7.71679
7.71382
7.70957
7.70453
7.69702
7.68719
7.67544
7.66061
7.6408
7.61705
7.59656
7.55989
7.50671
7.43991
7.38023
7.30347
7.2491
7.16689
6.98395
6.45766
5.69728
7.72653
7.72493
7.72336
7.7215
7.71929
7.71649
7.71274
7.70799
7.70228
7.69516
7.68583
7.67454
7.66031
7.64661
7.62664
7.59957
7.57451
7.55569
7.52632
7.48545
7.43284
7.34071
7.16445
7.73115
7.73002
7.72902
7.72761
7.72621
7.72459
7.72302
7.72126
7.71879
7.71576
7.7119
7.70794
7.70315
7.69728
7.69043
7.68113
7.67107
7.65836
7.64789
7.6469
7.63603
7.61818
7.60407
7.58195
7.55629
7.73302
7.73226
7.73169
7.73085
7.72975
7.72818
7.72692
7.72569
7.72437
7.72322
7.72148
7.71893
7.71568
7.71262
7.71205
7.70966
7.70631
7.69968
7.69169
7.68794
7.68508
7.68533
7.68492
7.6853
7.6945
7.73486
7.73421
7.7334
7.73285
7.73221
7.73153
7.73079
7.72967
7.72841
7.7274
7.72637
7.72494
7.72383
7.72216
7.71935
7.7194
7.71967
7.71844
7.71445
7.71116
7.70871
7.70655
7.71351
7.7129
7.71547
7.73637
7.73599
7.73531
7.73466
7.73396
7.73344
7.73282
7.7322
7.7316
7.73076
7.72989
7.7291
7.72827
7.72741
7.72695
7.72639
7.72475
7.72498
7.72613
7.72633
7.72588
7.72586
7.7251
7.72624
7.72646
7.73858
7.73778
7.73705
7.73678
7.73627
7.73571
7.73512
7.7345
7.73402
7.73352
7.73304
7.7325
7.73202
7.73167
7.73131
7.73095
7.7305
7.73011
7.72968
7.72968
7.72975
7.73301
7.73256
7.73279
7.7334
7.73341
7.74023
7.73979
7.73943
7.73884
7.73823
7.73769
7.73715
7.73661
7.73609
7.7355
7.73496
7.73454
7.7341
7.73385
7.7334
7.73305
7.73293
7.73287
7.7327
7.73219
7.73196
7.73207
7.7328
7.73435
7.73498
7.73574
7.73725
7.74082
7.74049
7.74003
7.73965
7.7392
7.73863
7.73797
7.73751
7.73698
7.73641
7.73589
7.73542
7.73508
7.73472
7.73441
7.73412
7.73394
7.73381
7.73368
7.73361
7.7332
7.73278
7.73309
7.73413
7.73584
7.74204
7.74169
7.74144
7.74114
7.74078
7.74036
7.73999
7.73952
7.739
7.73847
7.73797
7.73744
7.7369
7.73638
7.73595
7.7356
7.73528
7.73501
7.7348
7.73472
7.73466
7.73456
7.73425
7.73358
7.73382
7.74237
7.74229
7.74203
7.74176
7.74144
7.74105
7.74065
7.74023
7.73977
7.73934
7.7389
7.73848
7.73787
7.73738
7.7369
7.73643
7.73609
7.73582
7.73561
7.73544
7.73541
7.73524
7.73503
7.73476
7.7436
7.74351
7.743
7.74265
7.74245
7.74225
7.74198
7.7417
7.7413
7.7409
7.7405
7.74007
7.73962
7.73911
7.73879
7.73825
7.73781
7.7373
7.7369
7.73657
7.7363
7.73606
7.73592
7.7358
7.73563
7.74474
7.74425
7.74389
7.7436
7.74321
7.74294
7.74271
7.74245
7.74218
7.74191
7.74151
7.74115
7.74077
7.74035
7.73995
7.73956
7.73906
7.7386
7.73811
7.73764
7.73726
7.7369
7.73653
7.73631
7.7362
7.74535
7.74508
7.74476
7.74447
7.74413
7.74376
7.74344
7.74315
7.7429
7.74262
7.74232
7.74203
7.7417
7.74137
7.74099
7.74063
7.74016
7.73977
7.73933
7.73889
7.73844
7.73801
7.7376
7.73722
7.73684
7.74642
7.74592
7.74583
7.74547
7.74521
7.74493
7.74461
7.74433
7.74394
7.74364
7.74337
7.7431
7.74279
7.74247
7.7422
7.74193
7.74161
7.74121
7.74095
7.74051
7.73995
7.73957
7.73914
7.73873
7.73836
7.7379
7.74716
7.74698
7.74658
7.7462
7.74593
7.7456
7.74533
7.74508
7.74482
7.7445
7.74415
7.74382
7.74356
7.74327
7.74293
7.74261
7.74237
7.74213
7.74189
7.74154
7.74122
7.74085
7.74033
7.73985
7.73938
7.73892
7.74833
7.74766
7.74725
7.74698
7.7467
7.74635
7.74602
7.74574
7.74548
7.74525
7.74501
7.74471
7.74437
7.74402
7.74374
7.74343
7.74311
7.74281
7.74255
7.7423
7.74206
7.74175
7.74139
7.74107
7.74054
7.73996
7.73959
7.74881
7.74868
7.74825
7.74785
7.74752
7.74718
7.74684
7.74649
7.74617
7.74589
7.74563
7.7454
7.74517
7.74491
7.74459
7.74424
7.74392
7.74363
7.74336
7.74308
7.74273
7.74246
7.74219
7.74187
7.74156
7.7412
7.74078
7.74928
7.74902
7.74864
7.74835
7.74801
7.74769
7.74737
7.747
7.74663
7.7463
7.74603
7.74578
7.74555
7.74531
7.74506
7.74476
7.74443
7.74409
7.7438
7.74357
7.74328
7.74296
7.74264
7.74231
7.74199
7.74167
7.75029
7.7498
7.74951
7.74916
7.74885
7.74851
7.7482
7.7479
7.74755
7.74717
7.74678
7.74645
7.74616
7.74593
7.74569
7.74544
7.74519
7.74492
7.7446
7.74426
7.74397
7.74366
7.74339
7.7431
7.74278
7.74248
7.75116
7.75073
7.75048
7.75006
7.74973
7.7494
7.74906
7.74873
7.74843
7.74811
7.74774
7.74734
7.74694
7.74658
7.7463
7.74606
7.74581
7.74556
7.74531
7.74505
7.74476
7.74445
7.74413
7.74382
7.74355
7.74322
7.75163
7.75132
7.75097
7.75062
7.7503
7.74999
7.74963
7.74928
7.74897
7.74864
7.74831
7.74793
7.74751
7.74709
7.74673
7.74644
7.74618
7.74593
7.74567
7.74543
7.74519
7.74492
7.74463
7.74432
7.74402
7.75246
7.75226
7.75183
7.75154
7.75118
7.75084
7.75054
7.75023
7.74987
7.74953
7.74918
7.74884
7.74849
7.74813
7.74772
7.74728
7.74689
7.74658
7.74633
7.74607
7.74583
7.74558
7.74533
7.74508
7.74481
7.74453
7.75329
7.75306
7.75276
7.75244
7.75209
7.75175
7.75142
7.75107
7.75076
7.75045
7.75011
7.74975
7.74938
7.74903
7.74869
7.74833
7.74796
7.74755
7.74714
7.7468
7.74653
7.74628
7.74601
7.74578
7.74554
7.74531
7.75408
7.75372
7.75349
7.7532
7.75296
7.75264
7.75231
7.75197
7.75165
7.7513
7.75096
7.75066
7.75032
7.74995
7.74958
7.74923
7.74891
7.74855
7.74819
7.74784
7.74745
7.74709
7.74679
7.74648
7.74624
7.74598
7.74567
7.75432
7.75415
7.75389
7.75365
7.75339
7.75313
7.75282
7.7525
7.75218
7.75185
7.75151
7.75118
7.75088
7.75052
7.75013
7.74975
7.74942
7.74911
7.74877
7.74841
7.74809
7.74771
7.74737
7.74705
7.74675
7.74648
7.75519
7.75491
7.75456
7.75429
7.75403
7.7538
7.75355
7.75328
7.75298
7.75267
7.75235
7.75202
7.75172
7.7514
7.75107
7.75069
7.75029
7.74991
7.74958
7.74926
7.74893
7.74861
7.74829
7.74794
7.74754
7.74727
7.75554
7.75536
7.75506
7.75477
7.75448
7.75421
7.75395
7.75368
7.75339
7.75309
7.75281
7.7525
7.75217
7.75189
7.75158
7.75123
7.75084
7.75045
7.75011
7.74978
7.74945
7.74912
7.74882
7.74848
7.74815
7.75628
7.75604
7.75579
7.7555
7.75523
7.75496
7.75467
7.75438
7.75408
7.7538
7.75348
7.75319
7.75293
7.75265
7.75235
7.75208
7.75177
7.7514
7.75103
7.75067
7.75033
7.74998
7.74963
7.74932
7.74896
7.75673
7.7565
7.75622
7.75594
7.75568
7.7554
7.75513
7.75483
7.75452
7.75422
7.75393
7.75363
7.75336
7.7531
7.75281
7.75251
7.75226
7.75196
7.75162
7.75126
7.75089
7.75051
7.75018
7.74985
7.74954
7.75741
7.75718
7.75691
7.75667
7.75641
7.75612
7.75584
7.75558
7.75529
7.75498
7.75467
7.75438
7.7541
7.75381
7.75355
7.75329
7.75297
7.75267
7.75239
7.75206
7.75174
7.75142
7.7511
7.75073
7.75035
7.75789
7.75761
7.75734
7.7571
7.75686
7.75658
7.7563
7.75603
7.75576
7.75547
7.75513
7.75481
7.75455
7.75429
7.754
7.75374
7.75348
7.75316
7.75285
7.75255
7.75224
7.75189
7.75158
7.75125
7.75091
7.75855
7.75834
7.75806
7.7578
7.75754
7.7573
7.75704
7.75677
7.75649
7.75622
7.75595
7.75565
7.75531
7.75497
7.7547
7.75445
7.75418
7.75391
7.75365
7.75336
7.75305
7.75275
7.75243
7.75209
7.75178
7.759
7.75871
7.75849
7.75823
7.75799
7.75774
7.7575
7.75724
7.75697
7.75669
7.75644
7.75615
7.75582
7.75547
7.75513
7.75485
7.7546
7.75435
7.7541
7.75383
7.75354
7.75323
7.75293
7.75256
7.75966
7.75935
7.75914
7.75888
7.75864
7.7584
7.75817
7.75794
7.75769
7.75746
7.75719
7.75691
7.75664
7.75635
7.756
7.75564
7.7553
7.75502
7.75476
7.75451
7.75426
7.75399
7.75371
7.75339
7.75313
7.75998
7.75977
7.75954
7.7593
7.75905
7.75881
7.75857
7.75834
7.7581
7.75787
7.75766
7.75741
7.75713
7.75685
7.75657
7.75621
7.75585
7.75551
7.75522
7.75496
7.7547
7.75444
7.75417
7.75387
7.76057
7.76032
7.76014
7.75991
7.75969
7.75946
7.75922
7.75899
7.75875
7.7585
7.75825
7.75803
7.75783
7.75761
7.75736
7.75707
7.75678
7.75645
7.7561
7.75577
7.75545
7.75516
7.7549
7.75463
7.75435
7.76088
7.76068
7.76049
7.76027
7.76006
7.75985
7.75962
7.7594
7.75916
7.75891
7.75866
7.7584
7.75817
7.75797
7.75777
7.75755
7.75729
7.757
7.75669
7.75636
7.75601
7.7557
7.75541
7.75511
7.76136
7.76118
7.761
7.76081
7.76062
7.76042
7.76021
7.76001
7.75979
7.75956
7.75932
7.75907
7.75881
7.75856
7.75832
7.75811
7.7579
7.75769
7.75746
7.75719
7.75689
7.75657
7.75624
7.75595
7.75564
7.76162
7.76148
7.76131
7.76113
7.76096
7.76076
7.76056
7.76037
7.76016
7.75995
7.75972
7.75948
7.75923
7.75898
7.75872
7.75847
7.75825
7.75804
7.75783
7.7576
7.75734
7.75706
7.75675
7.75645
7.76192
7.76176
7.76161
7.76145
7.76128
7.7611
7.7609
7.7607
7.76051
7.7603
7.76009
7.75987
7.75962
7.75939
7.75915
7.7589
7.75864
7.75841
7.75819
7.75798
7.75775
7.75749
7.75724
7.75698
7.7624
7.76222
7.76207
7.7619
7.76176
7.7616
7.76142
7.76123
7.76103
7.76084
7.76063
7.76043
7.76023
7.76
7.75977
7.75954
7.75931
7.75906
7.75881
7.75858
7.75836
7.75814
7.75791
7.75765
7.75738
7.76275
7.76255
7.76236
7.76218
7.76203
7.7619
7.76174
7.76156
7.76137
7.76116
7.76096
7.76076
7.76056
7.76035
7.76014
7.75992
7.75969
7.75945
7.75921
7.75897
7.75874
7.75851
7.7583
7.7581
7.76314
7.76288
7.76271
7.76251
7.7623
7.76215
7.76202
7.76187
7.7617
7.7615
7.7613
7.76108
7.76088
7.76068
7.76048
7.76027
7.76005
7.75983
7.7596
7.75936
7.75913
7.7589
7.75868
7.75844
7.76346
7.76326
7.76307
7.76288
7.76267
7.76246
7.76228
7.76214
7.762
7.76184
7.76165
7.76145
7.76122
7.76101
7.76082
7.76061
7.76041
7.76019
7.75997
7.75975
7.75952
7.75929
7.75908
7.76398
7.76382
7.76364
7.76344
7.76324
7.76304
7.76284
7.76263
7.76244
7.76228
7.76214
7.76198
7.7618
7.7616
7.76138
7.76117
7.76097
7.76076
7.76056
7.76034
7.76012
7.7599
7.75968
7.75942
7.76433
7.76415
7.76396
7.76378
7.7636
7.76341
7.76322
7.76301
7.76279
7.76258
7.76242
7.76228
7.76213
7.76196
7.76176
7.76153
7.76132
7.76112
7.76091
7.76071
7.7605
7.76028
7.76006
7.75981
7.7647
7.76448
7.76431
7.76412
7.76393
7.76376
7.76358
7.7634
7.76319
7.76296
7.76273
7.76256
7.76241
7.76226
7.76209
7.7619
7.76169
7.76148
7.76127
7.76107
7.76086
7.76065
7.76039
7.76524
7.765
7.76486
7.76466
7.76447
7.76429
7.7641
7.76392
7.76375
7.76357
7.76337
7.76314
7.76289
7.7627
7.76255
7.7624
7.76223
7.76204
7.76185
7.76164
7.76144
7.76123
7.76102
7.76077
7.76558
7.76535
7.76516
7.76499
7.76482
7.76464
7.76446
7.76428
7.76409
7.76392
7.76375
7.76355
7.76332
7.76308
7.76287
7.7627
7.76255
7.76238
7.76219
7.762
7.7618
7.7616
7.76139
7.76121
7.76577
7.76566
7.76549
7.76531
7.76513
7.76496
7.7648
7.76463
7.76445
7.76427
7.7641
7.76393
7.76374
7.76352
7.7633
7.76308
7.7629
7.76273
7.76254
7.76236
7.76216
7.76196
7.76176
7.76154
7.76614
7.76595
7.76579
7.76562
7.76545
7.76527
7.7651
7.76494
7.76478
7.76461
7.76444
7.76426
7.76409
7.7639
7.76369
7.76349
7.76329
7.76309
7.76291
7.76272
7.76252
7.76234
7.76211
7.76659
7.76647
7.76627
7.76611
7.76593
7.76576
7.76559
7.76541
7.76523
7.76507
7.76492
7.76476
7.76459
7.76442
7.76424
7.76405
7.76386
7.76367
7.76349
7.76328
7.76309
7.76289
7.76269
7.76249
7.767
7.76674
7.76662
7.76644
7.76626
7.76608
7.76591
7.76573
7.76555
7.76536
7.76519
7.76505
7.76491
7.76476
7.76457
7.76439
7.7642
7.76402
7.76384
7.76366
7.76346
7.76325
7.76305
7.76285
7.76727
7.76714
7.76694
7.76677
7.7666
7.76642
7.76624
7.76606
7.76589
7.7657
7.76551
7.76533
7.76518
7.76505
7.7649
7.76472
7.76455
7.76437
7.76419
7.76401
7.76382
7.76364
7.76343
7.76762
7.76744
7.76727
7.7671
7.76695
7.76677
7.76658
7.76639
7.76622
7.76605
7.76586
7.76567
7.76549
7.76532
7.76518
7.76504
7.76487
7.7647
7.76453
7.76436
7.76419
7.76399
7.7638
7.76786
7.76774
7.76759
7.76743
7.76726
7.7671
7.76693
7.76674
7.76654
7.76636
7.76619
7.76601
7.76584
7.76567
7.7655
7.76534
7.76519
7.76503
7.76486
7.76469
7.76452
7.76434
7.76421
7.76817
7.76803
7.7679
7.76774
7.76759
7.76743
7.76727
7.7671
7.76691
7.7667
7.76651
7.76634
7.76617
7.766
7.76584
7.76566
7.7655
7.76534
7.76518
7.76501
7.76484
7.76468
7.76456
7.76851
7.76835
7.7682
7.76805
7.7679
7.76774
7.76759
7.76744
7.76728
7.7671
7.7669
7.76669
7.76651
7.76634
7.76617
7.766
7.76583
7.76566
7.7655
7.76533
7.76516
7.765
7.76482
7.76883
7.76868
7.76852
7.76838
7.76823
7.76807
7.76791
7.76775
7.7676
7.76745
7.76728
7.7671
7.7669
7.7667
7.76652
7.76634
7.76616
7.76598
7.76581
7.76565
7.76549
7.76532
7.76516
7.76927
7.76912
7.76897
7.76885
7.7687
7.76855
7.76841
7.76825
7.76808
7.76791
7.76776
7.76761
7.76745
7.76728
7.76709
7.76689
7.76671
7.76652
7.76634
7.76615
7.76598
7.76581
7.76565
7.76965
7.76946
7.76931
7.76915
7.76901
7.76888
7.76873
7.76859
7.76843
7.76825
7.76807
7.76792
7.76777
7.76761
7.76744
7.76726
7.76707
7.76689
7.7667
7.76651
7.76633
7.76616
7.766
7.76993
7.76979
7.76964
7.76949
7.76933
7.76919
7.76904
7.76888
7.76875
7.76859
7.76841
7.76822
7.76805
7.76791
7.76775
7.76759
7.76742
7.76724
7.76706
7.76688
7.76669
7.7665
7.76633
7.77031
7.77012
7.76996
7.76981
7.76966
7.76951
7.76936
7.76919
7.76902
7.76888
7.76874
7.76856
7.76837
7.7682
7.76804
7.76789
7.76774
7.76757
7.7674
7.76723
7.76705
7.76686
7.76668
7.77056
7.77046
7.7703
7.77013
7.76997
7.76983
7.76969
7.76953
7.76935
7.76916
7.76901
7.76888
7.76872
7.76854
7.76837
7.7682
7.76805
7.7679
7.76774
7.76758
7.7674
7.76723
7.76706
7.77089
7.77075
7.77061
7.77045
7.77028
7.77012
7.76999
7.76986
7.76972
7.76954
7.76935
7.76918
7.76904
7.76887
7.7687
7.76853
7.76837
7.76822
7.76806
7.76791
7.76775
7.76758
7.7674
7.77131
7.77108
7.77093
7.77076
7.7706
7.77043
7.77028
7.77014
7.77001
7.76989
7.76972
7.76952
7.76935
7.76919
7.76901
7.76885
7.76869
7.76854
7.76838
7.76822
7.76807
7.76791
7.76774
7.77158
7.77145
7.77126
7.77109
7.77093
7.77075
7.77058
7.77043
7.77028
7.77015
7.77003
7.76987
7.76968
7.7695
7.76933
7.76916
7.769
7.76884
7.76869
7.76854
7.76838
7.76822
7.76805
7.7719
7.77177
7.77161
7.77143
7.77126
7.77109
7.77092
7.77075
7.77058
7.77042
7.77028
7.77015
7.77
7.76983
7.76966
7.76948
7.76932
7.76915
7.76899
7.76884
7.76869
7.76853
7.76835
7.77229
7.77211
7.77194
7.77178
7.7716
7.77143
7.77126
7.7711
7.77093
7.77076
7.77058
7.77041
7.77027
7.77013
7.76997
7.76981
7.76964
7.76948
7.76931
7.76915
7.769
7.76884
7.77293
7.77265
7.77248
7.7723
7.77211
7.77194
7.77177
7.7716
7.77143
7.77127
7.77112
7.77095
7.77075
7.77057
7.77041
7.77027
7.77012
7.76996
7.76979
7.76963
7.76946
7.7693
7.76915
7.77322
7.77306
7.77284
7.77264
7.77246
7.77228
7.77211
7.77195
7.77177
7.7716
7.77144
7.77129
7.77112
7.77092
7.77074
7.77057
7.77042
7.77028
7.77012
7.76995
7.76978
7.76962
7.76944
7.77355
7.77341
7.77324
7.77303
7.77281
7.77264
7.77247
7.77228
7.77211
7.77194
7.77176
7.77159
7.77144
7.77127
7.77109
7.77091
7.77074
7.77058
7.77043
7.77027
7.7701
7.76994
7.76979
7.77391
7.77374
7.77359
7.77342
7.77323
7.77301
7.77283
7.77265
7.77246
7.77227
7.7721
7.77193
7.77176
7.77161
7.77144
7.77126
7.77108
7.77091
7.77075
7.77059
7.77043
7.77024
7.77008
7.77422
7.77408
7.77391
7.77375
7.77358
7.77339
7.7732
7.77302
7.77283
7.77262
7.77243