# vtk DataFile Version 2.0
track0
ASCII
DATASET POLYDATA
POINTS 12050 float
-0.0205 0.001 1e-05
-0.02052 0.000999985 1e-05
-0.02054 0.000999974 1e-05
-0.02056 0.000999965 1e-05
-0.02058 0.000999959 1e-05
-0.0206 0.000999956 1e-05
-0.0205 0.00367778 1e-05
-0.02052 0.00367778 1e-05
-0.02054 0.00367777 1e-05
-0.02056 0.00367777 1e-05
-0.02058 0.00367777 1e-05
-0.0206 0.00367777 1e-05
-0.0205 0.00635556 1e-05
-0.02052 0.00635555 1e-05
-0.02054 0.00635555 1e-05
-0.02056 0.00635555 1e-05
-0.02058 0.00635555 1e-05
-0.0206 0.00635555 1e-05
-0.0205 0.00903333 1e-05
-0.02052 0.00903333 1e-05
-0.02054 0.00903333 1e-05
-0.02056 0.00903333 1e-05
-0.02058 0.00903333 1e-05
-0.0206 0.00903333 1e-05
-0.0205 0.0117111 1e-05
-0.02052 0.0117111 1e-05
-0.02054 0.0117111 1e-05
-0.02056 0.0117111 1e-05
-0.02058 0.0117111 1e-05
-0.0206 0.0117111 1e-05
-0.0205 0.0143889 1e-05
-0.02052 0.0143889 1e-05
-0.02054 0.0143889 1e-05
-0.02056 0.0143889 1e-05
-0.02058 0.0143889 1e-05
-0.0206 0.0143889 1e-05
-0.0205 0.0170667 1e-05
-0.02052 0.0170667 1e-05
-0.02054 0.0170667 1e-05
-0.02056 0.0170667 1e-05
-0.02058 0.0170667 1e-05
-0.0206 0.0170667 1e-05
-0.0205 0.0197444 1e-05
-0.02052 0.0197444 1e-05
-0.02054 0.0197444 1e-05
-0.02056 0.0197444 1e-05
-0.02058 0.0197444 1e-05
-0.0206 0.0197444 1e-05
-0.0205 0.0224222 1e-05
-0.02052 0.0224222 1e-05
-0.02054 0.0224222 1e-05
-0.02056 0.0224222 1e-05
-0.02058 0.0224222 1e-05
-0.0206 0.0224222 1e-05
-0.0205 0.0251 1e-05
-0.02052 0.0250998 1e-05
-0.02054 0.0250997 1e-05
-0.02056 0.0250995 1e-05
-0.02058 0.0250995 1e-05
-0.0206 0.0250994 1e-05
-0.0205 0.001 1e-05
-0.0202034 0.00100022 1e-05
-0.0199069 0.00100067 1e-05
-0.0196103 0.00100133 1e-05
-0.0193137 0.00100219 1e-05
-0.0190172 0.00100326 1e-05
-0.0187132 0.00100467 1e-05
-0.0184093 0.00100589 1e-05
-0.0181054 0.00100711 1e-05
-0.0178015 0.00100833 1e-05
-0.0174976 0.00100954 1e-05
-0.0172058 0.00101083 1e-05
-0.016914 0.00101194 1e-05
-0.0166222 0.00101304 1e-05
-0.0163305 0.00101413 1e-05
-0.0160387 0.00101523 1e-05
-0.0157586 0.00101637 1e-05
-0.0154784 0.00101745 1e-05
-0.0151983 0.00101857 1e-05
-0.0149182 0.00101972 1e-05
-0.0146381 0.00102091 1e-05
-0.0143749 0.00102209 1e-05
-0.0141117 0.00102327 1e-05
-0.0138485 0.00102449 1e-05
-0.0135852 0.00102574 1e-05
-0.013363 0.00102682 1e-05
-0.0133491 0.00102689 1e-05
-0.0133352 0.00102696 1e-05
-0.0133213 0.00102702 1e-05
-0.0133074 0.00102709 1e-05
-0.0132934 0.00102716 1e-05
-0.0130353 0.00102845 1e-05
-0.0127771 0.00102975 1e-05
-0.0125189 0.00103107 1e-05
-0.0122607 0.00103241 1e-05
-0.0120025 0.00103376 1e-05
-0.0117547 0.00103507 1e-05
-0.0115068 0.00103639 1e-05
-0.0112589 0.00103771 1e-05
-0.0110111 0.00103903 1e-05
-0.0107632 0.00104036 1e-05
-0.0105252 0.00104164 1e-05
-0.0102873 0.00104292 1e-05
-0.0100493 0.0010442 1e-05
-0.00981133 0.00104548 1e-05
-0.00957337 0.00104676 1e-05
-0.00934491 0.00104798 1e-05
-0.00911645 0.00104921 1e-05
-0.00888799 0.00105043 1e-05
-0.00865954 0.00105165 1e-05
-0.00843108 0.00105286 1e-05
-0.00821175 0.00105402 1e-05
-0.00799242 0.00105518 1e-05
-0.00777309 0.00105634 1e-05
-0.00755376 0.00105749 1e-05
-0.00733443 0.00105864 1e-05
-0.00712387 0.00105973 1e-05
-0.0069133 0.00106082 1e-05
-0.00670273 0.00106191 1e-05
-0.00649216 0.001063 1e-05
-0.0062816 0.00106408 1e-05
-0.00607944 0.00106511 1e-05
-0.00587729 0.00106614 1e-05
-0.00567514 0.00106716 1e-05
-0.00547298 0.00106819 1e-05
-0.00527083 0.00106921 1e-05
-0.00507675 0.00107017 1e-05
-0.00488267 0.00107114 1e-05
-0.0046886 0.00107211 1e-05
-0.00449452 0.00107307 1e-05
-0.00430044 0.00107403 1e-05
-0.00411412 0.00107495 1e-05
-0.0039278 0.00107586 1e-05
-0.00374147 0.00107678 1e-05
-0.00355515 0.00107769 1e-05
-0.00336883 0.0010786 1e-05
-0.00318995 0.00107946 1e-05
-0.00301107 0.00108033 1e-05
-0.00283219 0.00108119 1e-05
-0.00265331 0.00108206 1e-05
-0.00247443 0.00108292 1e-05
-0.0023027 0.00108375 1e-05
-0.00213097 0.00108457 1e-05
-0.00195924 0.0010854 1e-05
-0.0017875 0.00108623 1e-05
-0.00161577 0.00108706 1e-05
-0.0014509 0.00108786 1e-05
-0.00128603 0.00108865 1e-05
-0.00112116 0.00108946 1e-05
-0.000956289 0.00109026 1e-05
-0.000791418 0.00109107 1e-05
-0.000633135 0.00109185 1e-05
-0.000474851 0.00109264 1e-05
-0.000316568 0.00109344 1e-05
-0.000158284 0.00109423 1e-05
0 0.00109503 1e-05
0.000105677 0.00109557 1e-05
0.000211355 0.0010961 1e-05
0.000317032 0.00109664 1e-05
0.00042271 0.00109717 1e-05
0.000528387 0.00109771 1e-05
0.000634886 0.00109824 1e-05
0.000741385 0.00109877 1e-05
0.000847885 0.0010993 1e-05
0.000954384 0.00109982 1e-05
0.00106088 0.00110034 1e-05
0.00116821 0.00110085 1e-05
0.00127554 0.00110136 1e-05
0.00138286 0.00110187 1e-05
0.00149019 0.00110236 1e-05
0.00159752 0.00110285 1e-05
0.00170568 0.00110333 1e-05
0.00181384 0.00110381 1e-05
0.001922 0.00110427 1e-05
0.00203016 0.00110473 1e-05
0.00213833 0.00110518 1e-05
0.00224733 0.00110561 1e-05
0.00235633 0.00110605 1e-05
0.00246533 0.00110647 1e-05
0.00257434 0.00110689 1e-05
0.00268334 0.00110729 1e-05
0.00279319 0.00110769 1e-05
0.00290304 0.00110808 1e-05
0.00301289 0.00110847 1e-05
0.00312274 0.00110884 1e-05
0.00323259 0.00110921 1e-05
0.00334329 0.00110956 1e-05
0.003454 0.00110992 1e-05
0.0035647 0.00111026 1e-05
0.0036754 0.0011106 1e-05
0.00378611 0.00111093 1e-05
0.00389767 0.00111124 1e-05
0.00400924 0.00111156 1e-05
0.0041208 0.00111186 1e-05
0.00423237 0.00111216 1e-05
0.00434393 0.00111245 1e-05
0.00445636 0.00111273 1e-05
0.00456879 0.001113 1e-05
0.00468123 0.00111327 1e-05
0.00479366 0.00111352 1e-05
0.00490609 0.00111377 1e-05
0.0050194 0.00111401 1e-05
0.0051327 0.00111425 1e-05
0.00524601 0.00111447 1e-05
0.00535932 0.00111469 1e-05
0.00547262 0.0011149 1e-05
0.00558681 0.0011151 1e-05
0.005701 0.0011153 1e-05
0.00581518 0.00111549 1e-05
0.00592937 0.00111567 1e-05
0.00604356 0.00111584 1e-05
0.00615863 0.001116 1e-05
0.00627371 0.00111616 1e-05
0.00638878 0.00111631 1e-05
0.00650386 0.00111645 1e-05
0.00661893 0.00111658 1e-05
0.0067349 0.0011167 1e-05
0.00685087 0.00111682 1e-05
0.00696684 0.00111693 1e-05
0.00708281 0.00111703 1e-05
0.00719878 0.00111712 1e-05
0.00731565 0.00111721 1e-05
0.00743252 0.00111728 1e-05
0.00754939 0.00111735 1e-05
0.00766626 0.00111741 1e-05
0.00778313 0.00111747 1e-05
0.00781 0.00111748 1e-05
0.00783686 0.00111749 1e-05
0.00786373 0.00111749 1e-05
0.00789059 0.0011175 1e-05
0.0079171 0.00111751 1e-05
0.00800809 0.00111754 1e-05
0.00809907 0.00111756 1e-05
0.00819006 0.00111758 1e-05
0.00828105 0.00111759 1e-05
0.00837203 0.0011176 1e-05
0.00849073 0.0011176 1e-05
0.00860942 0.00111759 1e-05
0.00872812 0.00111758 1e-05
0.00884682 0.00111755 1e-05
0.00896551 0.00111752 1e-05
0.00908513 0.00111748 1e-05
0.00920475 0.00111743 1e-05
0.00932437 0.00111737 1e-05
0.00944398 0.0011173 1e-05
0.0095636 0.00111723 1e-05
0.00968415 0.00111713 1e-05
0.0098047 0.00111704 1e-05
0.00992525 0.00111693 1e-05
0.0100458 0.00111682 1e-05
0.0101663 0.0011167 1e-05
0.0102878 0.00111656 1e-05
0.0104093 0.00111642 1e-05
0.0105308 0.00111627 1e-05
0.0106523 0.00111611 1e-05
0.0107738 0.00111594 1e-05
0.0108962 0.00111575 1e-05
0.0110186 0.00111556 1e-05
0.0111411 0.00111536 1e-05
0.0112635 0.00111516 1e-05
0.0113859 0.00111494 1e-05
0.0115093 0.0011147 1e-05
0.0116327 0.00111446 1e-05
0.0117561 0.00111421 1e-05
0.0118795 0.00111396 1e-05
0.0120028 0.00111369 1e-05
0.0121272 0.0011134 1e-05
0.0122515 0.00111311 1e-05
0.0123759 0.00111281 1e-05
0.0125002 0.0011125 1e-05
0.0126245 0.00111219 1e-05
0.0127498 0.00111184 1e-05
0.0128752 0.0011115 1e-05
0.0130005 0.00111115 1e-05
0.0131258 0.00111079 1e-05
0.0132511 0.00111042 1e-05
0.0133774 0.00111002 1e-05
0.0135036 0.00110963 1e-05
0.0136299 0.00110922 1e-05
0.0137562 0.00110881 1e-05
0.0138825 0.00110838 1e-05
0.0140098 0.00110793 1e-05
0.014137 0.00110748 1e-05
0.0142643 0.00110702 1e-05
0.0143915 0.00110655 1e-05
0.0145188 0.00110607 1e-05
0.0146471 0.00110557 1e-05
0.0147753 0.00110506 1e-05
0.0149036 0.00110454 1e-05
0.0150318 0.00110401 1e-05
0.0151601 0.00110347 1e-05
0.0152893 0.00110292 1e-05
0.0154186 0.00110235 1e-05
0.0155478 0.00110177 1e-05
0.0156771 0.00110119 1e-05
0.0158063 0.00110059 1e-05
0.0159366 0.00109998 1e-05
0.0160668 0.00109935 1e-05
0.0161971 0.00109872 1e-05
0.0163274 0.00109807 1e-05
0.0164576 0.00109742 1e-05
0.0165889 0.00109675 1e-05
0.0167201 0.00109607 1e-05
0.0168514 0.00109537 1e-05
0.0169827 0.00109467 1e-05
0.0171139 0.00109395 1e-05
0.0172462 0.00109323 1e-05
0.0173785 0.00109249 1e-05
0.0175108 0.00109173 1e-05
0.0176431 0.00109096 1e-05
0.0177754 0.00109019 1e-05
0.0179087 0.00108941 1e-05
0.018042 0.00108861 1e-05
0.0181753 0.00108779 1e-05
0.0183087 0.00108696 1e-05
0.018442 0.00108613 1e-05
0.0185763 0.00108529 1e-05
0.0187107 0.00108443 1e-05
0.018845 0.00108355 1e-05
0.0189794 0.00108266 1e-05
0.0191137 0.00108176 1e-05
0.0192491 0.00108087 1e-05
0.0193845 0.00107995 1e-05
0.0195199 0.001079 1e-05
0.0196553 0.00107804 1e-05
0.0197907 0.00107709 1e-05
0.0199272 0.00107613 1e-05
0.0200636 0.00107515 1e-05
0.0202001 0.00107414 1e-05
0.0203365 0.00107313 1e-05
0.020473 0.00107211 1e-05
0.0206105 0.00107109 1e-05
0.020748 0.00107005 1e-05
0.0208855 0.00106898 1e-05
0.021023 0.0010679 1e-05
0.0211606 0.00106682 1e-05
0.0212991 0.00106574 1e-05
0.0214377 0.00106464 1e-05
0.0215763 0.0010635 1e-05
0.0217149 0.00106235 1e-05
0.0218535 0.00106122 1e-05
0.0219931 0.00106008 1e-05
0.0221328 0.00105891 1e-05
0.0222724 0.00105771 1e-05
0.0224121 0.0010565 1e-05
0.0225517 0.00105529 1e-05
0.0226925 0.00105409 1e-05
0.0228332 0.00105285 1e-05
0.022974 0.00105159 1e-05
0.0231147 0.00105031 1e-05
0.0232555 0.00104905 1e-05
0.0233973 0.00104778 1e-05
0.0235391 0.00104648 1e-05
0.023681 0.00104515 1e-05
0.0238228 0.00104381 1e-05
0.0239647 0.00104247 1e-05
0.0241076 0.00104114 1e-05
0.0242505 0.00103977 1e-05
0.0243935 0.00103838 1e-05
0.0245364 0.00103697 1e-05
0.0246794 0.00103557 1e-05
0.0248234 0.00103417 1e-05
0.0249675 0.00103273 1e-05
0.0251115 0.00103127 1e-05
0.0252556 0.00102979 1e-05
[...]
POINT_DATA 12050
 FIELD attributes 1
U 3 12050 float
10.0004 	0.00734843 	0 10.0004 	0.00587875 	0 10.0003 	0.00440906 	0 10.0002 	0.00293937 	0 10.0001 	0.00146969 	0 10 	0 	0
10.0001 	0.000879306 	0 10 	0.000703445 	0 10 	0.000527584 	0 10 	0.000351722 	0 10 	0.000175861 	0 10 	0 	0
10.0001 	0.000467758 	0 10.0001 	0.000374017 	0 10.0001 	0.000280276 	0 10 	0.000186535 	0 10 	9.27935e-05 	0 10 	0 	0
10 	0.000268235 	0 10 	0.000214588 	0 10 	0.000160941 	0 10 	0.000107294 	0 10 	5.36471e-05 	0 10 	0 	0
10 	8.26035e-05 	0 10 	6.60828e-05 	0 10 	4.95621e-05 	0 10 	3.30414e-05 	0 10 	1.65207e-05 	0 10 	0 	0
10 	-2.42204e-05 	0 10 	-1.93763e-05 	0 10 	-1.45323e-05 	0 10 	-9.68817e-06 	0 10 	-4.84409e-06 	0 10 	0 	0
10 	-0.000214664 	0 10 	-0.000171731 	0 10 	-0.000128798 	0 10 	-8.58655e-05 	0 10 	-4.29327e-05 	0 10 	0 	0
10 	-0.000376694 	0 10 	-0.000301355 	0 10 	-0.000226017 	0 10 	-0.000150678 	0 10 	-7.53388e-05 	0 10 	0 	0
9.99999 	-0.000425899 	0 9.99999 	-0.000340719 	0 9.99999 	-0.000255539 	0 10 	-0.00017036 	0 10 	-8.51798e-05 	0 10 	0 	0
9.17387 	0.0871273 	0 9.1308 	0.0697018 	0 9.08741 	0.0522761 	0 9.04368 	0.0348501 	0 8.99963 	0.017424 	0 8.95524 	0 	0
10.0004 	0.00734843 	0 10.0024 	0.0152074 	0 10.0045 	0.02223 	0 10.0065 	0.0292081 	0 10.0086 	0.036142 	0 10.0136 	0.0463347 	0 10.0164 	0.0402163 	0 10.0208 	0.0401679 	0 10.0252 	0.0401197 	0 10.0297 	0.0400717 	0 10.0356 	0.0445312 	0 10.0385 	0.0378946 	0 10.0424 	0.0378525 	0 10.0464 	0.0378104 	0 10.0504 	0.0377682 	0 10.0545 	0.0408704 	0 10.0567 	0.0387949 	0 10.0591 	0.0401058 	0 10.0615 	0.0414184 	0 10.064 	0.0427326 	0 10.0661 	0.0451917 	0 10.0676 	0.0453042 	0 10.069 	0.0465071 	0 10.0703 	0.0477111 	0 10.0716 	0.0489163 	0 10.0727 	0.049935 	0 10.0728 	0.0499992 	0 10.0729 	0.0500633 	0 10.073 	0.0501275 	0 10.073 	0.0501917 	0 10.0731 	0.0502463 	0 10.0736 	0.0508757 	0 10.0741 	0.051499 	0 10.0746 	0.0521228 	0 10.0752 	0.0527471 	0 10.0756 	0.0532072 	0 10.0755 	0.0535063 	0 10.0752 	0.0536999 	0 10.0748 	0.0538935 	0 10.0744 	0.0540873 	0 10.0739 	0.0540426 	0 10.0735 	0.0541921 	0 10.0724 	0.0541731 	0 10.0713 	0.0541541 	0 10.0702 	0.0541352 	0 10.0686 	0.0538471 	0 10.0682 	0.0539335 	0 10.0666 	0.0538061 	0 10.0649 	0.0536786 	0 10.0633 	0.0535511 	0 10.0607 	0.0531375 	0 10.0607 	0.0532001 	0 10.0587 	0.0530139 	0 10.0566 	0.0528276 	0 10.0546 	0.0526413 	0 10.051 	0.0521567 	0 10.0516 	0.0522217 	0 10.0493 	0.0520129 	0 10.0469 	0.0518041 	0 10.0446 	0.0515952 	0 10.0399 	0.0510807 	0 10.0414 	0.0511712 	0 10.0388 	0.0509632 	0 10.0363 	0.0507551 	0 10.0337 	0.050547 	0 10.0279 	0.0500206 	0 10.0304 	0.0501463 	0 10.0277 	0.04996 	0 10.025 	0.0497736 	0 10.0223 	0.0495873 	0 10.0153 	0.0490776 	0 10.0189 	0.0492544 	0 10.0161 	0.0490954 	0 10.0133 	0.0489363 	0 10.0106 	0.0487773 	0 10.0024 	0.048278 	0 10.0072 	0.0485162 	0 10.0044 	0.0484465 	0 10.0016 	0.0483768 	0 9.99878 	0.0483071 	0 9.98944 	0.0479179 	0 9.99559 	0.0482823 	0 9.99282 	0.0482795 	0 9.99004 	0.0482767 	0 9.98726 	0.0482739 	0 9.97671 	0.0478888 	0 9.98429 	0.0483376 	0 9.98165 	0.0485898 	0 9.97901 	0.048842 	0 9.97637 	0.0490942 	0 9.9647 	0.0490287 	0 9.97391 	0.0496882 	8.84802e-22 9.97206 	0.0499596 	5.98946e-21 9.97022 	0.0502311 	1.10938e-20 9.96838 	0.0505026 	1.61979e-20 9.95639 	0.0502442 	1.36512e-20 9.96706 	0.0506259 	9.58648e-20 9.96558 	0.0505161 	8.91083e-20 9.96411 	0.0504062 	8.23506e-20 9.96263 	0.0502964 	7.55916e-20 9.95048 	0.0496939 	-1.53238e-20 9.96114 	0.0496081 	-4.16182e-20 9.95971 	0.0492069 	-4.62586e-20 9.95827 	0.0488056 	-5.08968e-20 9.95684 	0.0484043 	-5.55329e-20 9.94476 	0.0477297 	-2.13864e-20 9.95496 	0.047388 	-1.88733e-20 9.95321 	0.0466452 	-1.3096e-20 9.95145 	0.0459022 	-7.3193e-21 9.94969 	0.0451592 	-1.54319e-21 9.93757 	0.0442268 	7.33214e-21 9.94735 	0.0438577 	-5.30959e-21 9.94525 	0.0429294 	-2.40604e-20 9.94315 	0.042001 	-4.28135e-20 9.94105 	0.0410724 	-6.15689e-20 9.92881 	0.0398516 	-8.83352e-20 9.93807 	0.0396124 	-1.26856e-19 9.93556 	0.038726 	-1.14424e-19 9.93305 	0.0378393 	-1.01984e-19 9.93053 	0.0369525 	-8.95362e-20 9.91813 	0.03561 	-2.99396e-20 9.92673 	0.0354956 	3.7405e-20 9.92378 	0.0346967 	5.10384e-20 9.92083 	0.0338976 	6.46617e-20 9.91787 	0.0330982 	7.82748e-20 9.90538 	0.0317399 	3.69442e-20 9.91324 	0.0316459 	-5.16299e-20 9.90985 	0.0308795 	-5.78119e-20 9.90645 	0.0301128 	-6.39781e-20 9.90305 	0.0293458 	-7.01286e-20 9.89055 	0.0280137 	-3.12906e-22 9.89756 	0.027878 	6.59247e-20 9.8937 	0.0271234 	5.65184e-20 9.88983 	0.0263684 	4.70966e-20 9.88596 	0.0256132 	3.76591e-20 9.87352 	0.0243445 	-2.80038e-20 9.8795 	0.0241498 	-8.6076e-20 9.87513 	0.0234054 	-1.08482e-19 9.87075 	0.0226607 	-1.30883e-19 9.86637 	0.0219157 	-1.53277e-19 9.8541 	0.0207315 	-1.3605e-19 9.85882 	0.0204782 	-1.5896e-19 9.85393 	0.0197474 	-1.4644e-19 9.84903 	0.0190163 	-1.33914e-19 9.84413 	0.018285 	-1.21384e-19 9.8322 	0.0171934 	-8.27868e-20 9.83539 	0.0168894 	-7.00387e-20 9.82999 	0.0161754 	-5.13956e-20 9.82458 	0.015461 	-3.27544e-20 9.81916 	0.0147463 	-1.41151e-20 9.80781 	0.0137451 	2.48721e-21 9.80916 	0.0133811 	0 9.80325 	0.012677 	0 9.79734 	0.0119725 	0 9.79142 	0.0112676 	0 9.78098 	0.0103508 	0 9.7801 	0.00991038 	-1.59612e-20 9.77371 	0.00921139 	-3.50727e-20 9.76731 	0.00851206 	-5.4186e-20 9.7609 	0.00781236 	-7.33012e-20 9.75173 	0.00698478 	-9.35613e-20 9.7482 	0.00644881 	-1.00296e-19 9.74133 	0.00575496 	-1.01021e-19 9.73445 	0.00506072 	-1.01741e-19 9.72756 	0.00436609 	-1.02455e-19 9.7201 	0.0036448 	-1.01964e-19 9.7191 	0.00352018 	-9.35587e-20 9.71743 	0.00336309 	-8.68612e-20 9.71576 	0.00320598 	-8.01643e-20 9.71409 	0.00304885 	-7.34679e-20 9.71244 	0.00289378 	-6.68609e-20 9.70671 	0.00235834 	-4.41573e-20 9.70098 	0.00182263 	-2.14598e-20 9.69524 	0.00128665 	1.23148e-21 9.68949 	0.000750392 	2.39165e-20 9.67882 	-7.07974e-06 	5.164e-20 9.67548 	-0.000498911 	5.26131e-20 9.66762 	-0.00118886 	5.37328e-20 9.65975 	-0.0018793 	5.48501e-20 9.65187 	-0.00257024 	5.59649e-20 9.63286 	-0.00373712 	5.86827e-20 9.63474 	-0.00400427 	4.63716e-20 9.62645 	-0.00469224 	3.40583e-20 9.61816 	-0.00538075 	2.17437e-20 9.60985 	-0.00606981 	9.42784e-21 9.58458 	-0.00743981 	-8.89825e-22 9.59135 	-0.00753117 	-8.91403e-21 9.58267 	-0.00821867 	-2.06795e-20 9.57398 	-0.00890677 	-3.24437e-20 9.56528 	-0.00959546 	-4.42066e-20 9.53428 	-0.011113 	-5.59828e-20 9.54551 	-0.0110813 	-5.68262e-20 9.53647 	-0.0117699 	-6.42175e-20 9.52741 	-0.0124592 	-7.16052e-20 9.51834 	-0.0131491 	-7.89895e-20 9.48226 	-0.0147544 	-9.67422e-20 9.49742 	-0.0146541 	-1.45355e-19 9.48804 	-0.0153446 	-1.35747e-19 9.47865 	-0.0160358 	-1.26153e-19 9.46924 	-0.0167277 	-1.16574e-19 9.42879 	-0.0183596 	-4.15647e-20 9.44729 	-0.0182432 	-2.7083e-20 9.43761 	-0.0189362 	-1.91066e-20 9.42791 	-0.01963 	-1.11292e-20 9.41819 	-0.0203244 	-3.151e-21 9.37413 	-0.0219257 	0 9.39538 	-0.0218458 	0 9.38542 	-0.0225428 	0 9.37544 	-0.0232405 	0 9.36544 	-0.023939 	0 9.31853 	-0.0254549 	0 9.34194 	-0.0254657 	1.98873e-21 9.33173 	-0.0261671 	9.40203e-21 9.3215 	-0.0268693 	1.68144e-20 9.31125 	-0.0275722 	2.42259e-20 9.26223 	-0.0289454 	4.17513e-20 9.28723 	-0.0290945 	1.55351e-19 9.27679 	-0.0297988 	1.58345e-19 9.26634 	-0.030504 	1.61355e-19 9.25587 	-0.0312101 	1.64383e-19 9.20543 	-0.0323886 	4.19488e-20 9.2315 	-0.0327165 	2.28821e-20 9.22087 	-0.0334226 	1.62049e-20 9.21022 	-0.0341296 	9.52657e-21 9.19895 	-0.0348409 	3.1559e-21 9.14833 	-0.0357782 	1.70487e-20 9.1729 	-0.0363275 	1.05358e-19 9.1642 	-0.0370255 	1.1185e-19 9.15337 	-0.0377336 	1.13186e-19 9.13806 	-0.0384382 	1.02196e-19 9.09109 	-0.0391118 	3.88731e-21 9.11234 	-0.03988 	-1.00552e-19 9.10701 	-0.0405987 	-1.27266e-19 9.09604 	-0.0413077 	-1.37557e-19 9.07741 	-0.0419529 	-1.2943e-19 9.03388 	-0.0423889 	-6.13547e-20 9.05206 	-0.0433514 	-1.79689e-19 9.04954 	-0.0441345 	-2.16023e-19 9.03844 	-0.0448441 	-2.18455e-19 9.01715 	-0.0453851 	-1.75341e-19 8.97685 	-0.0456107 	-4.72383e-20 8.99219 	-0.0467439 	-2.47941e-20 8.99198 	-0.0476288 	-1.12233e-20 8.98078 	-0.0483387 	-3.9104e-21 8.95743 	-0.0487375 	0 8.92012 	-0.0487782 	0 8.93288 	-0.0500581 	0 8.93452 	-0.0510748 	0 8.92324 	-0.0517851 	0 8.89837 	-0.052012 	1.95117e-21 8.86382 	-0.0518946 	5.29153e-21 8.87424 	-0.0533003 	2.11223e-21 8.87734 	-0.0544733 	0 8.866 	-0.0551838 	0 8.84007 	-0.0552146 	2.35945e-21 8.80805 	-0.0549613 	5.70436e-21 8.81635 	-0.0564706 	2.52491e-21 8.82057 	-0.0578167 	1.35966e-21 8.80919 	-0.0585284 	7.96938e-21 8.78262 	-0.0583496 	2.45623e-20 8.75291 	-0.057987 	4.32135e-20 8.7593 	-0.0595862 	1.70117e-19 8.76436 	-0.0611223 	2.88028e-19 8.75295 	-0.0618362 	2.91682e-19 8.72607 	-0.061435 	1.70652e-19 8.69847 	-0.0609812 	4.37667e-20 8.70316 	-0.0626485 	2.54002e-20 8.7078 	-0.0643177 	7.03526e-21 8.6962 	-0.064988 	2.68755e-22 8.6705 	-0.0644627 	3.48318e-21 8.64481 	-0.0639371 	6.69745e-21 8.64799 	-0.0656543 	3.65421e-21 8.65111 	-0.0673733 	6.11928e-22 8.63993 	-0.0680126 	2.20589e-21 8.61595 	-0.067435 	-1.69843e-21 8.59199 	-0.066857 	-5.6018e-21 8.59383 	-0.0686149 	-4.95096e-20 8.59561 	-0.0703747 	-9.34218e-20 8.5849 	-0.0709856 	-9.48398e-20 8.56248 	-0.0703694 	-5.46919e-20 8.54007 	-0.0697529 	-1.45421e-20 8.54074 	-0.0715448 	8.55075e-20 8.54135 	-0.0733386 	1.85551e-19 8.53113 	-0.0739229 	1.94206e-19 8.5101 	-0.0732786 	1.10799e-19 8.48909 	-0.0726338 	2.73908e-20 8.48873 	-0.0744512 	1.58331e-20 8.48832 	-0.0762705 	4.27144e-21 8.47861 	-0.0768283 	1.61985e-22 8.45883 	-0.0761636 	4.86356e-21 8.43907 	-0.0754985 	9.56673e-21 8.43781 	-0.0773195 	3.87499e-21 8.4365 	-0.0791422 	-1.8226e-21 8.42732 	-0.0796747 	-2.05257e-20 8.40866 	-0.079013 	-7.10229e-20 8.39002 	-0.0783509 	-1.21522e-19 8.38797 	-0.0801664 	-2.53493e-19 8.38586 	-0.0819837 	-3.85457e-19 8.37723 	-0.0824951 	-3.69505e-19 8.35958 	-0.0818513 	-2.18202e-19 8.34195 	-0.081207 	-6.68989e-20 8.3392 	-0.0830122 	5.82584e-20 8.33611 	-0.0847505 	1.76897e-19 8.3276 	-0.0852184 	1.74348e-19 8.31158 	-0.0846961 	9.12087e-20 8.29485 	-0.0840793 	3.99894e-22 8.29149 	-0.0858722 	-8.96698e-20 8.28708 	-0.0874052 	-1.63648e-19 8.2787 	-0.0878859 	-1.72809e-19 8.26463 	-0.0875617 	-1.15904e-19 8.24873 	-0.0869776 	-3.76911e-20 8.24481 	-0.0887572 	-2.64671e-20 8.23935 	-0.0900892 	-1.53462e-20 8.23108 	-0.0905843 	-4.41334e-21 8.2187 	-0.0904578 	1.23599e-20 8.20355 	-0.0899101 	3.30885e-20 8.19914 	-0.0916763 	1.10122e-20 8.19285 	-0.0928135 	-2.91468e-21 8.18468 	-0.0933244 	-8.7297e-21 8.17378 	-0.0933934 	-5.49927e-21 8.15931 	-0.0928849 	9.54903e-21 8.15446 	-0.0946381 	-7.27532e-21 8.14751 	-0.0955877 	-1.72503e-20 8.13944 	-0.0961157 	-2.36321e-20 8.12982 	-0.0963773 	-3.41215e-20 8.11596 	-0.0959102 	-5.58315e-20 8.11072 	-0.0976514 	5.305e-20 8.10327 	-0.0984211 	7.51742e-20 8.0953 	-0.0989676 	7.73343e-20 8.08678 	-0.0994182 	7.00275e-20 8.07348 	-0.098994 	-2.31807e-20 8.06789 	-0.100724 	6.86131e-20 8.06008 	-0.101322 	7.39253e-20 8.05219 	-0.101889 	7.67842e-20 8.04428 	-0.102456 	7.96309e-20 8.03184 	-0.102145 	8.99341e-21 8.02569 	-0.103714 	-5.55872e-22 8.01789 	-0.104301 	-3.84694e-22 8.01007 	-0.104888 	-2.1354e-22 8.00222 	-0.105476 	-4.24108e-23 7.991 	-0.10537 	1.49835e-20 7.98437 	-0.106754 	0 7.97663 	-0.107364 	0 7.96888 	-0.107974 	0 7.96109 	-0.108584 	0 7.95093 	-0.108679 	1.15184e-20 7.94393 	-0.109887 	0 7.93626 	-0.11052 	0 7.92855 	-0.111154 	0 7.92082 	-0.111788 	0 7.91159 	-0.112079 	0 7.90433 	-0.113119 	0 7.89669 	-0.113777 	0 7.88904 	-0.114435 	0 7.88135 	-0.115094 	0 7.87292 	-0.115577 	-4.00464e-21 7.86549 	-0.116456 	0 7.85789 	-0.117141 	0 7.85027 	-0.117825 	0 7.84262 	-0.11851 	0 7.83489 	-0.119181 	-6.65065e-22 7.83422 	-0.11926 	0 7.83355 	-0.119324 	0 7.83288 	-0.119387 	0 7.8322 	-0.119451 	0 7.83153 	-0.119514 	0 7.82444 	-0.120163 	0 7.81733 	-0.120813 	0 7.81019 	-0.121464 	0 7.80304 	-0.122114 	0 7.79667 	-0.122603 	0 7.78862 	-0.123492 	-7.78103e-21 7.78083 	-0.124234 	-1.7306e-20 7.77302 	-0.124977 	-2.68292e-20 7.76518 	-0.12572 	-3.63504e-20 7.75902 	-0.126129 	-4.58858e-20 7.75064 	-0.127204 	-4.14486e-20 7.74286 	-0.127976 	-4.07143e-20 7.73505 	-0.128748 	-3.99762e-20 7.72721 	-0.129521 	-3.92341e-20 7.72192 	-0.129794 	-4.42203e-20 7.71321 	-0.131049 	-3.38411e-20 7.70543 	-0.131851 	-2.34343e-20 7.69763 	-0.132653 	-1.30255e-20 7.68979 	-0.133456 	-2.61472e-21 7.68535 	-0.133599 	0 7.6763 	-0.135031 	-8.81208e-22 7.66851 	-0.135864 	-5.55517e-21 7.66069 	-0.136698 	-1.02281e-20 7.65284 	-0.137533 	-1.48999e-20 7.64924 	-0.137555 	-1.9556e-20 7.63988 	-0.139138 	-5.34539e-20 7.63203 	-0.140027 	-7.33442e-20 7.6242 	-0.140894 	-9.28031e-20 7.617 	-0.141635 	-1.06872e-19 7.61354 	-0.141669 	-9.07672e-20 7.60418 	-0.14327 	-6.59298e-20 7.59595 	-0.144349 	-5.12701e-20 7.58808 	-0.145251 	-4.00593e-20 7.58175 	-0.145864 	-4.13389e-20 7.57819 	-0.145955 	-6.49886e-20 7.56882 	-0.147577 	-7.85288e-20 7.5602 	-0.148845 	-7.57695e-20 7.55229 	-0.149784 	-5.78498e-20 7.54679 	-0.150272 	-3.17136e-20 7.54312 	-0.150418 	6.48424e-22 7.53373 	-0.152061 	4.67537e-21 7.52471 	-0.153514 	6.12537e-21 7.51675 	-0.154489 	1.08951e-21 7.51206 	-0.154858 	0 7.50827 	-0.155058 	0 7.49884 	-0.156721 	0 7.48943 	-0.158355 	0 7.48142 	-0.159365 	0 7.4775 	-0.159621 	0 7.47358 	-0.159876 	0 7.46411 	-0.16156 	0 7.45459 	-0.163244 	0 7.44712 	-0.164254 	-1.36001e-20 7.44307 	-0.164565 	-3.06868e-20 7.439 	-0.164875 	-4.77726e-20 7.42949 	-0.166581 	-2.90244e-20 7.41991 	-0.168288 	-1.02685e-20 7.41289 	-0.169329 	2.13318e-21 7.40869 	-0.169694 	6.04293e-21 7.40447 	-0.17006 	9.95243e-21 7.3949 	-0.171789 	4.11852e-20 7.38527 	-0.173519 	7.2416e-20 7.37868 	-0.174593 	7.73812e-20 7.37432 	-0.175013 	6.30038e-20 7.36994 	-0.175433 	4.86231e-20 7.3603 	-0.177187 	2.52012e-20 7.35059 	-0.178942 	1.76916e-21 7.34442 	-0.180049 	8.28269e-21 7.33989 	-0.180523 	1.7207e-20 7.33534 	-0.180997 	2.61329e-20 7.32562 	-0.182777 	8.67037e-20 7.31647 	-0.184443 	1.3657e-19 7.3104 	-0.185556 	1.34064e-19 7.30535 	-0.186226 	8.82433e-20 7.30062 	-0.186753 	2.84467e-20 7.29081 	-0.188558 	2.04586e-20 7.28248 	-0.19009 	1.60476e-20 7.27626 	-0.191243 	1.6596e-20 7.27065 	-0.192121 	2.10229e-20 7.26572 	-0.1927 	2.96807e-20 7.25581 	-0.194532 	8.84485e-20 7.24829 	-0.195932 	1.05896e-19 7.2419 	-0.197125 	1.03306e-19 7.23572 	-0.198209 	9.00597e-20 7.23059 	-0.198838 	3.21004e-20 7.22057 	-0.200696 	2.44104e-20 7.21382 	-0.201968 	1.65465e-20 7.20725 	-0.203199 	8.67275e-21 7.20065 	-0.20443 	8.01883e-22 7.19517 	-0.205165 	0 7.18573 	-0.206926 	0 7.17902 	-0.208194 	0 7.17228 	-0.209463 	0 7.16549 	-0.210732 	0 7.15941 	-0.211678 	0 7.15075 	-0.213301 	0 7.14386 	-0.214606 	0 7.13691 	-0.215911 	0 7.12993 	-0.217217 	0 7.12324 	-0.218371 	4.17618e-21 7.11611 	-0.219716 	5.21132e-21 7.10977 	-0.220913 	1.24582e-20 7.1034 	-0.222109 	1.97074e-20 7.09699 	-0.223306 	2.69589e-20 7.09092 	-0.224434 	3.37917e-20 7.09004 	-0.224591 	3.46342e-20 7.08916 	-0.224748 	3.54766e-20 7.08828 	-0.224905 	3.6319e-20 7.0874 	-0.225063 	3.71613e-20 7.08668 	-0.225202 	3.78634e-20 7.07911 	-0.226592 	4.05683e-20 7.07159 	-0.227964 	4.47764e-20 7.06401 	-0.229336 	4.8963e-20 7.05639 	-0.230708 	5.31282e-20 7.05018 	-0.231911 	6.94698e-20 7.04167 	-0.233488 	4.65807e-20 7.03392 	-0.23489 	3.54833e-20 7.02612 	-0.236293 	2.43641e-20 7.01826 	-0.237695 	1.3223e-20 7.01316 	-0.23878 	3.02059e-20 7.00367 	-0.240541 	2.64327e-20 6.99568 	-0.241972 	2.49951e-20 6.98764 	-0.243403 	2.35511e-20 6.97954 	-0.244835 	2.21007e-20 6.97555 	-0.245799 	3.20261e-20 6.96525 	-0.247702 	2.11359e-20 6.95682 	-0.249203 	1.91583e-20 6.94853 	-0.250661 	1.81118e-20 6.94138 	-0.251986 	2.1263e-20 6.93731 	-0.252964 	3.53294e-20 6.92677 	-0.254887 	4.87404e-20 6.91729 	-0.256577 	5.1994e-20 6.90874 	-0.258061 	4.6282e-20 6.90274 	-0.259258 	2.95262e-20 6.8984 	-0.260268 	5.58372e-21 6.8876 	-0.262209 	2.50208e-21 6.87705 	-0.264087 	-1.14397e-22 6.86823 	-0.265594 	-6.37012e-24 6.86339 	-0.266659 	0 6.85877 	-0.267697 	0 6.84771 	-0.269653 	0 6.83659 	-0.271608 	0 6.82818 	-0.273111 	-8.04491e-21 6.8233 	-0.274173 	-1.67142e-20 6.81839 	-0.275235 	-2.53792e-20 6.80706 	-0.277203 	-1.42892e-20 6.79567 	-0.27917 	-3.18895e-21 6.7876 	-0.280703 	4.17556e-21 6.78243 	-0.281785 	1.05966e-20 6.77722 	-0.282867 	1.70208e-20 6.76561 	-0.284844 	1.16576e-20 6.75394 	-0.286821 	6.29894e-21 6.74637 	-0.288347 	7.04209e-21 6.74073 	-0.289479 	2.40739e-20 6.73521 	-0.290577 	4.25336e-20 6.72332 	-0.29256 	2.30442e-20 6.71288 	-0.29438 	7.462e-21 6.70504 	-0.295914 	-1.2411e-21 6.69818 	-0.297243 	-7.10422e-21 6.69235 	-0.298356 	-9.97507e-21 6.68017 	-0.300344 	-5.46928e-20 6.671 	-0.302004 	-7.09215e-20 6.66286 	-0.303547 	-7.70261e-20 6.65476 	-0.305072 	-8.1448e-20 6.64862 	-0.306199 	-4.64333e-20 6.63665 	-0.308138 	-7.70996e-20 6.62826 	-0.309685 	-7.18554e-20 6.61983 	-0.311232 	-6.65977e-20 6.61133 	-0.312778 	-6.13267e-20 6.604 	-0.314085 	-3.76322e-20 6.59335 	-0.315846 	-5.13479e-20 6.58466 	-0.31739 	-4.2798e-20 6.57592 	-0.318934 	-3.42305e-20 6.56711 	-0.320477 	-2.56453e-20 6.55848 	-0.321977 	-1.35509e-20 6.55616 	-0.322351 	-1.30246e-20 6.55421 	-0.322685 	-1.24749e-20 6.55226 	-0.32302 	-1.19252e-20 6.55031 	-0.323354 	-1.13756e-20 6.54837 	-0.323684 	-1.08338e-20 6.54097 	-0.324886 	-8.46435e-21 6.53353 	-0.326089 	-6.09392e-21 6.52606 	-0.327291 	-3.72252e-21 6.51854 	-0.328494 	-1.35017e-21 6.51185 	-0.32957 	0 6.50175 	-0.331239 	0 6.49196 	-0.332764 	0 6.48211 	-0.334289 	0 6.4722 	-0.335813 	0 6.46422 	-0.337049 	0 6.45328 	-0.338889 	-1.19857e-22 6.44314 	-0.3404 	-2.2896e-21 6.43294 	-0.34191 	-4.45785e-21 6.42328 	-0.343336 	-6.59431e-21 6.41555 	-0.344476 	-8.62648e-21 6.4042 	-0.346314 	1.32077e-20 6.39325 	-0.347981 	2.53867e-20 6.38271 	-0.349475 	2.78813e-20 6.37391 	-0.350715 	1.06302e-20 6.36587 	-0.351839 	-1.56597e-20 6.35416 	-0.353653 	-9.11115e-21 6.34239 	-0.355467 	-2.56415e-21 6.33184 	-0.35691 	3.66314e-21 6.32353 	-0.358016 	7.46143e-21 6.31518 	-0.359121 	1.12582e-20 6.30313 	-0.360909 	6.47786e-21 6.291 	-0.362696 	1.6941e-21 6.2808 	-0.36414 	5.06902e-21 6.27219 	-0.365223 	1.59304e-20 6.26352 	-0.366306 	2.67927e-20 6.25112 	-0.368064 	3.26739e-20 6.23898 	-0.369775 	3.65577e-20 6.2291 	-0.371165 	2.66231e-20 6.21989 	-0.372316 	1.11844e-20 6.21092 	-0.373374 	-6.42541e-21 6.19818 	-0.375098 	8.66572e-21 6.18705 	-0.376592 	1.2512e-20 6.17686 	-0.377948 	9.67155e-21 6.1667 	-0.379276 	5.12861e-21 6.15742 	-0.380304 	-1.73977e-20 6.14472 	-0.381943 	-1.16228e-20 6.13428 	-0.383263 	-4.17739e-21 6.12378 	-0.384583 	3.26769e-21 6.11323 	-0.385902 	1.07125e-20 6.10306 	-0.387082 	1.51615e-20 6.09519 	-0.388041 	1.5871e-20 6.08823 	-0.388874 	1.64415e-20 6.08124 	-0.389707 	1.70139e-20 6.07422 	-0.39054 	1.75882e-20 6.06743 	-0.391342 	1.81436e-20 6.06374 	-0.391799 	1.90349e-20 6.06004 	-0.392255 	1.99277e-20 6.05633 	-0.392712 	2.08222e-20 6.05261 	-0.393168 	2.17184e-20 6.04896 	-0.393556 	1.74766e-20 6.03861 	-0.394879 	1.33957e-20 6.02803 	-0.396125 	9.33697e-21 6.0174 	-0.397372 	5.2762e-21 6.00671 	-0.398618 	1.21334e-21 5.99625 	-0.399596 	-5.03075e-21 5.9861 	-0.401088 	0 5.97526 	-0.40229 	0 5.96435 	-0.403492 	0 5.95349 	-0.404605 	-1.67069e-21 5.94288 	-0.405423 	-8.91971e-21 5.93256 	-0.4069 	-3.22481e-21 5.92186 	-0.408237 	1.12856e-21 5.9107 	-0.409392 	3.73125e-21 5.8998 	-0.410251 	1.14568e-20 5.88894 	-0.41102 	2.07258e-20 5.87837 	-0.412441 	3.60806e-20 5.86773 	-0.413861 	5.1437e-20 5.85664 	-0.414929 	5.23239e-20 5.8456 	-0.415649 	3.92312e-20 5.83452 	-0.416369 	2.61377e-20 5.8237 	-0.417732 	2.76309e-20 5.81283 	-0.419094 	2.91271e-20 5.80224 	-0.420118 	2.36426e-20 5.79098 	-0.420789 	1.14968e-20 5.77967 	-0.421459 	-6.49733e-22 5.76863 	-0.422764 	-2.00903e-20 5.75771 	-0.423902 	-3.26612e-20 5.74697 	-0.424831 	-3.65766e-20 5.73599 	-0.425676 	-3.50362e-20 5.72447 	-0.426305 	-1.92808e-20 5.71322 	-0.427553 	4.84244e-21 5.70232 	-0.428444 	7.26939e-22 5.69137 	-0.42933