# vtk DataFile Version 2.0
track0
ASCII
DATASET POLYDATA
POINTS 12050 float
-0.0205 0.001 1e-05
-0.02052 0.000999985 1e-05
-0.02054 0.000999974 1e-05
-0.02056 0.000999965 1e-05
-0.02058 0.000999959 1e-05
-0.0206 0.000999956 1e-05
-0.0205 0.00367778 1e-05
-0.02052 0.00367778 1e-05
-0.02054 0.00367777 1e-05
-0.02056 0.00367777 1e-05
-0.02058 0.00367777 1e-05
-0.0206 0.00367777 1e-05
-0.0205 0.00635556 1e-05
-0.02052 0.00635555 1e-05
-0.02054 0.00635555 1e-05
-0.02056 0.00635555 1e-05
-0.02058 0.00635555 1e-05
-0.0206 0.00635555 1e-05
-0.0205 0.00903333 1e-05
-0.02052 0.00903333 1e-05
-0.02054 0.00903333 1e-05
-0.02056 0.00903333 1e-05
-0.02058 0.00903333 1e-05
-0.0206 0.00903333 1e-05
-0.0205 0.0117111 1e-05
-0.02052 0.0117111 1e-05
-0.02054 0.0117111 1e-05
-0.02056 0.0117111 1e-05
-0.02058 0.0117111 1e-05
-0.0206 0.0117111 1e-05
-0.0205 0.0143889 1e-05
-0.02052 0.0143889 1e-05
-0.02054 0.0143889 1e-05
-0.02056 0.0143889 1e-05
-0.02058 0.0143889 1e-05
-0.0206 0.0143889 1e-05
-0.0205 0.0170667 1e-05
-0.02052 0.0170667 1e-05
-0.02054 0.0170667 1e-05
-0.02056 0.0170667 1e-05
-0.02058 0.0170667 1e-05
-0.0206 0.0170667 1e-05
-0.0205 0.0197444 1e-05
-0.02052 0.0197444 1e-05
-0.02054 0.0197444 1e-05
-0.02056 0.0197444 1e-05
-0.02058 0.0197444 1e-05
-0.0206 0.0197444 1e-05
-0.0205 0.0224222 1e-05
-0.02052 0.0224222 1e-05
-0.02054 0.0224222 1e-05
-0.02056 0.0224222 1e-05
-0.02058 0.0224222 1e-05
-0.0206 0.0224222 1e-05
-0.0205 0.0251 1e-05
-0.02052 0.0250998 1e-05
-0.02054 0.0250997 1e-05
-0.02056 0.0250995 1e-05
-0.02058 0.0250995 1e-05
-0.0206 0.0250994 1e-05
-0.0205 0.001 1e-05
-0.0202034 0.00100022 1e-05
-0.0199069 0.00100067 1e-05
-0.0196103 0.00100133 1e-05
-0.0193137 0.00100219 1e-05
-0.0190172 0.00100326 1e-05
-0.0187132 0.00100467 1e-05
-0.0184093 0.00100589 1e-05
-0.0181054 0.00100711 1e-05
-0.0178015 0.00100833 1e-05
-0.0174976 0.00100954 1e-05
-0.0172058 0.00101083 1e-05
-0.016914 0.00101194 1e-05
-0.0166222 0.00101304 1e-05
-0.0163305 0.00101413 1e-05
-0.0160387 0.00101523 1e-05
-0.0157586 0.00101637 1e-05
-0.0154784 0.00101745 1e-05
-0.0151983 0.00101857 1e-05
-0.0149182 0.00101972 1e-05
-0.0146381 0.00102091 1e-05
-0.0143749 0.00102209 1e-05
-0.0141117 0.00102327 1e-05
-0.0138485 0.00102449 1e-05
-0.0135852 0.00102574 1e-05
-0.013363 0.00102682 1e-05
-0.0133491 0.00102689 1e-05
-0.0133352 0.00102696 1e-05
-0.0133213 0.00102702 1e-05
-0.0133074 0.00102709 1e-05
-0.0132934 0.00102716 1e-05
-0.0130353 0.00102845 1e-05
-0.0127771 0.00102975 1e-05
-0.0125189 0.00103107 1e-05
-0.0122607 0.00103241 1e-05
-0.0120025 0.00103376 1e-05
-0.0117547 0.00103507 1e-05
-0.0115068 0.00103639 1e-05
-0.0112589 0.00103771 1e-05
-0.0110111 0.00103903 1e-05
-0.0107632 0.00104036 1e-05
-0.0105252 0.00104164 1e-05
-0.0102873 0.00104292 1e-05
-0.0100493 0.0010442 1e-05
-0.00981133 0.00104548 1e-05
-0.00957337 0.00104676 1e-05
-0.00934491 0.00104798 1e-05
-0.00911645 0.00104921 1e-05
-0.00888799 0.00105043 1e-05
-0.00865954 0.00105165 1e-05
-0.00843108 0.00105286 1e-05
-0.00821175 0.00105402 1e-05
-0.00799242 0.00105518 1e-05
-0.00777309 0.00105634 1e-05
-0.00755376 0.00105749 1e-05
-0.00733443 0.00105864 1e-05
-0.00712387 0.00105973 1e-05
-0.0069133 0.00106082 1e-05
-0.00670273 0.00106191 1e-05
-0.00649216 0.001063 1e-05
-0.0062816 0.00106408 1e-05
-0.00607944 0.00106511 1e-05
-0.00587729 0.00106614 1e-05
-0.00567514 0.00106716 1e-05
-0.00547298 0.00106819 1e-05
-0.00527083 0.00106921 1e-05
-0.00507675 0.00107017 1e-05
-0.00488267 0.00107114 1e-05
-0.0046886 0.00107211 1e-05
-0.00449452 0.00107307 1e-05
-0.00430044 0.00107403 1e-05
-0.00411412 0.00107495 1e-05
-0.0039278 0.00107586 1e-05
-0.00374147 0.00107678 1e-05
-0.00355515 0.00107769 1e-05
-0.00336883 0.0010786 1e-05
-0.00318995 0.00107946 1e-05
-0.00301107 0.00108033 1e-05
-0.00283219 0.00108119 1e-05
-0.00265331 0.00108206 1e-05
-0.00247443 0.00108292 1e-05
-0.0023027 0.00108375 1e-05
-0.00213097 0.00108457 1e-05
-0.00195924 0.0010854 1e-05
-0.0017875 0.00108623 1e-05
-0.00161577 0.00108706 1e-05
-0.0014509 0.00108786 1e-05
-0.00128603 0.00108865 1e-05
-0.00112116 0.00108946 1e-05
-0.000956289 0.00109026 1e-05
-0.000791418 0.00109107 1e-05
-0.000633135 0.00109185 1e-05
-0.000474851 0.00109264 1e-05
-0.000316568 0.00109344 1e-05
-0.000158284 0.00109423 1e-05
0 0.00109503 1e-05
0.000105677 0.00109557 1e-05
0.000211355 0.0010961 1e-05
0.000317032 0.00109664 1e-05
0.00042271 0.00109717 1e-05
0.000528387 0.00109771 1e-05
0.000634886 0.00109824 1e-05
0.000741385 0.00109877 1e-05
0.000847885 0.0010993 1e-05
0.000954384 0.00109982 1e-05
0.00106088 0.00110034 1e-05
0.00116821 0.00110085 1e-05
0.00127554 0.00110136 1e-05
0.00138286 0.00110187 1e-05
0.00149019 0.00110236 1e-05
0.00159752 0.00110285 1e-05
0.00170568 0.00110333 1e-05
0.00181384 0.00110381 1e-05
0.001922 0.00110427 1e-05
0.00203016 0.00110473 1e-05
0.00213833 0.00110518 1e-05
0.00224733 0.00110561 1e-05
0.00235633 0.00110605 1e-05
0.00246533 0.00110647 1e-05
0.00257434 0.00110689 1e-05
0.00268334 0.00110729 1e-05
0.00279319 0.00110769 1e-05
0.00290304 0.00110808 1e-05
0.00301289 0.00110847 1e-05
0.00312274 0.00110884 1e-05
0.00323259 0.00110921 1e-05
0.00334329 0.00110956 1e-05
0.003454 0.00110992 1e-05
0.0035647 0.00111026 1e-05
0.0036754 0.0011106 1e-05
0.00378611 0.00111093 1e-05
0.00389767 0.00111124 1e-05
0.00400924 0.00111156 1e-05
0.0041208 0.00111186 1e-05
0.00423237 0.00111216 1e-05
0.00434393 0.00111245 1e-05
0.00445636 0.00111273 1e-05
0.00456879 0.001113 1e-05
0.00468123 0.00111327 1e-05
0.00479366 0.00111352 1e-05
0.00490609 0.00111377 1e-05
0.0050194 0.00111401 1e-05
0.0051327 0.00111425 1e-05
0.00524601 0.00111447 1e-05
0.00535932 0.00111469 1e-05
0.00547262 0.0011149 1e-05
0.00558681 0.0011151 1e-05
0.005701 0.0011153 1e-05
0.00581518 0.00111549 1e-05
0.00592937 0.00111567 1e-05
0.00604356 0.00111584 1e-05
0.00615863 0.001116 1e-05
0.00627371 0.00111616 1e-05
0.00638878 0.00111631 1e-05
0.00650386 0.00111645 1e-05
0.00661893 0.00111658 1e-05
0.0067349 0.0011167 1e-05
0.00685087 0.00111682 1e-05
0.00696684 0.00111693 1e-05
0.00708281 0.00111703 1e-05
0.00719878 0.00111712 1e-05
0.00731565 0.00111721 1e-05
0.00743252 0.00111728 1e-05
0.00754939 0.00111735 1e-05
0.00766626 0.00111741 1e-05
0.00778313 0.00111747 1e-05
0.00781 0.00111748 1e-05
0.00783686 0.00111749 1e-05
0.00786373 0.00111749 1e-05
0.00789059 0.0011175 1e-05
0.0079171 0.00111751 1e-05
0.00800809 0.00111754 1e-05
0.00809907 0.00111756 1e-05
0.00819006 0.00111758 1e-05
0.00828105 0.00111759 1e-05
0.00837203 0.0011176 1e-05
0.00849073 0.0011176 1e-05
0.00860942 0.00111759 1e-05
0.00872812 0.00111758 1e-05
0.00884682 0.00111755 1e-05
0.00896551 0.00111752 1e-05
0.00908513 0.00111748 1e-05
0.00920475 0.00111743 1e-05
0.00932437 0.00111737 1e-05
0.00944398 0.0011173 1e-05
0.0095636 0.00111723 1e-05
0.00968415 0.00111713 1e-05
0.0098047 0.00111704 1e-05
0.00992525 0.00111693 1e-05
0.0100458 0.00111682 1e-05
0.0101663 0.0011167 1e-05
0.0102878 0.00111656 1e-05
0.0104093 0.00111642 1e-05
0.0105308 0.00111627 1e-05
0.0106523 0.00111611 1e-05
0.0107738 0.00111594 1e-05
0.0108962 0.00111575 1e-05
0.0110186 0.00111556 1e-05
0.0111411 0.00111536 1e-05
0.0112635 0.00111516 1e-05
0.0113859 0.00111494 1e-05
0.0115093 0.0011147 1e-05
0.0116327 0.00111446 1e-05
0.0117561 0.00111421 1e-05
0.0118795 0.00111396 1e-05
0.0120028 0.00111369 1e-05
0.0121272 0.0011134 1e-05
0.0122515 0.00111311 1e-05
0.0123759 0.00111281 1e-05
0.0125002 0.0011125 1e-05
0.0126245 0.00111219 1e-05
0.0127498 0.00111184 1e-05
0.0128752 0.0011115 1e-05
0.0130005 0.00111115 1e-05
0.0131258 0.00111079 1e-05
0.0132511 0.00111042 1e-05
0.0133774 0.00111002 1e-05
0.0135036 0.00110963 1e-05
0.0136299 0.00110922 1e-05
0.0137562 0.00110881 1e-05
0.0138825 0.00110838 1e-05
0.0140098 0.00110793 1e-05
0.014137 0.00110748 1e-05
0.0142643 0.00110702 1e-05
0.0143915 0.00110655 1e-05
0.0145188 0.00110607 1e-05
0.0146471 0.00110557 1e-05
0.0147753 0.00110506 1e-05
0.0149036 0.00110454 1e-05
0.0150318 0.00110401 1e-05
0.0151601 0.00110347 1e-05
0.0152893 0.00110292 1e-05
0.0154186 0.00110235 1e-05
0.0155478 0.00110177 1e-05
0.0156771 0.00110119 1e-05
0.0158063 0.00110059 1e-05
0.0159366 0.00109998 1e-05
0.0160668 0.00109935 1e-05
0.0161971 0.00109872 1e-05
0.0163274 0.00109807 1e-05
0.0164576 0.00109742 1e-05
0.0165889 0.00109675 1e-05
0.0167201 0.00109607 1e-05
0.0168514 0.00109537 1e-05
0.0169827 0.00109467 1e-05
0.0171139 0.00109395 1e-05
0.0172462 0.00109323 1e-05
0.0173785 0.00109249 1e-05
0.0175108 0.00109173 1e-05
0.0176431 0.00109096 1e-05
0.0177754 0.00109019 1e-05
0.0179087 0.00108941 1e-05
0.018042 0.00108861 1e-05
0.0181753 0.00108779 1e-05
0.0183087 0.00108696 1e-05
0.018442 0.00108613 1e-05
0.0185763 0.00108529 1e-05
0.0187107 0.00108443 1e-05
0.018845 0.00108355 1e-05
0.0189794 0.00108266 1e-05
0.0191137 0.00108176 1e-05
0.0192491 0.00108087 1e-05
0.0193845 0.00107995 1e-05
0.0195199 0.001079 1e-05
0.0196553 0.00107804 1e-05
0.0197907 0.00107709 1e-05
0.0199272 0.00107613 1e-05
0.0200636 0.00107515 1e-05
0.0202001 0.00107414 1e-05
0.0203365 0.00107313 1e-05
0.020473 0.00107211 1e-05
0.0206105 0.00107109 1e-05
0.020748 0.00107005 1e-05
0.0208855 0.00106898 1e-05
0.021023 0.0010679 1e-05
0.0211606 0.00106682 1e-05
0.0212991 0.00106574 1e-05
0.0214377 0.00106464 1e-05
0.0215763 0.0010635 1e-05
0.0217149 0.00106235 1e-05
0.0218535 0.00106122 1e-05
0.0219931 0.00106008 1e-05
0.0221328 0.00105891 1e-05
0.0222724 0.00105771 1e-05
0.0224121 0.0010565 1e-05
0.0225517 0.00105529 1e-05
0.0226925 0.00105409 1e-05
0.0228332 0.00105285 1e-05
0.022974 0.00105159 1e-05
0.0231147 0.00105031 1e-05
0.0232555 0.00104905 1e-05
0.0233973 0.00104778 1e-05
0.0235391 0.00104648 1e-05
0.023681 0.00104515 1e-05
0.0238228 0.00104381 1e-05
0.0239647 0.00104247 1e-05
0.0241076 0.00104114 1e-05
0.0242505 0.00103977 1e-05
0.0243935 0.00103838 1e-05
0.0245364 0.00103697 1e-05
0.0246794 0.00103557 1e-05
0.0248234 0.00103417 1e-05
0.0249675 0.00103273 1e-05
0.0251115 0.00103127 1e-05
0.0252556 0.00102979 1e-05
[...]
POINT_DATA 12050
 FIELD attributes 2
p 1 12050 float
-4.24198 -4.23867 -4.23536 -4.23205 -4.22875 -4.22544
-4.39518 -4.39516 -4.39513 -4.39511 -4.39509 -4.39507
-4.56938 -4.56925 -4.56913 -4.56901 -4.56888 -4.56878
-4.66289 -4.66284 -4.66278 -4.66273 -4.66268 -4.66262
-4.70822 -4.70811 -4.70799 -4.70788 -4.70777 -4.70765
-4.71502 -4.71486 -4.7147 -4.71454 -4.71438 -4.71422
-4.68835 -4.68828 -4.68821 -4.68813 -4.68806 -4.68799
-4.61899 -4.61895 -4.61891 -4.61887 -4.61883 -4.61879
-4.49791 -4.49792 -4.49793 -4.49793 -4.49794 -4.49795
-2.28547 -2.30479 -2.32399 -2.34305 -2.36198 -2.38077
-4.24198 -4.2413 -4.23773 -4.23408 -4.23035 -4.22207 -4.23597 -4.25098 -4.26599 -4.281 -4.30545 -4.3272 -4.35711 -4.38702 -4.41693 -4.44965 -4.46527 -4.48693 -4.50859 -4.53025 -4.55353 -4.57235 -4.59317 -4.61399 -4.63482 -4.65241 -4.65351 -4.65461 -4.65571 -4.6568 -4.65789 -4.67948 -4.70107 -4.72266 -4.74425 -4.76556 -4.78423 -4.80271 -4.82118 -4.83966 -4.85756 -4.87307 -4.88829 -4.90352 -4.91874 -4.93341 -4.94704 -4.96041 -4.97378 -4.98716 -5.00008 -5.0126 -5.02485 -5.0371 -5.04934 -5.06116 -5.07272 -5.08396 -5.0952 -5.10644 -5.11724 -5.1279 -5.13825 -5.1486 -5.15896 -5.16894 -5.17887 -5.18848 -5.19809 -5.2077 -5.21698 -5.22628 -5.23531 -5.24435 -5.25338 -5.26222 -5.27104 -5.27946 -5.28788 -5.2963 -5.30453 -5.31301 -5.32155 -5.33009 -5.33863 -5.34753 -5.35674 -5.36548 -5.37422 -5.38296 -5.39186 -5.40198 -5.4138 -5.42561 -5.43743 -5.45038 -5.46297 -5.4777 -5.49243 -5.50717 -5.52157 -5.53472 -5.54775 -5.56078 -5.57382 -5.58545 -5.59488 -5.60474 -5.6146 -5.62447 -5.63466 -5.64365 -5.65267 -5.6617 -5.67073 -5.6797 -5.68851 -5.69614 -5.70376 -5.71139 -5.71794 -5.72531 -5.73127 -5.73723 -5.74319 -5.74792 -5.75396 -5.75886 -5.76376 -5.76866 -5.77255 -5.77755 -5.78163 -5.78571 -5.78979 -5.79308 -5.7971 -5.80038 -5.80366 -5.80695 -5.80967 -5.81279 -5.81536 -5.81794 -5.82051 -5.82274 -5.82524 -5.82736 -5.82949 -5.83162 -5.83356 -5.83577 -5.83775 -5.83972 -5.84169 -5.84356 -5.84562 -5.84752 -5.84943 -5.85134 -5.85318 -5.85513 -5.85698 -5.85884 -5.8607 -5.86255 -5.86299 -5.86341 -5.86383 -5.86425 -5.86467 -5.86609 -5.86752 -5.86895 -5.87038 -5.87194 -5.87367 -5.87555 -5.87742 -5.8793 -5.88156 -5.88312 -5.8851 -5.88708 -5.88906 -5.89175 -5.89316 -5.8953 -5.89743 -5.89957 -5.90277 -5.90401 -5.90628 -5.90855 -5.91083 -5.91451 -5.91555 -5.91793 -5.92031 -5.92269 -5.92682 -5.92769 -5.93018 -5.93268 -5.93517 -5.93972 -5.94047 -5.9431 -5.94572 -5.94834 -5.95328 -5.95396 -5.95672 -5.95948 -5.96224 -5.96751 -5.96817 -5.97106 -5.97395 -5.97684 -5.98238 -5.98306 -5.98607 -5.98909 -5.99215 -5.99785 -5.99875 -6.00176 -6.0049 -6.00834 -6.01393 -6.01519 -6.01811 -6.02137 -6.02515 -6.03061 -6.03223 -6.0351 -6.03848 -6.04254 -6.04787 -6.04983 -6.05269 -6.05619 -6.06048 -6.06567 -6.06796 -6.07085 -6.07447 -6.07893 -6.084 -6.08658 -6.08955 -6.09326 -6.09786 -6.10282 -6.10569 -6.10875 -6.11256 -6.11725 -6.12213 -6.12524 -6.12841 -6.13231 -6.13705 -6.14183 -6.14515 -6.14848 -6.15247 -6.15716 -6.16185 -6.16538 -6.1689 -6.17298 -6.17762 -6.18225 -6.18599 -6.18973 -6.19389 -6.19847 -6.20306 -6.20697 -6.21089 -6.2151 -6.21961 -6.22412 -6.22815 -6.23218 -6.23641 -6.24087 -6.24532 -6.24941 -6.25351 -6.25777 -6.26219 -6.26661 -6.27075 -6.27489 -6.27918 -6.2836 -6.28801 -6.29219 -6.29637 -6.30068 -6.30509 -6.3095 -6.31369 -6.31791 -6.32223 -6.32662 -6.33103 -6.33523 -6.33946 -6.34378 -6.34815 -6.35255 -6.35673 -6.36097 -6.36527 -6.36961 -6.37398 -6.37814 -6.38237 -6.38664 -6.39094 -6.39529 -6.3994 -6.40361 -6.40785 -6.41209 -6.4164 -6.42046 -6.42464 -6.42882 -6.43301 -6.43725 -6.44126 -6.44538 -6.4495 -6.45361 -6.45778 -6.46173 -6.46576 -6.4698 -6.47384 -6.4779 -6.48178 -6.48572 -6.48966 -6.4936 -6.49756 -6.50134 -6.50516 -6.50898 -6.51281 -6.51664 -6.52031 -6.524 -6.52769 -6.53138 -6.53507 -6.53538 -6.5357 -6.53601 -6.53633 -6.53664 -6.53988 -6.54312 -6.54636 -6.5496 -6.55285 -6.55625 -6.55964 -6.56304 -6.56644 -6.56984 -6.57308 -6.5763 -6.57952 -6.58274 -6.58597 -6.58902 -6.59203 -6.59504 -6.59805 -6.60105 -6.60389 -6.60665 -6.60941 -6.61218 -6.6149 -6.61752 -6.62 -6.62249 -6.62497 -6.6274 -6.62974 -6.63196 -6.63415 -6.63631 -6.63843 -6.64047 -6.64243 -6.64431 -6.64614 -6.64792 -6.64965 -6.65133 -6.65288 -6.65433 -6.65577 -6.65715 -6.65853 -6.65971 -6.66076 -6.6618 -6.66281 -6.66382 -6.66461 -6.66524 -6.66586 -6.66646 -6.66706 -6.66744 -6.66761 -6.66778 -6.66793 -6.66809 -6.66803 -6.66771 -6.6674 -6.66707 -6.66675 -6.66621 -6.66538 -6.66454 -6.66371 -6.66283 -6.66176 -6.66045 -6.65906 -6.65768 -6.65619 -6.65455 -6.65275 -6.65079 -6.64883 -6.64668 -6.64444 -6.64213 -6.63955 -6.63698 -6.63413 -6.63125 -6.62838 -6.62519 -6.62191 -6.61837 -6.61483 -6.61129 -6.60754 -6.60348 -6.59924 -6.59501 -6.59078 -6.58644 -6.5821 -6.57766 -6.57323 -6.5688 -6.56464 -6.56406 -6.56349 -6.56291 -6.56234 -6.56175 -6.55611 -6.55045 -6.5448 -6.53916 -6.53336 -6.52709 -6.52066 -6.51422 -6.50779 -6.50106 -6.49416 -6.48691 -6.47966 -6.47243 -6.4647 -6.45709 -6.44905 -6.44096 -6.43273 -6.42412 -6.41565 -6.40693 -6.39797 -6.38869 -6.37919 -6.36984 -6.36042 -6.35058 -6.34021 -6.32981 -6.31956 -6.30931 -6.29853 -6.28721 -6.27589 -6.26472 -6.25356 -6.24185 -6.2296 -6.21735 -6.20524 -6.19315 -6.18046 -6.1673 -6.1541 -6.14105 -6.12778 -6.11412 -6.10022 -6.08607 -6.07205 -6.05758 -6.04295 -6.02832 -6.01321 -5.99816 -5.98256 -5.96698 -5.9514 -5.93554 -5.91929 -5.90274 -5.8862 -5.86966 -5.85309 -5.84933 -5.84552 -5.8417 -5.83789 -5.83413 -5.82054 -5.80695 -5.79336 -5.77978 -5.76604 -5.74786 -5.72956 -5.71127 -5.69298 -5.67432 -5.65539 -5.63617 -5.61696 -5.59764 -5.57795 -5.55811 -5.53812 -5.518 -5.49755 -5.47696 -5.45621 -5.43547 -5.4144 -5.39292 -5.37145 -5.34981 -5.32819 -5.30619 -5.28386 -5.26153 -5.23903 -5.2165 -5.19357 -5.17048 -5.14733 -5.12401 -5.10043 -5.0767 -5.05295 -5.02902 -5.00485 -4.98035 -4.95585 -4.93135 -4.90678 -4.8905 -4.87409 -4.85768 -4.84127 -4.82545 -4.81651 -4.80758 -4.79865 -4.78972 -4.78075 -4.75482 -4.72891 -4.703 -4.67711 -4.65112 -4.62449 -4.59793 -4.57139 -4.54482 -4.51815 -4.49087 -4.46365 -4.43648 -4.40925 -4.38199 -4.35412 -4.32626 -4.29845 -4.27061 -4.24277 -4.21433 -4.1859 -4.1574 -4.12902 -4.10063 -4.07165 -4.04264 -4.01357 -3.98453 -3.95558 -3.92605 -3.8964 -3.86675 -3.83712 -3.80752 -3.78727 -3.76696 -3.74666 -3.72635 -3.70666 -3.69662 -3.68658 -3.67654 -3.6665 -3.65642 -3.62559 -3.59478 -3.56398 -3.53318 -3.50218 -3.47075 -3.43934 -3.40794 -3.37645 -3.34479 -3.31276 -3.28075 -3.24878 -3.21658 -3.18436 -3.15179 -3.11922 -3.08655 -3.05381 -3.02107 -2.98798 -2.95484 -2.9215 -2.88822 -2.85499 -2.8214 -2.78759 -2.75372 -2.71986 -2.68609 -2.65697 -2.62768 -2.59839 -2.56911 -2.54091 -2.5356 -2.53028 -2.52497 -2.51965 -2.51429 -2.47935 -2.44442 -2.40949 -2.37457 -2.3393 -2.30377 -2.26824 -2.23271 -2.19699 -2.16093 -2.12477 -2.08862 -2.05243 -2.01571 -1.97897 -1.94216 -1.90536 -1.86812 -1.83066 -1.7932 -1.75567 -1.71791 -1.67975 -1.64157 -1.60333 -1.56501 -1.52605 -1.48708 -1.44812 -1.40912 -1.3954 -1.38149 -1.36758 -1.35367 -1.34 -1.31408 -1.28817 -1.26225 -1.23634 -1.21005 -1.1695 -1.12881 -1.08813 -1.04732 -1.00572 -0.964274 -0.922732 -0.881041 -0.838537 -0.795881 -0.753411 -0.710947 -0.667738 -0.623881 -0.580004 -0.53634 -0.492323 -0.447572 -0.402708 -0.357568 -0.312569 -0.266478 -0.220391 -0.174311 -0.128112 -0.119631 -0.110967 -0.102303 -0.0936396 -0.085077 -0.0463426 -0.00761272 0.0311127 0.0698336 0.109423 0.157783 0.206665 0.255539 0.304992 0.355316 0.405221 0.45512 0.505924 0.557951 0.610021 0.661648 0.713333 0.766523 0.820185 0.87412 0.927591 0.982529 1.03765 1.09276 1.14821 1.16325 1.1787 1.19416 1.20961 1.22473 1.26625 1.30777 1.34928 1.39079 1.43345 1.49152 1.55046 1.60939 1.66929 1.73011 1.7904 1.85067 1.91233 1.97542 2.03861 2.10123 2.16465 2.22924 2.29385 2.35957 2.39955 2.44077 2.482 2.52322 2.56209 2.58829 2.61448 2.64068 2.66687 2.69388 2.76237 2.83155 2.90073 2.97075 3.04216 3.11293 3.18368 3.25605 3.33005 3.40423 3.47776 3.55245 3.6281 3.70374 3.7803 3.80184 3.82389 3.84603 3.86817 3.88966 3.94561 4.00155 4.05749 4.11361 4.17116 4.25054 4.33042 4.41089 4.49334 4.57611 4.65823 4.74074 4.82477 4.90887 4.99433 5.02956 5.06533 5.10131 5.1373 5.17165 5.2222 5.27273 5.32326 5.37406 5.42575 5.51304 5.60072 5.68901 5.77878 5.86901 5.95855 6.04863 6.13951 6.23035 6.32207 6.33359 6.3452 6.35687 6.36853 6.38004 6.46058 6.54109 6.62157 6.70242 6.78429 6.87716 6.96998 7.06338 7.15763 7.25249 7.30283 7.3533 7.40392 7.45452 7.50254 7.54694 7.59133 7.6357 7.68023 7.72507 7.81949 7.91393 8.00881 8.10391 8.19965 8.26842 8.33716 8.40586 8.47454 8.53933 8.56614 8.59294 8.61973 8.64652 8.67336 8.76761 8.86193 8.95623 9.05011 9.14458 9.20618 9.26761 9.32861 9.3896 9.44833 9.48064 9.51294 9.54524 9.57734 9.60942 9.70127 9.79309 9.88443 9.975 10.0659 10.1081 10.1502 10.1917 10.2331 10.2741 10.3218 10.3695 10.4172 10.4643 10.5112 10.5986 10.6859 10.7719 10.8573 10.9426 10.9617 10.9806 10.9992 11.0178 11.0364 11.1016 11.1667 11.2319 11.2958 11.3592 11.4386 11.5177 11.5949 11.6721 11.7524 11.7535 11.7545 11.7555 11.7565 11.7575 11.8347 11.9119 11.9892 12.0645 12.139 12.1983 12.2571 12.3145 12.3719 12.4331 12.4466 12.4601 12.4735 12.4867 12.4997 12.5695 12.6388 12.7081 12.7751 12.8416 12.8929 12.9435 12.9929 13.0424 13.0967 13.1099 13.1231 13.1363 13.1492 13.1619 13.2234 13.2844 13.3454 13.4045 13.4628 13.52 13.5763 13.6314 13.6866 13.7412 13.7439 13.7466 13.7492 13.7518 13.7544 13.8043 13.8542 13.904 13.9531 14.0009 14.0497 14.0986 14.1461 14.1927 14.2389 14.2729 14.306 14.3388 14.3715 14.4092 14.4187 14.4282 14.4377 14.4471 14.4563 14.4968 14.5371 14.5773 14.617 14.6556 14.6924 14.7292 14.7652 14.8002 14.8351 14.8683 14.9006 14.9326 14.9645 14.9959 15.0084 15.0205 15.0326 15.0446 15.0578 15.0744 15.0911 15.1077 15.1243 15.1405 15.1666 15.1926 15.2186 15.2442 15.2693 15.2924 15.3155 15.3382 15.3605 15.3826 15.4029 15.4231 15.4428 15.4623 15.4818 15.4995 15.5168 15.534 15.5511 15.5681 15.5834 15.5984 15.6133 15.6282 15.6431 15.6455 15.6478 15.6502 15.6525 15.655 15.6658 15.6767 15.6875 15.6984 15.7091 15.7206 15.7323 15.7439 15.7555 15.767 15.7771 15.7874 15.7977 15.8081 15.8186 15.8278 15.837 15.8466 15.8565 15.8666 15.8755 15.8845 15.8936 15.9031 15.9127 15.9214 15.93 15.9399 15.9512 15.9624 15.9728 15.9831 15.9917 15.9977 16.0035 16.0079 16.0122 16.0226 16.0371 16.0514 16.0654 16.0784 16.0717 16.0532 16.0306 16.0043 15.9761 15.9472 15.9181 15.8892 15.8576 15.8269 15.7961 15.7652 15.7349 15.7231 15.7111 15.6991 15.6871 15.6736 15.6545 15.6355 15.6164 15.5973 15.5781 15.5429 15.5072 15.4714 15.4356 15.3987 15.358 15.3166 15.2751 15.2334 15.1907 15.1446 15.0981 15.0513 15.0039 14.9561 14.9048 14.8534 14.8012 14.7481 14.6947 14.6379 14.5811 14.5229 14.4634 14.4038 14.3407 14.2776 14.2128 14.1465 14.0801 14.01 13.9399 13.8679 13.7939 13.72 13.642 13.5637 13.4835 13.4017 13.3193 13.2327 13.1449 13.0557 12.9653 12.8734 12.777 12.6783 12.5788 12.479 12.3764 12.2688 12.1577 12.0465 11.9353 11.8211 11.6999 11.5757 11.4515 11.3273 11.2011 11.0642 10.9249 10.7855 10.6462 10.5056 10.3826 10.2586 10.1347 10.0107 9.86602 9.83858 9.81114 9.7837 9.75627 9.7286 9.55328 9.37747 9.20164 9.02577 8.84702 8.65285 8.45786 8.26285 8.06783 7.87154 7.65681 7.42778 7.19868 6.96953 6.72089 6.46049 6.21831 5.97613 5.73395 5.51443 5.28765 4.97089 4.6454 4.29551 3.86445 3.4176 3.08416 2.81262 2.61762 2.52636 2.43139 2.20654 1.75052 0.914499 0