/*--------------------------------*- C++ -*----------------------------------*\
| =========                 |                                                 |
| \\      /  F ield         | OpenFOAM: The Open Source CFD Toolbox           |
|  \\    /   O peration     | Version:  2312                                  |
|   \\  /    A nd           | Website:  www.openfoam.com                      |
|    \\/     M anipulation  |                                                 |
\*---------------------------------------------------------------------------*/
FoamFile
{
    version     2.0;
    format      ascii;
    arch        "LSB;label=64;scalar=64";
    class       volScalarField;
    location    "110";
    object      nut_ML_ND;
}
// * * * * * * * * * * * * * * * * * * * * * * * * * * * * * * * * * * * * * //

dimensions      [0 0 0 0 0 0 0];

internalField   nonuniform List<scalar> 
404911
(
0.422218
0.538178
0.239211
0.0738975
0.557688
0.560107
0.54594
0.0724631
0.138269
0.291175
0.558511
0.544243
0.581713
0.545639
0.531594
0.335815
0.5442
0.583573
0.57132
0.529302
0.498964
0.574105
0.482014
0.510945
0.581462
0.498974
0.564745
0.589801
0.590723
0.377114
0.570828
0.585318
0.571944
0.54345
0.555899
0.576923
0.55057
0.514546
0.541976
0.57332
0.551755
0.325185
0.532484
0.574959
0.573991
0.514186
0.507291
0.567119
0.565104
0.494984
0.376185
0.520567
0.541997
0.346698
0.363569
0.352058
0.0738993
0.568417
0.532501
0.53113
0.547487
0.574953
0.544462
0.583621
0.578264
0.567145
0.580504
0.531785
0.576346
0.581103
0.573468
0.586309
0.57291
0.579655
0.585871
0.529146
0.188969
0.55394
0.580925
0.573191
0.578714
0.569338
0.58626
0.571758
0.579386
0.579553
0.543326
0.580938
0.355954
0.574108
0.552441
0.0779038
0.579177
0.554796
0.562936
0.579678
0.575065
0.573068
0.583542
0.544616
0.500698
0.581972
0.575015
0.498176
0.518003
0.530828
0.552511
0.533232
0.559393
0.572774
0.570963
0.565627
0.564737
0.559892
0.301205
0.54032
0.570811
0.324108
0.530948
0.570809
0.575875
0.575669
0.575588
0.54655
0.516531
0.561303
0.570979
0.569003
0.56758
0.530759
0.535169
0.53758
0.581672
0.581157
0.58133
0.580451
0.55978
0.559484
0.562835
0.529246
0.521318
0.560943
0.571075
0.569167
0.564424
0.573393
0.578564
0.580043
0.522202
0.532888
0.586485
0.581934
0.575001
0.415438
0.54057
0.523162
0.566955
0.574821
0.572869
0.569049
0.575857
0.573772
0.572885
0.574358
0.574622
0.575148
0.577284
0.578555
0.574677
0.547823
0.553447
0.539999
0.543503
0.538584
0.534772
0.534156
0.505027
0.575349
0.572755
0.574386
0.577278
0.575094
0.567289
0.562397
0.561074
0.56039
0.568456
0.534957
0.548365
0.540189
0.51521
0.531007
0.539214
0.530471
0.528923
0.576559
0.574638
0.575764
0.56708
0.564803
0.566377
0.564495
0.515643
0.522253
0.570375
0.545612
0.556677
0.552859
0.551301
0.530052
0.513153
0.538257
0.533376
0.537047
0.530947
0.576739
0.573325
0.566834
0.568647
0.567811
0.541186
0.525621
0.53564
0.561806
0.56543
0.577025
0.564275
0.54478
0.53696
0.556711
0.536146
0.553889
0.564303
0.579228
0.572731
0.565835
0.567402
0.557586
0.515255
0.516777
0.555743
0.575746
0.56951
0.576012
0.578028
0.57586
0.57695
0.569591
0.54049
0.553763
0.575882
0.576667
0.553155
0.523831
0.569808
0.568252
0.517556
0.537501
0.567163
0.574257
0.562251
0.577378
0.578756
0.579698
0.581065
0.581207
0.57884
0.579079
0.578366
0.545701
0.533664
0.537572
0.537789
0.545981
0.540531
0.564458
0.567829
0.544943
0.575584
0.579322
0.579644
0.579454
0.577464
0.58099
0.580247
0.580175
0.56385
0.522143
0.532645
0.539706
0.516435
0.553476
0.575704
0.571429
0.574273
0.575469
0.577065
0.581595
0.580596
0.578377
0.568938
0.573031
0.576833
0.58015
0.566936
0.539889
0.539774
0.561995
0.520892
0.519031
0.521845
0.55745
0.570401
0.581925
0.584388
0.580635
0.577013
0.579854
0.579197
0.576262
0.575519
0.578119
0.579132
0.577201
0.547213
0.570319
0.534822
0.517491
0.564209
0.57617
0.571014
0.57595
0.574502
0.570573
0.583785
0.577651
0.575923
0.574773
0.581066
0.581125
0.578577
0.580411
0.578504
0.546695
0.560666
0.540045
0.573872
0.577311
0.578315
0.578643
0.572873
0.57664
0.578514
0.585185
0.582538
0.586473
0.588373
0.587996
0.579514
0.574448
0.5695
0.571018
0.517217
0.516753
0.560862
0.572581
0.57592
0.582094
0.585176
0.583934
0.579527
0.582793
0.582851
0.585804
0.580396
0.582409
0.57964
0.571984
0.571108
0.539966
0.516652
0.559183
0.57844
0.572567
0.570179
0.577355
0.582789
0.582001
0.585146
0.588345
0.587713
0.586195
0.58274
0.580113
0.577264
0.575424
0.574663
0.55652
0.525652
0.514383
0.522132
0.556368
0.57645
0.570621
0.582671
0.581803
0.582864
0.585715
0.587277
0.588404
0.5875
0.582251
0.577715
0.572265
0.572267
0.573321
0.542448
0.550964
0.582329
0.577731
0.578367
0.580599
0.583609
0.583808
0.582802
0.585082
0.582577
0.583682
0.586163
0.583287
0.57845
0.577692
0.574714
0.553743
0.523116
0.580801
0.585896
0.578825
0.579119
0.580412
0.583614
0.585151
0.58223
0.578854
0.579423
0.579673
0.582104
0.579754
0.579494
0.57406
0.575255
0.553009
0.551069
0.585167
0.580551
0.580309
0.580767
0.582389
0.582019
0.584802
0.584574
0.581563
0.578798
0.580637
0.582503
0.578403
0.577973
0.57484
0.573839
0.518676
0.571105
0.585291
0.584518
0.583622
0.583956
0.58556
0.58459
0.577186
0.586221
0.58628
0.582805
0.582651
0.580181
0.577199
0.575286
0.573809
0.558602
0.516702
0.544144
0.578889
0.582567
0.582959
0.5831
0.583722
0.58315
0.585258
0.587168
0.584947
0.586903
0.585517
0.582046
0.577073
0.570918
0.57656
0.568177
0.520234
0.51567
0.567883
0.581364
0.577536
0.581162
0.58342
0.585417
0.586616
0.586479
0.585082
0.586861
0.584623
0.580883
0.5801
0.577577
0.575801
0.570168
0.549911
0.540862
0.576509
0.579425
0.581689
0.582753
0.584091
0.585405
0.585853
0.583698
0.586677
0.586586
0.586848
0.581668
0.579421
0.575814
0.574185
0.569489
0.516972
0.509177
0.564538
0.57938
0.580153
0.582428
0.583771
0.584526
0.585391
0.585612
0.585521
0.583798
0.585462
0.5851
0.584534
0.5798
0.57788
0.572007
0.558212
0.516757
0.579337
0.57974
0.580355
0.582855
0.584713
0.585276
0.58556
0.585728
0.585893
0.584231
0.585456
0.584967
0.583434
0.580369
0.575366
0.569107
0.550302
0.570188
0.587073
0.580996
0.579724
0.582708
0.585244
0.585933
0.585903
0.585846
0.585771
0.58577
0.585713
0.584028
0.58176
0.578814
0.577436
0.573289
0.537748
0.57551
0.587193
0.586389
0.582984
0.583649
0.585579
0.586134
0.586512
0.587286
0.587158
0.586912
0.586122
0.584664
0.581464
0.578828
0.577312
0.561912
0.516907
0.515823
0.582468
0.588485
0.586731
0.584587
0.584775
0.585393
0.586148
0.58514
0.585768
0.587585
0.587616
0.586791
0.584342
0.581455
0.575203
0.573213
0.543168
0.522216
0.583396
0.585969
0.585418
0.583838
0.584075
0.585879
0.586202
0.586447
0.585375
0.586038
0.587578
0.586448
0.58265
0.579994
0.575204
0.571596
0.515954
0.565081
0.583991
0.58377
0.583709
0.584267
0.584942
0.586686
0.586797
0.586729
0.586687
0.586579
0.587142
0.585912
0.582005
0.576077
0.576695
0.569229
0.514391
0.567417
0.58367
0.584538
0.583436
0.58385
0.583663
0.58451
0.586955
0.586239
0.586669
0.586415
0.586227
0.585044
0.581505
0.577277
0.574925
0.554882
0.516683
0.57732
0.583285
0.583063
0.583559
0.583772
0.584628
0.584313
0.585742
0.586953
0.58685
0.586804
0.585143
0.583324
0.579619
0.571923
0.570887
0.540916
0.546565
0.582415
0.581283
0.580311
0.583322
0.585342
0.585979
0.586819
0.584641
0.585663
0.586614
0.587255
0.585334
0.583519
0.579766
0.570621
0.566334
0.51821
0.564716
0.584244
0.584597
0.583716
0.584338
0.585733
0.585001
0.58576
0.585062
0.586504
0.585726
0.586064
0.586109
0.582929
0.5801
0.571943
0.555518
0.515517
0.516043
0.577941
0.584592
0.583143
0.583332
0.584646
0.586274
0.585021
0.586044
0.586006
0.585736
0.586309
0.585573
0.585282
0.584432
0.578473
0.57315
0.552136
0.515903
0.580048
0.584641
0.583852
0.583181
0.585295
0.587057
0.586683
0.584635
0.585814
0.585985
0.58606
0.586315
0.585033
0.582466
0.577456
0.569297
0.539389
0.516442
0.58202
0.585023
0.584211
0.582861
0.586024
0.587754
0.587608
0.586588
0.58632
0.585891
0.585673
0.585762
0.585942
0.581422
0.574079
0.5664
0.520092
0.515914
0.583284
0.585126
0.583993
0.583008
0.584985
0.587715
0.588032
0.587283
0.586466
0.586216
0.586242
0.585863
0.585447
0.581658
0.573732
0.554877
0.503523
0.569064
0.586127
0.583758
0.582499
0.583278
0.58515
0.587302
0.587784
0.587081
0.586945
0.586149
0.586107
0.586192
0.582373
0.580265
0.570902
0.552077
0.513532
0.573727
0.587914
0.585312
0.582265
0.583122
0.586644
0.587203
0.587545
0.587406
0.586804
0.586217
0.585631
0.585894
0.584279
0.580513
0.572752
0.554332
0.515734
0.583166
0.586213
0.583198
0.582308
0.583841
0.586964
0.587458
0.587489
0.587145
0.585068
0.585236
0.584731
0.58421
0.583413
0.578825
0.575559
0.555522
0.519781
0.583192
0.587529
0.5866
0.583513
0.58331
0.586575
0.586645
0.585714
0.585663
0.586643
0.585124
0.583744
0.582437
0.58101
0.578236
0.577853
0.555483
0.517875
0.58244
0.586465
0.586126
0.584571
0.58362
0.586187
0.587014
0.586439
0.585361
0.58593
0.586414
0.585635
0.583571
0.581762
0.579756
0.579342
0.555379
0.516584
0.582696
0.585452
0.584733
0.584154
0.584922
0.586536
0.586582
0.586504
0.585902
0.585933
0.586346
0.585535
0.583779
0.581303
0.580445
0.578708
0.545455
0.517978
0.582987
0.584579
0.583888
0.583583
0.585826
0.587876
0.58781
0.587317
0.58689
0.586917
0.586354
0.585347
0.583466
0.580886
0.576919
0.575074
0.516435
0.565187
0.58338
0.583799
0.583356
0.583529
0.586333
0.588318
0.58834
0.587628
0.587235
0.586962
0.586456
0.585046
0.583468
0.581273
0.576958
0.573545
0.514642
0.563851
0.582845
0.583226
0.583702
0.58473
0.586671
0.587332
0.587553
0.586407
0.585386
0.586012
0.586889
0.585596
0.584074
0.581599
0.577354
0.572755
0.515746
0.512307
0.575131
0.581957
0.581663
0.582167
0.583621
0.585694
0.585757
0.585307
0.584589
0.584371
0.58273
0.585238
0.586161
0.584348
0.581771
0.57639
0.570687
0.516355
0.515982
0.576527
0.582243
0.577863
0.580409
0.582765
0.584024
0.585933
0.583197
0.58234
0.58231
0.581205
0.582636
0.58577
0.584483
0.580993
0.575879
0.560618
0.573926
0.579971
0.58285
0.583619
0.583682
0.585828
0.586133
0.5819
0.579475
0.580023
0.578328
0.582742
0.585699
0.583068
0.577924
0.574984
0.556425
0.516758
0.569568
0.577606
0.582089
0.584257
0.585505
0.5861
0.586331
0.586301
0.585045
0.577181
0.575134
0.582224
0.585843
0.582411
0.576414
0.57271
0.547802
0.516321
0.566461
0.573683
0.580899
0.584842
0.586795
0.586809
0.586735
0.586585
0.58628
0.584359
0.578398
0.581531
0.585798
0.583447
0.577609
0.571984
0.538577
0.513859
0.561418
0.567196
0.580209
0.585019
0.587173
0.58745
0.587008
0.585681
0.585732
0.586365
0.58585
0.585517
0.585655
0.582302
0.577304
0.571369
0.51924
0.566517
0.562205
0.580607
0.586128
0.586997
0.587063
0.586937
0.585585
0.584538
0.585494
0.586532
0.585506
0.584411
0.581415
0.574629
0.568194
0.517013
0.503153
0.570361
0.581947
0.586045
0.586935
0.587273
0.586781
0.586688
0.585003
0.582581
0.584949
0.585975
0.583331
0.5804
0.57507
0.567158
0.514774
0.354144
0.541664
0.575246
0.581465
0.586152
0.587303
0.587332
0.58691
0.586839
0.586621
0.586058
0.585673
0.58592
0.584044
0.578478
0.574567
0.565242
0.513566
0.539324
0.571946
0.577533
0.582842
0.586243
0.58735
0.587318
0.587103
0.585317
0.585582
0.58602
0.586432
0.585614
0.584385
0.57831
0.572336
0.550834
0.542502
0.56589
0.578393
0.58478
0.586141
0.58638
0.587337
0.586738
0.586319
0.585706
0.583749
0.585884
0.585369
0.582473
0.577078
0.569394
0.546909
0.481784
0.550591
0.559767
0.577216
0.581915
0.584253
0.584879
0.585462
0.586427
0.58616
0.583831
0.58338
0.585619
0.585722
0.581819
0.573646
0.56489
0.520455
0.517833
0.562582
0.572343
0.581926
0.582433
0.584653
0.581511
0.58464
0.585716
0.581569
0.585093
0.585551
0.586016
0.585974
0.578841
0.570583
0.563012
0.473188
0.520821
0.573488
0.56354
0.576933
0.58416
0.58542
0.585933
0.585877
0.582855
0.582832
0.582811
0.584972
0.585949
0.585423
0.581539
0.570302
0.565152
0.510111
0.534742
0.57298
0.57561
0.582206
0.585587
0.58586
0.585228
0.581196
0.585725
0.58479
0.585884
0.585825
0.585224
0.584817
0.582799
0.576172
0.568884
0.516668
0.513195
0.562669
0.57515
0.578267
0.582357
0.58593
0.580985
0.568555
0.577163
0.585811
0.585972
0.585013
0.58401
0.583695
0.585387
0.580642
0.575112
0.546653
0.514782
0.521585
0.576876
0.573683
0.579681
0.58324
0.585933
0.572965
0.555405
0.56679
0.584939
0.585769
0.586272
0.58642
0.584073
0.581547
0.578423
0.571597
0.56364
0.51421
0.570301
0.577776
0.582817
0.584712
0.58562
0.570433
0.555747
0.561096
0.575842
0.585925
0.586388
0.58599
0.585204
0.581218
0.574561
0.574185
0.555174
0.507054
0.569582
0.580288
0.578999
0.585106
0.584359
0.560048
0.558061
0.572266
0.576563
0.584191
0.586093
0.587397
0.586269
0.581862
0.575705
0.572947
0.549597
0.572006
0.582893
0.58068
0.582788
0.584364
0.564259
0.555009
0.567434
0.582951
0.582363
0.586064
0.586485
0.585378
0.581598
0.575971
0.571774
0.539518
0.570519
0.575904
0.581411
0.582044
0.585976
0.560712
0.555183
0.563031
0.574534
0.582304
0.585699
0.586432
0.584486
0.579834
0.576252
0.571036
0.519974
0.519444
0.573851
0.58058
0.582603
0.583776
0.586257
0.574837
0.559976
0.570091
0.579862
0.585769
0.586182
0.585583
0.583686
0.580131
0.573935
0.567608
0.517979
0.519321
0.573741
0.577038
0.581542
0.583253
0.585543
0.56441
0.563039
0.57405
0.584441
0.586399
0.585203
0.582733
0.583314
0.578478
0.575922
0.556954
0.521162
0.579894
0.581241
0.582073
0.584059
0.585766
0.570578
0.559418
0.569449
0.584359
0.586391
0.585487
0.584901
0.581575
0.577434
0.574964
0.551499
0.52528
0.584642
0.584033
0.582612
0.583876
0.58479
0.562519
0.566405
0.581115
0.585912
0.586388
0.58511
0.585185
0.582613
0.577897
0.574261
0.55119
0.530199
0.589677
0.587319
0.583501
0.582984
0.585943
0.567979
0.56698
0.579426
0.586117
0.586076
0.585165
0.585681
0.582707
0.577853
0.573343
0.522903
0.533651
0.591651
0.588452
0.585126
0.58367
0.585751
0.585885
0.577363
0.578777
0.586052
0.585037
0.584165
0.585924
0.582786
0.575925
0.569992
0.522156
0.585936
0.590437
0.586116
0.583097
0.58439
0.585591
0.584573
0.585804
0.585991
0.586069
0.58562
0.586436
0.584427
0.581964
0.573063
0.567321
0.52015
0.570849
0.565737
0.581519
0.586194
0.583422
0.565039
0.577678
0.58569
0.585723
0.585868
0.587551
0.586296
0.580109
0.572061
0.558729
0.518643
0.56798
0.576663
0.578552
0.586117
0.567242
0.561316
0.568063
0.584669
0.586255
0.585801
0.585293
0.587874
0.581779
0.570608
0.549187
0.574408
0.577547
0.580671
0.575441
0.581917
0.568465
0.561758
0.572537
0.583939
0.586653
0.586052
0.587833
0.587226
0.579021
0.568633
0.542293
0.573451
0.58497
0.580896
0.576062
0.578761
0.58655
0.570783
0.573889
0.586222
0.586235
0.585825
0.583854
0.583882
0.573314
0.566244
0.522726
0.57103
0.583186
0.580031
0.577456
0.579574
0.579837
0.585312
0.585494
0.585337
0.584918
0.584423
0.582372
0.580463
0.571489
0.566661
0.518591
0.522418
0.571887
0.580045
0.577488
0.576258
0.57819
0.580131
0.581943
0.582414
0.576644
0.576063
0.580027
0.586323
0.579665
0.569014
0.536296
0.521322
0.57662
0.578345
0.573688
0.581071
0.578229
0.581262
0.582535
0.586597
0.585125
0.582075
0.581123
0.582307
0.575754
0.548611
0.562252
0.528569
0.576096
0.574573
0.577172
0.585082
0.578929
0.583986
0.58382
0.585123
0.58559
0.580523
0.579176
0.578465
0.574906
0.548308
0.518625
0.563006
0.579471
0.543713
0.563639
0.584973
0.588029
0.585677
0.586969
0.586884
0.586234
0.5855
0.587995
0.575638
0.571975
0.557993
0.360616
0.556261
0.545398
0.564135
0.580338
0.580434
0.583297
0.585858
0.582955
0.581301
0.581412
0.586085
0.581622
0.57204
0.571211
0.560438
0.528526
0.519071
0.534134
0.55643
0.577928
0.581148
0.581271
0.584499
0.585238
0.581032
0.58051
0.580359
0.579289
0.565267
0.572007
0.560496
0.516016
0.566676
0.54038
0.560777
0.579003
0.582557
0.58488
0.582381
0.581036
0.580068
0.581478
0.580238
0.574245
0.571406
0.571809
0.509476
0.515943
0.566988
0.57069
0.537207
0.542101
0.580201
0.584764
0.584486
0.579825
0.580842
0.580234
0.575628
0.575842
0.575303
0.558658
0.518458
0.540508
0.570951
0.572533
0.532421
0.522388
0.578134
0.582337
0.58121
0.580809
0.57994
0.579107
0.568518
0.57254
0.569285
0.554302
0.517809
0.543829
0.534981
0.523306
0.535429
0.581748
0.581655
0.580589
0.578697
0.57363
0.563782
0.570569
0.565778
0.517973
0.522519
0.537263
0.538333
0.52778
0.533366
0.536389
0.580856
0.57969
0.578235
0.567754
0.571647
0.569116
0.551363
0.520284
0.563576
0.567821
0.531681
0.496398
0.574737
0.54309
0.520635
0.580366
0.57664
0.568509
0.571835
0.566043
0.544051
0.505079
0.563028
0.568167
0.529578
0.508041
0.542274
0.5766
0.560176
0.516349
0.552724
0.554042
0.573717
0.568295
0.516213
0.487964
0.560433
0.535772
0.51617
0.509304
0.518199
0.556321
0.562254
0.573328
0.535667
0.538714
0.57523
0.571041
0.513426
0.492834
0.559441
0.521247
0.518065
0.509016
0.506303
0.54997
0.571552
0.58113
0.562952
0.53937
0.574868
0.561364
0.514954
0.506924
0.559467
0.578685
0.510552
0.505323
0.503927
0.475888
0.571678
0.575905
0.553587
0.575976
0.577938
0.562972
0.510801
0.42011
0.426821
0.575528
0.57554
0.505503
0.507041
0.507651
0.519261
0.555362
0.528491
0.536696
0.582101
0.569154
0.575131
0.503062
0.510481
0.52839
0.574489
0.542674
0.538102
0.546138
0.559651
0.580532
0.580006
0.510936
0.531454
0.579755
0.582699
0.576509
0.522596
0.294147
0.502316
0.575077
0.535275
0.542873
0.581625
0.573586
0.290066
0.336421
0.524692
0.524987
0.571651
0.579109
0.522434
0.51199
0.516283
0.568505
0.575916
0.554284
0.5227
0.527995
0.561876
0.569206
0.576219
0.522916
0.510783
0.557624
0.38564
0.514991
0.560342
0.538818
0.57539
0.575327
0.569917
0.579399
0.554582
0.563533
0.577572
0.548732
0.5386
0.516911
0.489064
0.185606
0.515794
0.522771
0.573206
0.580784
0.549498
0.594164
0.603936
0.605642
0.600573
0.597861
0.611183
0.640429
0.649945
0.54736
0.589146
0.603966
0.608454
0.608461
0.604743
0.599258
0.592099
0.587026
0.596947
0.611231
0.629287
0.650015
0.660995
0.648446
0.543418
0.584638
0.5997
0.600393
0.598238
0.595796
0.592381
0.589263
0.586414
0.582871
0.580831
0.584523
0.590393
0.607937
0.622567
0.647602
0.659893
0.657134
0.645422
0.62075
0.598603
0.611236
0.546532
0.574895
0.591851
0.593257
0.5926
0.590087
0.586736
0.581815
0.57767
0.577447
0.579214
0.580662
0.581234
0.583787
0.556158
0.558452
0.614456
0.634102
0.652167
0.664401
0.663736
0.648242
0.608662
0.556325
0.577775
0.58532
0.586567
0.585633
0.587044
0.586598
0.58346
0.578288
0.573384
0.575073
0.578125
0.57801
0.579458
0.580689
0.581008
0.587745
0.552999
0.560006
0.629186
0.63689
0.653112
0.656754
0.656336
0.56399
0.564064
0.582683
0.583901
0.584216
0.582463
0.579279
0.564212
0.557289
0.544275
0.573973
0.578237
0.57991
0.576765
0.579812
0.580891
0.580864
0.580136
0.579621
0.587421
0.556198
0.561372
0.636621
0.643214
0.648125
0.570729
0.51339
0.566171
0.575956
0.575414
0.580066
0.57946
0.580141
0.578593
0.578254
0.582308
0.581544
0.564982
0.576757
0.573764
0.563539
0.583266
0.561142
0.583833
0.580786
0.577712
0.578216
0.545714
0.553793
0.610654
0.555853
0.519984
0.572713
0.574788
0.58175
0.587097
0.586709
0.58513
0.581773
0.586504
0.586581
0.581287
0.582702
0.58424
0.580263
0.573611
0.563681
0.585753
0.588325
0.576116
0.585962
0.583509
0.580796
0.575791
0.570172
0.548362
0.560674
0.521636
0.577069
0.580709
0.579622
0.583747
0.588455
0.587978
0.586484
0.584799
0.583715
0.589296
0.588185
0.581355
0.582448
0.58305
0.581416
0.582911
0.582094
0.584374
0.584413
0.588197
0.586589
0.583528
0.572847
0.554426
0.524898
0.561213
0.582025
0.582743
0.585677
0.580394
0.581633
0.587279
0.588093
0.588268
0.584416
0.585018
0.588505
0.588516
0.590408
0.590616
0.590839
0.590631
0.578839
0.578531
0.575318
0.581921
0.586782
0.586435
0.58339
0.562098
0.531281
0.575152
0.581507
0.57894
0.580798
0.581647
0.58243
0.588608
0.586444
0.58753
0.587356
0.587272
0.587707
0.587681
0.587091
0.5904
0.590321
0.590103
0.588231
0.582839
0.573011
0.580859
0.560671
0.571229
0.563241
0.50151
0.53425
0.510053
0.567304
0.579011
0.581652
0.583564
0.583288
0.58549
0.588065
0.588814
0.588427
0.588321
0.588142
0.588329
0.587916
0.587145
0.587161
0.589924
0.587765
0.584893
0.58257
0.583562
0.586571
0.557886
0.518946
0.514961
0.570705
0.576498
0.580162
0.582903
0.583427
0.585285
0.587242
0.587049
0.58806
0.588517
0.588307
0.588238
0.588208
0.587882
0.58713
0.586948
0.586724
0.584764
0.579853
0.579931
0.584758
0.583499
0.562881
0.567608
0.590116
0.58568
0.583961
0.581573
0.584825
0.584988
0.581573
0.586699
0.58696
0.5865
0.585473
0.586668
0.587909
0.588188
0.587797
0.587709
0.5873
0.586402
0.584852
0.583615
0.574069
0.578272
0.576352
0.557511
0.567618
0.591504
0.593079
0.588783
0.584075
0.58284
0.586121
0.586605
0.585271
0.585788
0.586866
0.586563
0.586722
0.58511
0.586132
0.587911
0.587659
0.587224
0.586904
0.585359
0.582541
0.581514
0.565298
0.571793
0.549617
0.574527
0.593027
0.590332
0.589881
0.587052
0.585558
0.583891
0.585517
0.588036
0.588762
0.587253
0.586031
0.586562
0.586779
0.587031
0.586261
0.587596
0.587769
0.586517
0.584441
0.583645
0.579071
0.573975
0.560029
0.528964
0.529294
0.579067
0.595171
0.592455
0.590313
0.587863
0.58627
0.585189
0.585558
0.586975
0.588535
0.589481
0.590066
0.588811
0.587076
0.586763
0.587585
0.587988
0.587407
0.587124
0.588821
0.583292
0.579961
0.576783
0.559631
0.543992
0.530941
0.5806
0.5967
0.592827
0.590208
0.588063
0.58655
0.585698
0.585989
0.586519
0.587937
0.589475
0.590148
0.590656
0.590884
0.589773
0.589019
0.587251
0.585685
0.587113
0.588147
0.58752
0.584573
0.579522
0.569871
0.547286
0.534298
0.590408
0.596905
0.590533
0.588018
0.586574
0.585882
0.585747
0.58597
0.586838
0.587558
0.586092
0.588452
0.590366
0.59066
0.590487
0.589957
0.589469
0.590194
0.590332
0.584977
0.584095
0.579943
0.570178
0.576786
0.563825
0.513875
0.525189
0.584135
0.593473
0.591176
0.587385
0.585819
0.585927
0.5862
0.586662
0.587153
0.587546
0.58822
0.588171
0.587308
0.58922
0.591329
0.591286
0.590329
0.588806
0.58789
0.589868
0.586609
0.581704
0.57525
0.566709
0.571917
0.516358
0.571052
0.592253
0.587943
0.586354
0.585133
0.58572
0.586289
0.586554
0.587468
0.588097
0.588258
0.588643
0.58929
0.589668
0.58995
0.591256
0.592297
0.592152
0.590218
0.587261
0.586935
0.585259
0.578449
0.575333
0.574398
0.551042
0.564292
0.590571
0.590672
0.58775
0.585309
0.584758
0.586123
0.584855
0.582655
0.582381
0.584541
0.586955
0.588138
0.589217
0.590335
0.591097
0.591436
0.591386
0.59056
0.587426
0.581726
0.580557
0.579986
0.576954
0.576715
0.551651
0.532211
0.584559
0.590599
0.589005
0.586401
0.585237
0.585587
0.586031
0.583484
0.57908
0.576539
0.576325
0.57972
0.585043
0.587697
0.589095
0.590067
0.590308
0.589743
0.588348
0.586444
0.582364
0.581551
0.582783
0.583403
0.556967
0.568652
0.58901
0.588999
0.587004
0.586001
0.585745
0.584401
0.580393
0.577234
0.574423
0.57177
0.571193
0.573421
0.578734
0.584289
0.587485
0.588647
0.588774
0.588201
0.587189
0.58564
0.584493
0.581637
0.579737
0.573214
0.559389
0.585607
0.585163
0.586026
0.585764
0.585727
0.583989
0.576962
0.56964
0.566823
0.567311
0.566459
0.564891
0.566805
0.572119
0.579743
0.585254
0.587742
0.588161
0.587271
0.586258
0.584338
0.583343
0.583523
0.583545
0.53201
0.528807
0.580519
0.585385
0.584208
0.585399
0.58582
0.5856
0.582884
0.571154
0.562062
0.558176
0.558691
0.560509
0.561443
0.562284
0.567371
0.575793
0.582051
0.586669
0.58788
0.58698
0.584666
0.583431
0.583681
0.585222
0.561639
0.526338
0.579476
0.584971
0.583465
0.584169
0.585317
0.5857
0.584103
0.579327
0.570001
0.561307
0.557054
0.554895
0.555289
0.55744
0.561387
0.566972
0.575038
0.583346
0.586275
0.587281
0.585721
0.583964
0.582762
0.581497
0.575989
0.521617
0.560904
0.583447
0.583777
0.583905
0.584582
0.585835
0.585344
0.582325
0.575959
0.567218
0.560975
0.558722
0.557427
0.555818
0.556685
0.561983
0.571114
0.579226
0.583911
0.586879
0.583612
0.58194
0.581313
0.580894
0.577902
0.528298
0.535965
0.584611
0.584559
0.583772
0.584063
0.585559
0.585864
0.583688
0.579939
0.573699
0.565392
0.561895
0.562448
0.56372
0.560035
0.558967
0.563778
0.574659
0.584035
0.586343
0.584849
0.582519
0.580246
0.579801
0.577972
0.52979
0.579936
0.587721
0.586938
0.585268
0.58464
0.585783
0.582075
0.580328
0.576894
0.572531
0.566508
0.563207
0.566108
0.570215
0.56924
0.564226
0.567275
0.576965
0.58507
0.585576
0.58373
0.582235
0.582751
0.578768
0.529349
0.534991
0.586292
0.586612
0.586129
0.585811
0.585738
0.586337
0.581475
0.575305
0.57481
0.573355
0.571113
0.568509
0.568814
0.573662
0.577805
0.575318
0.573951
0.582575
0.585758
0.584759
0.58317
0.582489
0.580297
0.561463
0.574086
0.58565
0.585544
0.585717
0.585716
0.584885
0.583569
0.581143
0.574418
0.569842
0.570721
0.571477
0.571918
0.571582
0.573884
0.58123
0.586104
0.584673
0.585301
0.584283
0.583774
0.582694
0.581235
0.576181
0.527283
0.522617
0.579247
0.58453
0.584863
0.585625
0.58537
0.583024
0.579668
0.576453
0.573299
0.569611
0.568212
0.569998
0.571036
0.570775
0.571466
0.577029
0.584537
0.586538
0.585343
0.584128
0.582769
0.583385
0.58237
0.529308
0.56221
0.580467
0.582822
0.583382
0.585664
0.585017
0.581057
0.575913
0.572271
0.568841
0.567036
0.567662
0.569513
0.572671
0.574895
0.575384
0.576797
0.582307
0.58573
0.584949
0.583303
0.582486
0.579041
0.571183
0.518217
0.532539
0.583421
0.584956
0.584355
0.584163
0.585675
0.580114
0.576016
0.570769
0.56628
0.563861
0.562351
0.563188
0.567665
0.572475
0.577857
0.582832
0.585394
0.585921
0.585586
0.584466
0.583149
0.579841
0.574588
0.527937
0.575899
0.581846
0.584282
0.584665
0.584919
0.585799
0.581369
0.570014
0.564497
0.561719
0.5601
0.559708
0.559903
0.563814
0.571124
0.577347
0.582808
0.586212
0.586063
0.583325
0.58057
0.579075
0.578357
0.554696
0.534191
0.58396
0.584866
0.585397
0.585884
0.585718
0.585665
0.583959
0.573599
0.563533
0.558981
0.55731
0.5581
0.55974
0.563034
0.569467
0.577142
0.582402
0.585691
0.586217
0.584676
0.581204
0.575212
0.567927
0.523218
0.572475
0.583895
0.584977
0.585474
0.585737
0.585146
0.583547
0.580818
0.576128
0.568344
0.561974
0.559523
0.559198
0.561977
0.565416
0.570185
0.576965
0.582863
0.585554
0.585936
0.584071
0.580636
0.57648
0.551763
0.532016
0.583142
0.584514
0.58531
0.585815
0.58543
0.583829
0.58103
0.576229
0.571273
0.569279
0.567541
0.565135
0.565989
0.568275
0.571855
0.574788
0.578959
0.583691
0.58608
0.585458
0.582986
0.580978
0.576829
0.523872
0.572052
0.583935
0.584946
0.585643
0.585769
0.584774
0.582589
0.579204
0.574565
0.568513
0.563915
0.564075
0.566701
0.569709
0.573955
0.578698
0.582947
0.584694
0.585538
0.586061
0.583912
0.580225
0.578267
0.567004
0.530538
0.584158
0.585092
0.585524
0.585876
0.585325
0.58383
0.581076
0.577609
0.573451
0.568439
0.563739
0.560786
0.562219
0.56696
0.574059
0.580138
0.584596
0.586443
0.585894
0.584752
0.581033
0.579731
0.577414
0.525811
0.571375
0.585286
0.585828
0.585899
0.585792
0.584463
0.58211
0.579453
0.576382
0.573209
0.569385
0.564331
0.561251
0.561327
0.565226
0.571888
0.579324
0.583955
0.586323
0.585338
0.58294
0.581351
0.574559
0.56632
0.576322
0.582292
0.584889
0.585836
0.585457
0.583229
0.580231
0.577513
0.575193
0.572963
0.570961
0.568611
0.564885
0.563553
0.566333
0.572965
0.580235
0.584003
0.585754
0.58521
0.581459
0.579397
0.578294
0.530513
0.528954
0.582593
0.585674
0.585926
0.586048
0.585148
0.582091
0.578327
0.575486
0.573657
0.572341
0.571169
0.570325
0.5702
0.569733
0.571324
0.575785
0.581806
0.585839
0.586046
0.58529
0.581145
0.574274
0.567665
0.520787
0.532409
0.581676
0.585314
0.586256
0.586128
0.585157
0.581414
0.576506
0.573202
0.5715
0.570875
0.570683
0.570613
0.571013
0.572418
0.575043
0.578914
0.582795
0.58553
0.58609
0.584059
0.580536
0.572704
0.5298
0.557493
0.583768
0.5857
0.586301
0.586139
0.584463
0.579614
0.574596
0.570706
0.568241
0.567906
0.568982
0.570168
0.571317
0.573115
0.576139
0.580145
0.583775
0.585872
0.585691
0.582371
0.578802
0.57251
0.525479
0.57603
0.582464
0.585232
0.586357
0.585703
0.583897
0.578938
0.572976
0.569525
0.566525
0.564135
0.565237
0.568654
0.571288
0.573631
0.576704
0.580582
0.584182
0.586032
0.58462
0.581777
0.576367
0.56459
0.53049
0.58024
0.58371
0.585592
0.586061
0.584569
0.581843
0.577885
0.572687
0.569088
0.567291
0.565347
0.563899
0.565988
0.57061
0.574342
0.577741
0.581338
0.58449
0.585914
0.584204
0.578568
0.577038
0.527476
0.553303
0.581921
0.584827
0.586123
0.585707
0.584082
0.580394
0.575597
0.571268
0.568413
0.567418
0.567465
0.567087
0.567315
0.569894
0.574361
0.578748
0.58248
0.585048
0.585788
0.582732
0.579103
0.571145
0.519604
0.573948
0.58049
0.584115
0.585809
0.585425
0.583412
0.58018
0.57486
0.568724
0.565075
0.565137
0.566719
0.568644
0.570208
0.571687
0.574583
0.578745
0.582726
0.585421
0.58554
0.582198
0.577871
0.56591
0.527207
0.581417
0.583903
0.585401
0.585958
0.585135
0.582647
0.578622
0.574
0.568698
0.563275
0.560614
0.562538
0.566255
0.569764
0.572977
0.575989
0.579508
0.583066
0.585745
0.584522
0.582003
0.576938
0.551146
0.553108
0.581798
0.584819
0.585667
0.585884
0.584807
0.582011
0.57697
0.571083
0.565926
0.562251
0.559789
0.55863
0.561196
0.566809
0.571975
0.57628
0.580335
0.583749
0.585698
0.58402
0.579116
0.578389
0.527412
0.568349
0.583391
0.585011
0.586124
0.585685
0.583848
0.580692
0.57582
0.569134
0.562385
0.558225
0.557262
0.558014
0.558816
0.56205
0.569169
0.575737
0.580476
0.58439
0.58583
0.583823
0.579309
0.572176
0.518602
0.575296
0.580487
0.584229
0.586008
0.585466
0.583235
0.579449
0.574782
0.569255
0.562539
0.556432
0.553798
0.554859
0.558276
0.562162
0.567433
0.574631
0.580809
0.584705
0.585663
0.581811
0.579235
0.56855
0.52142
0.581326
0.585351
0.586027
0.586045
0.584714
0.582569
0.578685
0.574011
0.569678
0.565228
0.559989
0.554815
0.552643
0.554874
0.56116
0.568775
0.575759
0.581751
0.585535
0.584705
0.581484
0.575452
0.550529
0.528779
0.582885
0.584232
0.585726
0.586019
0.584561
0.582176
0.578987
0.574319
0.570275
0.566882
0.56367
0.560221
0.55624
0.554336
0.558258
0.567542
0.576916
0.583388
0.585803
0.58411
0.579468
0.577681
0.524971
0.532295
0.581022
0.584589
0.585717
0.585986
0.58468
0.581905
0.579107
0.576282
0.572444
0.568692
0.565443
0.562633
0.560519
0.559192
0.559936
0.566626
0.576975
0.584095
0.585514
0.582124
0.581036
0.571715
0.567333
0.583498
0.585626
0.586337
0.585945
0.584711
0.581616
0.577866
0.575732
0.574033
0.571262
0.567534
0.563451
0.560324
0.560347
0.563734
0.569727
0.57851
0.584868
0.585322
0.581622
0.575878
0.563783