/*--------------------------------*- C++ -*----------------------------------*\
| =========                 |                                                 |
| \\      /  F ield         | OpenFOAM: The Open Source CFD Toolbox           |
|  \\    /   O peration     | Version:  2312                                  |
|   \\  /    A nd           | Website:  www.openfoam.com                      |
|    \\/     M anipulation  |                                                 |
\*---------------------------------------------------------------------------*/
FoamFile
{
    version     2.0;
    format      ascii;
    arch        "LSB;label=64;scalar=64";
    class       volScalarField;
    location    "110";
    object      omega;
}
// * * * * * * * * * * * * * * * * * * * * * * * * * * * * * * * * * * * * * //

dimensions      [0 0 -1 0 0 0 0];

internalField   nonuniform List<scalar> 
404911
(
236.636
164.579
3435.4
1536.59
154.009
187.604
141.084
603.059
341.324
281.773
234.223
302.575
160.242
267.577
413.192
1101.76
238.001
156.5
170.392
289.329
407.941
194.457
580.809
396.271
163.212
936.101
244.786
149.615
204.056
978.756
214.573
145.625
271.336
419.534
215.204
137.481
282.728
411.415
210.964
99.5022
253.78
1004.49
200.994
92.5615
118.004
379.4
314.074
98.5234
115.706
728.326
380.319
319.236
147.694
1329.62
328.492
569.794
9402.24
107.498
316.179
212.339
186.861
115.961
158.905
48.3583
70.5286
124.19
70.1341
429.082
100.485
78.2465
130.533
34.508
130.316
83.4897
44.6116
588.878
2261.35
234.514
73.4436
105.024
75.1669
128.435
35.8021
110.514
62.1298
64.4341
173.306
54.6666
1126.14
74.9517
108.858
2950
68.9905
85.672
111.824
72.818
101.791
100.008
49.9931
215.514
593.537
55.5845
80.1128
441.632
1164.68
417.212
180.33
614.402
281.956
220.05
160.59
158.361
148.116
156.162
2192.96
450.861
168.698
4463.23
522.44
112.576
118.024
122.789
129.191
194.004
1248
265.025
163.627
149.559
130.652
439.373
404.382
448.972
120.533
111.571
128.126
123.945
169.454
171.9
114.119
203.515
1122.02
262.5
157.092
137.38
129.556
120.963
123.693
119.072
436.08
385.226
124.447
110.56
134.438
1703.72
205.849
921.669
212.797
143.373
128.64
123.587
116.015
121.726
123.654
122.08
117.245
113.641
115.207
114.972
122.668
185.155
348.234
532.07
395.576
358.086
375.155
370.901
435.433
122.256
128.067
119.288
119.231
118.251
125.641
139.586
145.429
143.231
249.139
659.664
422.25
350.435
339.732
206.457
298.457
470.289
380.748
111.666
123.083
121.577
129.886
139.942
147.163
174.252
1090.79
924.885
216.157
538.388
303.309
232.324
217.802
209.049
367.18
267.929
321.457
384.407
388.5
111.627
128.338
137.531
139.022
160.281
434.046
791.788
535.899
232.468
176.31
96.0023
161.5
226.89
210.65
159.241
203.318
206.734
172.451
98.9331
127.739
137.604
157.627
242.403
1135.13
1147.76
226.799
97.0806
149.615
99.7819
86.6361
105.77
114.673
152.795
211.681
190.403
118.049
114.832
249.453
405.741
129.292
170.965
1045.01
398.266
123.348
83.402
172.106
98.0808
88.1984
83.2831
87.4681
90.5615
104.738
99.5936
108.039
210.398
321.874
397.841
474.448
375.772
412.411
161.051
118.896
260.706
107.064
98.7607
96.7724
93.8439
111.909
96.8506
90.1512
87.2862
138.021
299.913
365.971
415.63
1618.61
308.754
140.74
112.981
81.4906
92.1726
114.994
92.8929
89.3744
96.9836
128.117
115.146
101.281
89.6624
151.481
333.741
379.786
197.695
960.602
909.227
812.816
249.469
153.96
52.7354
53.2212
95.4775
117.417
89.2821
83.7781
86.359
91.9694
98.6646
92.8809
104.828
309.923
149.004
481.062
1043.93
202.943
111
140.438
104.321
104.784
125.775
53.999
96.6076
94.6694
94.6762
60.5495
67.3482
106.205
92.9198
99.6467
316.286
214.362
409.186
125.495
85.1475
66.757
62.7262
102.594
89.6976
79.5952
46.1641
57.133
42.4511
41.7408
52.5749
75.3708
123.677
143.298
144.73
935.377
1074.31
213.506
114.08
77.3648
48.7406
43.4021
51.2853
70.5281
58.8654
56.5472
43.2229
69.8482
62.1005
73.1652
76.9476
91.6137
310.421
817.803
304.352
112.078
82.4377
99.9775
76.7414
59.7177
69.4508
50.3964
37.3852
39.3312
44.5443
54.6822
71.1504
90.3902
114.864
103.492
223.692
644.509
1034.19
825.916
268.386
113.271
116.615
56.5459
71.5173
67.4906
56.0607
43.6243
34.3032
36.4016
45.8238
59.5261
91.0939
120.615
107.669
379.414
380.504
131.942
136.512
93.0879
70.3955
54.8685
55.4203
64.6088
57.5887
71.1529
59.2526
40.7142
46.6078
61.0218
70.0378
98.4817
215.628
914.206
151.941
97.8877
110.245
66.0057
61.0359
53.0742
48.7176
67.5605
91.879
79.081
77.8875
60.0131
68.3099
64.916
108.21
113.484
251.21
378.864
111.467
120.114
90.5126
61.3585
47.6139
57.8282
48.4276
49.5576
66.682
85.3386
71.3722
59.4143
82.8032
83.8539
110.337
133.125
908.755
206.748
93.0423
74.0355
56.6161
50.2425
40.6698
43.092
83.5692
36.6483
37.7328
53.3924
60.9804
77.0232
102.527
141.432
127.665
228.271
1104.92
404.477
137.723
90.1989
64.6639
51.8011
45.3213
51.6167
44.2012
35.2112
41.9327
34.1083
38.6455
48.2333
63.4932
122.215
83.3833
139.332
932.107
1059.51
187.928
91.1323
105.16
62.4477
47.2159
37.5016
33.7596
35.4609
43.6889
31.6741
45.8642
57.2877
53.204
64.4042
73.7352
108.672
232.708
370.908
115.241
83.0778
59.5602
50.8235
42.4439
36.8346
36.7102
47.4156
30.9687
28.7461
32.1419
60.0648
73.1764
93.1713
101.606
130.806
919.433
1062.31
180.235
87.4469
67.474
51.9012
44.5043
40.076
36.1062
34.9914
37.1652
49.7846
42.7176
44.3068
46.2491
65.9933
77.5027
138.588
214.438
831.528
113.931
83.6849
60.982
48.2026
40.5467
37.6306
36.4348
35.4908
34.5199
42.4591
36.3606
38.4959
46.1533
58.4119
92.9432
152.063
264.331
217.284
93.873
90.7507
64.2449
47.1436
37.7771
35.4956
35.6375
36.7373
37.4985
37.8145
36.3288
39.8977
48.0394
67.9785
89.7089
124.17
443.364
197.074
114.555
101.387
61.9359
43.9861
36.5203
36.008
34.5608
33.1979
34.8572
35.561
36.5158
39.6924
51.1757
69.9252
94.7587
195.174
1043.99
1097.82
145.779
85.5569
83.647
69.5117
45.9226
36.3195
33.7343
44.2948
41.402
32.012
34.0348
35.6134
40.4822
51.0376
96.3035
123.736
398.432
872.215
131.739
86.933
60.8914
49.9204
41.5472
34.7393
33.9428
33.663
42.8776
37.7527
31.5066
36.4838
44.7177
54.4518
91.7133
127.103
989.01
243.209
112.312
87.9333
60.8375
48.1675
39.8638
32.6299
33.4784
34.2332
33.6879
34.5722
33.2263
38.5538
47.0833
73.3369
81.501
132.215
1025.12
230.192
99.3503
70.7229
56.9196
46.7546
50.895
46.7949
31.8843
35.4276
35.006
34.1721
34.3008
37.1636
47.3165
67.0108
90.9759
211.206
972.941
161.11
97.47
69.3735
52.3044
44.7235
40.5203
45.5742
42.1392
32.4646
31.4444
32.3371
35.7819
40.545
51.1151
93.672
108.288
382.822
377.892
116.671
100.814
78.897
51.2127
39.4717
35.2887
30.4193
44.0485
41.5042
29.107
30.3494
35.5972
41.1271
51.1032
93.7772
120.966
929.045
231.686
96.862
69.4138
54.0842
44.5019
36.7776
44.944
38.8697
41.2388
28.5684
39.321
34.882
36.7577
43.8796
50.7502
87.9001
158.046
1057.78
986.546
143.704
89.2131
70.8918
52.3418
41.7771
35.1289
42.8926
36.746
36.0518
37.5031
27.2895
39.7841
43.1926
43.8479
56.6061
83.5922
184.074
979.674
134.359
85.2706
62.5163
50.761
40.7652
34.7016
34.0204
42.8961
39.4911
35.7199
33.4228
27.5339
37.0851
42.4129
56.7265
92.5121
352.684
966.64
133.729
86.4313
60.4895
51.7405
41.5142
34.8993
33.1857
34.2885
32.4412
29.0194
31.3942
32.027
35.0322
45.7662
71.5218
103.601
822.95
966.12
131.854
86.2237
60.1863
50.6122
46.2352
40.5815
36.971
35.2088
32.9148
31.7587
30.0394
38.006
42.1382
52.0026
77.4319
154.754
1050.42
232.108
115.937
92.3468
62.7226
47.6279
42.7161
41.4892
40.4732
38.9703
32.8364
27.6262
26.3521
31.5266
51.9329
55.07
92.125
177.771
1092.84
211.717
97.4804
76.2686
61.271
49.5743
36.224
36.7588
37.9372
37.3184
33.2079
30.5764
30.7448
35.3304
42.8221
51.3718
88.7868
173.3
1043.49
138.582
105.522
88.1775
60.2224
48.2139
40.2969
34.5533
33.3995
35.3373
39.9152
32.8607
36.0499
43.194
52.0053
63.4324
85.0184
189.983
921.997
135.663
88.7553
63.2085
55.1276
46.2615
38.627
37.3352
41.2003
39.7032
32.0203
35.4743
37.4454
40.6907
48.6565
70.8619
85.0284
202.477
988.74
135.888
88.3815
62.719
51.5208
45.6051
37.2972
37.5259
36.5071
43.4519
39.6422
32.8836
34.9839
41.2295
49.9922
72.4625
90.1738
219.644
990.464
139.878
89.8169
62.6975
50.819
41.8971
35.8017
37.2907
36.8869
38.4128
37.6123
34.4472
36.4342
42.2775
54.5242
73.3228
100.801
363.855
923.976
132.711
88.6172
62.1172
49.9973
40.4781
33.8581
33.364
34.0332
35.1683
32.9878
32.0053
35.5338
42.6579
55.2066
94.0758
124.622
920.988
242.326
128.349
86.8488
61.1748
47.7905
36.9894
34.7025
32.9937
31.9502
31.4616
33.4057
32.6348
35.6083
41.8518
53.1164
88.9333
125.977
1003.54
247.819
123.448
84.4228
60.1576
45.9542
32.0213
32.0793
32.1059
29.0937
26.4397
27.0006
29.9501
34.7419
39.926
51.1262
85.1747
123.482
968.773
1114.01
165.859
119.118
83.9936
56.0997
54.5753
41.8849
25.9385
25.4461
24.3745
26.2206
23.6886
29.0588
32.3362
39.4326
49.2489
85.6204
134.263
952.901
998.419
131.574
90.3387
102.179
59.113
44.03
46.0559
33.0998
24.6477
22.9635
22.5168
21.0405
23.4665
36.6945
39.5882
51.244
80.1951
170.963
135.073
84.4143
56.9854
46.3008
39.7017
33.6477
34.5615
21.3718
19.6161
20.3431
18.321
21.7741
33.5924
42.0776
61.377
82.779
179.747
929.884
131.285
81.5927
52.4103
42.5672
37.004
35.9564
33.2381
30.9345
28.0533
17.402
15.7021
23.0147
32.1899
42.865
63.9972
86.9462
217.685
966.783
119.751
83.5891
50.0001
40.0339
35.5237
35.4975
33.302
31.4681
30.8012
25.8634
18.4131
22.1658
32.8702
42.0353
62.8658
90.3598
360.974
1061.2
113.692
93.1886
46.4275
41.3559
36.2247
33.4807
31.8295
25.9189
25.9342
29.0358
30.3372
30.8219
35.2908
45.4453
64.8615
97.3833
772.244
104.263
114.733
46.0331
35.8792
37.1962
35.4808
32.0806
27.9906
27.1916
29.371
27.9448
34.0945
37.4241
46.9757
79.9149
115.181
874.695
668.401
118.302
47.473
34.6783
35.7307
33.0504
33.647
31.6141
26.0732
23.3952
27.9385
32.4775
38.8475
49.7385
78.9348
118.996
972.893
2085.9
270.55
85.0926
62.6218
35.3699
33.5709
34.7631
34.4649
29.7284
29.5101
29.4298
31.7568
32.9306
39.1672
56.1066
81.9185
136.638
1021.16
206.342
71.0566
73.7301
53.0528
34.599
33.7146
32.969
30.7749
26.786
29.733
31.6002
29.7232
33.8515
37.6981
53.8703
86.7141
197.672
192.112
85.9858
51.7384
36.852
32.6773
33.7514
33.224
31.5332
29.7078
31.3385
25.2011
35.43
33.8486
39.5884
55.0415
88.2142
213.827
1100.87
164.229
121.712
60.6508
51.7538
44.915
43.4772
41.1946
29.142
29.2209
22.7345
22.1077
26.7747
33.1335
41.8966
71.0031
101.852
771.284
874.187
117.865
72.4507
43.4137
48.9387
45.7417
67.7024
50.1588
34.5891
20.9429
27.9327
30.5728
29.0462
31.9363
50.4893
85.2394
108.692
897.28
746.639
89.7675
127.205
64.9443
44.1661
41.1983
39.2812
43.0435
66.3392
24.6178
23.6071
28.343
35.4344
40.4519
57.3852
96.0636
112.904
910.175
361.793
81.0521
87.0468
52.1757
39.2705
34.0485
31.3153
22.0729
32.6943
53.1285
33.7967
39.3102
42.6334
44.7498
56.8585
107.531
123.475
951.181
935.852
172.375
82.2389
57.1052
51.2604
35.3491
21.3965
11.5855
17.8423
36.886
35.527
44.7544
47.8475
47.7897
37.1813
51.7605
87.775
245.949
960.01
826.133
99.3352
96.3685
55.9215
48.7578
34.8202
14.2276
5.72718
10.6007
29.9084
41.5628
35.6341
35.9743
43.7787
47.1052
54.152
87.3845
130.684
987.092
154.647
77.0347
50.2881
44.9855
31.3164
12.6547
5.8615
7.98121
16.2748
33.1171
29.8627
38.951
40.6324
46.7003
71.9148
78.143
176.184
1111.24
188.972
86.8541
80.9105
45.6398
27.3983
7.57051
6.78349
13.8788
16.9243
26.7819
35.931
31.562
35.8636
45.3484
68.3936
87.1119
213.757
203.271
97.5981
94.1942
64.516
28.2177
9.53008
5.62971
11.1154
24.5954
23.1357
34.2615
33.2649
37.3508
45.5528
67.7919
91.0829
360.048
179.265
179.806
116.165
78.7539
35.6472
7.96632
5.71233
8.93546
15.3339
23.0308
31.5676
31.8918
40.4409
51.6661
67.2759
96.1029
790.406
878.534
116.362
96.2579
93.5519
59.8632
37.2676
16.2543
7.61938
12.6782
20.5167
32.2736
39.172
42.3085
44.8625
55.0523
87.8293
123.2
891.573
825.879
118.042
98.7652
83.7241
59.0918
32.4623
9.56654
8.9893
15.3481
28.2217
37.1427
46.7508
55.5155
48.1172
63.2
84.6678
192.063
765.931
97.9784
70.6217
69.8306
54.525
34.6151
12.9382
7.33094
12.2998
27.9472
39.6567
43.6908
41.7277
49.6198
66.2258
89.5081
225.75
787.121
100.049
74.9217
72.0889
59.1204
29.1238
8.6126
10.5147
22.164
34.7736
40.5126
46.8055
42.3365
47.6713
66.5253
93.6465
226.393
813.838
109.973
81.5051
70.3496
63.6434
38.1397
11.1276
10.7397
19.6998
35.4049
40.8552
46.3857
39.4372
47.2282
69.6679
101.64
784.462
834.75
117.974
87.058
79.7504
66.898
42.233
33.0635
17.4201
18.7779
36.5305
46.2361
50.7311
38.3208
45.7303
78.3111
124.173
889.885
247.022
121.903
119.469
87.9884
58.1468
31.238
27.3781
32.3772
34.9498
35.8692
41.6499
38.6455
45.8375
46.6773
87.9386
126.588
962.905
294.722
231.053
72.9554
41.6048
25.6404
9.75191
17.6371
40.8529
40.8886
40.1209
35.3393
41.1221
51.5575
84.5563
159.762
1093.73
274.504
138.34
85.2202
41.2866
10.8924
8.0967
11.3551
28.4575
39.5287
42.5235
45.0914
36.9192
49.0599
84.8209
196.319
233.655
195.828
124.648
106.538
63.2693
11.4838
8.2791
14.0911
26.5124
38.8497
41.9714
33.5469
38.6242
57.7805
82.3708
212.966
255.25
104.526
104.056
113.639
88.3578
41.7289
12.7528
14.9388
34.7839
45.7725
47.7689
54.9362
47.8694
79.821
104.691
760.62
263.656
110.018
111.356
115.579
92.6932
97.8761
53.7863
50.9811
48.6744
53.1097
55.0041
66.7191
78.1094
120.388
132.495
955.953
1115.64
240.535
129.82
93.6004
91.8017
105.301
99.3163
84.0439
71.2183
112.336
118.875
89.0715
56.3874
83.7352
138.595
403.286
1164.03
169.09
104.313
106.85
58.5191
93.9475
92.9286
88.6187
54.1507
62.0735
78.7923
90.9318
93.1013
115.56
206.003
177.192
928.975
159.754
113.713
77.8252
60.3137
97.8641
74.4758
78.6895
73.2705
62.4911
89.6187
101.087
115.601
125.718
238.283
728.941
239.867
121.148
413.012
144.832
65.3714
50.6871
71.9318
59.5592
58.5836
58.3591
58.9218
62.19
84.9114
113.204
235.795
3994.82
239.842
482.936
215.576
96.6588
91.1909
75.9564
70.4947
98.0147
96.4351
82.5614
51.8164
82.2348
99.3434
127.601
220.348
713.617
979.226
555.513
252.898
93.0814
79.1741
97.3716
67.4849
64.9199
84.7435
95.259
89.3611
84.9502
145.125
142.959
255.227
1096.62
140.397
369.621
166.937
99.6101
78.671
69.7655
81.0962
89.683
97.8929
88.1306
90.0641
90.1163
141.398
176.66
1328.32
1088.89
158.473
110.073
249.22
259.891
88.4896
58.3984
66.9803
93.2564
90.1465
95.4754
110.819
117.458
114.65
251.446
1163.16
500.868
155.356
118.144
392.094
240.339
104.784
69.6703
78.1577
90.0323
90.3427
91.8144
127.85
89.8921
115.117
255.319
1043.18
472.443
384.326
277.455
263.586
89.0667
82.0497
82.8212
94.2536
123.384
158.765
109.172
164.961
1048.47
617.126
436.269
370.995
306.825
195.183
225.084
93.0547
94.4246
94.3353
122.395
88.2099
116.814
238.628
1067.25
139.269
106.748
404.374
382.582
113.021
233.232
325.857
105.689
107.168
143.518
108.193
139.476
440.479
1123.14
152.98
113.722
407.628
373.882
202.977
114.715
166.053
314.321
236.727
272.26
120.312
155.659
1094.49
1042.63
145.082
460.35
391.601
401.264
282.166
172.297
183.648
119.914
258.641
413.223
125.953
166.113
1182.85
1106.11
141.672
460.165
396.411
402.032
373.338
164.519
148.671
101.445
170.331
411.325
124.107
236.139
1235.88
1052.66
148.956
114.137
416.614
377.509
410.457
475.309
129.195
118.267
260.19
126.008
140.502
238.14
1339.32
1323.25
1036.23
113.215
110.052
391.442
389.401
509.522
314.141
158.598
263.249
422.322
153.109
264.57
112.768
417.05
376.686
389.271
108.594
416.766
427.138
463.437
440.366
112.932
104.87
373.644
459.232
133.167
148.408
209.086
1070.22
6166.92
487.949
101.299
401.458
445.538
162.647
303.085
2699.36
1980.84
399.991
679.779
153.41
177.197
1073.27
370.589
662.807
152.89
167.801
497.66
728.245
505.418
171.311
150.049
195.494
1065.01
1053.01
197.621
1842.77
714.802
447.863
244.996
118.747
116.193
148.077
152.908
569.554
200.865
126.958
275.245
599.622
1396.33
1203.34
6311.57
381.065
1336.62
458.482
426.193
1297.55
517.825
331.996
241.121
219.815
191.399
168.076
159.993
259.879
1330.64
536.023
333.172
243.409
229.71
209.017
191.988
179.783
171.768
167.516
168.434
161.083
163.608
173.783
180.448
1226.21
494.344
256.334
229.517
207.867
203.097
197.053
186.524
181.186
171.684
163.972
155.283
160.072
159.457
168.416
168.651
180.144
196.012
224.334
340.844
423.244
859.792
906.595
452.498
231.712
207.977
204.745
193.152
183.678
177.826
172.088
171.087
168.113
164.783
163.663
141.309
467.422
481.558
161.847
167.884
157.891
174.276
187.147
229.991
553.542
476.745
262.865
199.364
186.758
168.263
159.605
163.764
166.478
166.083
155.349
148.595
153.233
164.665
163.756
162.435
156.464
132.485
414.873
483.204
132.571
150.631
156.544
176.114
214.268
1167
348.282
153.1
122.55
115.552
146.287
159.287
360.66
531.682
628.175
116.463
125.977
129.826
130.468
137.791
138.523
155.459
156.665
141.466
120.209
391.071
477.761
140.356
159.589
188.997
483.929
1409.31
326.994
154.301
122.154
87.9499
97.7739
98.2306
113.828
151.736
136.816
115.726
217.934
107.107
123.757
248.211
156.716
554.703
137.374
153.272
155.79
145.18
442.539
468.025
183.276
475.019
1169.72
261.952
215.845
114.065
59.2483
58.6007
68.0795
98.9116
65.4589
83.7226
144.347
136.625
106.462
109.154
190.668
337.399
143.835
152.024
400.167
157.495
165.729
163.31
164.166
183.796
431.523
352.654
1271.93
261.488
187.384
157.424
105.639
52.243
48.5565
53.5505
61.2729
71.1524
56.0699
74.7653
124.296
135.578
127.886
122.819
101.574
118.429
117.628
174.217
131.638
167.067
182.618
274.638
507.803
1003.58
328.286
133.477
126.15
148.43
113.939
118.239
65.7938
55.087
51.2625
72.7054
63.3674
47.9793
48.6198
49.9704
55.5444
61.9624
69.201
105.047
104.677
189.904
159.285
168.8
170.583
190.729
453.525
1037.99
183.776
111.347
158.397
121.718
92.9373
101.792
49.8328
62.218
59.0256
60.2418
62.7298
61.8347
56.6515
60.425
52.7227
48.8602
50.5994
56.5917
80.2017
178.685
131.866
523.816
495.741
609.83
4449.13
692.992
1281.36
249.382
130.894
90.3226
78.3741
66.8354
65.2181
55.9051
56.5685
60.1896
61.562
63.3297
61.3321
59.7261
63.7785
67.53
54.7968
55.8973
65.1731
84.4713
105.073
112.379
507.073
1576.4
1190.12
275.435
125.439
84.0586
65.343
74.0381
57.0547
44.7166
39.793
47.0055
52.6883
59.2716
58.6447
55.6542
58.1464
63.3184
68.2394
69.0564
73.8489
85.8701
100.703
103.319
159.905
378.564
385.668
144.019
171.214
135.893
117.171
62.8075
54.1056
72.826
48.3224
40.3987
37.5773
33.2024
36.4788
33.9075
46.4221
41.7026
43.4933
57.5535
69.7492
83.8653
84.0682
130.6
99.6547
153.672
405.286
363.331
149.387
113.835
111.568
87.2463
82.3538
61.3967
51.7402
56.1761
55.3833
37.8992
36.9902
40.3586
29.8518
31.0059
40.5186
40.7978
47.8491
54.553
70.6894
92.6044
105.054
208.987
137.125
386.67
327.377
127.915
142.763
121.279
93.0881
77.8716
68.7145
58.6387
47.8191
41.2772
43.7281
52.4271
41.0927
44.4025
33.9692
31.4119
38.2456
43.6883
56.0922
69.8652
76.0925
113.007
165.73
237.011
756.582
1081.22
320.168
126.348
122.297
93.2871
87.085
81.4464
72.1002
58.1322
47.3066
46.3257
41.8188
39.536
40.6924
49.1031
50.3603
45.1287
41.4917
40.3392
40.032
37.6844
69.8962
99.7887
124.46
233.467
335.575
1066.17
319.839
121.888
115.237
88.0948
76.1079
68.5313
61.9585
54.3573
39.0402
34.6774
35.4214
35.6504
34.7745
35.4116
38.3485
39.9868
48.415
55.616
52.675
39.7352
42.3183
66.4418
109.069
206.839
363.901
956.592
210.605
118.949
120.952
87.7446
70.9345
59.7491
50.7574
42.503
36.5115
33.6692
29.5397
31.5858
33.5223
33.4152
32.4851
32.1816
32.6424
34.3868
43.9221
60.2885
56.0955
60.6965
114.274
126.058
260.772
1248.5
1153.87
224.187
113.164
92.1071
79.0029
66.9667
52.1463
40.4564
34.7386
32.2647
30.6339
30.5547
30.9291
29.7833
31.9965
34.4067
34.3574
34.0097
34.4471
39.9724
36.6093
49.2688
66.0554
91.405
151.468
132.707
1426.9
346.417
118.51
121.849
84.1648
65.3546
51.4898
36.1233
30.8719
29.1804
28.6965
28.7614
29.2422
30.5475
31.6336
31.6549
32.9118
34.5248
36.4364
42.0172
54.1645
48.6875
63.829
91.1214
113.621
134.444
359.474
390.011
145.663
103.515
82.1676
68.8132
56.4524
42.3876
28.8895
24.6086
24.1538
25.9918
27.8665
29.042
30.3217
32.216
33.8637
34.6454
35.5888
38.0242
46.8618
61.9277
71.6072
81.7918
116.484
132.888
374.872
924.641
187.307
104.318
96.2635
75.1398
61.2053
47.5254
33.5519
25.2332
20.2537
18.0575
18.0005
21.1943
26.4493
28.9354
31.0097
33.2529
35.6373
38.257
42.0841
49.3231
70.9157
85.9591
102.047
107.863
323.827
339.704
117.275
90.9869
72.1528
59.7048
45.1503
30.2697
21.2374
18.1368
16.0158
14.1461
13.8014
15.5291
19.8995
25.2191
28.7183
31.3106
34.2831
38.4412
44.9318
55.7828
67.2538
104.718
153.133
219.256
389.254
132.56
121.958
83.7146
64.3981
48.6322
30.5492
17.8881
12.5866
11.0104
11.3756
10.8692
9.99145
11.0395
14.4643
20.7297
25.9058
29.475
33.4558
40.1059
49.7852
65.9247
80.1917
101.232
124.169
743.547
866.39
173.248
102.261
90.961
64.677
50.0901
37.2866
25.5958
13.5204
8.58706
6.91854
7.16621
7.95951
8.33498
8.71899
11.393
17.1041
23.4403
28.5419
33.2006
41.2127
61.5546
77.8363
95.8921
107.17
329.48
864.875
182.471
110.155
95.4236
67.3384
51.6014
37.3484
27.6675
19.8941
12.8024
8.23911
6.45647
5.64567
5.80024
6.63903
8.30171
11.0399
16.2748
23.8808
30.4922
37.8228
54.5361
69.776
98.1766
136.522
191.532
997.862
337.078
124.595
98.0563
70.0385
56.4367
40.6688
29.0986
22.4962
16.9121
11.2938
8.17911
7.14764
6.60157
5.98382
6.33135
8.58815
13.3997
19.6411
25.5505
36.4683
55.8088
72.4097
98.3646
134.581
175.216
833.229
708.634
148.727
119.956
78.6734
60.2957
44.1826
31.5871
23.4383
19.5961
15.2
10.3034
8.57161
8.79302
9.30245
7.67952
7.24157
9.44586
15.7703
25.333
37.1771
48.1685
64.2393
102.06
134.554
173.554
825.662
193.938
101.166
77.0685
64.1149
53.5088
36.9217
22.4697
19.2718
16.8124
14.3456
10.8443
9.13104
10.3853
12.5422
12.2118
9.67663
11.2648
17.9537
28.9108
42.291
57.0416
75.1929
98.0671
155.432
821.442
707.414
118.928
85.48
64.8629
52.877
42.2414
32.4226
22.1591
15.7692
15.1863
14.31
13.1523
11.6824
11.7106
14.3387
17.2871
16.3055
15.5832
24.165
37.1858
53.4707
71.4809
96.3666
135.691
312.739
204.481
100.442
72.2495
56.8124
42.2992
30.2914
23.5757
20.0559
15.3598
12.3607
12.6736
13.0379
13.4657
13.4323
14.8156
20.1166
27.2346
27.6515
32.3042
53.2635
63.7413
92.3624
133.731
178.984
857.055
867.716
151.095
92.9841
65.8907
49.643
34.0423
24.2483
19.2025
16.3911
14.3216
12.2516
11.4643
12.3039
12.8749
12.8982
13.5809
17.4367
23.5243
33.209
45.0306
60.2373
76.7658
93.0485
115.979
766.09
270.677
126.901
94.07
67.2286
43.722
28.7444
20.8623
16.3446
13.8618
11.9349
11.0004
11.1582
11.9436
13.6823
15.3049
16.1782
17.6296
23.9752
32.8052
47.1757
64.1247
85.3272
130.032
198.017
1128.47
658.789
107.216
82.0031
67.267
57.1169
39.327
21.008
16.2896
13.0515
10.7476
9.50763
8.80178
9.17343
11.1732
13.4271
16.6946
21.5113
26.8739
31.7474
40.759
51.9685
66.7449
110.36
169.743
821.839
161.196
114.466
74.7784
61.957
51.351
38.5997
22.5877
12.5889
9.67018
8.4487
7.76271
7.61107
7.69711
9.40427
13.011
16.6007
21.1479
28.1426
36.7475
49.443
64.5456
83.7939
102.667
343.773
642.163
109.826
79.8144
60.3264
49.7019
40.2525
33.3214
24.3442
14.4167
9.12562
7.20568
6.5768
6.89318
7.59436
9.0371
12.2984
17.0969
21.7327
28.176
38.4062
49.9341
65.4356
111.24
164.063
918.089
187.944
95.1784
68.6431
56.7957
44.2835
34.8371
26.9554
20.3804
15.6891
11.2843
8.35812
7.35665
7.28743
8.4962
10.2137
12.9708
17.4557
23.54
29.9299
41.6897
56.0826
75.247
109.117
319.208
648.122
107.435
79.1256
62.148
49.3337
37.8076
28.8921
22.3286
16.717
12.8987
11.6508
10.7823
9.60081
10.0174
11.2884
13.4936
15.812
19.37
25.5003
34.8433
47.168
63.1103
81.456
119.81
805.743
185.903
92.4844
66.7003
53.8972
43.3038
32.5024
24.7998
19.4049
15.1381
11.5023
9.20843
9.21609
10.3674
11.7004
13.9726
17.2971
21.777
26.1931
29.4147
39.4381
56.3407
82.0869
110.843
197.672
665.114
108.22
78.0772
58.0454
46.402
35.32
27.7354
21.7911
17.5703
14.2383
11.286
9.06547
7.81717
8.4254
10.6051
14.2792
18.3274
23.4655
30.7
38.6637
47.5751
68.3297
85.6927
111.719
770.883
193.979
91.2331
66.0428
52.5195
39.8899
29.5647
23.1289
19.2085
16.2494
13.9991
11.8406
9.35216
7.9946
8.03145
9.78006
13.3809
18.6032
23.3916
30.0516
43.1181
56.7683
69.4228
129.83
192.113
157.946
117.546
68.7343
49.8869
35.1286
25.3953
20.0181
17.0429
15.1242
13.6443
12.5016
11.3513
9.62116
9.05441
10.4142
14.0628
19.9024
25.3834
31.2069
44.8747
65.5938
83.2805
99.3045
637.239
687.229
102.908
77.2222
59.9209
46.1562
32.3648
22.798
17.8679
15.3976
14.0726
13.23
12.5366
12.0782
12.0839
11.9296
12.9456
16.0786
21.566
30.0375
36.8677
45.6172
67.4569
125.469
168.924
929.925
653.516
109.589
70.8292
55.6447
46.044
31.9518
21.3549
16.2164
13.9382
12.8815
12.4513
12.3141
12.2616
12.483
13.3208
15.0623
18.3218
23.0254
29.0498
38.6523
50.5557
65.7458
125.264
589.847
300.361
103.793
68.4715
53.4039
42.6184
30.7056
19.455
14.726
12.4905
11.2833
11.0462
11.4662
12.0657
12.6942
13.779
15.8774
19.426
24.3833
31.1383
41.5208
57.016
79.1818
126.622
722.674
159.685
111.461
68.556
49.8399
38.0901
28.7094
19.7372
13.9607
11.7461
10.3518
9.34158
9.84331
11.3513
12.6963
14.065
16.2845
19.9798
25.3779
33.9598
47.7202
60.8505
99.8286
180.958
662.506
117.604
86.7104
59.381
45.5937
33.2194
24.5208
18.2026
13.7767
11.5281
10.5434
9.71334
9.18954
10.2214
12.4315
14.4995
16.9036
20.5948
26.0657
36.2003
49.6393
80.5194
98.7135
659.994
314.316
102.178
67.1744
51.5238
40.4235
30.6463
22.3784
16.4662
12.9165
11.1578
10.575
10.5383
10.4122
10.6772
12.1288
14.6549
17.7077
21.6982
27.1922
37.1835
54.79
77.5098
131.89
906.498
152.379
113.839
68.2722
50.5227
37.2079
27.5812
21.3037
15.8292
11.7677
9.7742
9.62052
10.2092
11.0789
11.9049
12.8575
14.7672
17.8847
22.1285
29.0136
39.8952
57.1489
89.0342
171.53
694.593
105.774
75.9114
56.8271
46.0225
34.6598
25.2656
19.0494
14.8156
11.5173
8.94624
7.81079
8.52801
10.028
11.6893
13.4415
15.4527
18.4311
22.6939
30.8332
46.4325
60.1962
102.659
311.277
305.732
98.5917
64.6633
53.6755
42.6851
32.1138
23.8236
17.4593
13.0453
10.1308
8.37781
7.38921
6.9833
8.02289
10.3726
12.9641
15.6181
18.9043
23.4963
31.4974
48.4925
80.6886
96.9502
640.992
198.466
84.265
59.0008
47.279
37.2178
28.5491
21.6383
16.3478
11.9667
8.62373
6.83043
6.39081
6.6558
7.03898
8.43627
11.7091
15.395
19.0649
24.094
34.9123
48.7433
81.0904
137.856
922.085
163.201
115.544
63.5122
44.784
34.8833
26.4972
19.9886
15.3812
11.8504
8.63965
6.16258
5.17927
5.52135
6.76171
8.40595
10.9701
15.0326
19.6457
25.6801
36.8022
57.2108
79.0141
151.109
859.647
110.285
73.121
54.4058
41.6906
31.6192
24.9697
18.9747
14.7064
11.9777
9.71362
7.48698
5.53591
4.77414
5.55417
7.93899
11.4236
15.6287
20.857
29.4142
44.1384
59.6001
108.887
297.22
672.893
102.083
79.4101
56.2323
42.863
31.5912
24.2674
19.0014
14.803
12.2881
10.4853
8.93375
7.49484
6.01953
5.3703
6.8625
10.901
16.3236
23.1484
35.0559
49.6837
80.9205
99.9677
680.001
620.165
105.557
70.9626
57.8239
44.4994
32.0065
23.6645
18.857
15.9366
13.4667
11.421
9.77762
8.45537
7.55901
7.09923
7.49451
10.5707
16.841
25.2793
39.1772
59.5825
77.2944
148.041
202.435
87.0407
61.2616
50.2598
42.7898
32.171
22.8918
17.5277
15.3976
14.2997
12.7448
10.7848
8.89802
7.56147
7.53962
8.97317
12.0148
18.1259
28.2237
42.264
63.888
112.226
193.974
193.56
83.4981
58.9978
50.63
39.9207
30.2512
22.2038
16.9129
14.3186
13.4621
12.9735
11.8629
10.2736
8.62807
7.61724
8.87848
12.6955
19.0985
30.0999
46.5544
61.9992
117.897
594.986
164.685
113.633
64.3207
45.4476
35.9269
29.0012
21.6452
16.5304
13.8272
12.226
11.8417
12.0252
11.8025
11.1821
10.6938
10.9966
14.2253
20.4557
30.7631
46.4799
78.0296
108.089
630.542
162.274
83.5519
57.4123
43.7178
33.163
26.037
20.9157
16.4651
13.3325
11.2706
9.84544
10.2362
11.4337
12.1226
12.8807
14.2965
17.6128
23.7411
33.3461
49.8176
71.0478
121.992
763.515
155.539
83.5277
58.5503
44.4125
32.9465
24.9555
19.1652
15.7649
13.5706
11.634
10.0203
8.96498
9.74823
11.5942
13.0195
15.0288
18.8393
25.2648
33.6126
49.1188
77.1353
104.914
863.4
833.794
116.735
79.6788
59.6881
45.8814
33.1175
24.4059
18.4265
14.629
12.8357
11.786
10.7752
10.0763
9.91171
10.8986
12.8182
15.2036
18.9876
25.2694
34.1484
45.7982
73.5572
132.897
649.157
122.859
94.119
63.5015
47.0711
32.6899
23.5801
17.8348
14.2554
12.2237
11.1563
10.5942
10.3888
10.6059
11.2816
12.8506
15.4236
19.2571
25.8183
36.8336
48.2323
74.2742
140.013
639.559
106.895
66.881
52.819
43.2128
30.7399
21.685
16.6291
13.7571
11.9291
10.4376
9.54604
9.50578
10.1843
11.2936
12.9336
15.4985
19.3567
25.3752
37.2401
54.4822
72.841
148.758
309.091
98.3072
64.4754
50.6743
39.7002
29.3056
20.2342
14.3507
11.6755
10.2591
8.97901
7.61141
7.13301
8.09686
10.0449
12.2774
15.0772
19.2355
25.3589
36.0442
54.9254
95.348
194.99
199.593
85.6018
60.1821
47.3453
36.9084
27.5305
20.2514
13.4494
9.2434
7.2967
6.38579
5.67287
4.93548
5.25159
7.3415
10.8221
14.4537
19.0117
25.8754
35.9675
53.6261
95.926
564.58
203.697
86.6557
60.1297
46.1565
34.3602
25.7387
19.4113
14.3257
9.84679
6.20328
4.25318
3.67793
3.73665
4.26209
5.74398
9.07982
13.7185
18.8377
26.6441
37.5985
53.755
94.6849
599.598
169.673
85.6473
60.7627
45.8937
33.2989
23.8515
18.0017
14.2573
11.204
8.21639
4.92386
3.12908
2.84054
3.5122
5.50129
8.99928
13.6954
19.1859
27.0898
40.8498
55.595
98.7164
628.213
156.786
83.4628
56.6596
42.761
31.0249
22.316
16.9194
13.6834
11.5495
9.50557
7.03957
4.32997
3.01761
3.18501
4.89255
8.71885
14.0471
20.0999
27.8238
42.3992
65.6255
98.0643
694.563
163.459
82.3978
53.1625
38.8514
27.8945
20.4296
15.9894
13.2221
11.2168
9.53998
8.07738
6.50059
4.59584
3.9576
5.12097
8.6154
13.8593
20.3334
29.6784
43.5257
70.9743
131.25
886.436
154.615
84.7413
53.4857
35.4113
24.626
18.4851
15.1558
12.8913
10.9802
9.00076
7.23826
6.62496
6.58174
6.22755
6.89995
9.81806
14.8151
20.9238
30.1371
46.0503
74.0834
141.607
821.116
106.253
76.0246
55.7096
31.2204
21.2111
16.6646
14.3261
12.6382
11.0296
9.22324
6.99682
5.39997
5.79311
7.52475
9.42389
12.0832
16.3774
22.2914
30.7993
45.8927
75.9111
143.652
637.078
128.801
78.7566
45.5112
24.2363
15.9888
14.4388
13.3227
12.2865
11.002
9.66486
8.11153
6.24395
5.22784
6.61786
9.90581
13.5722
17.8885
23.5391
32.7478
44.6053
72.5003
148.92
643.633
104.447
63.2787
43.6513
24.0252
13.1587
11.1915
11.6327
11.5161
10.6642
9.34189
8.07182
7.30767
6.7854
6.96039
9.56916
13.8232
18.7055
24.9516
34.6578
49.8696
71.1317
139.948
314.828
98.5034
60.619
44.0055
28.6852
15.3053
10.5364
10.1078
10.5651
10.1122
8.77306
7.04559
6.07097
6.62063
8.18316
10.3663
13.9701
19.0024
26.3505
36.9452
52.9294
87.636
169.581
189.128