/*--------------------------------*- C++ -*----------------------------------*\
| =========                 |                                                 |
| \\      /  F ield         | OpenFOAM: The Open Source CFD Toolbox           |
|  \\    /   O peration     | Version:  2312                                  |
|   \\  /    A nd           | Website:  www.openfoam.com                      |
|    \\/     M anipulation  |                                                 |
\*---------------------------------------------------------------------------*/
FoamFile
{
    version     2.0;
    format      ascii;
    arch        "LSB;label=64;scalar=64";
    class       volScalarField;
    location    "110";
    object      p;
}
// * * * * * * * * * * * * * * * * * * * * * * * * * * * * * * * * * * * * * //

dimensions      [0 2 -2 0 0 0 0];

internalField   nonuniform List<scalar> 
404911
(
2.53438
2.53503
2.53693
2.53742
2.53408
2.53523
2.53675
2.53716
2.53732
2.53739
2.53426
2.53221
2.5332
2.5339
2.53526
2.53637
2.53332
2.53296
2.53291
2.53333
2.53275
2.53264
2.53252
2.53162
2.53237
2.52922
2.53128
2.53123
2.53247
2.53195
2.53133
2.53111
2.53086
2.5346
2.53213
2.5314
2.53058
2.53178
2.53155
2.53145
2.53106
2.53185
2.5318
2.53162
2.53141
2.52979
2.53193
2.53181
2.53188
2.53237
2.53223
2.53224
2.53208
2.5315
2.5322
2.53216
2.53036
2.53409
2.53349
2.53375
2.53367
2.53407
2.53307
2.53289
2.5331
2.53301
2.53323
2.53312
2.53194
2.53267
2.53137
2.53141
2.53208
2.53136
2.5312
2.53157
2.53166
2.53137
2.53134
2.53161
2.53148
2.53179
2.53182
2.53159
2.53197
2.53194
2.5319
2.53196
2.53192
2.53188
2.53195
2.53049
2.53047
2.53053
2.53038
2.53032
2.53051
2.53018
2.53019
2.53023
2.53
2.53005
2.53009
2.52995
2.54181
2.54243
2.54258
2.5407
2.54183
2.54004
2.54165
2.5415
2.54215
2.54233
2.54269
2.54032
2.54043
2.5411
2.54118
2.54125
2.54151
2.542
2.54213
2.54223
2.54009
2.54007
2.54039
2.54042
2.54039
2.54059
2.54081
2.54108
2.54107
2.54146
2.54177
2.54186
2.54242
2.54213
2.54246
2.54257
2.53975
2.53997
2.54017
2.54021
2.54037
2.5405
2.54051
2.54042
2.54053
2.54083
2.54086
2.54131
2.54155
2.54166
2.54246
2.53956
2.53975
2.54006
2.54019
2.54041
2.54043
2.54048
2.54064
2.54071
2.54069
2.54085
2.54104
2.54107
2.54108
2.54127
2.53955
2.53982
2.53985
2.54015
2.54037
2.54066
2.54049
2.5406
2.54072
2.54073
2.54082
2.54097
2.54112
2.54117
2.54117
2.54153
2.53963
2.53923
2.53932
2.53996
2.53993
2.5401
2.54052
2.54074
2.5406
2.54072
2.54077
2.54076
2.54082
2.54096
2.54115
2.54122
2.54143
2.53869
2.53885
2.53874
2.5395
2.5395
2.5395
2.53996
2.54004
2.54006
2.54003
2.54059
2.54062
2.54067
2.5407
2.54077
2.54078
2.54099
2.54128
2.53823
2.53856
2.5387
2.53901
2.53952
2.53957
2.53956
2.53968
2.53985
2.54011
2.54031
2.54051
2.54063
2.54059
2.54064
2.54063
2.54097
2.54096
2.53798
2.53801
2.53802
2.53817
2.53865
2.53899
2.5395
2.53968
2.53955
2.53954
2.53974
2.53994
2.54012
2.54033
2.54058
2.54066
2.54057
2.54085
2.53828
2.53811
2.53799
2.53788
2.53822
2.53854
2.5389
2.53924
2.53937
2.53947
2.53972
2.53977
2.53994
2.54001
2.54027
2.54043
2.54002
2.53842
2.53849
2.53822
2.53797
2.53795
2.53809
2.53841
2.53848
2.53874
2.539
2.53921
2.53937
2.53965
2.53993
2.54012
2.5401
2.54008
2.53857
2.53861
2.53831
2.53844
2.53831
2.53806
2.53785
2.53813
2.53838
2.5386
2.53873
2.53901
2.53909
2.53922
2.53944
2.53977
2.54008
2.54022
2.53805
2.5379
2.53817
2.53854
2.53851
2.53833
2.53834
2.53826
2.53812
2.53814
2.53838
2.53846
2.53869
2.5389
2.53916
2.53927
2.5395
2.53997
2.53808
2.53802
2.53797
2.53808
2.53826
2.53858
2.53866
2.53822
2.53823
2.53813
2.53826
2.53826
2.53827
2.53833
2.53845
2.53851
2.53892
2.53928
2.53811
2.53812
2.53799
2.53785
2.5378
2.53812
2.53844
2.53854
2.53823
2.53819
2.53828
2.53838
2.5383
2.53827
2.53837
2.53841
2.5389
2.53876
2.53792
2.53803
2.53793
2.53818
2.53813
2.53798
2.53787
2.53788
2.53812
2.53828
2.53822
2.53825
2.53829
2.53858
2.53825
2.53817
2.53801
2.53772
2.53801
2.53808
2.53813
2.53823
2.53827
2.5383
2.53817
2.53814
2.538
2.53797
2.53799
2.53802
2.53818
2.53815
2.53816
2.53837
2.53807
2.53813
2.53755
2.53763
2.53751
2.53806
2.53825
2.53827
2.53828
2.53834
2.53831
2.53831
2.5381
2.53797
2.53799
2.53803
2.53823
2.53807
2.53801
2.53816
2.53777
2.53758
2.53771
2.53771
2.53812
2.53826
2.53822
2.53828
2.53834
2.53834
2.53822
2.53804
2.53789
2.53787
2.53805
2.53823
2.53822
2.53763
2.53753
2.53756
2.53757
2.53767
2.53774
2.53803
2.5381
2.53818
2.53825
2.53832
2.5383
2.5382
2.53802
2.53785
2.5378
2.53789
2.53803
2.53757
2.53745
2.53742
2.53744
2.53758
2.53767
2.53785
2.53795
2.53804
2.5382
2.53829
2.53831
2.53823
2.53823
2.53814
2.53789
2.53783
2.53777
2.53774
2.53751
2.53742
2.53746
2.53745
2.5376
2.53764
2.53785
2.53786
2.53789
2.53801
2.53821
2.53823
2.53807
2.53804
2.53834
2.53788
2.53788
2.53777
2.5376
2.53761
2.53754
2.53746
2.53743
2.53732
2.53771
2.53782
2.5379
2.53793
2.53793
2.538
2.53813
2.53825
2.53822
2.53805
2.53816
2.53778
2.53778
2.53771
2.53758
2.53765
2.53757
2.53748
2.53749
2.53745
2.53756
2.53779
2.53792
2.53795
2.53792
2.53794
2.53808
2.53803
2.53825
2.53789
2.53779
2.53777
2.53771
2.53767
2.53764
2.53754
2.53743
2.53753
2.53761
2.53764
2.53775
2.53788
2.53795
2.53791
2.53792
2.53795
2.53795
2.53772
2.5379
2.5379
2.53788
2.53781
2.53774
2.53769
2.53762
2.53751
2.53735
2.53737
2.53756
2.53769
2.53784
2.53795
2.53801
2.53757
2.53808
2.53751
2.53778
2.53791
2.53799
2.53792
2.53786
2.53781
2.53772
2.53762
2.53754
2.53739
2.53736
2.53752
2.53768
2.53786
2.53814
2.53805
2.53805
2.53709
2.53747
2.5378
2.53791
2.53797
2.53791
2.53791
2.53787
2.5378
2.5377
2.53761
2.53755
2.53753
2.53762
2.53773
2.53781
2.53796
2.53786
2.53686
2.53684
2.53707
2.53754
2.53777
2.53785
2.53784
2.5379
2.53789
2.53782
2.53775
2.53768
2.53763
2.5376
2.53768
2.53772
2.53776
2.53783
2.53644
2.53694
2.53688
2.5367
2.53687
2.53741
2.53762
2.53766
2.53768
2.5378
2.53786
2.5378
2.53774
2.53768
2.53762
2.53762
2.53766
2.5376
2.53665
2.53662
2.53677
2.53686
2.53693
2.5371
2.53732
2.53747
2.53747
2.53746
2.53761
2.53774
2.53775
2.53771
2.53768
2.53764
2.53758
2.53768
2.53672
2.53668
2.53676
2.53687
2.5369
2.53702
2.53717
2.53733
2.53745
2.53746
2.53747
2.53754
2.53765
2.53766
2.53766
2.53768
2.53771
2.53767
2.53634
2.5366
2.53665
2.53675
2.53689
2.53692
2.53712
2.53727
2.53737
2.53746
2.5375
2.53753
2.53756
2.53762
2.53761
2.5376
2.53769
2.53655
2.53632
2.53647
2.53653
2.53657
2.53673
2.5368
2.53681
2.53712
2.5373
2.53728
2.53737
2.53745
2.5375
2.53755
2.53761
2.53753
2.53753
2.53658
2.53639
2.53638
2.53643
2.53645
2.53654
2.53672
2.53681
2.53673
2.53694
2.53723
2.53725
2.53732
2.53739
2.53744
2.53748
2.5375
2.5376
2.5363
2.53639
2.53627
2.53629
2.53638
2.53641
2.53651
2.53669
2.53691
2.5368
2.53679
2.53708
2.53722
2.5373
2.53736
2.53742
2.53746
2.53749
2.53651
2.53637
2.53635
2.53632
2.53621
2.5362
2.53624
2.53625
2.53644
2.53664
2.5369
2.53686
2.53676
2.5369
2.53712
2.53725
2.5373
2.53737
2.53627
2.53632
2.53643
2.53645
2.53634
2.53619
2.53617
2.53621
2.53626
2.53644
2.53663
2.53693
2.53698
2.53695
2.53702
2.53711
2.53717
2.53724
2.53636
2.53626
2.53633
2.53644
2.53647
2.53634
2.53622
2.53619
2.53625
2.53631
2.53642
2.53658
2.53684
2.53696
2.53699
2.53704
2.53712
2.53715
2.53574
2.53634
2.53631
2.53634
2.53647
2.53648
2.53635
2.53623
2.53621
2.5363
2.5364
2.53644
2.53658
2.5368
2.53694
2.537
2.537
2.53703
2.53621
2.53629
2.53622
2.53629
2.53632
2.53644
2.53641
2.53628
2.53619
2.53615
2.5363
2.53645
2.53648
2.53657
2.5368
2.53694
2.53695
2.5362
2.53593
2.53613
2.53617
2.53627
2.53632
2.53636
2.53645
2.53642
2.53625
2.53615
2.53603
2.53605
2.53628
2.53648
2.53652
2.53666
2.53679
2.53574
2.53586
2.536
2.53606
2.53621
2.53634
2.53633
2.53642
2.53644
2.53642
2.53632
2.53622
2.5361
2.53599
2.53615
2.53642
2.53656
2.53666
2.53575
2.53575
2.5358
2.5359
2.53599
2.53616
2.53628
2.53631
2.53637
2.53652
2.53642
2.53631
2.53624
2.53619
2.53621
2.53631
2.53641
2.53646
2.53548
2.53569
2.53581
2.53576
2.5358
2.53588
2.53605
2.53619
2.53622
2.53617
2.53628
2.53636
2.53632
2.53624
2.53619
2.53619
2.53625
2.53638
2.5356
2.53544
2.53567
2.53579
2.53578
2.53576
2.53585
2.53602
2.53613
2.53619
2.5362
2.53623
2.53628
2.53629
2.53623
2.53623
2.53624
2.53621
2.53528
2.53549
2.53554
2.53563
2.53572
2.53574
2.53577
2.53587
2.536
2.5361
2.53616
2.53619
2.5362
2.53621
2.53623
2.53622
2.53624
2.53624
2.53518
2.53527
2.53538
2.53547
2.53551
2.53556
2.53565
2.53572
2.53582
2.53594
2.53605
2.53611
2.53612
2.53614
2.53616
2.53618
2.53612
2.53606
2.53517
2.53519
2.53525
2.53528
2.53539
2.53545
2.53548
2.53557
2.53574
2.53592
2.53604
2.53605
2.53605
2.53604
2.53605
2.53607
2.53607
2.53617
2.53483
2.53497
2.535
2.53519
2.53525
2.53514
2.53543
2.53549
2.53553
2.53564
2.53571
2.53593
2.53607
2.53603
2.53597
2.53595
2.53595
2.53596
2.53605
2.53491
2.53501
2.535
2.53495
2.53511
2.53519
2.53517
2.53535
2.53542
2.53552
2.53573
2.53571
2.53577
2.53585
2.53588
2.53589
2.53589
2.53589
2.53482
2.53491
2.53496
2.53499
2.53507
2.53512
2.53519
2.53522
2.53527
2.53536
2.53563
2.53563
2.53564
2.53573
2.53576
2.53576
2.53582
2.53463
2.53475
2.53483
2.53486
2.53495
2.53503
2.5351
2.5351
2.53508
2.53506
2.53513
2.53523
2.53538
2.53543
2.5355
2.53558
2.53564
2.53559
2.53454
2.53454
2.53477
2.53479
2.53486
2.53496
2.53506
2.53514
2.53509
2.53501
2.53488
2.53488
2.53511
2.53528
2.53534
2.53538
2.53543
2.53546
2.53424
2.53464
2.53465
2.53469
2.53477
2.53485
2.53495
2.53503
2.53516
2.53512
2.53494
2.53482
2.53482
2.53504
2.53517
2.53529
2.53534
2.53543
2.53456
2.53461
2.53464
2.53464
2.53471
2.53484
2.5349
2.53492
2.53504
2.53518
2.53491
2.53485
2.5349
2.53497
2.53509
2.53517
2.53525
2.53416
2.53441
2.5346
2.53458
2.53461
2.53467
2.53479
2.53484
2.5348
2.53477
2.53495
2.53486
2.53484
2.53489
2.53495
2.535
2.53503
2.53382
2.53364
2.53399
2.53429
2.53447
2.53446
2.53451
2.53462
2.5348
2.53481
2.5347
2.53469
2.53482
2.53481
2.53483
2.53482
2.53491
2.53502
2.53395
2.53382
2.53364
2.53393
2.5342
2.53432
2.53432
2.53438
2.5345
2.53477
2.53494
2.53476
2.5347
2.53471
2.53474
2.53474
2.53481
2.53397
2.53405
2.53396
2.53406
2.53412
2.53423
2.53431
2.53426
2.53429
2.53433
2.5346
2.53485
2.53483
2.5348
2.53476
2.5347
2.53471
2.53386
2.53403
2.53403
2.5341
2.53408
2.5342
2.53422
2.53422
2.53426
2.53423
2.53428
2.53434
2.53444
2.53464
2.53476
2.53481
2.53477
2.53475
2.53368
2.53378
2.53395
2.53408
2.53412
2.53415
2.53436
2.53432
2.53417
2.53413
2.53412
2.53423
2.53438
2.53446
2.53462
2.53471
2.53476
2.53476
2.5332
2.53353
2.53371
2.53391
2.53402
2.53406
2.53406
2.53455
2.53458
2.53409
2.53397
2.53397
2.53401
2.53411
2.5343
2.53451
2.53458
2.53461
2.53309
2.53311
2.53324
2.53354
2.53377
2.53383
2.53387
2.53387
2.53402
2.53408
2.53389
2.53378
2.53375
2.53379
2.5338
2.53391
2.53413
2.53447
2.53254
2.53284
2.53295
2.53307
2.53317
2.53331
2.53343
2.53374
2.53396
2.53388
2.5337
2.53366
2.53368
2.53362
2.53359
2.53364
2.53355
2.53368
2.53383
2.5326
2.53262
2.53264
2.53281
2.53294
2.53313
2.53315
2.53333
2.53347
2.53363
2.53364
2.53354
2.53352
2.53358
2.53362
2.53364
2.53377
2.53367
2.53375
2.53207
2.5325
2.53252
2.53262
2.53276
2.53298
2.53316
2.53329
2.5334
2.53347
2.53352
2.53357
2.5336
2.53363
2.53368
2.53371
2.53382
2.53382
2.53219
2.53232
2.53247
2.53239
2.53225
2.53216
2.53259
2.53299
2.53313
2.53329
2.53349
2.53352
2.53355
2.53363
2.53366
2.53371
2.53376
2.53184
2.53203
2.53231
2.53229
2.53205
2.53177
2.53173
2.53212
2.53255
2.53298
2.53315
2.53335
2.53344
2.53355
2.53362
2.53369
2.53364
2.53159
2.53169
2.53182
2.53197
2.5319
2.53163
2.53153
2.53163
2.53196
2.53245
2.53284
2.53312
2.53327
2.53338
2.53352
2.53359
2.53365
2.53149
2.53165
2.53141
2.5316
2.53167
2.53168
2.53176
2.53163
2.53149
2.5318
2.53214
2.53245
2.53277
2.53303
2.53319
2.53332
2.5334
2.5336
2.53163
2.53169
2.53165
2.5315
2.53173
2.53169
2.5317
2.53173
2.53163
2.53164
2.53195
2.53217
2.53246
2.53265
2.53284
2.53303
2.53319
2.53151
2.5316
2.53167
2.53173
2.53175
2.5318
2.53169
2.53178
2.53177
2.53171
2.53172
2.53198
2.53221
2.5324
2.53263
2.53276
2.53284
2.53119
2.53152
2.53161
2.53166
2.53182
2.53185
2.53187
2.5319
2.53183
2.53187
2.53169
2.53173
2.53194
2.53211
2.53232
2.53253
2.53277
2.53089
2.53108
2.53134
2.53151
2.53157
2.53165
2.53167
2.53179
2.5318
2.53168
2.53168
2.53167
2.53177
2.53188
2.53206
2.53227
2.53246
2.52997
2.53053
2.53073
2.53102
2.53124
2.53139
2.53147
2.53152
2.53165
2.53162
2.53155
2.53157
2.53164
2.53172
2.53183
2.53192
2.53215
2.53064
2.53015
2.52994
2.53015
2.53052
2.53086
2.53103
2.53117
2.53121
2.53139
2.53144
2.53143
2.53152
2.5316
2.53164
2.53172
2.53177
2.52981
2.53015
2.52982
2.53002
2.5303
2.53066
2.53082
2.53095
2.53097
2.53117
2.53135
2.53142
2.53147
2.53153
2.5316
2.53157
2.52963
2.53026
2.53014
2.52993
2.53005
2.5303
2.53053
2.53067
2.53081
2.5308
2.53098
2.53119
2.53133
2.53136
2.53142
2.52883
2.52911
2.52926
2.53009
2.53008
2.52992
2.52995
2.53019
2.53045
2.53055
2.53077
2.53077
2.53092
2.53109
2.53121
2.53128
2.52845
2.52862
2.52881
2.52907
2.52968
2.52973
2.52969
2.52983
2.52991
2.53018
2.53048
2.53074
2.5308
2.53081
2.53096
2.53103
2.52905
2.5288
2.52843
2.52886
2.529
2.52961
2.52973
2.52958
2.52969
2.52985
2.53004
2.53024
2.53073
2.53074
2.53095
2.53078
2.52971
2.52908
2.52869
2.5288
2.52852
2.52888
2.52912
2.52939
2.52979
2.52967
2.52975
2.52987
2.53
2.53011
2.53041
2.53053
2.5292
2.52939
2.52936
2.52912
2.52895
2.52861
2.52904
2.52926
2.52939
2.5297
2.52995
2.53004
2.52994
2.53011
2.53007
2.53031
2.52972
2.52971
2.52945
2.52935
2.52925
2.52921
2.52907
2.52931
2.52951
2.52963
2.52972
2.52983
2.53023
2.53028
2.53014
2.53024
2.53015
2.53009
2.52975
2.52989
2.52957
2.52944
2.52934
2.52949
2.52964
2.52964
2.52975
2.52973
2.52965
2.52991
2.52998
2.52988
2.53035
2.52961
2.53002
2.53011
2.52999
2.52989
2.52973
2.52966
2.52984
2.52997
2.52994
2.52975
2.52981
2.52973
2.52962
2.53008
2.52983
2.52982
2.52962
2.52969
2.52974
2.52975
2.52993
2.52975
2.52984
2.53007
2.5302
2.53026
2.53011
2.52981
2.52995
2.52987
2.52977
2.52935
2.52944
2.52949
2.52931
2.52946
2.52969
2.52964
2.5298
2.53016
2.53032
2.53023
2.52999
2.53
2.5295
2.52949
2.52974
2.5296
2.5293
2.52941
2.52944
2.52929
2.52899
2.52928
2.52943
2.52949
2.52975
2.52988
2.53001
2.52978
2.53016
2.52966
2.52951
2.52959
2.52939
2.52904
2.52909
2.5292
2.52936
2.52919
2.52925
2.52927
2.52935
2.52951
2.52966
2.52987
2.52907
2.52903
2.52946
2.52948
2.52907
2.52915
2.5289
2.52916
2.5293
2.52934
2.52922
2.52932
2.52938
2.52959
2.52798
2.52844
2.52904
2.52906
2.52927
2.52912
2.52912
2.5289
2.52903
2.52923
2.52927
2.52934
2.52942
2.52805
2.52792
2.52812
2.52833
2.5288
2.52876
2.52884
2.52888
2.52881
2.52871
2.52899
2.52916
2.52923
2.52921
2.52828
2.52812
2.52806
2.52804
2.52822
2.52853
2.52872
2.52889
2.52856
2.5288
2.52869
2.52889
2.52905
2.52922
2.52836
2.52828
2.52818
2.52807
2.52814
2.52812
2.52829
2.52839
2.52868
2.5289
2.5289
2.52884
2.52884
2.52903
2.52826
2.52829
2.52829
2.52815
2.52793
2.52796
2.52807
2.52804
2.52827
2.52844
2.52884
2.52885
2.52891
2.5289
2.52802
2.52784
2.528
2.52797
2.5278
2.5275
2.5276
2.52802
2.52815
2.5281
2.52841
2.52873
2.52891
2.52881
2.52794
2.52792
2.52786
2.52772
2.52784
2.52752
2.527
2.52715
2.52771
2.5284
2.52819
2.52841
2.52878
2.5273
2.52717
2.52694
2.52691
2.52697
2.52773
2.52791
2.528
2.52823
2.52672
2.52624
2.52635
2.52647
2.52686
2.52721
2.52758
2.52773
2.5269
2.52675
2.52613
2.52614
2.52599
2.52616
2.52717
2.52714
2.52693
2.52675
2.52632
2.52598
2.52569
2.52536
2.52664
2.52647
2.52626
2.52597
2.52578
2.52597
2.52588
2.5259
2.52648
2.52627
2.52584
2.52418
2.52472
2.52585
2.52592
2.52544
2.52452
2.52537
2.52544
2.52553
2.52532
2.52414
2.52457
2.52555
2.52502
2.5247
2.52522
2.52492
2.5259
2.52545
2.52101
2.51671
2.50966
2.53788
2.53583
2.53495
2.53549
2.53407
2.53208
2.53025
2.52829
2.56402
2.5409
2.5413
2.53964
2.54044
2.53942
2.53939
2.53995
2.54035
2.54102
2.54129
2.5418
2.54366
2.54973
2.56297
2.58186
2.54049
2.54066
2.54161
2.54146
2.54245
2.54193
2.5417
2.54181
2.54228
2.54336
2.54459
2.54532
2.54671
2.54972
2.55407
2.56118
2.57307
2.59625
2.62073
2.6361
2.59989
2.46144
2.541
2.54194
2.54157
2.54176
2.54164
2.5419
2.54239
2.54295
2.54351
2.54357
2.54358
2.54437
2.54589
2.54743
2.54701
2.55035
2.55639
2.56126
2.56837
2.5803
2.59958
2.62761
2.64905
2.54336
2.54244
2.54278
2.54209
2.54224
2.54208
2.54232
2.54239
2.54273
2.54332
2.54397
2.54443
2.54503
2.54578
2.54666
2.54853
2.5501
2.55166
2.55582
2.5619
2.56595
2.57332
2.58433
2.59995
2.62067
2.54321
2.54268
2.54325
2.5432
2.54341
2.54218
2.54251
2.54253
2.5426
2.54305
2.54295
2.54359
2.54395
2.54501
2.54674
2.54798
2.54934
2.55121
2.5532
2.55536
2.55957
2.56541
2.56952
2.57591
2.58489
2.54223
2.54245
2.5426
2.54295
2.54309
2.54346
2.54354
2.54352
2.54324
2.54316
2.54302
2.54335
2.54326
2.54334
2.54363
2.54536
2.54779
2.55002
2.55095
2.55311
2.55611
2.5582
2.56175
2.56563
2.5696
2.54207
2.54262
2.543
2.54278
2.54277
2.54291
2.54305
2.54356
2.54406
2.54393
2.54399
2.5438
2.54391
2.54348
2.54376
2.54422
2.5436
2.54626
2.54813
2.55096
2.55261
2.5545
2.55714
2.55971
2.56284
2.54251
2.54116
2.54162
2.54268
2.54265
2.54319
2.543
2.54297
2.54304
2.54313
2.54381
2.54444
2.54437
2.54433
2.5445
2.54461
2.54445
2.54477
2.5446
2.54509
2.54681
2.55013
2.5515
2.55365
2.55537
2.55674
2.54242
2.54262
2.54297
2.54232
2.54184
2.54253
2.54259
2.5426
2.54278
2.54291
2.54305
2.54323
2.54335
2.54395
2.54455
2.54479
2.54488
2.54499
2.54549
2.54558
2.54562
2.54591
2.54702
2.54865
2.55106
2.55243
2.55437
2.54229
2.54236
2.54258
2.5428
2.54277
2.54254
2.54254
2.54259
2.54267
2.54263
2.54282
2.54298
2.54338
2.54352
2.54399
2.54471
2.54494
2.54506
2.54504
2.54564
2.54579
2.54495
2.54712
2.54759
2.54982
2.54197
2.54215
2.5422
2.54243
2.5424
2.54258
2.54285
2.54293
2.54307
2.54306
2.54293
2.54297
2.54295
2.54295
2.54314
2.54327
2.54351
2.54399
2.54484
2.545
2.54505
2.54533
2.54569
2.54519
2.54558
2.54128
2.54205
2.5421
2.54235
2.54238
2.54216
2.54258
2.54271
2.54298
2.54329
2.54353
2.54357
2.54337
2.54352
2.54348
2.54346
2.54355
2.54383
2.54417
2.54476
2.5452
2.54526
2.54531
2.54547
2.54063
2.54138
2.54114
2.54159
2.54221
2.54226
2.54224
2.54225
2.54225
2.54243
2.54262
2.54296
2.54336
2.54342
2.54358
2.54348
2.54381
2.54379
2.54388
2.54403
2.54438
2.54448
2.54489
2.54521
2.54529
2.54126
2.54092
2.54086
2.54113
2.54152
2.5422
2.54238
2.54236
2.54212
2.54209
2.54214
2.54226
2.5425
2.54291
2.54314
2.54333
2.5434
2.5435
2.54358
2.54358
2.54378
2.5442
2.5446
2.54474
2.54482
2.54058
2.54081
2.54102
2.5411
2.54108
2.54108
2.54146
2.54197
2.54233
2.54224
2.54216
2.54211
2.54204
2.54211
2.54252
2.54277
2.54292
2.54306
2.54307
2.54347
2.54376
2.54384
2.54396
2.54429
2.5444
2.53985
2.53989
2.54034
2.54052
2.54064
2.54091
2.54107
2.5413
2.54116
2.54129
2.54174
2.54212
2.54215
2.54209
2.54212
2.54206
2.54212
2.54229
2.5426
2.5428
2.5429
2.54289
2.54333
2.54385
2.54399
2.54402
2.53953
2.5405
2.53988
2.53998
2.54021
2.54037
2.54056
2.5407
2.54099
2.54116
2.54129
2.54148
2.54168
2.54188
2.54186
2.54189
2.54201
2.54205
2.54228
2.54236
2.54244
2.54248
2.54273
2.54279
2.54306
2.54354
2.54039
2.53935
2.53922
2.53968
2.53989
2.53993
2.54007
2.54033
2.54052
2.54065
2.54076
2.54098
2.54121
2.54145
2.54161
2.54169
2.54182
2.54214
2.54234
2.54236
2.54255
2.54269
2.5425
2.54237
2.54197
2.54242
2.5429
2.53921
2.53983
2.53959
2.53953
2.53963
2.53983
2.53989
2.54004
2.54021
2.54042
2.54059
2.54067
2.54069
2.54088
2.54115
2.54135
2.54145
2.54156
2.54182
2.54236
2.54269
2.54267
2.54275
2.54282
2.54267
2.54247
2.5425
2.53929
2.53926
2.53922
2.5394
2.53959
2.53981
2.54001
2.54015
2.5403
2.54042
2.54054
2.54068
2.54077
2.54084
2.541
2.54119
2.54128
2.54125
2.54134
2.54172
2.54216
2.54249
2.54275
2.54263
2.54251
2.54247
2.53918
2.53875
2.53905
2.53922
2.53932
2.53946
2.53964
2.53987
2.54011
2.54031
2.54049
2.54061
2.54063
2.54075
2.54086
2.54095
2.54109
2.54125
2.5413
2.54126
2.54149
2.54162
2.54197
2.5424
2.54239
2.54249
2.53882
2.53867
2.53884
2.53878
2.539
2.5392
2.53935
2.53956
2.53978
2.53995
2.54014
2.54032
2.54047
2.54058
2.54069
2.54075
2.54085
2.54094
2.5411
2.54125
2.5413
2.54132
2.54147
2.54165
2.5419
2.54227
2.5382
2.53846
2.53854
2.53866
2.53881
2.53896
2.53919
2.53938
2.53963
2.53985
2.54001
2.54018
2.54028
2.54035
2.54054
2.54061
2.54065
2.54074
2.54086
2.54104
2.54125
2.54129
2.54143
2.54138
2.54168
2.5383
2.53856
2.53831
2.53829
2.53841
2.53859
2.53882
2.53907
2.53929
2.53948
2.53963
2.53978
2.53998
2.54018
2.54031
2.54035
2.54049
2.54048
2.54054
2.54066
2.54078
2.54095
2.54118
2.54125
2.54137
2.54151
2.53858
2.53872
2.5385
2.53839
2.53833
2.53823
2.53828
2.53848
2.53876
2.53911
2.53939
2.53955
2.53961
2.53972
2.53996
2.54018
2.54027
2.54028
2.54042
2.54048
2.5405
2.54063
2.54072
2.54089
2.54112
2.54149
2.53895
2.53835
2.53841
2.53854
2.53848
2.53837
2.53824
2.53824
2.53829
2.53842
2.5387
2.53904
2.53932
2.53954
2.53962
2.53972
2.53998
2.54018
2.54022
2.54029
2.54047
2.54065
2.54058
2.54063
2.54077
2.54102
2.54087
2.5383
2.53855
2.53846
2.53845
2.53851
2.53844
2.53832
2.53823
2.53826
2.53839
2.53851
2.53873
2.53903
2.53922
2.53937
2.53946
2.53967
2.53996
2.54015
2.54027
2.54036
2.54052
2.54069
2.54074
2.54088
2.54089
2.53842
2.53838
2.53837
2.53848
2.53854
2.53852
2.53851
2.53837
2.53826
2.5382
2.53822
2.53833
2.53852
2.53875
2.53893
2.53908
2.5392
2.53931
2.53957
2.53991
2.54012
2.54021
2.54039
2.54048
2.54053
2.54081
2.53789
2.53815
2.53819
2.53827
2.53833
2.53852
2.53857
2.53852
2.53822
2.53806
2.53809
2.53817
2.53824
2.53838
2.53858
2.53874
2.5389
2.53909
2.53935
2.53951
2.53971
2.53995
2.54013
2.54041
2.54043
2.53794
2.53798
2.53802
2.53802
2.53802
2.5381
2.53816
2.53841
2.5386
2.53851
2.53814
2.53791
2.53799
2.53816
2.53826
2.53828
2.53841
2.53858
2.53878
2.53902
2.53928
2.53953
2.53972
2.53983
2.53965
2.53783
2.53781
2.53799
2.53798
2.53803
2.53806
2.53805
2.53799
2.53812
2.53845
2.53842
2.53816
2.538
2.53815
2.53832
2.53834
2.53836
2.53844
2.53863
2.53886
2.53902
2.53926
2.53936
2.5398
2.54009
2.53762
2.53786
2.53787
2.53784
2.53796
2.53802
2.5381
2.53815
2.53812
2.53797
2.53795
2.53816
2.53824
2.53815
2.5381
2.53823
2.53835
2.53832
2.53831
2.53836
2.53852
2.53869
2.5388
2.53913
2.5391
2.5378
2.53778
2.53778
2.53801
2.53799
2.53804
2.53808
2.53823
2.53833
2.5383
2.53818
2.53805
2.53802
2.53804
2.53801
2.53808
2.53824
2.53828
2.53821
2.53815
2.53826
2.53832
2.53852
2.53866
2.53871
2.53756
2.53771
2.53773
2.53779
2.53781
2.53793
2.53799
2.53808
2.53813
2.53832
2.5385
2.53847
2.53837
2.53815
2.53801
2.53799
2.538
2.53809
2.53825
2.53833
2.53826
2.53809
2.53816
2.53816
2.53828
2.53784
2.53768
2.53764
2.53767
2.53777
2.5378
2.53788
2.53795
2.53802
2.53812
2.53832
2.53847
2.53847
2.53839
2.53813
2.53795
2.53794
2.53801
2.53814
2.53826
2.53838
2.53831
2.53814
2.53771
2.53796
2.53757
2.53763
2.53763
2.5376
2.5376
2.5377
2.53776
2.53778
2.53784
2.53788
2.538
2.53825
2.53838
2.5384
2.53825
2.53806
2.53794
2.53791
2.538
2.5381
2.53812
2.53828
2.53821
2.53811
2.53773
2.53769
2.53767
2.53763
2.53758
2.53759
2.53763
2.53768
2.53773
2.53776
2.53781
2.53779
2.53781
2.53808
2.53819
2.53826
2.53819
2.53803
2.53789
2.53788
2.53795
2.5381
2.53812
2.53797
2.53794
2.53772
2.53776
2.5377
2.53765
2.53761
2.53759
2.53759
2.53764
2.53769
2.53769
2.53773
2.53782
2.53785
2.53784
2.53795
2.53806
2.53814
2.53814
2.53807
2.53795
2.53787
2.53784
2.53791
2.538
2.53792
2.53782
2.53779
2.53774
2.53771
2.53768
2.53764
2.53761
2.53758
2.53761
2.53773
2.53777
2.5378
2.53788
2.53791
2.53794
2.53801
2.53808
2.53813
2.53813
2.53804
2.53795
2.53785
2.53789
2.5378
2.53777
2.53781
2.53777
2.53776
2.53773
2.53774
2.53772
2.53769
2.53764
2.53762
2.5376
2.53767
2.5378
2.53785
2.53792
2.53793
2.53798
2.53807
2.53816
2.53811
2.53808
2.53798
2.53801
2.53793
2.53767
2.53773
2.53778
2.53779
2.53779
2.53777
2.53777
2.53778
2.53776
2.5377
2.53763
2.53764
2.53769
2.53773
2.5378
2.53785
2.53792
2.53795
2.53795
2.53806
2.53808
2.53806
2.53808
2.53798
2.53736
2.53764
2.53769
2.53779
2.53782
2.53784
2.53782
2.53782
2.53781
2.53778
2.53769
2.53759
2.53759
2.53771
2.53782
2.53788
2.53791
2.53796
2.53794
2.53794
2.53804
2.53806
2.53799
2.53802
2.53705
2.53711
2.53731
2.53755
2.53769
2.53779
2.53785
2.53787
2.53786
2.53786
2.53785
2.53779
2.53771
2.53763
2.53761
2.5377
2.53781
2.53789
2.53795
2.538
2.53794
2.53789
2.538
2.5381
2.538
2.5369
2.53695
2.53704
2.53722
2.53748
2.53764
2.53776
2.53783
2.53785
2.53784
2.53785
2.53785
2.53781
2.53774
2.5377
2.53769
2.53773
2.53779
2.53782
2.53786
2.53792
2.53793
2.53798
2.53787
2.537
2.53675
2.53688
2.53693
2.53709
2.53733
2.53754
2.53769
2.53779
2.53781
2.5378
2.53779
2.5378
2.53778
2.53773
2.53771
2.5377
2.53771
2.53774
2.53779
2.53784
2.53782
2.53795
2.53794
2.53656
2.5368
2.5368
2.5368
2.53687
2.53696
2.5372
2.53741
2.53759
2.53771
2.53774
2.53773
2.53772
2.53773
2.53773
2.5377
2.53769
2.5377
2.5377
2.53773
2.53779
2.53788
2.53788
2.53662
2.53663
2.53661
2.53673
2.53681
2.53681
2.53686
2.53694
2.5371
2.5373
2.53748
2.53759
2.53766
2.53767
2.53766
2.53767
2.53769
2.53768
2.53769
2.53772
2.53768
2.53774
2.53774
2.53765
2.53656
2.53659
2.53656
2.53658
2.53668
2.53678
2.53685
2.53692
2.53696
2.53705
2.53723
2.53741
2.53754
2.53763
2.53763
2.53763
2.53764
2.53766
2.53766
2.53768
2.53775
2.53773
2.53781
2.53766
2.53659
2.53652
2.53654
2.53653
2.53654
2.53663
2.53676
2.53686
2.53694
2.53699
2.53706
2.53718
2.53737
2.5375
2.53758
2.53759
2.5376
2.53761
2.53761
2.53762
2.53763
2.5377
2.53764
2.53651
2.53645
2.53652
2.53651
2.53651
2.53651
2.53654
2.5366
2.53672
2.53682
2.53689
2.53699
2.53703
2.53707
2.53724
2.5374
2.53748
2.53752
2.53755
2.53758
2.53761
2.53765
2.53763
2.53734
2.53673
2.53643
2.53644
2.53644
2.53646
2.53649
2.53649
2.53653
2.53659
2.53674
2.53684
2.53683
2.53692
2.53699
2.53701
2.53715
2.5373
2.53739
2.53744
2.53748
2.53749
2.53759
2.53761
2.53786
2.53628
2.53643
2.53644
2.53643
2.5364
2.53641
2.53643
2.53647
2.53652
2.5366
2.53678
2.53692
2.53687
2.53687
2.53699
2.53706
2.53715
2.53727
2.53737
2.53742
2.53746
2.53743
2.53747
2.53751
2.53614
2.53633
2.53636
2.53637
2.5364
2.53638
2.53636
2.53637
2.53641
2.53647
2.53659
2.53675
2.53693
2.53691
2.5369
2.53701
2.53711
2.53717
2.53725
2.53733
2.53737
2.53741
2.53746
2.53603
2.53632
2.5362
2.53629
2.53633
2.53637
2.53639
2.53637
2.53634
2.53635
2.53638
2.53644
2.53656
2.53673
2.53689
2.53692
2.53694
2.53704
2.53716
2.5372
2.53725
2.53734
2.53736
2.5373
2.53641
2.53597
2.5362
2.53625
2.53627
2.53631
2.53637
2.5364
2.53637
2.53633
2.53633
2.53638
2.53647
2.53657
2.53671
2.53686
2.5369
2.53694
2.53703
2.53714
2.53717
2.53722
2.53721
2.53735
2.53593
2.53617
2.53611
2.53616
2.53624
2.53626
2.5363
2.53638
2.53641
2.53636
2.53631
2.5363
2.53636
2.53647
2.53658
2.5367
2.53684
2.53689
2.53694
2.537
2.53708
2.53709
2.5371
2.53606
2.53601
2.53606
2.53609
2.53617
2.53624
2.53625
2.53628
2.53635
2.53637
2.53633
2.53629
2.53627
2.53631
2.53645
2.53656
2.53668
2.53681
2.5369
2.53692
2.537
2.53708
2.53706
2.53568
2.53583
2.53593
2.53604
2.53611
2.53618
2.53624
2.53624
2.53625
2.5363
2.53631
2.53628
2.53626
2.53623
2.53626
2.53642
2.53653
2.53662
2.53674
2.53686
2.53689
2.53689
2.5371
2.53562
2.53574
2.53579
2.53587
2.53596
2.53608
2.53621
2.53629
2.5363
2.53627
2.53626
2.53626
2.53627
2.53627
2.53626
2.53629
2.5364
2.53651
2.53658
2.53664
2.53671
2.53677
2.53721
2.53561
2.53562
2.53568
2.53574
2.53581
2.53589
2.53602
2.53619
2.53631
2.53635
2.5363
2.53627
2.53625
2.53625
2.53627
2.53628
2.53633
2.53642
2.5365
2.53655
2.53661
2.53665
2.53659
2.53544
2.53553
2.53558
2.53563
2.5357
2.53575
2.53581
2.53593
2.53611
2.53626
2.53633
2.5363
2.53627
2.53625
2.53624
2.53625
2.53625
2.53629
2.53635
2.53643
2.53651
2.53647
2.53663
2.535
2.53519
2.53541
2.5355
2.53554
2.5356
2.53568
2.53572
2.53576
2.53586
2.53602
2.53617
2.53627
2.53629
2.53626
2.53622
2.53623
2.53623
2.53622
2.53623
2.53629
2.53639
2.5365
2.53535
2.53514
2.5352
2.53538
2.53544
2.53549
2.53556
2.53564
2.53569
2.53571
2.53576
2.53589
2.53605
2.53616
2.53621
2.53621
2.53619
2.5362
2.5362
2.53621
2.53621
2.53628
2.53636
2.53492
2.53514
2.53516
2.53517
2.53531
2.53539
2.53541
2.53546
2.53554
2.53561
2.53565
2.53567
2.53575
2.53589
2.53602
2.5361
2.53612
2.53613
2.53615
2.53618
2.53619
2.53614
2.53627
2.535
2.53497
2.53508
2.53512
2.53518
2.53529
2.53535
2.53536
2.53535
2.53541
2.53554
2.53563
2.53568
2.53572
2.53578
2.5359
2.53598
2.53602
2.53605
2.53608
2.53613
2.53615
2.53617
2.5347
2.53488
2.53494
2.53503
2.53509
2.53517
2.53529
2.53536
2.53535
2.53534
2.53537
2.53554
2.53563
2.53571
2.53574
2.53577
2.53582
2.53589
2.53594
2.536
2.53604
2.53612
2.53627
2.53458
2.53477
2.53484
2.5349
2.53497
2.53504
2.53514
2.53527
2.53537
2.53538
2.53538
2.53542
2.53557
2.5356
2.53564
2.53569
2.53574
2.53578
2.53583
2.53588
2.53593
2.53601
2.53607
2.53474
2.53462
2.53477
2.53482
2.53486
2.53493
2.535
2.53511
2.53524
2.53536
2.53536
2.53533
2.53537
2.53551
2.53554
2.53558
2.53563
2.53567
2.53571
2.53576
2.53581
2.53587
2.5359
2.5344
2.53453
2.53461
2.5347
2.53477
2.53483
2.53489
2.53497
2.53507
2.53518
2.53529
2.53527
2.53524
2.53525
2.53535
2.53542
2.53548
2.53553
2.53559
2.53563
2.53566
2.53568
2.53563
2.53416
2.53444
2.53446
2.53457
2.53466
2.53474
2.53483
2.53489
2.53496
2.53501
2.53507
2.53513
2.53508
2.53509
2.53516
2.53524
2.53531
2.53538
2.53545
2.53552
2.53558
2.53561
2.53553
2.53421
2.53428
2.53435
2.53446
2.53454
2.53462
2.53471
2.53483
2.53492
2.53497
2.53498
2.53498
2.53498
2.53496
2.53502
2.53511
2.53519
2.53524
2.5353
2.53536
2.53543
2.53544
2.53428
2.53393
2.5342
2.53437
2.53446
2.53451
2.53454
2.53459
2.53467
2.53481
2.53493
2.53496
2.53491
2.5349
2.53486
2.53491
2.53497
2.53506
2.53512
2.53517
2.53521
2.53529
2.53536
2.53407
2.53408
2.53397
2.53405
2.53424
2.53442
2.53452
2.53451
2.53454
2.53461
2.53474
2.53486
2.53487
2.53481
2.53479
2.53478
2.53483
2.53491
2.53498
2.53504
2.53506
2.53511
2.53513
2.53369
2.53399
2.534
2.53393
2.53394
2.53412
2.53432
2.53441
2.53443
2.53447
2.53456
2.53468
2.53477
2.53476
2.53473
2.53473
2.53472
2.53477
2.53484
2.53491
2.53497
2.53498
2.53497
2.53392
2.53387
2.53396
2.53398
2.53393
2.53387
2.53401
2.53419
2.53425
2.5343
2.53438
2.53448
2.53465
2.53477
2.53473
2.53471
2.53471
2.5347
2.53473
2.53479
2.53483
2.53491
2.53495
2.5336