/*--------------------------------*- C++ -*----------------------------------*\
  =========                 |
  \\      /  F ield         | OpenFOAM: The Open Source CFD Toolbox
   \\    /   O peration     | Website:  https://openfoam.org
    \\  /    A nd           | Version:  8
     \\/     M anipulation  |
\*---------------------------------------------------------------------------*/
FoamFile
{
    version     2.0;
    format      ascii;
    class       volScalarField;
    location    "200";
    object      epsilon;
}
// * * * * * * * * * * * * * * * * * * * * * * * * * * * * * * * * * * * * * //

dimensions      [0 2 -3 0 0 0 0];

internalField   nonuniform List<scalar> 
12225
(
285.522
270.706
257.916
243.811
232.461
223.086
216.81
212.699
212.742
213.959
217.241
220.908
228.13
232.769
241.374
246.578
256.281
260.088
52.4924
91.883
106.974
114.749
124.844
136.784
152.693
169.904
191.122
210.934
235.255
255.491
281.109
299.36
324.825
339.562
363.706
379.433
20.5285
34.8724
44.6758
50.4687
55.3966
59.6066
64.6661
69.6411
76.3223
83.1825
91.4469
99.3197
108.193
116.946
125.58
135.333
142.576
154.094
16.0023
19.4862
24.0818
27.5633
30.4973
32.8688
35.1564
37.2925
39.5043
41.9173
44.3393
47.2033
49.6857
53.045
55.4188
59.261
61.3993
65.7146
15.0385
15.7123
17.3993
19.0782
20.6396
22.0256
23.2466
24.4308
25.4447
26.5946
27.5242
28.7587
29.6335
30.9876
31.8147
33.2768
34.0519
35.6748
14.7897
14.8256
15.2495
15.8675
16.5678
17.2869
17.9239
18.5841
19.1193
19.7341
20.1935
20.7993
21.2089
21.8235
22.1986
22.831
23.1639
23.8719
14.7658
14.6146
14.641
14.7257
14.9352
15.2199
15.4916
15.8089
16.071
16.3827
16.6182
16.9204
17.1311
17.4275
17.616
17.915
18.0723
18.4133
14.7687
14.5866
14.466
14.3801
14.3678
14.3896
14.4394
14.5334
14.6185
14.7367
14.8309
14.9565
15.0478
15.1764
15.2609
15.3936
15.4631
15.6242
14.768
14.591
14.4349
14.2963
14.185
14.1044
14.0399
14.0066
13.9814
13.9785
13.9809
13.9917
14.0037
14.03
14.0463
14.0813
14.097
14.1518
14.7665
14.594
14.432
14.282
14.143
14.0219
13.9115
13.8193
13.737
13.6698
13.6102
13.5633
13.5181
13.4872
13.4516
13.4344
13.4019
13.4012
14.7659
14.5945
14.4322
14.2803
14.1362
14.0032
13.8782
13.7644
13.6582
13.5629
13.4735
13.3952
13.3198
13.2561
13.1915
13.1408
13.0838
13.0452
14.7657
14.5943
14.4321
14.2798
14.1353
13.9999
13.8715
13.7518
13.6385
13.5336
13.4341
13.343
13.2557
13.1771
13.1002
13.0328
12.9647
12.9074
14.7657
14.5941
14.432
14.2794
14.1349
13.9989
13.8699
13.7485
13.6331
13.5249
13.4219
13.3257
13.2338
13.1483
13.0663
12.9906
12.9172
12.8502
14.7657
14.5939
14.4318
14.279
14.1346
13.9983
13.8692
13.7472
13.6315
13.5223
13.4184
13.3203
13.227
13.1389
13.055
12.9759
12.9002
12.8291
14.7657
14.5938
14.4317
14.2787
14.1342
13.9977
13.8686
13.7464
13.6307
13.5211
13.4171
13.3185
13.2248
13.136
13.0516
12.9715
12.8952
12.8228
14.7657
14.5937
14.4316
14.2785
14.1339
13.9973
13.8681
13.7458
13.63
13.5202
13.4161
13.3174
13.2236
13.1346
13.05
12.9697
12.8932
12.8205
14.7657
14.5937
14.4315
14.2783
14.1337
13.997
13.8677
13.7453
13.6294
13.5195
13.4154
13.3165
13.2227
13.1336
13.0489
12.9684
12.8919
12.819
14.7657
14.5937
14.4314
14.2782
14.1335
13.9968
13.8674
13.745
13.629
13.5191
13.4148
13.3159
13.222
13.1329
13.0481
12.9676
12.8909
12.818
14.7657
14.5937
14.4314
14.2782
14.1335
13.9967
13.8673
13.7448
13.6288
13.5189
13.4146
13.3157
13.2217
13.1325
13.0477
12.9671
12.8904
12.8175
14.7657
14.5937
14.4314
14.2782
14.1336
13.9968
13.8674
13.745
13.629
13.5191
13.4148
13.3159
13.222
13.1327
13.048
12.9674
12.8907
12.8177
14.7657
14.5937
14.4315
14.2784
14.1338
13.997
13.8677
13.7453
13.6294
13.5196
13.4155
13.3166
13.2229
13.1339
13.0494
12.969
12.8927
12.82
14.7657
14.5937
14.4316
14.2785
14.1341
13.9974
13.8685
13.7464
13.6312
13.522
13.419
13.3214
13.2293
13.1418
13.0595
12.981
12.9074
12.8369
14.7659
14.5937
14.4318
14.2788
14.1353
14.0002
13.8742
13.756
13.6463
13.5435
13.4485
13.3592
13.277
13.1992
13.1282
13.0602
12.9988
12.9387
14.7661
14.5928
14.4329
14.2844
14.1515
14.0321
13.9289
13.8375
13.7593
13.6894
13.6307
13.5769
13.5328
13.4905
13.4574
13.423
13.3989
13.3693
14.7641
14.5936
14.461
14.3604
14.3029
14.2767
14.2796
14.294
14.3202
14.3529
14.3959
14.4345
14.4824
14.5217
14.572
14.6089
14.6616
14.6938
14.757
14.6921
14.7579
14.9172
15.1828
15.4611
15.7475
16.012
16.2723
16.5038
16.736
16.9386
17.1507
17.3309
17.5309
17.6936
17.8888
18.0359
14.9575
15.4344
16.5693
17.6884
18.7053
19.5677
20.3372
20.9968
21.6194
22.166
22.7188
23.2108
23.7398
24.2042
24.7326
25.1825
25.7249
26.1658
16.2579
20.9389
25.015
27.7587
29.7844
31.3585
32.7766
34.0583
35.3592
36.6161
37.9752
39.297
40.7613
42.1455
43.7175
45.1733
46.8833
48.358
29.9428
47.225
54.8705
58.6735
61.6138
64.4319
67.5794
70.9787
74.7377
78.7136
82.9848
87.3438
91.9044
96.4494
101.099
105.621
110.174
114.575
165.79
160.073
154.899
149.564
144.479
139.678
135.613
132.11
129.27
126.973
125.319
124.044
123.339
122.829
122.825
122.982
123.269
123.826
0.462433
0.490188
0.871038
1.23276
1.61667
2.02542
2.46256
2.92545
3.40718
3.89829
4.39013
4.87488
5.34667
5.80035
6.23164
6.63605
7.0088
7.3443
7.63603
7.87669
8.05852
8.17471
8.21446
8.18454
8.06
7.91242
7.79099
8.03875
8.34732
8.60468
8.88034
9.03289
8.80306
9.20732
39.7261
39.9478
40.4476
44.8032
47.3568
51.0493
54.4746
58.2796
62.16
66.2541
70.5005
74.9332
79.5376
84.3301
89.3037
94.4728
99.8306
105.392
111.149
117.118
123.29
129.68
136.28
143.104
150.141
157.408
164.892
172.609
180.544
188.713
197.1
205.721
214.556
223.622
232.896
242.396
252.097
262.014
272.123
282.435
292.926
303.605
314.446
325.456
336.609
347.911
359.33
370.872
382.503
394.226
406.002
417.828
429.665
441.502
453.298
465.033
476.671
488.183
499.557
510.821
522.069
533.124
544.035
554.757
565.283
575.584
585.639
595.425
604.918
614.097
622.938
631.418
639.516
647.21
654.478
661.3
667.658
673.53
678.905
683.761
688.091
691.878
695.121
697.808
699.949
701.558
702.609
702.731
702.552
701.616
700.302
698.556
696.144
693.191
689.728
685.755
681.312
676.403
671.07
665.327
659.212
652.748
645.962
638.896
631.592
624.103
616.473
608.747
600.958
593.141
585.327
577.551
569.842
562.236
554.753
547.429
540.286
533.36
526.669
520.241
514.089
508.237
502.692
497.472
492.582
488.03
483.815
479.949
476.414
473.194
470.327
468.381
469.613
471.208
473.115
475.366
477.909
480.691
483.668
486.735
489.758
492.306
494.542
495.757
494.528
471.957
1.96837
1.1689
1.16843
1.32117
1.55305
1.8417
2.17745
2.55092
2.95219
3.37178
3.80164
4.23564
4.66937
5.09991
5.52518
5.94367
6.35387
6.75422
7.14262
7.51647
7.87234
8.21479
8.57335
8.97098
9.43509
10.0105
10.7002
11.4905
12.3703
13.4278
14.8129
16.6837
18.4292
21.6173
24.6882
25.6262
27.1368
28.8984
30.54
32.3329
34.1504
36.0535
38.0127
40.0437
42.1414
44.3109
46.5518
48.8671
51.257
53.7241
56.2684
58.8922
61.5955
64.3804
67.2464
70.1956
73.2271
76.3428
79.5415
82.8248
86.1911
89.6417
93.1748
96.7912
100.489
104.268
108.126
112.062
116.075
120.163
124.322
128.553
132.851
137.214
141.637
146.119
150.655
155.241
159.873
164.546
169.254
173.993
178.755
183.535
188.323
193.113
197.897
202.665
207.409
212.123
216.8
221.441
226.058
230.676
235.357
239.997
244.575
249.083
253.513
257.857
262.106
266.251
270.284
274.195
277.976
281.617
285.112
288.45
291.623
294.624
297.444
300.076
302.513
304.749
306.777
308.593
310.193
311.573
312.729
313.657
314.341
314.753
314.955
314.907
314.678
314.243
313.555
312.634
311.497
310.149
308.6
306.857
304.931
302.831
300.569
298.155
295.603
292.927
290.145
287.274
284.333
281.337
278.302
275.241
272.168
269.098
266.044
263.019
260.037
257.109
254.249
251.469
248.78
246.193
243.717
241.362
239.134
237.041
235.089
233.281
231.623
230.118
228.768
227.575
226.565
225.892
225.968
226.217
226.622
227.175
227.834
228.598
229.431
230.316
231.184
231.922
232.544
233.274
233.558
232.835
3.90051
1.96941
1.74574
1.79597
1.95805
2.19396
2.48685
2.82532
3.19923
3.59936
4.01796
4.44928
4.88958
5.33697
5.79092
6.25207
6.72179
7.20234
7.69679
8.20996
8.74974
9.32412
9.9311
10.5809
11.2887
12.0623
12.8999
13.8034
14.7847
15.8748
17.0984
18.4295
19.8313
21.366
22.7639
24.0006
25.3383
26.736
28.163
29.6501
31.1878
32.7814
34.4286
36.1314
37.89
39.7058
41.5792
43.5114
45.5031
47.555
49.6678
51.8423
54.0788
56.3781
58.7404
61.1664
63.6559
66.2096
68.8271
71.5088
74.2542
77.0633
79.9355
82.8705
85.8675
88.9258
92.0443
95.2222
98.4579
101.75
105.097
108.498
111.949
115.45
118.997
122.589
126.221
129.892
133.599
137.336
141.102
144.892
148.701
152.526
156.362
160.203
164.047
167.887
171.721
175.546
179.36
183.164
186.961
190.755
194.543
198.293
201.998
205.65
209.243
212.769
216.223
219.597
222.883
226.075
229.166
232.149
235.016
237.76
240.375
242.854
245.19
247.377
249.41
251.283
252.99
254.527
255.891
257.077
258.081
258.899
259.526
259.96
260.184
260.236
260.134
259.845
259.366
258.704
257.867
256.861
255.691
254.365
252.889
251.273
249.524
247.652
245.668
243.583
241.409
239.16
236.849
234.489
232.091
229.667
227.229
224.788
222.354
219.939
217.552
215.205
212.907
210.666
208.493
206.396
204.382
202.458
200.631
198.906
197.289
195.783
194.392
193.12
191.968
190.94
190.045
189.343
188.95
188.706
188.592
188.567
188.576
188.664
188.785
188.953
189.085
189.12
189.132
189.367
189.669
190.553
5.92342
2.824
2.37728
2.3439
2.46258
2.66919
2.93918
3.25936
3.62004
4.01306
4.43164
4.87064
5.32665
5.79805
6.2847
6.78774
7.30919
7.85187
8.41895
9.01392
9.64005
10.2998
10.9942
11.726
12.4978
13.3106
14.1656
15.066
16.0189
17.0333
18.1119
19.2492
20.4541
21.6752
22.898
24.1347
25.4306
26.7749
28.1581
29.5862
31.0624
32.5887
34.1658
35.7948
37.4763
39.2113
41.0006
42.8451
44.7454
46.7025
48.7167
50.7887
52.9191
55.1084
57.3571
59.6656
62.0342
64.4633
66.953
69.5034
72.1146
74.7863
77.5185
80.3108
83.1627
86.0736
89.0429
92.0697
95.1529
98.2914
101.484
104.729
108.024
111.369
114.76
118.196
121.674
125.192
128.746
132.334
135.952
139.597
143.266
146.954
150.659
154.375
158.1
161.831
165.563
169.294
173.023
176.745
180.461
184.166
187.849
191.498
195.105
198.663
202.167
205.608
208.981
212.278
215.493
218.619
221.648
224.573
227.388
230.086
232.66
235.103
237.409
239.571
241.585
243.443
245.141
246.675
248.04
249.232
250.247
251.082
251.734
252.203
252.467
252.556
252.493
252.243
251.814
251.208
250.432
249.492
248.392
247.138
245.738
244.2
242.531
240.741
238.84
236.839
234.748
232.58
230.348
228.062
225.735
223.377
220.999
218.613
216.229
213.856
211.506
209.186
206.907
204.677
202.504
200.397
198.361
196.405
194.533
192.751
191.064
189.475
187.987
186.602
185.32
184.143
183.076
182.143
181.384
180.748
180.212
179.74
179.316
178.925
178.551
178.195
177.811
177.401
177.009
176.813
176.87
177.567
7.876
3.67278
3.00594
2.89489
2.97216
3.15345
3.40531
3.71158
4.06205
4.44903
4.86633
5.30921
5.77433
6.25985
6.76522
7.29104
7.83873
8.41031
9.00798
9.6339
10.2898
10.9767
11.6952
12.4457
13.2292
14.0473
14.9022
15.7964
16.7334
17.7159
18.7444
19.816
20.9405
22.1082
23.3126
24.5584
25.8465
27.1778
28.5549
29.9801
31.4539
32.9774
34.5518
36.1779
37.8569
39.5897
41.3772
43.2206
45.1206
47.0787
49.0953
51.1709
53.3063
55.5022
57.7592
60.078
62.4593
64.9034
67.4108
69.9819
72.6168
75.3159
78.079
80.9062
83.7971
86.7516
89.769
92.8488
95.9901
99.192
102.453
105.773
109.149
112.58
116.063
119.598
123.181
126.81
130.481
134.193
137.943
141.725
145.538
149.378
153.24
157.122
161.018
164.927
168.842
172.761
176.68
180.593
184.495
188.379
192.236
196.06
199.842
203.576
207.254
210.87
214.416
217.884
221.269
224.561
227.755
230.841
233.814
236.665
239.387
241.974
244.419
246.715
248.855
250.834
252.646
254.286
255.749
257.031
258.129
259.038
259.758
260.287
260.606
260.73
260.692
260.459
260.038
259.434
258.651
257.694
256.569
255.281
253.838
252.248
250.518
248.659
246.68
244.593
242.407
240.136
237.792
235.385
232.929
230.434
227.912
225.373
222.829
220.29
217.766
215.266
212.8
210.376
208.002
205.686
203.435
201.256
199.154
197.133
195.199
193.355
191.602
189.942
188.376
186.903
185.525
184.253
183.1
182.047
181.076
180.166
179.308
178.478
177.666
176.866
176.061
175.263
174.512
173.948
173.632
173.88
9.69947
4.4816
3.60393
3.4181
3.45512
3.61186
3.84611
4.13834
4.47727
4.85517
5.26616
5.70574
6.17061
6.65869
7.16897
7.70143
8.25678
8.83631
9.44153
10.074
10.7352
11.4262
12.1478
12.9011
13.6871
14.5077
15.3649
16.2612
17.1988
18.1797
19.2047
20.2745
21.3905
22.5513
23.7563
25.0063
26.3023
27.6451
29.0359
30.4761
31.9667
33.5089
35.1041
36.7533
38.4578
40.2187
42.0372
43.9145
45.8516
47.8494
49.9091
52.0321
54.2194
56.4723
58.7916
61.1784
63.6335
66.1579
68.7522
71.4172
74.1534
76.9613
79.8412
82.7933
85.8178
88.9144
92.0829
95.323
98.6339
102.015
105.465
108.983
112.566
116.215
119.926
123.697
127.526
131.411
135.347
139.333
143.365
147.438
151.55
155.696
159.872
164.073
168.296
172.535
176.785
181.041
185.298
189.549
193.787
198.004
202.193
206.347
210.457
214.516
218.517
222.452
226.312
230.09
233.778
237.367
240.849
244.217
247.462
250.576
253.552
256.382
259.058
261.573
263.92
266.093
268.085
269.891
271.505
272.923
274.142
275.156
275.966
276.568
276.949
277.109
277.089
276.86
276.427
275.794
274.967
273.949
272.747
271.368
269.817
268.104
266.237
264.225
262.08
259.813
257.434
254.958
252.395
249.758
247.06
244.313
241.528
238.718
235.894
233.066
230.246
227.443
224.666
221.924
219.227
216.58
213.992
211.469
209.017
206.641
204.344
202.13
200.001
197.959
196.005
194.136
192.356
190.665
189.07
187.562
186.128
184.755
183.431
182.144
180.882
179.642
178.418
177.227
176.109
175.175
174.464
174.168
11.3484
5.22568
4.15079
3.89262
3.89032
4.02189
4.2376
4.51431
4.83939
5.20477
5.60471
6.03488
6.49213
6.97431
7.48021
8.00945
8.56236
9.1398
9.74297
10.3733
11.0321
11.7208
12.4408
13.1935
13.9802
14.8029
15.6633
16.5635
17.5053
18.4902
19.5192
20.5933
21.7133
22.8796
24.0927
25.3537
26.6635
28.0232
29.434
30.8971
32.4137
33.9854
35.6135
37.2995
39.0447
40.8508
42.7191
44.6511
46.6483
48.7122
50.8442
53.0461
55.3191
57.6649
60.0849
62.5804
65.1526
67.803
70.5326
73.3424
76.2334
79.2065
82.2622
85.4012
88.6237
91.9298
95.3197
98.7929
102.349
105.987
109.707
113.507
117.385
121.339
125.368
129.47
133.64
137.877
142.178
146.538
150.953
155.421
159.935
164.492
169.087
173.714
178.367
183.042
187.732
192.43
197.129
201.823
206.502
211.159
215.786
220.375
224.916
229.402
233.824
238.173
242.44
246.617
250.694
254.663
258.514
262.239
265.829
269.275
272.568
275.7
278.662
281.448
284.048
286.457
288.666
290.671
292.464
294.042
295.399
296.533
297.439
298.119
298.558
298.752
298.74
298.499
298.033
297.347
296.445
295.333
294.016
292.502
290.796
288.909
286.849
284.627
282.253
279.739
277.099
274.344
271.488
268.544
265.525
262.444
259.313
256.147
252.955
249.751
246.545
243.348
240.169
237.019
233.904
230.834
227.816
224.857
221.962
219.137
216.385
213.712
211.119
208.609
206.181
203.837
201.577
199.4
197.31
195.301
193.366
191.497
189.684
187.919
186.194
184.506
182.859
181.269
179.774
178.463
177.348
176.511
12.7904
5.88704
4.63237
4.30192
4.26337
4.36948
4.56563
4.82538
5.13468
5.48502
5.87065
6.28744
6.73244
7.2036
7.69971
8.22033
8.7656
9.33621
9.93321
10.5579
11.2117
11.8961
12.6125
13.3627
14.1483
14.971
15.8326
16.7348
17.6791
18.6671
19.7001
20.779
21.905
23.0792
24.3025
25.5764
26.902
28.281
29.7147
31.2045
32.7522
34.3593
36.0275
37.7587
39.5545
41.4169
43.3476
45.3487
47.422
49.5694
51.7929
54.0946
56.4764
58.9402
61.4878
64.1213
66.8422
69.6525
72.5535
75.5469
78.6339
81.8159
85.0937
88.4683
91.9404
95.5102
99.1781
102.944
106.807
110.767
114.823
118.974
123.218
127.552
131.975
136.484
141.076
145.748
150.495
155.313
160.198
165.145
170.149
175.205
180.305
185.444
190.616
195.813
201.028
206.253
211.48
216.7
221.905
227.084
232.23
237.332
242.381
247.367
252.282
257.114
261.855
266.493
271.02
275.425
279.698
283.829
287.809
291.628
295.276
298.745
302.026
305.109
307.987
310.651
313.094
315.31
317.292
319.035
320.533
321.783
322.783
323.53
324.015
324.23
324.209
323.936
323.413
322.646
321.639
320.399
318.931
317.242
315.34
313.234
310.934
308.451
305.797
302.984
300.025
296.934
293.724
290.411
287.006
283.526
279.983
276.391
272.763
269.112
265.448
261.783
258.128
254.492
250.885
247.315
243.79
240.316
236.901
233.55
230.269
227.06
223.929
220.877
217.906
215.017
212.211
209.489
206.852
204.298
201.823
199.423
197.092
194.825
192.617
190.469
188.387
186.388
184.505
182.808
181.285
179.958
14.0057
6.45346
5.03941
4.64134
4.56768
4.64833
4.82429
5.06614
5.35852
5.69241
6.06201
6.46336
6.89367
7.35112
7.83458
8.34362
8.87837
9.4395
10.028
10.6452
11.2924
11.9707
12.6817
13.4274
14.2094
15.0295
15.8894
16.7908
17.7355
18.7248
19.7603
20.8435
21.9756
23.158
24.3922
25.6793
27.0218
28.4216
29.8804
31.4001
32.9826
34.6301
36.3445
38.1281
39.983
41.9116
43.9162
45.9992
48.163
50.4101
52.743
55.1642
57.6762
60.2815
62.9826
65.7818
68.6814
71.6837
74.7908
78.0046
81.327
84.7595
88.3037
91.9607
95.7314
99.6164
103.616
107.731
111.96
116.303
120.758
125.325
130.001
134.785
139.672
144.661
149.748
154.928
160.197
165.55
170.981
176.486
182.056
187.687
193.37
199.098
204.863
210.656
216.47
222.294
228.12
233.936
239.734
245.502
251.229
256.906
262.521
268.063
273.522
278.886
284.145
289.287
294.302
299.177
303.903
308.468
312.862
317.075
321.096
324.915
328.523
331.91
335.068
337.988
340.662
343.083
345.245
347.141
348.766
350.117
351.189
351.982
352.487
352.7
352.644
352.308
351.697
350.815
349.669
348.263
346.605
344.701
342.561
340.194
337.61
334.821
331.839
328.677
325.351
321.872
318.258
314.521
310.678
306.743
302.731
298.656
294.533
290.373
286.191
281.997
277.803
273.619
269.455
265.32
261.223
257.171
253.171
249.23
245.354
241.546
237.813
234.158
230.584
227.092
223.686
220.367
217.136
213.996
210.944
207.981
205.104
202.311
199.601
196.977
194.446
192.026
189.743
187.654
185.725
183.948
14.9854
6.9193
5.36905
4.90976
4.80264
4.85836
5.01403
5.23766
5.51271
5.8297
6.18271
6.56787
6.98259
7.42526
7.89494
8.39068
8.91297
9.46264
10.0408
10.6488
11.2884
11.9599
12.6649
13.4052
14.1825
14.9987
15.8554
16.7546
17.6979
18.6871
19.724
20.8103
21.9477
23.138
24.3831
25.685
27.0472
28.4704
29.9574
31.511
33.1337
34.8279
36.5962
38.4412
40.3658
42.3726
44.4646
46.6447
48.916
51.2816
53.7446
56.3081
58.9751
61.7489
64.6325
67.6289
70.741
73.9716
77.3232
80.7985
84.3997
88.1288
91.9876
95.9777
100.1
104.356
108.745
113.268
117.925
122.714
127.635
132.685
137.862
143.164
148.588
154.128
159.782
165.544
171.408
177.369
183.42
189.554
195.764
202.041
208.376
214.761
221.187
227.642
234.118
240.602
247.085
253.555
259.998
266.405
272.762
279.057
285.278
291.413
297.45
303.376
309.179
314.846
320.365
325.724
330.912
335.917
340.727
345.331
349.718
353.878
357.801
361.477
364.897
368.052
370.933
373.534
375.846
377.865
379.586
381.003
382.113
382.916
383.402
383.576
383.445
383.006
382.265
381.227
379.898
378.284
376.392
374.231
371.809
369.136
366.223
363.083
359.728
356.173
352.433
348.521
344.454
340.248
335.918
331.48
326.95
322.342
317.673
312.955
308.202
303.427
298.642
293.857
289.084
284.332
279.609
274.925
270.287
265.703
261.179
256.721
252.335
248.026
243.798
239.656
235.604
231.645
227.782
224.019
220.36
216.805
213.357
210.017
206.787
203.672
200.68
197.827
195.135
192.648
190.318
188.123
15.731
7.28417
5.62271
5.10998
4.97183
5.00383
5.13966
5.34531
5.60325
5.90354
6.24017
6.60926
7.00821
7.43593
7.89226
8.37638
8.8881
9.42789
9.99659
10.5953
11.2249
11.8866
12.5825
13.3145
14.0845
14.8945
15.7464
16.6422
17.584
18.5737
19.6134
20.7054
21.8518
23.0548
24.3166
25.6387
27.0237
28.4745
29.9957
31.5906
33.2622
35.0136
36.848
38.7683
40.7781
42.8806
45.0795
47.3783
49.7808
52.2908
54.912
57.6482
60.5034
63.4811
66.5853
69.8194
73.1871
76.6918
80.3365
84.1242
88.0577
92.1394
96.3713
100.755
105.292
109.984
114.83
119.83
124.985
130.292
135.751
141.358
147.111
153.007
159.042
165.21
171.506
177.924
184.457
191.099
197.84
204.674
211.589
218.578
225.629
232.732
239.875
247.047
254.236
261.429
268.614
275.776
282.904
289.982
296.997
303.935
310.783
317.526
324.152
330.646
336.994
343.184
349.201
355.034
360.668
366.092
371.295
376.263
380.986
385.453
389.654
393.578
397.217
400.562
403.603
406.334
408.748
410.839
412.602
414.033
415.128
415.886
416.303
416.381
416.125
415.529
414.605
413.359
411.796
409.924
407.75
405.282
402.53
399.505
396.218
392.681
388.909
384.916
380.718
376.33
371.768
367.05
362.19
357.207
352.117
346.935
341.677
336.358
330.993
325.595
320.176
314.749
309.324
303.912
298.522
293.164
287.846
282.577
277.364
272.214
267.135
262.133
257.214
252.385
247.651
243.018
238.492
234.079
229.786
225.617
221.577
217.673
213.907
210.288
206.824
203.531
200.424
197.538
194.814
192.229
16.2541
7.55227
5.80515
5.24765
5.08167
5.09176
5.20878
5.3972
5.63872
5.92294
6.24427
6.59989
6.98612
7.40125
7.84404
8.31345
8.81078
9.33685
9.8926
10.4791
11.0978
11.7504
12.4385
13.164
13.9288
14.735
15.5847
16.4803
17.424
18.4184
19.4659
20.569
21.7304
22.9529
24.2398
25.5929
27.0147
28.5074
30.0762
31.7267
33.4629
35.2895
37.2103
39.229
41.3493
43.5754
45.9116
48.3622
50.9318
53.6249
56.446
59.3998
62.4906
65.723
69.1015
72.6302
76.3133
80.1547
84.1579
88.3264
92.6631
97.1707
101.851
106.707
111.738
116.946
122.331
127.893
133.629
139.54
145.621
151.87
158.284
164.856
171.584
178.459
185.476
192.626
199.902
207.295
214.795
222.392
230.074
237.831
245.65
253.519
261.424
269.351
277.288
285.219
293.129
301.005
308.829
316.587
324.264
331.844
339.311
346.651
353.848
360.887
367.754
374.434
380.913
387.176
393.212
399.006
404.546
409.821
414.82
419.53
423.942
428.047
431.835
435.297
438.425
441.213
443.654
445.742
447.473
448.843
449.85
450.492
450.768
450.683
450.23
449.41
448.24
446.724
444.869
442.68
440.167
437.339
434.206
430.778
427.068
423.088
418.854
414.38
409.683
404.778
399.682
394.413
388.987
383.423
377.736
371.945
366.065
360.112
354.102
348.048
341.963
335.861
329.753
323.649
317.561
311.498
305.47
299.486
293.554
287.685
281.884
276.162
270.525
264.983
259.542
254.212
249.001
243.918
238.972
234.173
229.528
225.047
220.735
216.604
212.662
208.923
205.399
202.117
199.01
196.062
16.5766
7.73398
5.9242
5.33074
5.14021
5.13139
5.23066
5.4032
5.63104
5.90249
6.21076
6.55102
6.92133
7.32087
7.74913
8.20641
8.69275
9.20879
9.75545
10.334
10.9458
11.5928
12.2767
12.9996
13.7638
14.5716
15.4253
16.3277
17.2817
18.2901
19.3568
20.4834
21.6732
22.9292
24.2541
25.6494
27.1216
28.6765
30.3193
32.0546
33.8874
35.8225
37.8658
40.0217
42.2948
44.6901
47.2129
49.8684
52.662
55.5989
58.6846
61.9242
65.3231
68.8862
72.6187
76.5253
80.6104
84.8784
89.3329
93.9776
98.8154
103.849
109.08
114.509
120.139
125.968
131.996
138.223
144.644
151.259
158.063
165.051
172.219
179.56
187.068
194.734
202.551
210.508
218.596
226.804
235.12
243.533
252.028
260.593
269.213
277.874
286.561
295.258
303.948
312.617
321.247
329.822
338.324
346.737
355.043
363.226
371.268
379.154
386.866
394.39
401.709
408.808
415.672
422.287
428.639
434.715
440.503
445.991
451.168
456.023
460.547
464.73
468.564
472.041
475.154
477.897
480.263
482.248
483.849
485.062
485.886
486.322
486.367
486.036
485.295
484.175
482.684
480.826
478.609
476.038
473.124
469.876
466.305
462.422
458.239
453.769
449.028
444.032
438.795
433.336
427.672
421.819
415.796
409.621
403.311
396.883
390.356
383.744
377.065
370.332
363.56
356.761
349.948
343.133
336.327
329.54
322.784
316.067
309.4
302.792
296.254
289.795
283.425
277.155
270.995
264.955
259.047
253.284
247.677
242.239
236.983
231.919
227.059
222.413
217.992
213.809
209.87
206.2
202.725
199.441
16.6922
7.82917
5.98454
5.36593
5.15511
5.13108
5.21739
5.37728
5.59049
5.84666
6.14022
6.46782
6.82713
7.21678
7.63622
8.08549
8.56501
9.07559
9.61829
10.1945
10.8058
11.4543
12.1421
12.8718
13.6466
14.4682
15.3395
16.2637
17.244
18.2833
19.3836
20.5482
21.7829
23.0924
24.4818
25.9562
27.5208
29.1813
30.9435
32.8132
34.7961
36.8988
39.1271
41.4867
43.9839
46.6247
49.4157
52.3632
55.4732
58.7519
62.2051
65.8388
69.6586
73.67
77.8781
82.288
86.9042
91.7306
96.7709
102.028
107.504
113.202
119.121
125.263
131.627
138.211
145.015
152.033
159.264
166.702
174.342
182.178
190.201
198.405
206.78
215.316
224.003
232.83
241.783
250.85
260.017
269.271
278.595
287.975
297.395
306.837
316.285
325.721
335.129
344.489
353.784
362.995
372.105
381.095
389.946
398.641
407.161
415.49
423.61
431.505
439.158
446.554
453.678
460.515
467.052
473.276
479.176
484.739
489.956
494.817
499.313
503.436
507.178
510.534
513.497
516.062
518.224
519.98
521.328
522.264
522.789
522.907
522.628
521.922
520.806
519.296
517.398
515.116
512.46
509.436
506.053
502.323
498.256
493.863
489.157
484.152
478.862
473.304
467.494
461.449
455.186
448.724
442.08
435.272
428.318
421.236
414.045
406.76
399.397
391.974
384.502
376.997
369.471
361.936
354.404
346.886
339.393
331.937
324.529
317.179
309.899
302.7
295.593
288.593
281.71
274.959
268.355
261.911
255.645
249.571
243.705
238.063
232.658
227.505
222.612
217.993
213.651
209.607
205.783
202.197
16.6636
7.84659
5.99314
5.36215
5.13935
5.10359
5.1755
5.32163
5.52348
5.77043
6.0562
6.3771
6.73097
7.11665
7.53374
7.98248
8.46365
8.97867
9.52847
10.1145
10.7388
11.4037
12.1117
12.8652
13.6659
14.5167
15.4225
16.3877
17.4166
18.5137
19.6844
20.9331
22.2651
23.6863
25.2029
26.8212
28.5477
30.3892
32.3524
34.4444
36.6724
39.0436
41.5651
44.2441
47.0882
50.1053
53.3033
56.6897
60.2709
64.0533
68.0427
72.245
76.6657
81.31
86.1824
91.2873
96.6281
102.208
108.029
114.092
120.399
126.95
133.743
140.776
148.047
155.553
163.288
171.248
179.427
187.816
196.409
205.196
214.168
223.314
232.622
242.081
251.678
261.398
271.228
281.153
291.156
301.223
311.335
321.477
331.63
341.776
351.897
361.973
371.987
381.92
391.752
401.463
411.036
420.451
429.689
438.731
447.56
456.157
464.506
472.59
480.393
487.899
495.094
501.964
508.495
514.677
520.498
525.948
531.017
535.698
539.984
543.867
547.342
550.404
553.049
555.273
557.073
558.446
559.395
559.913
560.002
559.69
558.929
557.745
556.15
554.149
551.75
548.958
545.782
542.229
538.309
534.034
529.414
524.46
519.184
513.601
507.726
501.574
495.162
488.507
481.626
474.536
467.256
459.804
452.197
444.454
436.593
428.631
420.584
412.468
404.298
396.088
387.851
379.6
371.346
363.101
354.878
346.69
338.546
330.461
322.446
314.515
306.682
298.96
291.365
283.914
276.623
269.512
262.599
255.902
249.441
243.235
237.301
231.656
226.31
221.273
216.549
212.155
208.005
204.149
16.5357
7.82239
5.97182
5.33154
5.09592
5.04957
5.11442
5.25525
5.45327
5.69823
5.98442
6.30832
6.66762
7.06145
7.4897
7.95283
8.45154
8.98652
9.55821
10.1702
10.8255
11.5274
12.2795
13.0858
13.9508
14.8787
15.8744
16.9433
18.0913
19.3246
20.6497
22.0734
23.6026
25.2448
27.0078
28.8999
30.9292
33.1043
35.4335
37.9252
40.5874
43.4277
46.454
49.6758
53.1024
56.7432
60.609
64.7089
69.047
73.6278
78.4557
83.5347
88.8686
94.4604
100.312
106.426
112.803
119.442
126.343
133.504
140.922
148.593
156.514
164.678
173.08
181.712
190.567
199.635
208.908
218.375
228.025
237.847
247.828
257.955
268.215
278.594
289.076
299.646
310.289
320.987
331.725
342.485
353.249
363.999
374.718
385.386
395.984
406.495
416.897
427.174
437.304
447.27
457.053
466.633
475.993
485.113
493.977
502.567
510.867
518.861
526.534
533.873
540.862
547.489
553.743
559.613
565.089
570.165
574.831
579.081
582.911
586.316
589.291
591.835
593.945
595.617
596.856
597.65
598.019
597.94
597.447
596.492
595.12
593.328
591.122
588.509
585.496
582.09
578.299
574.13
569.592
564.699
559.46
553.885
547.987
541.779
535.277
528.495
521.449
514.157
506.635
498.899
490.967
482.857
474.587
466.176
457.64
448.998
440.265
431.458
422.591
413.679
404.736
395.773
386.803
377.839
368.894
359.981
351.112
342.302
333.565
324.914
316.367
307.938
299.647
291.511
283.553
275.794
268.255
260.957
253.924
247.18
240.736
234.611
228.824
223.386
218.299
213.581
209.149
205.088
16.2907
7.75786
5.91799
5.27643
5.04167
4.99793
5.06776
5.21627
5.42456
5.68259
5.98449
6.32482
6.70376
7.12152
7.57884
8.07709
8.61823
9.20513
9.84074
10.5284
11.2722
12.0769
12.948
13.8913
14.9135
16.0211
17.2212
18.5217
19.9308
21.4574
23.1105
24.8998
26.8352
28.9269
31.1852
33.6206
36.2435
39.0642
42.0928
45.3388
48.8111
52.5183
56.4688
60.6713
65.1339
69.8646
74.8706
80.1633
85.7409
91.6027
97.7481
104.176
110.885
117.872
125.134
132.668
140.468
148.528
156.842
165.404
174.205
183.236
192.488
201.953
211.619
221.476
231.512
241.715
252.075
262.578
273.211
283.961
294.815
305.758
316.775
327.853
338.976
350.129
361.295
372.46
383.606
394.717
405.775
416.765
427.668
438.467
449.145
459.684
470.065
480.271
490.284
500.087
509.661
518.99
528.056
536.844
545.335
553.516
561.371
568.887
576.05
582.849
589.269
595.3
600.932
606.157
610.969
615.36
619.324
622.857
625.959
628.624
630.849
632.639
633.993
634.9
635.388
635.405
635.037
634.184
632.917
631.229
629.126
626.613
623.696
620.382
616.678
612.591
608.128
603.295
598.102
592.559
586.678
580.466
573.936
567.1
559.973
552.569
544.903
536.991
528.847
520.489
511.934
503.197
494.297
485.251
476.077
466.791
457.411
447.951
438.428
428.855
419.246
409.613
399.969
390.326
380.699
371.102
361.55
352.056
342.636
333.308
324.088
314.995
306.049
297.273
288.69
280.312
272.173
264.299
256.721
249.467
242.575
236.054
229.909
224.151
218.779
213.812
209.153
204.934
15.9826
7.64176
5.84306
5.22334
5.00676
4.9815
5.07094
5.23861
5.46957
5.75539
6.09168
6.47681
6.91025
7.39308
7.9275
8.51665
9.16456
9.87619
10.657
11.5131
12.4514
13.4798
14.6072
15.8431
17.1977
18.6818
20.3069
22.0852
24.0295
26.1527
28.4679
30.9883
33.7273
36.6979
39.9128
43.3835
47.1212
51.1362
55.4378
60.0333
64.9286
70.1289
75.6391
81.462
87.5993
94.0538
100.826
107.916
115.31
122.996
130.965
139.207
147.711
156.466
165.461
174.685
184.126
193.772
203.611
213.631
223.822
234.169
244.662
255.288
266.035
276.892
287.845
298.885
309.997
321.172
332.395
343.656
354.941
366.238
377.535
388.82
400.078
411.297
422.463
433.563
444.583
455.508
466.324
477.016
487.57
497.97
508.202
518.249
528.098
537.73
547.131
556.286
565.178
573.794
582.117
590.134
597.83
605.191
612.205
618.861
625.148
631.056
636.572
641.687
646.393
650.686
654.561
658.013
661.034