/*--------------------------------*- C++ -*----------------------------------*\
  =========                 |
  \\      /  F ield         | OpenFOAM: The Open Source CFD Toolbox
   \\    /   O peration     | Website:  https://openfoam.org
    \\  /    A nd           | Version:  8
     \\/     M anipulation  |
\*---------------------------------------------------------------------------*/
FoamFile
{
    version     2.0;
    format      ascii;
    class       volScalarField;
    location    "200";
    object      k;
}
// * * * * * * * * * * * * * * * * * * * * * * * * * * * * * * * * * * * * * //

dimensions      [0 2 -2 0 0 0 0];

internalField   nonuniform List<scalar> 
12225
(
0.362813
0.343993
0.327744
0.30982
0.295399
0.283485
0.27551
0.270286
0.270341
0.271882
0.276061
0.2807
0.289888
0.295772
0.306697
0.313252
0.324077
0.334092
0.440186
0.468698
0.461605
0.44837
0.450349
0.458314
0.474539
0.498561
0.524394
0.55215
0.580761
0.606215
0.633887
0.653966
0.67987
0.693344
0.71775
0.728814
0.390541
0.417873
0.420231
0.416826
0.411628
0.407804
0.408019
0.410037
0.414557
0.421403
0.430737
0.439722
0.451207
0.46118
0.472901
0.483629
0.493621
0.506315
0.377546
0.386982
0.391406
0.391342
0.390222
0.387896
0.385662
0.384081
0.382882
0.382896
0.383388
0.384326
0.386307
0.388476
0.390928
0.394279
0.396557
0.401081
0.374561
0.37609
0.378412
0.378665
0.378263
0.377205
0.375488
0.373738
0.37201
0.370455
0.369259
0.368106
0.367383
0.366808
0.366447
0.366348
0.366364
0.366731
0.373814
0.37271
0.372645
0.372384
0.371761
0.370817
0.369553
0.368083
0.366571
0.364976
0.363528
0.362063
0.360755
0.359529
0.358397
0.35743
0.356444
0.355792
0.373782
0.371742
0.370386
0.369287
0.368234
0.367114
0.365915
0.364587
0.363238
0.361808
0.360422
0.359023
0.357677
0.356382
0.35512
0.353966
0.352794
0.351805
0.37382
0.37156
0.369634
0.367977
0.3665
0.365108
0.363775
0.362429
0.361107
0.359766
0.35845
0.357143
0.355863
0.354622
0.3534
0.352249
0.351098
0.350052
0.373832
0.371554
0.369449
0.367525
0.365776
0.364153
0.362645
0.361199
0.359817
0.358473
0.357169
0.355902
0.354667
0.353474
0.352307
0.351195
0.350096
0.349072
0.373831
0.37156
0.369418
0.367405
0.365529
0.363772
0.362133
0.360585
0.359122
0.357728
0.356394
0.355117
0.353888
0.35271
0.351569
0.350481
0.349419
0.34842
0.373829
0.37156
0.369413
0.367378
0.365458
0.363645
0.361937
0.360324
0.358798
0.357353
0.355979
0.354672
0.353424
0.352235
0.351094
0.350008
0.348958
0.347968
0.373828
0.371558
0.369409
0.36737
0.365439
0.363609
0.361875
0.360234
0.358677
0.357201
0.3558
0.354468
0.3532
0.351994
0.350842
0.349747
0.348695
0.3477
0.373827
0.371556
0.369405
0.367365
0.36543
0.363593
0.361851
0.360197
0.358626
0.357134
0.355715
0.354367
0.353084
0.351864
0.3507
0.349594
0.348535
0.347531
0.373826
0.371555
0.369401
0.36736
0.365422
0.363583
0.361837
0.360178
0.3586
0.357101
0.355674
0.354317
0.353024
0.351794
0.350622
0.349506
0.34844
0.347427
0.373826
0.371553
0.369398
0.367355
0.365416
0.363575
0.361826
0.360164
0.358584
0.357081
0.355651
0.354289
0.352993
0.351758
0.35058
0.349459
0.348388
0.347369
0.373826
0.371552
0.369396
0.367351
0.36541
0.363567
0.361817
0.360153
0.358572
0.357067
0.355634
0.354271
0.352972
0.351734
0.350554
0.34943
0.348357
0.347334
0.373825
0.371551
0.369394
0.367348
0.365406
0.363562
0.36181
0.360145
0.358562
0.357055
0.355621
0.354256
0.352955
0.351716
0.350535
0.349408
0.348334
0.347309
0.373825
0.371551
0.369393
0.367346
0.365403
0.363558
0.361805
0.360139
0.358555
0.357047
0.355612
0.354246
0.352944
0.351703
0.350521
0.349393
0.348317
0.347291
0.373825
0.37155
0.369393
0.367346
0.365402
0.363557
0.361804
0.360137
0.358552
0.357044
0.355608
0.354241
0.352938
0.351697
0.350514
0.349385
0.348308
0.347281
0.373825
0.371551
0.369393
0.367347
0.365404
0.363559
0.361806
0.36014
0.358555
0.357047
0.355611
0.354244
0.352942
0.351701
0.350517
0.349389
0.348313
0.347285
0.373825
0.371551
0.369395
0.367349
0.365407
0.363563
0.361811
0.360146
0.358562
0.357055
0.355621
0.354256
0.352955
0.351716
0.350534
0.349408
0.348334
0.347308
0.373826
0.371553
0.369397
0.367352
0.365412
0.363571
0.361822
0.360161
0.358583
0.357083
0.355657
0.354299
0.353007
0.351775
0.350603
0.349484
0.348418
0.347399
0.373826
0.371554
0.369399
0.367359
0.365429
0.363603
0.361875
0.36024
0.358691
0.35722
0.355823
0.354494
0.353227
0.352019
0.350866
0.349763
0.348711
0.347701
0.373828
0.371551
0.369412
0.367417
0.365556
0.363819
0.362189
0.360651
0.359189
0.357794
0.356456
0.355172
0.353936
0.352746
0.351601
0.350496
0.349437
0.34841
0.373823
0.371554
0.369605
0.367893
0.366339
0.364892
0.363495
0.362122
0.360761
0.359414
0.358081
0.35677
0.355489
0.354238
0.353029
0.351856
0.350735
0.349646
0.373788
0.371991
0.371113
0.370266
0.36936
0.368311
0.367048
0.36563
0.364121
0.362575
0.36103
0.359522
0.358073
0.356682
0.355382
0.354142
0.35301
0.351924
0.374355
0.375572
0.377775
0.377858
0.377288
0.375886
0.373835
0.371641
0.369505
0.367482
0.365664
0.364084
0.36271
0.361535
0.36061
0.359818
0.359289
0.3588
0.379125
0.394296
0.398249
0.396573
0.392538
0.387603
0.383646
0.380448
0.378268
0.376852
0.376496
0.37674
0.377414
0.378689
0.38044
0.382421
0.384825
0.387135
0.408394
0.42754
0.422416
0.411055
0.402226
0.397923
0.398625
0.400962
0.406068
0.413052
0.420997
0.429825
0.438832
0.448185
0.457301
0.466545
0.475314
0.484173
0.36605
0.353416
0.341988
0.33021
0.318982
0.308381
0.299411
0.29167
0.285404
0.280333
0.276682
0.273866
0.272311
0.271173
0.27121
0.271472
0.272188
0.273388
0.00158366
0.00767633
0.0136493
0.0193081
0.025306
0.0316977
0.0385382
0.0457936
0.0533484
0.0610565
0.0687692
0.0763609
0.0837233
0.0907706
0.0974239
0.103617
0.109287
0.114386
0.118883
0.122786
0.126141
0.128716
0.130785
0.133716
0.136239
0.138946
0.141444
0.146004
0.148114
0.148689
0.147297
0.145272
0.140664
0.136682
0.130054
0.142092
0.146416
0.155333
0.16156
0.169696
0.177197
0.185294
0.193369
0.201708
0.210168
0.218816
0.227614
0.236586
0.245715
0.255016
0.264474
0.274105
0.283894
0.293856
0.303975
0.314266
0.324712
0.335327
0.346093
0.357024
0.368099
0.379334
0.390706
0.40223
0.41388
0.425672
0.437579
0.449615
0.461752
0.474005
0.486343
0.49878
0.511286
0.523872
0.536506
0.5492
0.561921
0.574679
0.587442
0.600217
0.612971
0.625709
0.638398
0.651041
0.6636
0.676074
0.688425
0.700646
0.7127
0.724571
0.736226
0.747641
0.758806
0.769747
0.780553
0.791107
0.801418
0.811463
0.821237
0.830718
0.839893
0.848745
0.857258
0.865416
0.873204
0.880606
0.887608
0.894195
0.900353
0.906067
0.911327
0.916118
0.920433
0.924257
0.927587
0.930412
0.932732
0.934542
0.935852
0.936679
0.936937
0.936432
0.935635
0.934117
0.932241
0.930006
0.927199
0.923845
0.92003
0.915739
0.911005
0.905833
0.900254
0.894279
0.887937
0.881243
0.874211
0.866888
0.859311
0.851519
0.843552
0.835447
0.827236
0.818948
0.810615
0.802269
0.79394
0.785659
0.777454
0.769354
0.761389
0.753586
0.745968
0.738562
0.731392
0.724477
0.717838
0.711493
0.705456
0.699735
0.694345
0.689293
0.684578
0.680221
0.676495
0.675569
0.67567
0.675768
0.676308
0.67725
0.678536
0.680047
0.681732
0.683595
0.685512
0.687335
0.688628
0.689102
0.687432
0.666704
0.00677232
0.0225095
0.0326553
0.0405144
0.0476713
0.0548329
0.0622643
0.0700206
0.0780406
0.0862134
0.0944179
0.102546
0.110509
0.118234
0.125662
0.132743
0.139436
0.145711
0.15156
0.157007
0.162122
0.167034
0.172004
0.17738
0.183403
0.190317
0.197767
0.204531
0.210332
0.215794
0.221382
0.228643
0.238988
0.247624
0.258484
0.27303
0.286784
0.299258
0.311479
0.324496
0.337829
0.351524
0.365526
0.379851
0.394486
0.409434
0.424692
0.440265
0.456151
0.472355
0.488878
0.505724
0.522893
0.540389
0.558212
0.576366
0.594848
0.613662
0.632804
0.652276
0.672074
0.692198
0.712641
0.733404
0.754477
0.77586
0.79754
0.819515
0.841773
0.864308
0.887106
0.910161
0.933456
0.956983
0.980723
1.00467
1.02879
1.05309
1.07753
1.10211
1.1268
1.15158
1.17643
1.20132
1.22624
1.25114
1.27601
1.3008
1.32549
1.35004
1.37439
1.39849
1.42228
1.44568
1.4686
1.49119
1.51346
1.53539
1.55695
1.57811
1.59883
1.61908
1.63882
1.65803
1.67667
1.6947
1.71208
1.7288
1.7448
1.76006
1.77454
1.78822
1.80106
1.81304
1.82412
1.83428
1.84351
1.85178
1.85907
1.86537
1.87067
1.87495
1.8782
1.88011
1.88103
1.88136
1.88069
1.87882
1.87595
1.87211
1.86732
1.8616
1.85499
1.84754
1.83927
1.83024
1.8205
1.81009
1.79908
1.78754
1.77554
1.76315
1.75044
1.73747
1.7243
1.71099
1.69763
1.68425
1.67094
1.65775
1.64475
1.63199
1.61953
1.60742
1.59573
1.5845
1.57378
1.56362
1.55404
1.54509
1.53679
1.52916
1.52222
1.51598
1.5105
1.50611
1.50243
1.49949
1.49724
1.4956
1.49442
1.4935
1.49272
1.49193
1.49093
1.48953
1.48733
1.48433
1.4777
1.45399
0.0134435
0.0365449
0.0495028
0.0592872
0.0679961
0.0763891
0.0848056
0.0933782
0.102121
0.110985
0.119897
0.128784
0.137582
0.146245
0.154737
0.163036
0.171133
0.179037
0.186779
0.194428
0.202103
0.209983
0.218294
0.227248
0.236959
0.247356
0.258091
0.268901
0.279763
0.290989
0.303042
0.316028
0.330044
0.3444
0.359611
0.375597
0.391742
0.408019
0.42453
0.44146
0.458792
0.47652
0.494634
0.513134
0.532017
0.551284
0.570936
0.590974
0.611399
0.632215
0.653421
0.675021
0.697015
0.719406
0.742192
0.765376
0.788955
0.81293
0.837297
0.862056
0.887201
0.912729
0.938635
0.964913
0.991556
1.01856
1.0459
1.07359
1.1016
1.12993
1.15856
1.18748
1.21667
1.24612
1.27581
1.30573
1.33584
1.36613
1.39659
1.42718
1.45789
1.48868
1.51954
1.55043
1.58132
1.61219
1.643
1.67372
1.70431
1.73474
1.76497
1.79496
1.82469
1.8541
1.88319
1.91193
1.94029
1.96823
1.99571
2.02269
2.04913
2.07498
2.10021
2.12476
2.1486
2.17168
2.19396
2.21539
2.23593
2.25553
2.27417
2.29178
2.30834
2.32381
2.33816
2.35134
2.36334
2.37412
2.38366
2.39194
2.39894
2.40466
2.40908
2.41209
2.41365
2.41418
2.41354
2.41151
2.40819
2.40364
2.39787
2.39093
2.38286
2.37371
2.36352
2.35235
2.34027
2.32735
2.31365
2.29926
2.28427
2.26876
2.2528
2.23649
2.2199
2.20312
2.18622
2.16928
2.15239
2.13562
2.11904
2.10274
2.08678
2.07123
2.05615
2.04162
2.02769
2.01441
2.00183
1.98999
1.97892
1.96866
1.95921
1.95059
1.9428
1.93591
1.9298
1.92448
1.91982
1.91573
1.91208
1.90867
1.90536
1.90194
1.89826
1.8942
1.88954
1.88443
1.87685
1.85888
0.0204336
0.0493721
0.0649536
0.0764359
0.0864035
0.0957823
0.104999
0.114254
0.123623
0.13311
0.142683
0.1523
0.161921
0.171518
0.181073
0.190585
0.200065
0.209546
0.219077
0.228739
0.238641
0.248916
0.259704
0.271122
0.283218
0.295942
0.309169
0.322791
0.336808
0.351335
0.36651
0.382383
0.398966
0.416142
0.433893
0.452162
0.470835
0.489858
0.509234
0.529011
0.549207
0.569828
0.590878
0.612357
0.634269
0.656615
0.679398
0.702621
0.726285
0.750394
0.774951
0.799956
0.825412
0.851321
0.877682
0.904497
0.931765
0.959484
0.987652
1.01627
1.04532
1.07482
1.10475
1.1351
1.16587
1.19705
1.22863
1.2606
1.29294
1.32565
1.3587
1.39208
1.42578
1.45978
1.49405
1.52857
1.56333
1.5983
1.63345
1.66876
1.7042
1.73975
1.77537
1.81103
1.84671
1.88236
1.91796
1.95347
1.98885
2.02407
2.0591
2.09389
2.12841
2.16262
2.19647
2.22994
2.26298
2.29553
2.32756
2.35901
2.38985
2.42001
2.44945
2.47811
2.50596
2.53294
2.55899
2.58407
2.60812
2.6311
2.65296
2.67365
2.69313
2.71135
2.72827
2.74386
2.75807
2.77087
2.78224
2.79216
2.80059
2.80753
2.81297
2.81689
2.81911
2.81992
2.81941
2.81734
2.81378
2.80877
2.80235
2.79455
2.78543
2.77503
2.76341
2.75063
2.73678
2.72192
2.70613
2.68951
2.67215
2.65414
2.63558
2.61656
2.59718
2.57752
2.55767
2.53774
2.5178
2.49795
2.47827
2.45885
2.43977
2.4211
2.40292
2.38531
2.36833
2.35204
2.33649
2.32173
2.3078
2.29471
2.28249
2.27113
2.26062
2.25097
2.24213
2.23404
2.22661
2.21971
2.21323
2.207
2.20085
2.19462
2.18818
2.18149
2.17447
2.16742
2.15891
2.14403
0.0271824
0.0611243
0.079114
0.0921901
0.103334
0.113617
0.123555
0.133412
0.14332
0.153334
0.163463
0.173698
0.184023
0.194427
0.204908
0.215476
0.226154
0.23698
0.248007
0.259304
0.270956
0.283055
0.295691
0.308933
0.322808
0.337299
0.352363
0.367957
0.384073
0.400744
0.418015
0.435915
0.454438
0.473545
0.493203
0.513377
0.534023
0.555108
0.576626
0.598589
0.621008
0.643893
0.667247
0.691078
0.715387
0.740181
0.765462
0.791236
0.817505
0.844274
0.871545
0.899323
0.927609
0.956406
0.985715
1.01554
1.04587
1.07672
1.10808
1.13994
1.17231
1.20519
1.23855
1.2724
1.30673
1.34153
1.37679
1.4125
1.44864
1.4852
1.52216
1.55951
1.59722
1.63528
1.67366
1.71234
1.75129
1.79049
1.82991
1.86953
1.9093
1.94921
1.98921
2.02927
2.06937
2.10945
2.14949
2.18944
2.22928
2.26895
2.30842
2.34765
2.38658
2.42518
2.46339
2.50117
2.53847
2.57524
2.61142
2.64697
2.68182
2.71593
2.74923
2.78168
2.81322
2.84378
2.87332
2.90178
2.9291
2.95523
2.98011
3.00369
3.02592
3.04675
3.06613
3.08402
3.10038
3.11516
3.12835
3.13989
3.14978
3.158
3.16454
3.16939
3.17241
3.17367
3.17345
3.17151
3.16789
3.16262
3.15575
3.1473
3.13735
3.12593
3.11312
3.09897
3.08358
3.06701
3.04936
3.03072
3.0112
2.9909
2.96991
2.94834
2.9263
2.90388
2.88119
2.85832
2.83538
2.81246
2.78966
2.76707
2.74478
2.72287
2.70144
2.68055
2.66028
2.64069
2.62185
2.6038
2.58658
2.57022
2.55473
2.54011
2.52636
2.51346
2.50136
2.49001
2.47931
2.46916
2.45943
2.45
2.44071
2.43144
2.4221
2.41269
2.40327
2.39419
2.38438
2.37044
0.0334862
0.0716635
0.0918135
0.106361
0.118605
0.129741
0.140356
0.150768
0.161157
0.171621
0.182209
0.192943
0.203832
0.214883
0.226107
0.237524
0.249159
0.261052
0.27325
0.28581
0.298794
0.312268
0.326289
0.340903
0.356134
0.371984
0.388443
0.405491
0.423122
0.441339
0.460152
0.479569
0.499581
0.520173
0.541325
0.563017
0.58523
0.607947
0.631162
0.654876
0.679097
0.703829
0.72908
0.754855
0.78116
0.808002
0.835385
0.863316
0.8918
0.920842
0.950447
0.98062
1.01136
1.04268
1.07458
1.10705
1.14011
1.17374
1.20796
1.24275
1.27812
1.31406
1.35057
1.38763
1.42524
1.4634
1.50208
1.54128
1.58098
1.62116
1.66181
1.70292
1.74444
1.78638
1.82869
1.87135
1.91434
1.95763
2.00118
2.04496
2.08894
2.13308
2.17735
2.2217
2.26611
2.31052
2.3549
2.3992
2.44338
2.48739
2.5312
2.57474
2.61796
2.66082
2.70326
2.74522
2.78666
2.82751
2.86772
2.90724
2.946
2.98394
3.021
3.05713
3.09226
3.12633
3.15928
3.19104
3.22157
3.25079
3.27865
3.30509
3.33005
3.35348
3.37532
3.39554
3.41407
3.43088
3.44592
3.45917
3.4706
3.48018
3.48791
3.49378
3.49771
3.49959
3.4998
3.49811
3.49457
3.48918
3.482
3.47306
3.46241
3.45011
3.43623
3.42084
3.40401
3.38584
3.36642
3.34584
3.32422
3.30166
3.27827
3.25416
3.22944
3.20422
3.17862
3.15273
3.12667
3.10054
3.07445
3.04849
3.02276
2.99735
2.97235
2.94785
2.92393
2.90065
2.87808
2.85628
2.83528
2.81513
2.79585
2.77744
2.7599
2.7432
2.72732
2.7122
2.69776
2.68392
2.67057
2.65761
2.64491
2.63238
2.61999
2.60778
2.59586
2.58461
2.57312
2.55888
0.0391877
0.0808867
0.102916
0.118773
0.132017
0.143939
0.155184
0.16611
0.176934
0.187791
0.198762
0.209897
0.22123
0.232784
0.244583
0.256653
0.269025
0.281735
0.294825
0.308339
0.322326
0.336831
0.351897
0.367555
0.383826
0.400721
0.418238
0.436371
0.455116
0.474468
0.494428
0.514993
0.536159
0.557917
0.580258
0.603173
0.626651
0.650687
0.675276
0.70042
0.726122
0.75239
0.779228
0.806644
0.834646
0.863241
0.892436
0.922239
0.952658
0.983698
1.01537
1.04767
1.08062
1.11421
1.14845
1.18334
1.21889
1.2551
1.29197
1.32949
1.36767
1.4065
1.44598
1.48609
1.52684
1.56821
1.61018
1.65275
1.6959
1.73961
1.78387
1.82864
1.87391
1.91965
1.96584
2.01244
2.05942
2.10675
2.15439
2.20232
2.25048
2.29884
2.34735
2.39599
2.44469
2.49341
2.54211
2.59074
2.63924
2.68758
2.73568
2.7835
2.83098
2.87805
2.92467
2.97078
3.01631
3.0612
3.1054
3.14883
3.19145
3.23317
3.27395
3.31371
3.35238
3.38991
3.42623
3.46127
3.49497
3.52726
3.55808
3.58737
3.61506
3.64109
3.66541
3.68797
3.70871
3.72758
3.74453
3.75955
3.77257
3.78359
3.79259
3.79954
3.80444
3.80711
3.80783
3.80652
3.80315
3.79776
3.79037
3.78102
3.76978
3.75669
3.74182
3.72525
3.70706
3.68734
3.66619
3.6437
3.61999
3.59517
3.56935
3.54265
3.51519
3.48709
3.45846
3.42942
3.40008
3.37055
3.34095
3.31138
3.28193
3.25272
3.22384
3.19537
3.16741
3.14003
3.1133
3.08728
3.06204
3.03761
3.01403
2.99131
2.96947
2.94848
2.92834
2.90899
2.8904
2.87249
2.85519
2.8384
2.82206
2.8061
2.79052
2.77541
2.76091
2.74737
2.73394
2.71869
0.0441748
0.0887334
0.112345
0.129322
0.143436
0.156059
0.167873
0.179267
0.190486
0.20169
0.212986
0.224449
0.236131
0.248072
0.260308
0.272871
0.285793
0.299111
0.312861
0.327079
0.341803
0.357068
0.372904
0.389336
0.406383
0.424054
0.442355
0.461287
0.480846
0.501032
0.521841
0.543273
0.565323
0.58799
0.611269
0.635158
0.659653
0.684753
0.71046
0.736775
0.763704
0.791254
0.819432
0.848247
0.877708
0.907824
0.938605
0.97006
1.0022
1.03503
1.06856
1.10281
1.13777
1.17345
1.20987
1.24702
1.28492
1.32355
1.36293
1.40306
1.44393
1.48555
1.5279
1.57098
1.61477
1.65928
1.70449
1.75038
1.79693
1.84413
1.89196
1.94038
1.98938
2.03892
2.08897
2.13951
2.19048
2.24187
2.29362
2.34569
2.39805
2.45064
2.50342
2.55634
2.60935
2.66239
2.71542
2.76837
2.82119
2.87383
2.92622
2.9783
3.03001
3.08128
3.13205
3.18225
3.23183
3.28072
3.32885
3.37615
3.42256
3.46801
3.51243
3.55576
3.59792
3.63884
3.67846
3.71671
3.75352
3.78882
3.82254
3.85463
3.885
3.9136
3.94037
3.96525
3.98818
4.00911
4.02798
4.04477
4.05942
4.07191
4.08221
4.09031
4.09618
4.09973
4.10105
4.10018
4.09708
4.09175
4.08422
4.07455
4.06278
4.04897
4.03318
4.01549
3.99599
3.97476
3.9519
3.92752
3.90172
3.87462
3.84635
3.81702
3.78676
3.75569
3.72392
3.6916
3.65882
3.62572
3.59241
3.55899
3.52558
3.49229
3.45922
3.42645
3.3941
3.36224
3.33096
3.30033
3.27041
3.24127
3.21295
3.18549
3.1589
3.1332
3.10838
3.08443
3.06132
3.03903
3.01749
2.99665
2.97648
2.95696
2.9381
2.92001
2.90286
2.88694
2.87142
2.8548
0.0483784
0.0951894
0.120081
0.13798
0.152823
0.166047
0.178357
0.190166
0.201736
0.213245
0.224819
0.236552
0.24851
0.260748
0.273309
0.286232
0.299553
0.313306
0.327524
0.342239
0.357482
0.37328
0.389658
0.406636
0.42423
0.442452
0.461309
0.480804
0.500942
0.521722
0.543145
0.565211
0.587923
0.611279
0.635281
0.659932
0.685231
0.711184
0.737795
0.765069
0.793014
0.821639
0.850954
0.880969
0.911696
0.943147
0.975333
1.00827
1.04196
1.07642
1.11167
1.1477
1.18454
1.2222
1.26067
1.29997
1.3401
1.38107
1.42289
1.46554
1.50904
1.55337
1.59855
1.64454
1.69136
1.73899
1.78741
1.8366
1.88655
1.93724
1.98864
2.04072
2.09345
2.14681
2.20075
2.25523
2.31023
2.36569
2.42156
2.47781
2.53438
2.59122
2.64827
2.70548
2.7628
2.82016
2.8775
2.93476
2.99188
3.04879
3.10543
3.16172
3.21761
3.27301
3.32786
3.3821
3.43564
3.48843
3.5404
3.59146
3.64156
3.69062
3.73856
3.78533
3.83084
3.87503
3.91782
3.95915
3.99894
4.03712
4.07363
4.10839
4.14134
4.1724
4.20152
4.22864
4.25368
4.2766
4.29734
4.31585
4.33209
4.34603
4.35763
4.36687
4.37373
4.37815
4.38014
4.37976
4.37697
4.37176
4.36415
4.3542
4.34196
4.32748
4.31083
4.29208
4.27131
4.24861
4.22409
4.19783
4.16997
4.14061
4.10988
4.07789
4.04479
4.01069
3.97572
3.94001
3.90369
3.86688
3.82969
3.79225
3.75468
3.71708
3.67957
3.64225
3.60522
3.56858
3.53243
3.49685
3.46192
3.42772
3.3943
3.36172
3.33004
3.29927
3.26945
3.24058
3.21269
3.18575
3.15975
3.13469
3.11056
3.08736
3.06515
3.04405
3.02421
3.00587
2.9882
2.96994
0.0517671
0.100286
0.126173
0.144797
0.160227
0.173942
0.186668
0.198829
0.210699
0.22247
0.234279
0.24623
0.258403
0.270861
0.283656
0.296831
0.310423
0.324467
0.338995
0.354034
0.369614
0.385757
0.402484
0.419814
0.437762
0.456341
0.475559
0.495425
0.515945
0.537124
0.558966
0.581476
0.604658
0.628518
0.65306
0.67829
0.704216
0.730844
0.758182
0.78624
0.81503
0.844563
0.874852
0.90591
0.937752
0.970393
1.00385
1.03813
1.07325
1.10923
1.14608
1.18381
1.22244
1.26198
1.30243
1.34381
1.38613
1.42939
1.47359
1.51874
1.56484
1.61188
1.65986
1.70878
1.75861
1.80936
1.861
1.91352
1.96689
2.02108
2.07608
2.13184
2.18834
2.24553
2.30338
2.36185
2.42088
2.48043
2.54044
2.60086
2.66164
2.72272
2.78403
2.84551
2.9071
2.96874
3.03034
3.09185
3.15319
3.21429
3.27509
3.33549
3.39544
3.45485
3.51365
3.57177
3.62913
3.68566
3.74128
3.79593
3.84952
3.90199
3.95326
4.00326
4.05191
4.09914
4.14489
4.18907
4.23163
4.27248
4.31156
4.34879
4.38412
4.41746
4.44875
4.47793
4.50493
4.5297
4.55217
4.5723
4.59004
4.60534
4.61817
4.62851
4.63632
4.64156
4.64424
4.64436
4.64192
4.63685
4.62919
4.61901
4.60634
4.59125
4.57379
4.55403
4.53206
4.50795
4.48181
4.45374
4.42386
4.39227
4.3591
4.32448
4.28853
4.2514
4.2132
4.17407
4.13414
4.09353
4.05239
4.01081
3.96894
3.92689
3.88478
3.84272
3.80082
3.75919
3.71795
3.67718
3.63698
3.59745
3.55868
3.52073
3.48368
3.44759
3.41252
3.37851
3.34561
3.31384
3.28324
3.25382
3.22562
3.19868
3.17308
3.14894
3.1264
3.10565
3.08587
3.06607
0.0543457
0.104093
0.130714
0.149883
0.165758
0.179855
0.192909
0.205354
0.217469
0.229451
0.241447
0.253567
0.265898
0.27851
0.291458
0.30479
0.318547
0.332762
0.347468
0.362691
0.378457
0.394788
0.411704
0.429224
0.447362
0.466133
0.48555
0.505624
0.526364
0.54778
0.569881
0.592676
0.616174
0.640384
0.665315
0.69098
0.717387
0.744549
0.772477
0.801186
0.83069
0.861007
0.892151
0.924141
0.956994
0.990727
1.02536
1.06091
1.09739
1.13482
1.17322
1.2126
1.25298
1.29437
1.33678
1.38023
1.42473
1.47027
1.51687
1.56453
1.61325
1.66303
1.71385
1.76572
1.81861
1.87252
1.92743
1.9833
2.04013
2.09787
2.1565
2.21598
2.27627
2.33732
2.3991
2.46154
2.52461
2.58823
2.65236
2.71693
2.78188
2.84714
2.91264
2.97832
3.04409
3.10989
3.17564
3.24126
3.30667
3.37181
3.43658
3.50091
3.56472
3.62793
3.69045
3.75221
3.81313
3.87314
3.93215
3.99009
4.04689
4.10247
4.15675
4.20966
4.26114
4.3111
4.35947
4.40619
4.45119
4.49439
4.53573
4.57514
4.61254
4.64787
4.68107
4.71205
4.74077
4.76716
4.79116
4.81272
4.83178
4.84831
4.86225
4.87357
4.88225
4.88826
4.89157
4.89217
4.8901
4.88517
4.87747
4.86708
4.85404
4.83838
4.82018
4.79948
4.77638
4.75094
4.72327
4.69346
4.66163
4.62788
4.59235
4.55515
4.51642
4.47629
4.43489
4.39236
4.34883
4.30444
4.25931
4.21358
4.16736
4.1208
4.07401
4.02712
3.98026
3.93353
3.88706
3.84096
3.79536
3.75036
3.70606
3.66258
3.62
3.57843
3.53796
3.49866
3.46062
3.4239
3.38859
3.35474
3.32241
3.2917
3.26269
3.23552
3.21029
3.18718
3.16536
3.14411
0.0561542
0.106725
0.133839
0.153385
0.169575
0.183945
0.197238
0.209892
0.222188
0.234326
0.246456
0.258692
0.271126
0.28383
0.296864
0.310277
0.324108
0.338394
0.353166
0.368453
0.384278
0.400666
0.417637
0.435211
0.453405
0.472236
0.49172
0.511872
0.532706
0.554234
0.576472
0.599433
0.62313
0.647577
0.67279
0.698782
0.72557
0.753169
0.781597
0.810872
0.841015
0.872045
0.903983
0.936851
0.97067
1.00546
1.04125
1.07804
1.11588
1.15476
1.19472
1.23577
1.27793
1.32122
1.36564
1.41121
1.45794
1.50583
1.5549
1.60515
1.65656
1.70915
1.76289
1.81779
1.87382
1.93096
1.98919
2.04849
2.10883
2.17016
2.23246
2.29568
2.35977
2.42469
2.49038
2.55678
2.62383
2.69148
2.75964
2.82827
2.89727
2.96659
3.03613
3.10583
3.1756
3.24537
3.31504
3.38453
3.45377
3.52266
3.59113
3.65908
3.72643
3.79309
3.85898
3.92403
3.98813
4.05123
4.11323
4.17406
4.23365
4.29191
4.34877
4.40417
4.45802
4.51026
4.56083
4.60965
4.65665
4.70178
4.74495
4.78612
4.8252
4.86214
4.89686
4.92931
4.95942
4.98712
5.01236
5.03508
5.05523
5.07276
5.08762
5.09978
5.1092
5.11586
5.11972
5.12076
5.11904
5.11426
5.10653
5.09595
5.08256
5.0664
5.04752
5.02597
5.00182
4.97515
4.94605
4.91462
4.88095
4.84517
4.80738
4.76772
4.72632
4.6833
4.63881
4.59297
4.54593
4.49782
4.44878
4.39894
4.34843
4.29739
4.24595
4.19425
4.14241
4.09057
4.03886
3.98741
3.93636
3.88583
3.83596
3.78689
3.73873
3.69161
3.64567
3.60101
3.55778
3.51607
3.47601
3.4377
3.40124
3.36675
3.33435
3.30417
3.27632
3.25092
3.22717
3.20464
0.0572686
0.108309
0.135701
0.155473
0.171856
0.186396
0.199841
0.212625
0.225034
0.237269
0.249479
0.261779
0.27426
0.286996
0.300046
0.313462
0.327286
0.341556
0.356302
0.371555
0.38734
0.403684
0.420607
0.438133
0.456283
0.475077
0.494536
0.51468
0.535529
0.557086
0.579383
0.602441
0.626275
0.650904
0.676346
0.702618
0.729743
0.757743
0.786643
0.816468
0.847243
0.878992
0.911741
0.945516
0.98034
1.01624
1.05324
1.09136
1.13063
1.17107
1.21269
1.25553
1.29959
1.3449
1.39146
1.43929
1.4884
1.5388
1.59048
1.64346
1.69771
1.75325
1.81004
1.86809
1.92736
1.98784
2.0495
2.11229
2.17619
2.24116
2.30715
2.37411
2.44198
2.51071
2.58024
2.6505
2.72143
2.79295
2.86499
2.93747
3.01032
3.08344
3.15676
3.23019
3.30364
3.37703
3.45026
3.52325
3.5959
3.66813
3.73984
3.81095
3.88136
3.95099
4.01975
4.08755
4.15431
4.21995
4.28439
4.34755
4.40936
4.46974
4.52861
4.58591
4.64157
4.69553
4.74771
4.79806
4.84652
4.89302
4.9375
4.9799
5.02016
5.05822
5.094
5.12747
5.15854
5.18716
5.21327
5.23683
5.25776
5.27602
5.29157
5.30436
5.31436
5.32152
5.32582
5.32724
5.32581
5.32119
5.31341
5.30267
5.28898
5.27238
5.2529
5.2306
5.20552
5.17776
5.14737
5.11446
5.07912
5.04146
5.00159
4.95964
4.91574
4.87
4.82258
4.77361
4.72322
4.67155
4.61875
4.56495
4.51028
4.45489
4.39892
4.34251
4.28581
4.22895
4.17208
4.11536
4.05892
4.00294
3.94755
3.89293
3.83922
3.78659
3.73521
3.68523
3.63683
3.59016
3.54537
3.50263
3.46207
3.42385
3.38812
3.355
3.3246
3.29702
3.2715
3.24788
0.0576664
0.108878
0.136426
0.156312
0.172786
0.187403
0.200915
0.213758
0.226214
0.238482
0.250708
0.263008
0.275473
0.288178
0.301183
0.314539
0.328289
0.342473
0.357124
0.372272
0.387948
0.404178
0.420989
0.438407
0.456457
0.475164
0.494554
0.514654
0.535493
0.55706
0.579418
0.602579
0.626565
0.651399
0.677099
0.703682
0.731182
0.759638
0.78908
0.81954
0.851047
0.883632
0.917326
0.952157
0.988152
1.02534
1.06375
1.1034
1.14433
1.18654
1.23008
1.27494
1.32116
1.36874
1.41771
1.46806
1.51981
1.57296
1.6275
1.68344
1.74075
1.79944
1.85948
1.92084
1.9835
2.04743
2.1126
2.17895
2.24645
2.31505
2.38469
2.45532
2.52687
2.59927
2.67247
2.74638
2.82093
2.89604
2.97163
3.04762
3.12391
3.20043
3.27707
3.35375
3.43038
3.50685
3.58308
3.65898
3.73444
3.80937
3.88369
3.95729
4.03009
4.102
4.17292
4.24277
4.31147
4.37893
4.44508
4.50983
4.57313
4.63489
4.69504
4.75352
4.81026
4.86521
4.91831
4.9695
5.01873
5.06594
5.11108
5.15409
5.19492
5.23352
5.26982
5.30376
5.33531
5.36438
5.39095
5.41493
5.43629
5.45497
5.47092
5.4841
5.49446
5.50196
5.50657
5.50828
5.50709
5.50262
5.4948
5.48393
5.46999
5.45303
5.43306
5.41013
5.38428
5.35557
5.32408
5.28989
5.25309
5.21377
5.17205
5.12804
5.08187
5.03366
4.98356
4.93169
4.87819
4.82321
4.76688
4.70934
4.65074
4.59123
4.53095
4.47004
4.40867
4.34699
4.28515
4.22333
4.16169
4.10041
4.03966
3.97964
3.92053
3.86252
3.80583
3.75065
3.69719
3.64566
3.59625
3.54917
3.50458
3.46263
3.42356
3.38754
3.35464
3.325
3.29788
3.27344
0.0575598
0.108716
0.136235
0.15611
0.172576
0.187185
0.200685
0.213509
0.225939
0.238173
0.25036
0.262612
0.27502
0.287656
0.300583
0.313849
0.327501
0.341578
0.356116
0.371148
0.386706
0.402821
0.419523
0.436844
0.454812
0.473453
0.492801
0.512888
0.533742
0.555394
0.577873
0.601208
0.625428
0.650564
0.676654
0.703696
0.731755
0.760868
0.791076
0.822417
0.854926
0.888642
0.923601
0.959828
0.997353
1.03621
1.07641
1.11801
1.16101
1.20544
1.25132
1.29865
1.34747
1.39776
1.44955
1.50284
1.55762
1.6139
1.67165
1.73087
1.79154
1.85364
1.91713
1.98199
2.04817
2.11564
2.18435
2.25425
2.32528
2.3974
2.47052
2.5446
2.61955
2.69531
2.7718
2.84893
2.92664
3.00482
3.0834
3.16229
3.24139
3.32061
3.39986
3.47904
3.55806
3.63682
3.71522
3.79317
3.87057
3.94732
4.02333
4.09852
4.17278
4.24603
4.31817
4.38913
4.45882
4.52716
4.59408
4.65951
4.72337
4.78559
4.84612
4.90489
4.96185
5.01694
5.07011
5.12133
5.17053
5.21768
5.26272
5.30563
5.34634
5.38481
5.42099
5.45483
5.48628
5.5153
5.54183
5.56581
5.5872
5.60595
5.62199
5.63529
5.64578
5.65344
5.65823
5.66014
5.65915
5.65484
5.647
5.63603
5.62194
5.60472
5.5844
5.561
5.53456
5.50513
5.47277
5.43755
5.39954
5.35884
5.31555
5.26978
5.22165
5.17129
5.11881
5.06437
5.00809
4.95011
4.89057
4.82963
4.76742
4.70409
4.63979
4.5747
4.50896
4.44274
4.37623
4.30959
4.24302
4.17671
4.11086
4.04568
3.9814
3.91825
3.85647
3.79618
3.73773
3.68138
3.62739
3.57601
3.52746
3.48211
3.44005
3.40142
3.36634
3.33491
3.30645
3.28148
0.0571678
0.10809
0.135403
0.155152
0.171505
0.186006
0.199401
0.21212
0.224445
0.236571
0.248645
0.260779
0.273062
0.285567
0.298353
0.311475
0.324979
0.338907
0.353299
0.368192
0.383624
0.39963
0.416251
0.433524
0.45149
0.470186
0.489646
0.509908
0.531014
0.553013
0.575925
0.599779
0.624614
0.650462
0.677337
0.705281
0.734383
0.764694
0.796256
0.829108
0.863286
0.898821
0.935742
0.974084
1.01388
1.05515
1.09793
1.14227
1.18816
1.23562
1.28464
1.33524
1.38742
1.44117
1.4965
1.55339
1.61183
1.6718
1.73328
1.79624
1.86065
1.92646
1.99365
2.06217
2.13196
2.20297
2.27515
2.34844
2.42278
2.49809
2.57431
2.65137
2.72919
2.80769
2.88679
2.96641
3.04647
3.12687
3.20754
3.28836
3.36927
3.45016
3.53094
3.61151
3.69178
3.77165
3.85104
3.92983
4.00795
4.08529
4.16177
4.23729
4.31177
4.38512
4.45726
4.5281
4.59756
4.66558
4.73208
4.79701
4.86028
4.92185
4.98165
5.03962
5.09573
5.14993
5.20218
5.25245
5.30069
5.34687
5.39096
5.43292
5.47272
5.51032
5.54567
5.57874
5.60947
5.63784
5.6638
5.6873
5.70828
5.7267
5.7425
5.75562
5.76601
5.77362
5.77845
5.78049
5.77965
5.77549
5.76766
5.75668
5.74251
5.72517
5.70465
5.68096
5.65414
5.62422
5.59124
5.55526
5.51634
5.47456
5.43001
5.38281
5.33305
5.28086
5.22636
5.16968
5.11096
5.05034
4.98795
4.92394
4.85846
4.79166
4.7237
4.65475
4.58497
4.51455
4.44368
4.37255
4.30133
4.2302
4.15943
4.08927
4.01998
3.95184
3.8851
3.82019
3.7573
3.69668
3.63864
3.58349
3.53157
3.48298
3.43803
3.39694
3.35979
3.32676
3.29715
3.27195
0.0562609
0.106731
0.133706
0.15321
0.169346
0.183646
0.196852
0.209396
0.221558
0.233536
0.245472
0.257478
0.269641
0.282034
0.29472
0.307757
0.321194
0.33508
0.349461
0.364384
0.379892
0.39603
0.412845
0.43039
0.44873
0.467887
0.487902
0.508824
0.530693
0.553532
0.577357
0.602259
0.628299
0.655541
0.684056
0.713886
0.745083
0.777694
0.811764
0.847328
0.88442
0.923065
0.963288
1.00511
1.04855
1.09362
1.14033
1.18869
1.23869
1.29031
1.34356
1.39843
1.45488
1.51291
1.57248
1.63358
1.69616
1.76019
1.82563
1.89243
1.96055
2.02994
2.10055
2.17231
2.24519
2.3191
2.394
2.46982
2.54648
2.62393
2.7021
2.7809
2.86027
2.94013
3.0204
3.10101
3.18186
3.26289
3.344
3.42511
3.50613
3.58697
3.66755
3.74778
3.82757
3.90682
3.98545
4.06338
4.14051