/*--------------------------------*- C++ -*----------------------------------*\
  =========                 |
  \\      /  F ield         | OpenFOAM: The Open Source CFD Toolbox
   \\    /   O peration     | Website:  https://openfoam.org
    \\  /    A nd           | Version:  8
     \\/     M anipulation  |
\*---------------------------------------------------------------------------*/
FoamFile
{
    version     2.0;
    format      ascii;
    class       volScalarField;
    location    "200";
    object      nut;
}
// * * * * * * * * * * * * * * * * * * * * * * * * * * * * * * * * * * * * * //

dimensions      [0 2 -1 0 0 0 0];

internalField   nonuniform List<scalar> 
12225
(
4.14924e-05
3.93409e-05
3.74829e-05
3.54331e-05
3.37838e-05
3.24212e-05
3.15092e-05
3.09117e-05
3.09182e-05
3.10939e-05
3.15726e-05
3.21008e-05
3.31529e-05
3.38246e-05
3.50729e-05
3.58158e-05
3.68826e-05
3.86236e-05
0.000332215
0.000215176
0.00017927
0.000157677
0.000146209
0.000138209
0.000132729
0.000131667
0.000129493
0.00013008
0.000129032
0.000129455
0.000128645
0.000128576
0.000128069
0.000127415
0.000127479
0.000125991
0.000668679
0.00045066
0.000355752
0.000309835
0.000275276
0.000251102
0.0002317
0.000217282
0.000202656
0.000192135
0.000182599
0.000175212
0.000169353
0.00016368
0.000160274
0.000155548
0.00015381
0.000149726
0.000801681
0.000691666
0.000572543
0.000500062
0.00044937
0.000411994
0.000380761
0.000356013
0.000333987
0.000314784
0.000298354
0.000281623
0.000270319
0.000256051
0.000248188
0.000236092
0.000230511
0.000220316
0.000839623
0.00081019
0.000740696
0.000676421
0.000623919
0.000581393
0.000545853
0.000514563
0.000489502
0.000464428
0.000445852
0.000424051
0.000409919
0.00039078
0.000379872
0.000362986
0.000354754
0.000339294
0.000850344
0.000843278
0.000819553
0.000786529
0.000750765
0.000715889
0.000685747
0.000656132
0.000632538
0.000607512
0.000588987
0.000567233
0.000552266
0.000533073
0.00052077
0.000503616
0.000493642
0.000477253
0.000851579
0.000851019
0.000843299
0.000833478
0.000817108
0.000796952
0.000777867
0.000756734
0.000738895
0.000719141
0.000703526
0.00068561
0.00067211
0.000655902
0.000644298
0.000629431
0.000619829
0.000604943
0.000851581
0.000851816
0.000850038
0.000847462
0.000841401
0.00083375
0.000824822
0.000813432
0.000802808
0.000790467
0.00077971
0.000767532
0.000757417
0.000745767
0.000736539
0.000725441
0.000717467
0.000705845
0.000851673
0.000851531
0.000851015
0.000850343
0.000848875
0.00084617
0.000843026
0.000838304
0.000833402
0.000827359
0.000821215
0.000814765
0.000808427
0.000801496
0.000795287
0.00078831
0.000782509
0.000774924
0.000851754
0.000851386
0.000851043
0.000850633
0.000850247
0.000849368
0.000848404
0.00084678
0.000844955
0.000842529
0.000839922
0.000836797
0.000833793
0.000830147
0.00082697
0.00082291
0.000819917
0.000815276
0.000851784
0.000851358
0.000851012
0.000850613
0.000850329
0.000849905
0.000849525
0.000848928
0.000848303
0.000847393
0.000846465
0.000845176
0.000843989
0.00084235
0.000840994
0.000839028
0.000837637
0.000835357
0.000851788
0.000851359
0.000850996
0.000850605
0.000850292
0.000849938
0.000849646
0.00084928
0.000848955
0.000848504
0.000848098
0.000847507
0.000846997
0.000846243
0.00084564
0.000844719
0.000844056
0.000842974
0.000851786
0.000851363
0.000850985
0.000850604
0.000850269
0.000849926
0.00084963
0.000849313
0.000849042
0.000848728
0.000848462
0.000848126
0.000847843
0.000847465
0.000847156
0.000846725
0.000846386
0.000845901
0.000851783
0.000851364
0.000850978
0.000850602
0.000850256
0.000849916
0.000849607
0.0008493
0.000849022
0.00084874
0.000848488
0.000848224
0.000847988
0.000847734
0.000847508
0.000847257
0.000847033
0.000846783
0.000851781
0.000851364
0.000850973
0.000850598
0.000850246
0.000849908
0.000849591
0.000849286
0.000849
0.000848723
0.000848463
0.000848211
0.000847975
0.000847745
0.000847528
0.000847316
0.000847115
0.000846919
0.00085178
0.000851363
0.000850969
0.000850594
0.000850239
0.000849901
0.00084958
0.000849275
0.000848984
0.000848707
0.000848443
0.000848191
0.000847951
0.000847721
0.000847502
0.000847293
0.000847093
0.000846901
0.000851779
0.000851362
0.000850967
0.000850591
0.000850234
0.000849895
0.000849572
0.000849265
0.000848973
0.000848694
0.000848428
0.000848175
0.000847933
0.000847701
0.00084748
0.000847269
0.000847067
0.000846874
0.000851779
0.000851362
0.000850965
0.000850588
0.000850231
0.00084989
0.000849567
0.000849259
0.000848965
0.000848685
0.000848418
0.000848163
0.00084792
0.000847687
0.000847465
0.000847252
0.000847049
0.000846854
0.000851779
0.000851362
0.000850965
0.000850588
0.00085023
0.000849889
0.000849565
0.000849256
0.000848962
0.000848681
0.000848414
0.000848158
0.000847914
0.00084768
0.000847457
0.000847243
0.000847039
0.000846844
0.000851779
0.000851362
0.000850966
0.000850589
0.000850231
0.000849891
0.000849567
0.000849259
0.000848965
0.000848685
0.000848417
0.000848162
0.000847917
0.000847684
0.00084746
0.000847246
0.000847041
0.000846845
0.000851779
0.000851363
0.000850967
0.000850592
0.000850235
0.000849897
0.000849573
0.000849267
0.000848972
0.000848694
0.000848424
0.000848169
0.00084792
0.000847683
0.000847451
0.000847231
0.000847013
0.000846806
0.000851778
0.000851366
0.000850968
0.000850599
0.00085024
0.000849907
0.00084958
0.000849274
0.000848964
0.000848671
0.000848365
0.000848072
0.000847756
0.000847456
0.000847123
0.000846811
0.000846457
0.000846136
0.000851773
0.000851376
0.000850971
0.000850615
0.000850241
0.000849889
0.000849478
0.000849054
0.000848529
0.000847978
0.000847301
0.000846605
0.000845767
0.000844939
0.000843955
0.000843029
0.000841918
0.00084094
0.000851768
0.000851415
0.000850964
0.000850548
0.000849861
0.000848966
0.00084761
0.000845976
0.000843905
0.000841636
0.000838955
0.000836214
0.000833117
0.000830114
0.000826763
0.00082368
0.000820184
0.000817178
0.000851859
0.00085138
0.000850196
0.000848243
0.00084447
0.000839354
0.000832765
0.000825658
0.000817962
0.000810011
0.000801618
0.000793628
0.000785332
0.000777707
0.000769744
0.000762701
0.000755124
0.000748795
0.000852108
0.000847667
0.000839902
0.000827146
0.000808707
0.000789646
0.000769975
0.000751413
0.000733305
0.000716895
0.000700934
0.000686781
0.00067283
0.000660671
0.000648379
0.000637942
0.000626955
0.000618021
0.000843241
0.000822506
0.000775185
0.000726459
0.000684894
0.000649852
0.000618461
0.000592019
0.000568382
0.000548312
0.000529689
0.000513991
0.000498752
0.000486017
0.000473203
0.000462709
0.000451624
0.000442807
0.000795685
0.000668241
0.000570627
0.000509905
0.000465605
0.000431184
0.000404146
0.000382481
0.0003642
0.00034907
0.000335942
0.000325063
0.000314508
0.000306237
0.000297961
0.000291369
0.000284283
0.000278933
0.000501314
0.000348356
0.000292674
0.00025918
0.000236322
0.000221177
0.000211621
0.000203855
0.000198564
0.000195076
0.000192221
0.000190368
0.000188583
0.000187438
0.000186166
0.000185472
0.000184555
0.000184142
7.27384e-05
7.02255e-05
6.79541e-05
6.56137e-05
6.33828e-05
6.12762e-05
5.94944e-05
5.79551e-05
5.67109e-05
5.57031e-05
5.49776e-05
5.44178e-05
5.41096e-05
5.38809e-05
5.38975e-05
5.39325e-05
5.40913e-05
5.43238e-05
4.88112e-07
1.0819e-05
1.92498e-05
2.72173e-05
3.56509e-05
4.46462e-05
5.42799e-05
6.45147e-05
7.51779e-05
8.60661e-05
9.69512e-05
0.000107652
0.000117992
0.000127844
0.000137079
0.000145612
0.000153367
0.000160339
0.000166578
0.000172265
0.000177705
0.000182404
0.000187403
0.000196613
0.000207257
0.000219597
0.000231111
0.000238663
0.00023653
0.00023124
0.000219887
0.00021027
0.00020229
0.000182613
3.83192e-05
4.54869e-05
4.7701e-05
4.84684e-05
4.96055e-05
5.07689e-05
5.18753e-05
5.30211e-05
5.41384e-05
5.52684e-05
5.63874e-05
5.75078e-05
5.8623e-05
5.97365e-05
6.08464e-05
6.19541e-05
6.30586e-05
6.41609e-05
6.52602e-05
6.63573e-05
6.74514e-05
6.85432e-05
6.96318e-05
7.07179e-05
7.18004e-05
7.28801e-05
7.39557e-05
7.50279e-05
7.60956e-05
7.71592e-05
7.82174e-05
7.92709e-05
8.03182e-05
8.13599e-05
8.23945e-05
8.34225e-05
8.44424e-05
8.54548e-05
8.64581e-05
8.74528e-05
8.84372e-05
8.94118e-05
9.0375e-05
9.13273e-05
9.2267e-05
9.31947e-05
9.41084e-05
9.50087e-05
9.58939e-05
9.6764e-05
9.76173e-05
9.84539e-05
9.92718e-05
0.000100071
0.000100849
0.000101606
0.00010234
0.000103049
0.000103733
0.000104393
0.000105031
0.000105654
0.000106251
0.000106826
0.000107378
0.000107905
0.000108408
0.000108885
0.000109337
0.000109763
0.000110161
0.000110532
0.000110875
0.000111189
0.000111474
0.000111729
0.000111953
0.000112147
0.00011231
0.000112441
0.00011254
0.000112606
0.000112641
0.000112643
0.000112613
0.000112554
0.000112448
0.000112307
0.000112144
0.00011193
0.00011169
0.000111433
0.000111145
0.000110812
0.000110451
0.000110057
0.000109632
0.000109178
0.000108694
0.000108182
0.000107642
0.000107075
0.00010648
0.000105862
0.000105222
0.000104562
0.000103885
0.000103191
0.000102484
0.000101765
0.000101035
0.000100298
9.95551e-05
9.8808e-05
9.806e-05
9.73122e-05
9.65677e-05
9.58268e-05
9.50924e-05
9.43654e-05
9.36493e-05
9.29448e-05
9.22556e-05
9.1583e-05
9.09292e-05
9.02948e-05
8.96836e-05
8.90954e-05
8.85327e-05
8.80044e-05
8.75734e-05
8.76965e-05
8.74928e-05
8.72218e-05
8.70092e-05
8.68384e-05
8.67047e-05
8.65873e-05
8.64812e-05
8.64068e-05
8.63556e-05
8.63664e-05
8.62995e-05
8.62067e-05
8.60025e-05
8.4763e-05
2.09706e-06
3.90121e-05
8.21385e-05
0.000111815
0.000131696
0.000146928
0.000160241
0.000172981
0.000185669
0.000198396
0.000211048
0.000223442
0.000235385
0.000246698
0.00025722
0.000266817
0.000275393
0.000282913
0.000289438
0.000295167
0.000300483
0.000305672
0.000310577
0.000315653
0.000320855
0.000325643
0.00032897
0.000327662
0.000321865
0.000312115
0.000297774
0.000282012
0.000278924
0.000255287
0.000243568
0.000261806
0.000272769
0.000278907
0.000285912
0.0002931
0.000300774
0.000308464
0.000316337
0.000324291
0.00033235
0.000340487
0.000348702
0.000356989
0.000365347
0.000373776
0.000382278
0.000390852
0.000399502
0.000408228
0.000417034
0.000425921
0.000434893
0.000443949
0.000453092
0.000462323
0.000471644
0.000481053
0.000490553
0.000500141
0.000509821
0.000519588
0.000529443
0.000539383
0.000549407
0.000559512
0.000569697
0.000579957
0.000590292
0.000600694
0.000611165
0.000621696
0.000632285
0.000642928
0.000653621
0.000664358
0.000675139
0.000685957
0.000696809
0.000707691
0.000718601
0.00072953
0.000740477
0.000751429
0.000762377
0.000773297
0.000784156
0.000794884
0.000805367
0.000815423
0.00082475
0.000833877
0.000842896
0.000851801
0.000860583
0.000869235
0.000877746
0.000886108
0.000894309
0.000902338
0.000910185
0.000917839
0.000925289
0.000932524
0.000939531
0.0009463
0.000952819
0.000959077
0.000965062
0.000970763
0.000976169
0.00098127
0.000986054
0.000990515
0.000994641
0.000998434
0.00100192
0.00100519
0.00100804
0.00101025
0.00101198
0.00101373
0.00101522
0.0010162
0.0010168
0.00101703
0.00101691
0.00101643
0.00101561
0.00101445
0.00101296
0.00101116
0.00100905
0.00100666
0.00100399
0.00100105
0.000997876
0.000994477
0.000990879
0.000987102
0.000983172
0.000979106
0.000974931
0.000970667
0.000966344
0.000961978
0.000957597
0.000953216
0.000948862
0.000944554
0.000940321
0.00093618
0.00093216
0.00092828
0.000924563
0.000921021
0.000917677
0.000914531
0.000911596
0.000908874
0.000906338
0.000903765
0.000899049
0.000894555
0.000890271
0.000886154
0.000882199
0.000878175
0.000874074
0.000869795
0.000865361
0.000860994
0.000856154
0.000850036
0.00084144
0.000817173
4.17007e-06
6.10325e-05
0.000126334
0.000176143
0.000212513
0.000239374
0.000260281
0.000277758
0.000293377
0.000307997
0.000321999
0.000335486
0.000348413
0.000360669
0.000372119
0.000382636
0.000392126
0.000400547
0.000407931
0.000414401
0.00042014
0.000425601
0.000431846
0.000439257
0.000447655
0.000456517
0.000464731
0.000471458
0.000476443
0.00048005
0.000483386
0.000487731
0.00049435
0.000499626
0.000511284
0.00052901
0.000545084
0.000560412
0.000575943
0.000591562
0.000607419
0.000623414
0.000639574
0.000655872
0.000672308
0.000688875
0.000705571
0.000722397
0.000739353
0.000756441
0.000773666
0.00079103
0.000808537
0.000826189
0.000843991
0.000861945
0.000880052
0.000898313
0.000916732
0.000935307
0.000954038
0.000972924
0.000991965
0.00101116
0.0010305
0.00104999
0.00106962
0.00108938
0.00110928
0.0011293
0.00114945
0.0011697
0.00119006
0.00121052
0.00123106
0.00125169
0.00127238
0.00129314
0.00131395
0.0013348
0.00135568
0.00137659
0.0013975
0.00141841
0.00143931
0.00146017
0.00148099
0.00150172
0.00152236
0.00154284
0.00156312
0.00158312
0.00160275
0.00162194
0.00164066
0.00165913
0.00167737
0.00169538
0.00171312
0.00173059
0.00174775
0.0017646
0.00178111
0.00179726
0.00181302
0.00182839
0.00184333
0.00185782
0.00187184
0.00188537
0.00189838
0.00191086
0.00192278
0.00193412
0.00194485
0.00195497
0.00196444
0.00197326
0.00198142
0.0019889
0.00199573
0.0020019
0.00200755
0.00201216
0.00201555
0.00201867
0.00202134
0.0020231
0.00202409
0.00202434
0.00202385
0.00202264
0.00202073
0.00201814
0.00201487
0.00201097
0.00200645
0.00200133
0.00199566
0.00198944
0.00198274
0.00197559
0.00196802
0.0019601
0.00195185
0.00194332
0.00193457
0.00192563
0.00191655
0.00190738
0.00189816
0.00188894
0.00187976
0.00187067
0.00186171
0.00185293
0.00184437
0.00183607
0.00182808
0.00182041
0.0018131
0.00180616
0.0017996
0.00179341
0.00178749
0.0017814
0.00177386
0.00176637
0.00175889
0.00175164
0.00174489
0.00173787
0.00173072
0.00172299
0.00171513
0.00170749
0.00169898
0.00168771
0.0016715
0.00163204
6.34393e-06
7.76857e-05
0.000159724
0.000224335
0.000272844
0.000309338
0.000337588
0.000360458
0.000379952
0.000397363
0.00041345
0.000428605
0.000442992
0.000456643
0.00046953
0.000481607
0.000492852
0.0005033
0.000513072
0.000522409
0.000531684
0.000541402
0.000552123
0.000564187
0.000577632
0.000592189
0.000607297
0.000622427
0.000637344
0.000652208
0.000667496
0.000683639
0.000700378
0.000719056
0.000739964
0.000762408
0.000784555
0.000806595
0.000828845
0.0008513
0.000873934
0.000896733
0.000919698
0.000942828
0.000966123
0.000989584
0.00101321
0.00103701
0.00106098
0.00108513
0.00110946
0.00113399
0.0011587
0.00118362
0.00120873
0.00123405
0.00125957
0.0012853
0.00131123
0.00133737
0.00136371
0.00139025
0.00141698
0.0014439
0.00147101
0.0014983
0.00152577
0.00155339
0.00158117
0.0016091
0.00163717
0.00166536
0.00169366
0.00172207
0.00175057
0.00177914
0.00180778
0.00183646
0.00186518
0.00189391
0.00192265
0.00195137
0.00198006
0.00200869
0.00203725
0.00206571
0.00209405
0.00212223
0.00215022
0.00217797
0.00220543
0.00223255
0.00225927
0.00228556
0.00231146
0.00233704
0.0023623
0.00238721
0.00241176
0.00243592
0.00245966
0.00248296
0.00250579
0.00252812
0.00254993
0.00257118
0.00259185
0.00261191
0.00263133
0.00265008
0.00266814
0.00268546
0.00270202
0.0027178
0.00273276
0.00274688
0.00276014
0.00277251
0.00278397
0.00279451
0.00280413
0.0028128
0.00282077
0.00282763
0.00283281
0.00283724
0.00284106
0.00284373
0.00284533
0.0028459
0.00284544
0.00284398
0.00284153
0.00283812
0.00283377
0.00282851
0.00282238
0.0028154
0.00280762
0.00279909
0.00278985
0.00277996
0.00276948
0.00275846
0.00274697
0.00273507
0.00272282
0.00271028
0.00269751
0.00268458
0.00267156
0.0026585
0.00264548
0.00263255
0.00261978
0.00260724
0.00259498
0.00258306
0.00257153
0.00256044
0.00254982
0.0025397
0.0025301
0.00252099
0.00251228
0.00250364
0.00249438
0.00248515
0.00247597
0.00246713
0.00245852
0.00245005
0.00244153
0.00243258
0.00242355
0.0024143
0.0024041
0.00239118
0.0023717
0.00232992
8.4433e-06
9.15537e-05
0.0001874
0.000264228
0.000323335
0.000368422
0.000403468
0.000431594
0.000455105
0.000475611
0.000494173
0.000511448
0.000527818
0.000543489
0.00055857
0.000573127
0.000587227
0.000600973
0.000614529
0.000628144
0.000642146
0.000656921
0.000672842
0.00069016
0.000708922
0.000728922
0.000749847
0.000771396
0.000793392
0.000815855
0.000838987
0.000863038
0.000887573
0.000912875
0.000939081
0.00096586
0.000993024
0.00102043
0.00104798
0.00107564
0.00110348
0.00113149
0.0011597
0.0011881
0.00121669
0.00124548
0.00127447
0.00130366
0.00133305
0.00136265
0.00139246
0.0014225
0.00145276
0.00148326
0.00151399
0.00154496
0.00157617
0.00160761
0.00163928
0.00167118
0.00170331
0.00173566
0.00176822
0.00180098
0.00183395
0.00186711
0.00190044
0.00193394
0.0019676
0.00200141
0.00203534
0.0020694
0.00210355
0.00213779
0.0021721
0.00220646
0.00224086
0.00227528
0.00230969
0.00234409
0.00237845
0.00241274
0.00244695
0.00248106
0.00251503
0.00254885
0.00258248
0.00261589
0.00264905
0.00268192
0.00271447
0.00274667
0.0027785
0.00280995
0.00284101
0.00287171
0.00290201
0.00293191
0.00296137
0.00299037
0.00301887
0.00304686
0.00307429
0.00310115
0.00312739
0.00315299
0.00317791
0.00320213
0.0032256
0.0032483
0.00327019
0.00329123
0.0033114
0.00333066
0.00334898
0.00336632
0.00338265
0.00339796
0.00341221
0.00342537
0.00343744
0.00344837
0.00345842
0.00346739
0.00347451
0.00348038
0.00348554
0.00348938
0.00349195
0.00349327
0.00349335
0.00349222
0.00348988
0.00348638
0.00348172
0.00347595
0.0034691
0.00346122
0.00345234
0.00344253
0.00343183
0.00342031
0.00340805
0.00339509
0.00338153
0.00336742
0.00335284
0.00333786
0.00332257
0.00330704
0.00329134
0.00327557
0.00325979
0.00324409
0.00322854
0.00321323
0.00319822
0.0031836
0.00316942
0.00315575
0.00314263
0.00313011
0.00311822
0.00310694
0.00309621
0.00308583
0.00307543
0.00306521
0.00305522
0.00304556
0.00303608
0.00302684
0.00301767
0.00300833
0.0029989
0.0029892
0.00297866
0.00296579
0.00294687
0.00290839
1.04046e-05
0.000103135
0.000210513
0.000297866
0.000366426
0.000419438
0.000460981
0.000494351
0.000522067
0.00054598
0.000567397
0.000587202
0.000605981
0.000624106
0.000641823
0.000659302
0.000676683
0.000694107
0.00071174
0.000729784
0.000748474
0.00076806
0.000788764
0.000810731
0.000833982
0.00085841
0.000883825
0.000910025
0.00093686
0.000964273
0.000992288
0.00102092
0.00105011
0.00107985
0.00111014
0.00114087
0.00117193
0.00120325
0.00123478
0.00126649
0.0012984
0.0013305
0.00136281
0.00139532
0.00142803
0.00146096
0.00149411
0.00152747
0.00156107
0.00159491
0.00162899
0.00166331
0.00169786
0.00173265
0.00176767
0.00180293
0.00183843
0.00187416
0.00191011
0.00194629
0.00198269
0.0020193
0.00205611
0.00209312
0.00213031
0.00216767
0.0022052
0.00224288
0.00228069
0.00231863
0.00235668
0.00239482
0.00243303
0.00247131
0.00250962
0.00254797
0.00258632
0.00262465
0.00266295
0.0027012
0.00273938
0.00277746
0.00281542
0.00285324
0.00289089
0.00292836
0.00296561
0.00300261
0.00303934
0.00307577
0.00311188
0.00314765
0.00318306
0.0032181
0.00325275
0.003287
0.00332082
0.00335421
0.00338712
0.00341954
0.00345143
0.00348276
0.00351351
0.00354365
0.00357313
0.00360193
0.00363002
0.00365736
0.00368391
0.00370965
0.00373453
0.00375851
0.00378156
0.00380365
0.00382473
0.00384478
0.00386375
0.00388161
0.00389833
0.00391388
0.00392823
0.00394135
0.00395342
0.00396444
0.00397364
0.00398122
0.00398794
0.00399324
0.00399714
0.00399963
0.00400073
0.00400045
0.0039988
0.00399582
0.00399153
0.00398596
0.00397915
0.00397114
0.00396198
0.00395172
0.00394042
0.00392815
0.00391499
0.00390099
0.00388624
0.00387082
0.0038548
0.00383828
0.00382133
0.00380405
0.00378651
0.00376882
0.00375107
0.00373335
0.00371574
0.00369834
0.00368124
0.00366453
0.00364827
0.00363256
0.00361745
0.003603
0.00358925
0.00357622
0.00356388
0.00355211
0.00354071
0.00352972
0.00351915
0.00350902
0.00349928
0.00348987
0.00348071
0.00347163
0.0034626
0.00345344
0.00344369
0.00343212
0.00341552
0.00338357
1.21789e-05
0.000112682
0.000229656
0.000326165
0.000403196
0.000463631
0.000511464
0.0005501
0.000582205
0.000609803
0.000634389
0.000657034
0.000678489
0.000699274
0.00071975
0.000740173
0.000760737
0.000781606
0.000802932
0.000824869
0.00084757
0.000871183
0.000895827
0.00092157
0.000948415
0.000976294
0.00100509
0.00103467
0.00106492
0.00109576
0.00112716
0.0011591
0.00119153
0.00122443
0.00125776
0.00129147
0.00132549
0.00135978
0.0013943
0.00142903
0.00146397
0.00149912
0.00153446
0.00157001
0.00160577
0.00164174
0.00167793
0.00171434
0.00175098
0.00178784
0.00182494
0.00186226
0.00189981
0.0019376
0.00197561
0.00201384
0.00205231
0.00209099
0.00212989
0.002169
0.00220831
0.00224782
0.00228752
0.00232739
0.00236744
0.00240764
0.00244799
0.00248847
0.00252906
0.00256976
0.00261055
0.00265142
0.00269234
0.0027333
0.00277428
0.00281527
0.00285624
0.00289718
0.00293806
0.00297888
0.0030196
0.0030602
0.00310067
0.00314098
0.00318111
0.00322104
0.00326074
0.00330019
0.00333937
0.00337825
0.00341682
0.00345505
0.00349294
0.00353045
0.00356758
0.0036043
0.0036406
0.00367645
0.00371183
0.00374671
0.00378106
0.00381485
0.00384806
0.00388065
0.0039126
0.00394386
0.00397442
0.00400423
0.00403325
0.00406146
0.0040888
0.00411525
0.00414077
0.0041653
0.00418883
0.0042113
0.00423267
0.00425291
0.00427198
0.00428984
0.00430645
0.00432178
0.00433595
0.00434905
0.00436043
0.0043701
0.00437858
0.00438565
0.00439122
0.00439526
0.00439778
0.00439878
0.0043983
0.00439634
0.00439294
0.00438813
0.00438192
0.00437437
0.00436553
0.00435544
0.00434417
0.00433177
0.00431833
0.00430392
0.00428861
0.00427248
0.00425563
0.00423814
0.00422011
0.00420162
0.00418277
0.00416368
0.00414442
0.00412512
0.00410586
0.00408677
0.00406792
0.00404943
0.0040314
0.0040139
0.00399702
0.00398084
0.00396541
0.00395078
0.00393695
0.00392386
0.00391143
0.00389964
0.00388847
0.00387792
0.00386795
0.00385852
0.00384955
0.00384095
0.00383264
0.00382448
0.0038161
0.00380653
0.00379309
0.00376869
1.37311e-05
0.00012037
0.000245213
0.000349885
0.000434315
0.000501639
0.000555524
0.000599395
0.000635998
0.000667471
0.000695439
0.000721113
0.000745376
0.000768865
0.000792032
0.000815205
0.000838621
0.000862458
0.00088686
0.00091195
0.000937829
0.000964588
0.000992281
0.00102093
0.00105053
0.00108102
0.00111233
0.00114437
0.00117705
0.00121031
0.00124409
0.00127836
0.00131308
0.00134822
0.00138374
0.0014196
0.00145575
0.00149216
0.0015288
0.00156565
0.0016027
0.00163995
0.00167739
0.00171502
0.00175286
0.00179089
0.00182912
0.00186756
0.00190621
0.00194507
0.00198414
0.00202342
0.00206292
0.00210263
0.00214255
0.00218267
0.00222301
0.00226354
0.00230427
0.0023452
0.00238631
0.0024276
0.00246907
0.00251069
0.00255247
0.00259438
0.00263643
0.0026786
0.00272086
0.00276323
0.00280566
0.00284816
0.00289071
0.00293329
0.00297588
0.00301847
0.00306103
0.00310356
0.00314603
0.00318843
0.00323073
0.00327292
0.00331497
0.00335686
0.00339858
0.00344011
0.00348142
0.00352249
0.0035633
0.00360384
0.00364408
0.00368401
0.0037236
0.00376285
0.00380173
0.00384022
0.0038783
0.00391596
0.00395316
0.00398988
0.0040261
0.00406179
0.00409692
0.00413146
0.00416539
0.00419867
0.00423127
0.00426315
0.00429429
0.00432463
0.00435415
0.00438281
0.00441055
0.00443735
0.00446316
0.00448793
0.00451162
0.00453419
0.00455559
0.00457579
0.00459473
0.00461238
0.00462881
0.0046441
0.00465775
0.00466975
0.00468032
0.00468946
0.00469701
0.00470294
0.00470723
0.0047099
0.00471097
0.00471045
0.00470836
0.00470473
0.00469957
0.00469294
0.00468486
0.0046754
0.0046646
0.00465253
0.00463926
0.00462486
0.00460941
0.004593
0.00457571
0.00455763
0.00453886
0.0045195
0.00449965
0.00447942
0.00445892
0.00443826
0.00441756
0.00439693
0.00437647
0.00435632
0.00433657
0.00431733
0.00429871
0.00428079
0.00426366
0.00424738
0.004232
0.00421751
0.00420388
0.00419111
0.00417917
0.00416808
0.0041578
0.00414831
0.00413956
0.0041315
0.00412405
0.00411713
0.00411044
0.00410321
0.0040933
0.00407589
1.50397e-05
0.000126365
0.000257522
0.000369174
0.000460179
0.000533834
0.000593459
0.000642439
0.000683539
0.000718956
0.0007504
0.000779177
0.000806267
0.000832396
0.000858092
0.000883741
0.000909614
0.000935903
0.00096275
0.000990258
0.0010185
0.00104759
0.00107754
0.00110832
0.00113991
0.00117228
0.00120536
0.0012391
0.00127343
0.00130829
0.00134363
0.00137941
0.00141561
0.00145218
0.0014891
0.00152636
0.00156387
0.00160161
0.00163956
0.0016777
0.00171601
0.00175449
0.00179315
0.00183197
0.00187097
0.00191015
0.0019495
0.00198904
0.00202876
0.00206866
0.00210876
0.00214904
0.00218951
0.00223018
0.00227103
0.00231208
0.00235331
0.00239472
0.00243632
0.00247809
0.00252004
0.00256216
0.00260443
0.00264686
0.00268944
0.00273215
0.00277499
0.00281794
0.002861
0.00290415
0.00294738
0.00299068
0.00303404
0.00307743
0.00312085
0.00316427
0.00320769
0.00325108
0.00329443
0.00333773
0.00338094
0.00342406
0.00346706
0.00350994
0.00355265
0.0035952
0.00363756
0.00367971
0.00372163
0.00376331
0.00380472
0.00384585
0.00388668
0.0039272
0.00396738
0.0040072
0.00404665
0.0040857
0.00412434
0.00416253
0.00420026
0.00423751
0.00427424
0.00431043
0.00434606
0.00438109
0.00441548
0.00444922
0.00448226
0.00451457
0.00454611
0.00457684
0.00460671
0.00463569
0.00466372
0.00469076
0.00471677
0.00474169
0.00476548
0.00478809
0.00480946
0.00482956
0.00484842
0.00486605
0.00488214
0.00489667
0.00490964
0.00492113
0.00493098
0.00493909
0.00494547
0.00495013
0.00495309
0.00495435
0.00495392
0.00495183
0.00494809
0.00494273
0.00493579
0.0049273
0.00491733
0.00490593
0.00489316
0.00487909
0.00486381
0.0048474
0.00482993
0.00481151
0.00479224
0.00477221
0.00475154
0.00473033
0.00470871
0.0046868
0.00466471
0.00464258
0.00462053
0.00459869
0.00457718
0.00455613
0.00453566
0.00451589
0.00449691
0.00447883
0.00446172
0.00444562
0.00443057
0.00441656
0.00440363
0.00439178
0.00438101
0.00437132
0.0043627
0.00435512
0.00434856
0.00434295
0.00433809
0.00433336
0.00432705
0.00431563
1.60946e-05
0.000130815
0.000266855
0.000384329
0.000481096
0.000560479
0.000625451
0.000679304
0.000724775
0.000764079
0.000798967
0.000830806
0.00086064
0.000889253
0.000917231
0.00094507
0.000973036
0.00100132
0.00103006
0.00105934
0.0010892
0.00111981
0.00115117
0.00118327
0.00121609
0.00124959
0.00128373
0.00131846
0.00135372
0.00138947
0.00142567
0.00146227
0.00149925
0.00153657
0.0015742
0.00161211
0.00165018
0.00168849
0.00172697
0.00176559
0.00180435
0.00184323
0.00188224
0.00192139
0.00196068
0.00200011
0.00203968
0.00207942
0.0021193
0.00215935
0.00219956
0.00223994
0.00228049
0.00232121
0.00236211
0.00240318
0.00244443
0.00248586
0.00252746
0.00256924
0.00261119
0.00265332
0.00269561
0.00273806
0.00278067
0.00282343
0.00286633
0.00290937
0.00295254
0.00299582
0.00303921
0.0030827
0.00312627
0.00316991
0.00321361
0.00325735
0.00330111
0.00334489
0.00338866
0.00343241
0.00347612
0.00351977
0.00356334
0.00360682
0.00365019
0.00369343
0.00373651
0.00377943
0.00382216
0.00386468
0.00390698
0.00394904
0.00399084
0.00403236
0.00407359
0.0041145
0.00415508
0.00419531
0.00423516
0.00427462
0.00431367
0.00435229
0.00439044
0.00442812
0.00446528
0.00450191
0.00453797
0.00457344
0.00460828
0.00464246
0.00467594
0.00470868
0.00474063
0.00477176
0.00480201
0.00483134
0.00485969
0.00488702
0.00491326
0.00493837
0.0049623
0.00498498
0.00500643
0.00502659
0.00504528
0.00506251
0.00507817
0.00509227
0.00510472
0.00511529
0.00512404
0.00513097
0.00513612
0.00513946
0.00514101
0.00514078
0.00513876
0.00513499
0.00512949
0.00512229
0.00511344
0.00510299
0.00509099
0.00507753
0.00506266
0.00504647
0.00502905
0.00501048
0.00499087
0.00497033
0.00494895
0.00492687
0.0049042
0.00488107
0.00485762
0.00483398
0.00481029
0.00478669
0.00476333
0.00474035
0.00471789
0.00469609
0.00467508
0.00465499
0.00463593
0.00461799
0.00460123
0.00458573
0.00457152
0.00455866
0.00454716
0.00453708
0.00452842
0.0045212
0.00451545
0.00451113
0.00450813
0.00450591
0.00450316
0.00449744
1.68973e-05
0.000133878
0.000273489
0.000395664
0.000497366
0.000581814
0.000651649
0.000710026
0.000759619
0.000802621
0.000840794
0.000875539
0.000907961
0.000938833
0.000968708
0.000998134
0.0010275
0.00105705
0.00108698
0.00111739
0.0011484
0.00118008
0.0012124
0.00124533
0.00127884
0.00131291
0.0013475
0.00138257
0.00141807
0.00145398
0.00149025
0.00152684
0.00156373
0.00160089
0.00163831
0.00167601
0.00171398
0.00175215
0.00179042
0.00182874
0.00186711
0.00190554
0.00194404
0.00198263
0.00202131
0.00206011
0.00209901
0.00213805
0.00217721
0.00221652
0.00225597
0.00229557
0.00233534
0.00237528
0.00241539
0.00245568
0.00249615
0.00253682
0.00257768
0.00261873
0.00265999
0.00270145
0.0027431
0.00278495
0.002827
0.00286925
0.00291168
0.0029543
0.0029971
0.00304006
0.00308318
0.00312646
0.00316987
0.00321341
0.00325707
0.00330082
0.00334466
0.00338856
0.00343251
0.0034765
0.0035205
0.00356449
0.00360847
0.00365239
0.00369626
0.00374004
0.00378372
0.00382727
0.00387069
0.00391394
0.00395701
0.00399989
0.00404255
0.00408497
0.00412714
0.00416904
0.00421065
0.00425196
0.00429294
0.00433357
0.00437385
0.00441374
0.00445323
0.00449229
0.00453091
0.00456906
0.00460672
0.00464385
0.00468043
0.00471643
0.0047518
0.00478652
0.00482053
0.0048538
0.00488627
0.0049179
0.00494863
0.00497841
0.00500718
0.00503488
0.00506145
0.00508684
0.00511101
0.00513389
0.00515536
0.00517547
0.00519403
0.00521097
0.00522632
0.0052396
0.00525096
0.00526045
0.00526805
0.00527376
0.00527757
0.00527948
0.00527948
0.00527758
0.00527381
0.00526817
0.00526072
0.00525148
0.00524052
0.0052279
0.00521368
0.00519793
0.00518075
0.00516222
0.00514243
0.00512151
0.00509955
0.00507668
0.00505303
0.00502873
0.00500393
0.00497878
0.00495341
0.004928
0.0049027
0.00487767
0.00485308
0.00482909
0.00480587
0.00478357
0.00476234
0.00474231
0.00472361
0.00470633
0.00469058
0.00467643
0.00466396
0.00465324
0.00464435
0.00463733
0.00463225
0.00462913
0.00462789
0.00462813
0.00462879
0.00462827
1.746e-05
0.000135736
0.000277712
0.000403498
0.000509281
0.000598066
0.000672187
0.000734624
0.000787958
0.00083435
0.000875466
0.000912582
0.000946997
0.000979614
0.00101116
0.00104222
0.00107302
0.00110379
0.00113472
0.00116595
0.00119756
0.00122958
0.00126204
0.00129495
0.00132831
0.0013621
0.0013963
0.00143087
0.00146578
0.00150099
0.00153647
0.00157221
0.00160817
0.00164433
0.00168063
0.00171714
0.00175389
0.0017909
0.00182804
0.00186519
0.00190233
0.00193943
0.00197651
0.00201362
0.00205077
0.002088
0.00212533
0.00216276
0.00220031
0.002238
0.00227585
0.00231385
0.00235203
0.00239041
0.00242899
0.00246778
0.0025068
0.00254606
0.00258556
0.00262532
0.00266534
0.00270562