/*--------------------------------*- C++ -*----------------------------------*\
  =========                 |
  \\      /  F ield         | OpenFOAM: The Open Source CFD Toolbox
   \\    /   O peration     | Website:  https://openfoam.org
    \\  /    A nd           | Version:  8
     \\/     M anipulation  |
\*---------------------------------------------------------------------------*/
FoamFile
{
    version     2.0;
    format      ascii;
    class       volScalarField;
    location    "200";
    object      p;
}
// * * * * * * * * * * * * * * * * * * * * * * * * * * * * * * * * * * * * * //

dimensions      [0 2 -2 0 0 0 0];

internalField   nonuniform List<scalar> 
12225
(
-2.18183
-4.3704
-5.47036
-5.79098
-5.97221
-6.1412
-6.27272
-6.36785
-6.44444
-6.51181
-6.5718
-6.62665
-6.67642
-6.72274
-6.76586
-6.80108
-6.84456
-6.81149
-5.34526
-6.1137
-6.27412
-6.18183
-6.16926
-6.23708
-6.3146
-6.38031
-6.43991
-6.49733
-6.55194
-6.60283
-6.65069
-6.69571
-6.73882
-6.77626
-6.81953
-6.84676
-5.7464
-5.73139
-5.8587
-5.93702
-6.03187
-6.152
-6.25919
-6.34401
-6.41581
-6.48114
-6.54124
-6.59614
-6.64728
-6.69494
-6.74063
-6.78199
-6.82918
-6.86988
-5.62446
-5.56755
-5.8091
-5.96737
-6.06906
-6.17522
-6.27287
-6.35289
-6.4216
-6.48467
-6.54322
-6.59723
-6.64784
-6.6954
-6.7413
-6.78473
-6.83204
-6.87928
-5.61412
-5.63855
-5.86657
-6.00807
-6.09164
-6.18365
-6.27483
-6.3525
-6.42002
-6.48222
-6.54032
-6.59429
-6.64509
-6.69318
-6.73985
-6.78515
-6.83296
-6.88307
-5.67207
-5.72101
-5.89524
-6.0191
-6.10056
-6.18834
-6.27633
-6.3528
-6.41973
-6.4814
-6.53916
-6.59309
-6.64398
-6.69245
-6.73959
-6.78591
-6.83384
-6.88413
-5.7324
-5.77664
-5.91178
-6.02805
-6.11174
-6.19582
-6.27969
-6.35428
-6.42032
-6.48129
-6.53853
-6.59225
-6.6431
-6.69175
-6.73911
-6.78584
-6.83348
-6.8827
-5.78592
-5.82356
-5.93348
-6.04171
-6.12465
-6.2042
-6.28356
-6.35598
-6.42098
-6.48115
-6.5378
-6.59121
-6.64193
-6.69059
-6.73795
-6.78465
-6.83164
-6.87928
-5.83563
-5.86876
-5.95963
-6.05753
-6.13755
-6.21286
-6.28796
-6.35802
-6.42178
-6.48102
-6.53696
-6.58993
-6.64037
-6.68885
-6.73598
-6.78227
-6.82831
-6.87418
-5.88266
-5.9119
-5.98737
-6.07453
-6.15067
-6.22215
-6.2932
-6.36063
-6.42288
-6.48103
-6.5361
-6.58847
-6.63846
-6.68654
-6.73318
-6.77878
-6.82367
-6.86774
-5.92694
-5.95242
-6.01557
-6.09268
-6.1643
-6.23205
-6.29921
-6.36383
-6.42434
-6.48124
-6.53531
-6.58689
-6.63624
-6.68371
-6.72966
-6.77434
-6.81796
-6.86029
-5.96493
-5.98726
-6.04141
-6.11017
-6.17723
-6.24154
-6.3053
-6.36727
-6.42602
-6.48163
-6.53464
-6.58535
-6.63396
-6.68071
-6.72586
-6.76957
-6.81197
-6.85278
-6
-6.0197
-6.06648
-6.1278
-6.19023
-6.25116
-6.31169
-6.37103
-6.42793
-6.48216
-6.53404
-6.58378
-6.63153
-6.67744
-6.72169
-6.76437
-6.80555
-6.84495
-6.03674
-6.05392
-6.09389
-6.14784
-6.2051
-6.2622
-6.31925
-6.37566
-6.43036
-6.48291
-6.53338
-6.5819
-6.62854
-6.67338
-6.7165
-6.75795
-6.79774
-6.83567
-6.0739
-6.08867
-6.12262
-6.16966
-6.22148
-6.27441
-6.32779
-6.38104
-6.43323
-6.48379
-6.53257
-6.57961
-6.62488
-6.66839
-6.71017
-6.75021
-6.7885
-6.82489
-6.1095
-6.12211
-6.15101
-6.19192
-6.23844
-6.28709
-6.33678
-6.38678
-6.43625
-6.48457
-6.53144
-6.57674
-6.62041
-6.66238
-6.70263
-6.74112
-6.77786
-6.81271
-6.14064
-6.15151
-6.17644
-6.21235
-6.2542
-6.29888
-6.34508
-6.39198
-6.43874
-6.48473
-6.52955
-6.57298
-6.6149
-6.6552
-6.69382
-6.73072
-6.76589
-6.79926
-6.16298
-6.17262
-6.19487
-6.22731
-6.26573
-6.30735
-6.35076
-6.39509
-6.43952
-6.48341
-6.5263
-6.56793
-6.60814
-6.6468
-6.68383
-6.7192
-6.75288
-6.78487
-6.16961
-6.17876
-6.19997
-6.2311
-6.26818
-6.30844
-6.35047
-6.3934
-6.43644
-6.47894
-6.52046
-6.56072
-6.59956
-6.63687
-6.67258
-6.70667
-6.73912
-6.76996
-6.15336
-6.16313
-6.18573
-6.2188
-6.25779
-6.29947
-6.34241
-6.38591
-6.42925
-6.4718
-6.51312
-6.55301
-6.59135
-6.62807
-6.66312
-6.69651
-6.72824
-6.75838
-6.12643
-6.13723
-6.16249
-6.19951
-6.24227
-6.28677
-6.33184
-6.37705
-6.42166
-6.46499
-6.50673
-6.5468
-6.58516
-6.62174
-6.65657
-6.68966
-6.72107
-6.75087
-6.09116
-6.10298
-6.13233
-6.17591
-6.22418
-6.27215
-6.31995
-6.36765
-6.41418
-6.45874
-6.50124
-6.54177
-6.58036
-6.61701
-6.65178
-6.68473
-6.71595
-6.74554
-6.05058
-6.06248
-6.09693
-6.15019
-6.20573
-6.25768
-6.30855
-6.35897
-6.40746
-6.45332
-6.49672
-6.53788
-6.57684
-6.61368
-6.64848
-6.68141
-6.71255
-6.74204
-6.00685
-6.01783
-6.0596
-6.12402
-6.18619
-6.24286
-6.29846
-6.3523
-6.40254
-6.44934
-6.49344
-6.53509
-6.57433
-6.61125
-6.64607
-6.67893
-6.70998
-6.73935
-5.95991
-5.96541
-6.02807
-6.10628
-6.16821
-6.22645
-6.28758
-6.34592
-6.39842
-6.44645
-6.49144
-6.53368
-6.57319
-6.6102
-6.64498
-6.67777
-6.70873
-6.73805
-5.91659
-5.88027
-5.9898
-6.10077
-6.16301
-6.21829
-6.28048
-6.3402
-6.39341
-6.4421
-6.4878
-6.53057
-6.57041
-6.60761
-6.6425
-6.67534
-6.70633
-6.73565
-5.93081
-5.77186
-5.90078
-6.05486
-6.14496
-6.21631
-6.28522
-6.34612
-6.39889
-6.44716
-6.49241
-6.53464
-6.5739
-6.61054
-6.64488
-6.67722
-6.7078
-6.73684
-6.054
-5.87362
-5.88779
-5.95992
-6.04828
-6.14749
-6.23817
-6.31193
-6.37361
-6.42873
-6.47901
-6.52476
-6.56653
-6.605
-6.64065
-6.67395
-6.70535
-6.73547
-5.76138
-6.35247
-6.4413
-6.31704
-6.2627
-6.28985
-6.33682
-6.38004
-6.42158
-6.46374
-6.50521
-6.54451
-6.58144
-6.61614
-6.64867
-6.67919
-6.7079
-6.73659
-2.77205
-4.53535
-5.54005
-5.83919
-5.98835
-6.13197
-6.24599
-6.32693
-6.39114
-6.44798
-6.49922
-6.54523
-6.58688
-6.62508
-6.66034
-6.69245
-6.72126
-6.74502
-7.64369
-7.64375
-7.64426
-7.64538
-7.64695
-7.64894
-7.65133
-7.6541
-7.65727
-7.66086
-7.6649
-7.66944
-7.67452
-7.68019
-7.68649
-7.69349
-7.70124
-7.70977
-7.71915
-7.72955
-7.74096
-7.75311
-7.76576
-7.77893
-7.79224
-7.80496
-7.81771
-7.83326
-7.85272
-7.87406
-7.89613
-7.91869
-7.94147
-7.9657
-7.98993
-8.01166
-8.03164
-8.05341
-8.07785
-8.10319
-8.12937
-8.1562
-8.18354
-8.21128
-8.23929
-8.26753
-8.29586
-8.32424
-8.35255
-8.38076
-8.40874
-8.43644
-8.46374
-8.49057
-8.51681
-8.54238
-8.56714
-8.591
-8.61382
-8.63549
-8.65585
-8.67478
-8.6921
-8.70769
-8.72134
-8.73294
-8.74226
-8.74916
-8.7534
-8.75485
-8.75323
-8.74841
-8.74013
-8.72821
-8.7124
-8.69252
-8.6683
-8.63956
-8.60602
-8.56751
-8.52376
-8.47458
-8.41971
-8.35897
-8.29212
-8.21896
-8.13927
-8.05287
-7.9596
-7.85938
-7.75223
-7.63815
-7.51695
-7.38811
-7.25123
-7.10634
-6.95355
-6.79291
-6.62443
-6.44815
-6.2641
-6.07234
-5.87297
-5.6661
-5.4519
-5.23054
-5.00225
-4.76726
-4.52585
-4.27832
-4.025
-3.76625
-3.50245
-3.23399
-2.96131
-2.68486
-2.40509
-2.12249
-1.83753
-1.55065
-1.26236
-0.973135
-0.683491
-0.393927
-0.104916
0.183106
0.469706
0.754456
1.03696
1.31684
1.59374
1.86733
2.13733
2.40347
2.66554
2.92333
3.17673
3.42563
3.67001
3.90979
4.14495
4.37552
4.60158
4.82328
5.04077
5.25424
5.4639
5.67001
5.87284
6.07269
6.26987
6.46476
6.65769
6.84909
7.03934
7.22888
7.41814
7.60759
7.79767
7.98886
8.1816
8.37637
8.57359
8.77368
8.97705
9.18418
9.39523
9.60994
9.8281
10.0499
10.2753
10.5042
10.7362
10.9707
11.2072
11.4451
11.6844
11.9247
12.1783
12.4346
-7.64142
-7.64197
-7.64278
-7.64367
-7.64449
-7.64537
-7.64656
-7.64819
-7.65032
-7.65297
-7.65618
-7.65994
-7.66426
-7.66916
-7.67468
-7.68083
-7.68762
-7.69506
-7.70318
-7.71193
-7.72112
-7.73073
-7.74116
-7.75249
-7.7645
-7.77781
-7.79393
-7.8117
-7.82804
-7.8434
-7.85924
-7.8761
-7.89552
-7.91696
-7.94012
-7.96652
-7.99631
-8.02599
-8.05315
-8.07994
-8.10683
-8.13397
-8.16138
-8.18905
-8.21691
-8.24494
-8.27304
-8.30118
-8.32925
-8.35722
-8.38497
-8.41245
-8.43956
-8.46622
-8.49232
-8.51777
-8.54244
-8.56626
-8.58906
-8.61075
-8.63117
-8.65021
-8.66768
-8.68346
-8.69736
-8.70925
-8.71891
-8.7262
-8.73089
-8.73283
-8.73178
-8.72757
-8.71997
-8.70878
-8.69378
-8.67476
-8.65148
-8.62373
-8.59127
-8.5539
-8.51138
-8.4635
-8.41002
-8.35076
-8.28548
-8.21399
-8.13608
-8.05157
-7.96025
-7.86199
-7.75664
-7.64395
-7.52367
-7.39578
-7.26038
-7.11739
-6.96668
-6.80819
-6.6419
-6.46783
-6.28599
-6.09646
-5.89931
-5.69465
-5.48264
-5.26345
-5.03727
-4.80436
-4.56497
-4.31939
-4.06794
-3.81098
-3.54887
-3.28201
-3.01082
-2.73573
-2.45722
-2.17574
-1.89176
-1.60574
-1.31818
-1.02956
-0.740386
-0.45114
-0.162316
0.125654
0.412332
0.697298
0.980138
1.26048
1.53796
1.81225
2.08305
2.35009
2.61313
2.87199
3.12651
3.3766
3.6222
3.86323
4.09966
4.3315
4.55883
4.78179
5.0005
5.21515
5.42595
5.63314
5.83697
6.03775
6.23579
6.43144
6.62503
6.81699
7.00768
7.19755
7.38702
7.57653
7.76655
7.95755
8.14994
8.34424
8.54089
8.7403
8.9428
9.14882
9.35848
9.57161
9.78818
10.0084
10.2322
10.4595
10.69
10.9232
11.1586
11.3959
11.6356
11.8767
12.1336
12.3824
-7.63537
-7.63703
-7.63935
-7.64112
-7.6422
-7.64303
-7.64397
-7.64525
-7.64699
-7.64925
-7.65206
-7.65545
-7.65942
-7.66399
-7.66918
-7.67502
-7.68151
-7.68867
-7.69649
-7.70498
-7.71402
-7.72359
-7.73378
-7.74481
-7.75695
-7.77074
-7.78661
-7.80407
-7.82187
-7.83971
-7.8579
-7.87657
-7.8959
-7.91582
-7.9366
-7.95928
-7.98406
-8.00992
-8.03584
-8.06197
-8.08838
-8.11506
-8.142
-8.16916
-8.1965
-8.22397
-8.25153
-8.27912
-8.30666
-8.3341
-8.36135
-8.38836
-8.41502
-8.44127
-8.46698
-8.49208
-8.51646
-8.54
-8.56258
-8.58408
-8.60437
-8.62332
-8.64076
-8.65655
-8.67053
-8.68254
-8.69239
-8.69993
-8.70494
-8.70725
-8.70666
-8.70296
-8.69596
-8.68544
-8.67118
-8.65298
-8.6306
-8.60383
-8.57244
-8.53622
-8.49493
-8.44836
-8.3963
-8.33852
-8.27482
-8.205
-8.12886
-8.0462
-7.95684
-7.86064
-7.75741
-7.64693
-7.52895
-7.40341
-7.27034
-7.1297
-6.98141
-6.82541
-6.66167
-6.49017
-6.31094
-6.12402
-5.92949
-5.72745
-5.51805
-5.30144
-5.07783
-4.84743
-4.6105
-4.36732
-4.11821
-3.86349
-3.60354
-3.33874
-3.06949
-2.79624
-2.51942
-2.23951
-1.95696
-1.67224
-1.38582
-1.09822
-0.809923
-0.521384
-0.233101
0.0544672
0.340886
0.625744
0.908626
1.18916
1.46696
1.74171
2.01309
2.28083
2.54468
2.80444
3.05995
3.3111
3.55781
3.79999
4.03761
4.27065
4.49921
4.72335
4.94325
5.15903
5.37091
5.57911
5.78388
5.9855
6.18428
6.38053
6.57463
6.76693
6.95784
7.14774
7.33709
7.52629
7.71583
7.90615
8.0977
8.29092
8.48632
8.68435
8.88536
9.08969
9.29752
9.50881
9.7236
9.94201
10.1641
10.3897
10.6186
10.8505
11.0851
11.322
11.5624
11.8044
12.0639
12.2988
-7.62622
-7.62913
-7.63356
-7.63696
-7.63908
-7.64058
-7.64191
-7.64335
-7.64507
-7.6472
-7.64982
-7.65297
-7.65668
-7.66098
-7.66589
-7.67142
-7.67758
-7.68441
-7.69191
-7.70009
-7.70894
-7.71849
-7.72875
-7.73984
-7.75191
-7.76524
-7.77999
-7.79611
-7.81327
-7.83132
-7.85021
-7.86992
-7.89033
-7.91127
-7.93276
-7.95511
-7.97845
-8.00264
-8.0274
-8.05266
-8.07834
-8.1044
-8.13075
-8.15737
-8.18419
-8.21118
-8.23825
-8.26538
-8.29249
-8.31952
-8.34639
-8.37304
-8.39938
-8.42533
-8.45079
-8.47567
-8.49987
-8.52326
-8.54574
-8.56719
-8.58746
-8.60643
-8.62394
-8.63985
-8.65399
-8.66621
-8.67633
-8.68418
-8.68955
-8.69228
-8.69216
-8.68899
-8.68257
-8.67268
-8.65913
-8.64167
-8.62011
-8.59421
-8.56376
-8.52853
-8.4883
-8.44284
-8.39194
-8.33539
-8.27297
-8.20448
-8.12971
-8.04848
-7.96058
-7.86587
-7.76417
-7.65528
-7.53901
-7.41529
-7.28406
-7.14527
-6.99886
-6.84476
-6.68293
-6.51338
-6.3361
-6.15114
-5.95858
-5.7585
-5.55104
-5.33636
-5.11464
-4.8861
-4.65098
-4.40957
-4.16216
-3.90908
-3.6507
-3.38738
-3.11954
-2.8476
-2.572
-2.2932
-2.01166
-1.72783
-1.44221
-1.15531
-0.867595
-0.579534
-0.291588
-0.00424501
0.282057
0.56691
0.849906
1.13066
1.4088
1.68398
1.9559
2.22427
2.48883
2.74939
3.00577
3.25784
3.50552
3.74871
3.98737
4.22148
4.45111
4.67635
4.89732
5.11415
5.32706
5.53623
5.74193
5.9444
6.14397
6.34091
6.53561
6.72839
6.91965
7.10977
7.2992
7.48833
7.6776
7.86747
8.05842
8.25086
8.44525
8.64198
8.84141
9.0439
9.24968
9.45886
9.67156
9.8879
10.1079
10.3315
10.5584
10.7885
11.0216
11.2572
11.4967
11.7374
11.9945
12.2148
-7.61637
-7.62057
-7.62726
-7.63251
-7.63595
-7.63844
-7.64051
-7.64246
-7.64452
-7.64686
-7.6496
-7.65282
-7.65656
-7.66088
-7.66578
-7.67131
-7.67748
-7.68432
-7.69184
-7.70007
-7.70904
-7.71878
-7.72933
-7.74079
-7.75321
-7.7667
-7.78131
-7.79702
-7.81375
-7.83143
-7.85005
-7.86957
-7.88991
-7.91099
-7.93272
-7.95514
-7.97821
-8.00189
-8.02609
-8.05078
-8.07591
-8.10142
-8.12727
-8.15341
-8.17978
-8.20634
-8.23301
-8.25976
-8.28652
-8.31322
-8.33979
-8.36617
-8.39227
-8.41801
-8.44329
-8.46802
-8.4921
-8.51542
-8.53785
-8.55929
-8.57959
-8.59862
-8.61623
-8.63228
-8.6466
-8.65903
-8.6694
-8.67754
-8.68325
-8.68635
-8.68664
-8.68393
-8.678
-8.66865
-8.65567
-8.63884
-8.61794
-8.59275
-8.56304
-8.5286
-8.48919
-8.44461
-8.39462
-8.33901
-8.27757
-8.21008
-8.13636
-8.05619
-7.96939
-7.87579
-7.77523
-7.66753
-7.55252
-7.43011
-7.30019
-7.16272
-7.01761
-6.86482
-6.70429
-6.53604
-6.36005
-6.17637
-5.98507
-5.78624
-5.58001
-5.36652
-5.14597
-4.91856
-4.68453
-4.44415
-4.19773
-3.94559
-3.68808
-3.42558
-3.1585
-2.88724
-2.61227
-2.33402
-2.05295
-1.76953
-1.48426
-1.19763
-0.910139
-0.622238
-0.334372
-0.0470329
0.239334
0.524311
0.807506
1.08851
1.36697
1.64252
1.91486
2.18369
2.44877
2.70987
2.96684
3.21953
3.46781
3.71163
3.95089
4.18565
4.41591
4.64178
4.86335
5.08078
5.29423
5.50395
5.71011
5.91304
6.11296
6.31024
6.50517
6.69815
6.88949
7.07961
7.26891
7.45784
7.64678
7.83619
8.0265
8.21815
8.41156
8.60714
8.80524
9.0062
9.21028
9.41769
9.62859
9.84314
10.0614
10.2832
10.5085
10.737
10.9686
11.2028
11.4406
11.6789
11.9314
12.1385
-7.60778
-7.61319
-7.62185
-7.62879
-7.63355
-7.63712
-7.64007
-7.64272
-7.64534
-7.64812
-7.65121
-7.65471
-7.65871
-7.66325
-7.66837
-7.67412
-7.68052
-7.68761
-7.69539
-7.70391
-7.71319
-7.72327
-7.7342
-7.74602
-7.7588
-7.77257
-7.78735
-7.80312
-7.81982
-7.83741
-7.85585
-7.87511
-7.89514
-7.91591
-7.93737
-7.95949
-7.98222
-8.00551
-8.02931
-8.05358
-8.07828
-8.10337
-8.12881
-8.15456
-8.18056
-8.20677
-8.23312
-8.25958
-8.28606
-8.31252
-8.33888
-8.36507
-8.39101
-8.41662
-8.44181
-8.46647
-8.49051
-8.51382
-8.53628
-8.55777
-8.57816
-8.5973
-8.61507
-8.63129
-8.64582
-8.6585
-8.66914
-8.67757
-8.68361
-8.68707
-8.68775
-8.68546
-8.67998
-8.67111
-8.65864
-8.64234
-8.622
-8.5974
-8.56831
-8.53451
-8.49578
-8.45189
-8.40262
-8.34775
-8.28707
-8.22037
-8.14744
-8.06808
-7.98211
-7.88934
-7.78964
-7.6828
-7.56869
-7.44718
-7.31819
-7.18161
-7.03739
-6.88546
-6.72579
-6.55837
-6.38319
-6.20031
-6.00977
-5.81168
-5.60616
-5.39334
-5.17343
-4.94661
-4.71314
-4.47328
-4.22732
-3.9756
-3.71846
-3.45628
-3.18947
-2.91845
-2.64365
-2.36552
-2.08453
-1.80116
-1.51589
-1.22922
-0.94166
-0.653668
-0.365683
-0.0781759
0.20839
0.493603
0.777055
1.05835
1.33711
1.61298
1.88565
2.15482
2.42024
2.6817
2.93901
3.19203
3.44063
3.68472
3.92425
4.15925
4.38972
4.61578
4.83751
5.05505
5.26857
5.4783
5.68445
5.8873
6.08711
6.2842
6.47887
6.67152
6.86248
7.05215
7.24092
7.42922
7.61746
7.80609
7.99552
8.18619
8.37854
8.57296
8.76982
8.96943
9.1721
9.37806
9.58753
9.80066
10.0175
10.238
10.4621
10.6894
10.9198
11.1528
11.3891
11.6247
11.8725
12.0683
-7.60184
-7.60824
-7.61838
-7.62669
-7.63264
-7.63723
-7.64106
-7.64446
-7.64772
-7.65104
-7.65461
-7.65853
-7.6629
-7.66779
-7.67326
-7.67935
-7.68609
-7.69352
-7.70166
-7.71055
-7.7202
-7.73065
-7.74194
-7.75409
-7.76714
-7.78112
-7.79602
-7.81184
-7.82853
-7.84606
-7.8644
-7.8835
-7.90333
-7.92386
-7.94505
-7.96688
-7.98929
-8.01226
-8.03573
-8.05967
-8.08405
-8.10882
-8.13396
-8.15942
-8.18514
-8.2111
-8.23722
-8.26347
-8.28978
-8.31609
-8.34233
-8.36842
-8.39429
-8.41986
-8.44503
-8.46972
-8.4938
-8.51718
-8.53973
-8.56135
-8.58188
-8.6012
-8.61915
-8.6356
-8.65037
-8.66331
-8.67424
-8.68298
-8.68935
-8.69316
-8.69421
-8.69231
-8.68724
-8.67879
-8.66676
-8.65092
-8.63106
-8.60695
-8.57837
-8.54508
-8.50688
-8.46353
-8.41482
-8.36051
-8.30041
-8.23429
-8.16195
-8.08318
-7.9978
-7.90564
-7.80652
-7.70028
-7.58678
-7.46587
-7.33746
-7.20145
-7.05778
-6.90638
-6.74721
-6.58026
-6.40553
-6.22306
-6.03291
-5.83517
-5.62996
-5.41744
-5.19776
-4.97115
-4.73784
-4.49811
-4.25223
-4.00055
-3.74341
-3.4812
-3.21432
-2.94318
-2.66823
-2.38993
-2.10874
-1.82514
-1.53963
-1.25271
-0.964875
-0.67661
-0.38836
-0.100571
0.186294
0.471817
0.755576
1.03719
1.31625
1.59242
1.86537
2.13481
2.40047
2.66215
2.91966
3.17282
3.42154
3.6657
3.90527
4.14024
4.37067
4.59661
4.8182
5.03554
5.24882
5.45822
5.664
5.86639
6.06571
6.26221
6.45627
6.6482
6.8384
7.02721
7.21508
7.4024
7.58961
7.77713
7.96541
8.15488
8.34598
8.5391
8.73464
8.93291
9.13423
9.33887
9.54707
9.75899
9.9747
10.1942
10.4172
10.6437
10.8732
11.1051
11.3398
11.5729
11.8168
12.0031
-7.59932
-7.60639
-7.6175
-7.6268
-7.63367
-7.63913
-7.64375
-7.64786
-7.65175
-7.65564
-7.65971
-7.6641
-7.6689
-7.6742
-7.68006
-7.68652
-7.69363
-7.70142
-7.70993
-7.71917
-7.72917
-7.73996
-7.75156
-7.76399
-7.77726
-7.7914
-7.80638
-7.82222
-7.83888
-7.85634
-7.87456
-7.89353
-7.91319
-7.93354
-7.95452
-7.97612
-7.9983
-8.02103
-8.04426
-8.06797
-8.09212
-8.11668
-8.14161
-8.16688
-8.19243
-8.21824
-8.24424
-8.27038
-8.29661
-8.32286
-8.34907
-8.37516
-8.40106
-8.42667
-8.45191
-8.47669
-8.50089
-8.5244
-8.54712
-8.56891
-8.58964
-8.60918
-8.62737
-8.64406
-8.65911
-8.67233
-8.68355
-8.6926
-8.69929
-8.70343
-8.70482
-8.70327
-8.69856
-8.69049
-8.67883
-8.66338
-8.6439
-8.62019
-8.592
-8.55913
-8.52133
-8.47839
-8.43008
-8.37619
-8.31649
-8.25077
-8.17884
-8.10047
-8.01548
-7.92369
-7.82495
-7.71908
-7.60592
-7.48536
-7.35727
-7.22156
-7.07816
-6.927
-6.76804
-6.60127
-6.42668
-6.24433
-6.05426
-5.85657
-5.65138
-5.43882
-5.21909
-4.99238
-4.75893
-4.51902
-4.27293
-4.02101
-3.76359
-3.50107
-3.23386
-2.96236
-2.68704
-2.40834
-2.12674
-1.84273
-1.55681
-1.26949
-0.981251
-0.692601
-0.403994
-0.115862
0.171351
0.457207
0.741294
1.02321
1.30255
1.57897
1.85214
2.12176
2.38758
2.64937
2.90694
3.16012
3.4088
3.65288
3.89233
4.12713
4.35733
4.58299
4.80423
5.02116
5.23397
5.44284
5.64803
5.84977
6.04835
6.24406
6.43724
6.62824
6.81743
7.00518
7.19193
7.37806
7.56403
7.75026
7.9372
8.1253
8.315
8.50671
8.70082
8.8977
9.09766
9.301
9.50796
9.71875
9.93341
10.1519
10.3741
10.5998
10.8285
11.0594
11.2927
11.5235
11.764
11.9428
-7.60043
-7.60786
-7.61943
-7.62931
-7.63683
-7.64294
-7.64819
-7.6529
-7.65735
-7.66175
-7.6663
-7.67113
-7.67634
-7.68203
-7.68826
-7.69508
-7.70252
-7.71065
-7.71946
-7.729
-7.73929
-7.75035
-7.76218
-7.77482
-7.78826
-7.80251
-7.81756
-7.83341
-7.85004
-7.86743
-7.88556
-7.90441
-7.92394
-7.94413
-7.96496
-7.9864
-8.00842
-8.03098
-8.05406
-8.07762
-8.10163
-8.12607
-8.15089
-8.17607
-8.20156
-8.22731
-8.25328
-8.27941
-8.30565
-8.33194
-8.3582
-8.38438
-8.41037
-8.43611
-8.46149
-8.48642
-8.5108
-8.53451
-8.55744
-8.57945
-8.60042
-8.6202
-8.63865
-8.65562
-8.67093
-8.68443
-8.69595
-8.70529
-8.71228
-8.71672
-8.71842
-8.71717
-8.71276
-8.70499
-8.69364
-8.6785
-8.65932
-8.63591
-8.60802
-8.57543
-8.53792
-8.49526
-8.44722
-8.39359
-8.33415
-8.26868
-8.19698
-8.11883
-8.03404
-7.94246
-7.84389
-7.73818
-7.62517
-7.50473
-7.37674
-7.2411
-7.09774
-6.94659
-6.7876
-6.62077
-6.4461
-6.26362
-6.07339
-5.8755
-5.67007
-5.45725
-5.23721
-5.01015
-4.77634
-4.53601
-4.2895
-4.0371
-3.7792
-3.51617
-3.24843
-2.9764
-2.70052
-2.42127
-2.13913
-1.85459
-1.56816
-1.28034
-0.991634
-0.702541
-0.41354
-0.125047
0.16251
0.448682
0.733068
1.01523
1.29479
1.57138
1.84467
2.11438
2.38025
2.64203
2.89953
3.1526
3.40108
3.64493
3.88407
4.11853
4.34831
4.57352
4.79421
5.01056
5.22269
5.43086
5.63525
5.83615
6.03381
6.22857
6.42072
6.61064
6.79868
6.98526
7.17075
7.35559
7.54022
7.72508
7.91061
8.09728
8.28553
8.4758
8.66848
8.86397
9.0626
9.26469
9.4705
9.68022
9.89395
10.1116
10.3331
10.558
10.786
11.016
11.248
11.4765
11.7143
11.8873
-7.60503
-7.61252
-7.62409
-7.63416
-7.64203
-7.64856
-7.65426
-7.65942
-7.66429
-7.66911
-7.67405
-7.67924
-7.6848
-7.69081
-7.69734
-7.70445
-7.71217
-7.72054
-7.7296
-7.73937
-7.74986
-7.7611
-7.7731
-7.78587
-7.79941
-7.81372
-7.82881
-7.84466
-7.86126
-7.87861
-7.89667
-7.91543
-7.93486
-7.95496
-7.97569
-7.99704
-8.01896
-8.04144
-8.06444
-8.08794
-8.1119
-8.1363
-8.16111
-8.18628
-8.21178
-8.23757
-8.2636
-8.28981
-8.31614
-8.34255
-8.36894
-8.39526
-8.42142
-8.44734
-8.47292
-8.49806
-8.52266
-8.54661
-8.56977
-8.59203
-8.61325
-8.63329
-8.652
-8.66923
-8.6848
-8.69857
-8.71034
-8.71994
-8.72718
-8.73187
-8.73382
-8.73281
-8.72864
-8.72109
-8.70996
-8.69502
-8.67605
-8.65283
-8.62512
-8.59271
-8.55536
-8.51286
-8.46496
-8.41146
-8.35213
-8.28676
-8.21514
-8.13706
-8.05233
-7.96076
-7.86221
-7.75649
-7.64345
-7.52294
-7.39487
-7.25912
-7.11561
-6.96428
-6.80508
-6.638
-6.46304
-6.28024
-6.08966
-5.89139
-5.68553
-5.47225
-5.25172
-5.02414
-4.78977
-4.54887
-4.30175
-4.04873
-3.79019
-3.52651
-3.25811
-2.98541
-2.70887
-2.42897
-2.1462
-1.86107
-1.57407
-1.28572
-0.996512
-0.70697
-0.417571
-0.128728
0.159129
0.445574
0.730199
1.01257
1.29228
1.56895
1.84228
2.11197
2.37775
2.6394
2.89669
3.14946
3.3976
3.64104
3.87971
4.11363
4.34281
4.56734
4.7873
5.00285
5.21414
5.4214
5.62483
5.82471
6.02131
6.21495
6.40595
6.59467
6.78146
6.96674
7.15091
7.33439
7.51763
7.70107
7.88517
8.07039
8.2572
8.44603
8.63732
8.83146
9.02883
9.22974
9.43448
9.64324
9.85612
10.073
10.2938
10.5181
10.7454
10.9746
11.2054
11.4321
11.6675
11.836
-7.6127
-7.61999
-7.63116
-7.64108
-7.64902
-7.65573
-7.66166
-7.66709
-7.67225
-7.67735
-7.68256
-7.68802
-7.69382
-7.70006
-7.7068
-7.7141
-7.722
-7.73054
-7.73975
-7.74966
-7.76027
-7.77162
-7.7837
-7.79654
-7.81012
-7.82447
-7.83956
-7.85541
-7.87199
-7.88929
-7.90731
-7.92602
-7.94541
-7.96546
-7.98615
-8.00746
-8.02935
-8.05182
-8.07482
-8.09833
-8.12232
-8.14677
-8.17164
-8.19689
-8.22249
-8.24839
-8.27455
-8.3009
-8.3274
-8.35397
-8.38056
-8.40708
-8.43345
-8.45959
-8.48539
-8.51077
-8.53561
-8.55979
-8.5832
-8.6057
-8.62716
-8.64743
-8.66637
-8.68383
-8.69962
-8.7136
-8.72557
-8.73536
-8.74279
-8.74765
-8.74975
-8.7489
-8.74486
-8.73745
-8.72643
-8.7116
-8.69272
-8.66957
-8.64193
-8.60957
-8.57226
-8.52978
-8.4819
-8.42839
-8.36904
-8.30363
-8.23196
-8.15381
-8.06898
-7.97731
-7.87862
-7.77275
-7.65953
-7.53882
-7.41051
-7.27449
-7.13069
-6.97903
-6.81947
-6.65199
-6.47661
-6.29335
-6.10227
-5.90347
-5.69705
-5.48318
-5.26203
-5.03381
-4.79877
-4.55718
-4.30934
-4.0556
-3.79633
-3.53191
-3.26277
-2.98934
-2.71208
-2.43149
-2.14807
-1.86232
-1.57474
-1.28584
-0.996144
-0.706166
-0.416378
-0.127209
0.160908
0.447569
0.732358
1.01485
1.29461
1.57127
1.84452
2.11405
2.37961
2.64093
2.89783
3.15013
3.39774
3.64056
3.87857
4.11173
4.34011
4.56376
4.7828
4.99735
5.20762
5.41378
5.61609
5.81478
6.01018
6.20256
6.39227
6.57966
6.76512
6.94901
7.13179
7.31385
7.49567
7.67767
7.86034
8.04414
8.22955
8.41701
8.60698
8.79987
8.99607
9.19592
9.39971
9.60764
9.81979
10.0361
10.2564
10.4802
10.7069
10.9353
11.165
11.3901
11.6237
11.7889
-7.62286
-7.62973
-7.64021
-7.64967
-7.65741
-7.66407
-7.67004
-7.67556
-7.68083
-7.68607
-7.69142
-7.697
-7.70292
-7.70927
-7.71611
-7.7235
-7.73148
-7.74009
-7.74936
-7.75931
-7.76997
-7.78135
-7.79346
-7.80631
-7.81991
-7.83425
-7.84935
-7.86518
-7.88175
-7.89904
-7.91704
-7.93575
-7.95513
-7.97518
-7.99588
-8.0172
-8.03912
-8.06163
-8.08469
-8.10829
-8.13238
-8.15694
-8.18194
-8.20734
-8.2331
-8.25917
-8.2855
-8.31205
-8.33874
-8.36552
-8.39232
-8.41906
-8.44566
-8.47202
-8.49805
-8.52365
-8.5487
-8.5731
-8.59671
-8.6194
-8.64105
-8.6615
-8.6806
-8.6982
-8.71413
-8.72823
-8.74031
-8.7502
-8.7577
-8.76263
-8.76479
-8.76396
-8.75996
-8.75255
-8.74153
-8.72667
-8.70776
-8.68457
-8.65687
-8.62443
-8.58704
-8.54445
-8.49646
-8.44282
-8.38333
-8.31776
-8.24591
-8.16756
-8.08253
-7.99062
-7.89169
-7.78555
-7.67203
-7.551
-7.42235
-7.28596
-7.14175
-6.98965
-6.82963
-6.66166
-6.48575
-6.30194
-6.11028
-5.91086
-5.7038
-5.48926
-5.26742
-5.03848
-4.80271
-4.56037
-4.31178
-4.05728
-3.79724
-3.53205
-3.26214
-2.98795
-2.70997
-2.42868
-2.14459
-1.85822
-1.57006
-1.28064
-0.990482
-0.700099
-0.409961
-0.120528
0.167772
0.454538
0.739378
1.02185
1.30152
1.57803
1.85103
2.12023
2.38536
2.64619
2.9025
3.15415
3.40103
3.64305
3.88019
4.11242
4.3398
4.56239
4.78032
4.99371
5.20277
5.40767
5.60869
5.80607
6.00011
6.19111
6.37942
6.56539
6.7494
6.93185
7.11317
7.29378
7.47414
7.65471
7.83595
8.01836
8.2024
8.38856
8.57729
8.76902
8.96416
9.16307
9.36602
9.57324
9.7848
10.0006
10.2204
10.4438
10.6701
10.8979
11.1267
11.3505
11.5825
11.7455
-7.63486
-7.64116
-7.65071
-7.65948
-7.66681
-7.6732
-7.679
-7.68442
-7.68964
-7.69484
-7.70016
-7.70573
-7.71164
-7.71797
-7.72479
-7.73216
-7.74011
-7.7487
-7.75794
-7.76787
-7.77851
-7.78987
-7.80196
-7.8148
-7.82838
-7.84272
-7.8578
-7.87364
-7.8902
-7.9075
-7.92552
-7.94424
-7.96364
-7.98372
-8.00445
-8.02583
-8.04782
-8.07042
-8.0936
-8.11733
-8.14157
-8.1663
-8.19148
-8.21706
-8.243
-8.26926
-8.29579
-8.32253
-8.34942
-8.3764
-8.40339
-8.43033
-8.45711
-8.48365
-8.50985
-8.53561
-8.56081
-8.58534
-8.60906
-8.63186
-8.65359
-8.6741
-8.69325
-8.71088
-8.72683
-8.74092
-8.75298
-8.76283
-8.77027
-8.77513
-8.7772
-8.77627
-8.77215
-8.76462
-8.75345
-8.73844
-8.71937
-8.696
-8.66811
-8.63548
-8.59788
-8.55508
-8.50685
-8.45297
-8.39323
-8.3274
-8.25527
-8.17664
-8.09129
-7.99908
-7.89981
-7.79331
-7.67942
-7.558
-7.42893
-7.2921
-7.14743
-6.99485
-6.83432
-6.66582
-6.48935
-6.30495
-6.11267
-5.91262
-5.7049
-5.48967
-5.26712
-5.03745
-4.80094
-4.55783
-4.30847
-4.05319
-3.79237
-3.52641
-3.25574
-2.98081
-2.70212
-2.42016
-2.13544
-1.84849
-1.55982
-1.26995
-0.979421
-0.688718
-0.398343
-0.108774
0.179564
0.466282
0.751007
1.03329
1.31271
1.58886
1.86143
2.13011
2.39462
2.65474
2.91027
3.16107
3.40701
3.64804
3.8841
4.11521
4.34139
4.56275
4.77937
4.99144
5.19911
5.40262
5.60219
5.79812
5.99067
6.18019
6.367
6.55147
6.73397
6.91493
7.09476
7.2739
7.45281
7.63196
7.81182
7.99289
8.17565
8.3606
8.54819
8.73889
8.93311
9.13121
9.33349
9.54014
9.75126
9.96672
10.1863
10.4094
10.6353
10.8627
11.0907
11.3134
11.5442
11.7058
-7.64808
-7.65372
-7.66219
-7.6701
-7.67682
-7.68275
-7.68818
-7.6933
-7.69827
-7.70326
-7.70839
-7.71379
-7.71954
-7.72572
-7.73241
-7.73965
-7.7475
-7.75599
-7.76514
-7.775
-7.78556
-7.79686
-7.8089
-7.8217
-7.83525
-7.84956
-7.86462
-7.88044
-7.897
-7.9143
-7.93232
-7.95107
-7.97051
-7.99064
-8.01144
-8.03291
-8.05502
-8.07775
-8.10107
-8.12495
-8.14936
-8.17425
-8.1996
-8.22534
-8.25145
-8.27786
-8.30454
-8.33142
-8.35845
-8.38556
-8.41267
-8.43971
-8.46658
-8.49319
-8.51944
-8.54523
-8.57044
-8.59495
-8.61865
-8.64139
-8.66304
-8.68346
-8.70249
-8.71999
-8.73577
-8.74969
-8.76156
-8.7712
-8.77843
-8.78306
-8.78489
-8.78371
-8.77932
-8.77152
-8.76008
-8.7448
-8.72543
-8.70178
-8.6736
-8.64067
-8.60277
-8.55966
-8.51113
-8.45694
-8.39687
-8.33072
-8.25826
-8.1793
-8.09361
-8.00104
-7.9014
-7.79452
-7.68024
-7.5584
-7.4289
-7.29162
-7.14648
-6.99342
-6.83237
-6.66334
-6.48631
-6.30132
-6.10844
-5.90776
-5.69939
-5.48349
-5.26025
-5.02988
-4.79264
-4.54881
-4.29871
-4.0427
-3.78115
-3.51446
-3.24309
-2.9675
-2.68818
-2.40563
-2.12039
-1.83297
-1.54391
-1.25372
-0.962928
-0.672041
-0.38159
-0.0920529
0.196148
0.482638
0.767048
1.04895
1.3279
1.60351
1.87543
2.14336
2.40704
2.66624
2.92077
3.1705
3.41531
3.65513
3.88993
4.11972
4.34453
4.56447
4.77963
4.9902
5.19635
5.39831
5.59633
5.79068
5.98167
6.16961
6.35485
6.53775
6.71872
6.89815
7.07648
7.25416
7.43164
7.60941
7.78795
7.96775
8.14932
8.33315
8.51974
8.70953
8.90296
9.1004
9.30214
9.50838
9.71919
9.93444
10.1538
10.3768
10.6025
10.8295
11.057
11.2788
11.5086
11.6695
-7.66198
-7.66689
-7.67423
-7.68115
-7.6871
-7.69238
-7.69724
-7.70186
-7.70638
-7.71096
-7.71572
-7.72079
-7.72624
-7.73216
-7.73861
-7.74564
-7.75329
-7.76161
-7.77061
-7.78033
-7.79077
-7.80197
-7.81391
-7.82663
-7.84011
-7.85436
-7.86938
-7.88516
-7.90171
-7.919
-7.93704
-7.95581
-7.9753
-7.9955
-8.01638
-8.03794
-8.06015
-8.08299
-8.10641
-8.1304
-8.1549
-8.17989
-8.20531
-8.23113
-8.25728
-8.28374
-8.31044
-8.33733
-8.36435
-8.39143
-8.4185
-8.44546
-8.47224
-8.49874
-8.52485
-8.55047
-8.57549
-8.5998
-8.62325
-8.64574
-8.66711
-8.68724
-8.70596
-8.72312
-8.73857
-8.75214
-8.76365
-8.77292
-8.77978
-8.78403
-8.78547
-8.78391
-8.77915
-8.77096
-8.75915
-8.74348
-8.72374
-8.69972
-8.67117
-8.63788
-8.59962
-8.55616
-8.50727
-8.45274
-8.39233
-8.32583
-8.25305
-8.17374
-8.08772
-7.99479
-7.8948
-7.78755
-7.67289
-7.55066
-7.42076
-7.28306
-7.13749
-6.98398
-6.82247
-6.65295
-6.47541
-6.28991
-6.09648
-5.89523
-5.68629
-5.4698
-5.24594
-5.01496
-4.77709
-4.53262
-4.28189
-4.02525
-3.76307
-3.4958
-3.22385
-2.94773
-2.66792
-2.38495
-2.09933
-1.81162
-1.52232
-1.23197
-0.941089
-0.650223
-0.359901
-0.0706003
0.217258
0.503304
0.787174
1.06847
1.34672
1.62154
1.89258
2.15954
2.42216
2.68021
2.93353
3.18197
3.42545
3.66386
3.89722
4.12549
4.34877
4.56711
4.78068
4.98961
5.19412
5.39442
5.59079
5.78348
5.97283
6.15914
6.34277
6.52409
6.70351
6.88143
7.05829
7.23454
7.41065
7.58712
7.76442
7.94306
8.12356
8.30642
8.49213
8.68118
8.87397
9.07091
9.27227
9.47825
9.6889
9.90408
10.1234
10.3464
10.572
10.7988
11.0259
11.2471
11.4759
11.6368
-7.67669
-7.68088
-7.68707
-7.69292
-7.69792
-7.70233
-7.70637
-7.71022
-7.71405
-7.71799
-7.72218
-7.72672
-7.7317
-7.73719
-7.74326
-7.74995
-7.75729
-7.76533
-7.77409
-7.78358
-7.79382
-7.80484
-7.81662
-7.82918
-7.84253
-7.85666
-7.87158
-7.88728
-7.90375
-7.92098
-7.93896
-7.9577
-7.97716
-7.99735
-8.01823
-8.03978
-8.06197
-8.08477
-8.10814
-8.13206
-8.15648
-8.18137
-8.20667
-8.23235
-8.25835
-8.28463
-8.31113
-8.3378
-8.36458
-8.3914
-8.41817
-8.44482
-8.47125
-8.49738
-8.52309
-8.5483
-8.57288
-8.59672
-8.6197
-8.6417
-8.66258
-8.68219
-8.7004
-8.71705
-8.73197
-8.74502
-8.75601
-8.76477
-8.77111
-8.77486
-8.77581
-8.77377
-8.76853
-8.75988
-8.74762
-8.73152
-8.71137
-8.68693
-8.65801
-8.62433
-8.58571
-8.54188
-8.49267
-8.43781
-8.37709
-8.31029
-8.2372
-8.1576
-8.07127
-7.97805
-7.87775
-7.7702
-7.65523
-7.5327
-7.40247
-7.26445
-7.11854
-6.96467
-6.8028
-6.6329
-6.45498
-6.26906
-6.07522
-5.87355
-5.66416
-5.44722
-5.22291
-4.99146
-4.75312
-4.50819
-4.257
-3.99991
-3.73731
-3.46962
-3.19732
-2.92087
-2.6408
-2.35762
-2.07186
-1.78407
-1.49475
-1.20446
-0.913745
-0.623155
-0.333209
-0.0443913
0.242876
0.528221
0.811294
1.0917
1.369
1.64277
1.91267
2.1784
2.43971
2.69639
2.94827
3.19522
3.43715