/*--------------------------------*- C++ -*----------------------------------*\
  =========                 |
  \\      /  F ield         | OpenFOAM: The Open Source CFD Toolbox
   \\    /   O peration     | Website:  https://openfoam.org
    \\  /    A nd           | Version:  8
     \\/     M anipulation  |
\*---------------------------------------------------------------------------*/
FoamFile
{
    version     2.0;
    format      ascii;
    class       surfaceScalarField;
    location    "200";
    object      phi;
}
// * * * * * * * * * * * * * * * * * * * * * * * * * * * * * * * * * * * * * //

dimensions      [0 3 -1 0 0 0 0];

internalField   nonuniform List<scalar> 
24170
(
3.129e-06
5.9401e-08
3.04662e-06
8.23797e-08
2.97353e-06
7.30933e-08
2.90489e-06
6.8635e-08
2.84055e-06
6.43314e-08
2.78322e-06
5.73278e-08
2.73389e-06
4.9328e-08
2.69193e-06
4.19568e-08
2.65625e-06
3.56802e-08
2.62579e-06
3.04542e-08
2.59958e-06
2.62095e-08
2.57678e-06
2.28047e-08
2.5567e-06
2.00721e-08
2.53878e-06
1.79147e-08
2.52263e-06
1.6152e-08
2.50716e-06
1.54631e-08
2.49284e-06
1.43243e-08
2.00884e-08
2.47275e-06
3.45306e-06
2.35858e-08
3.457e-06
7.84374e-08
3.45054e-06
7.95536e-08
3.43908e-06
8.00914e-08
3.4243e-06
7.91099e-08
3.40705e-06
7.45783e-08
3.38782e-06
6.85488e-08
3.36729e-06
6.2486e-08
3.34614e-06
5.68317e-08
3.32495e-06
5.16423e-08
3.3042e-06
4.69499e-08
3.28418e-06
4.28239e-08
3.26508e-06
3.91739e-08
3.24693e-06
3.60661e-08
3.22981e-06
3.32669e-08
3.21368e-06
3.15901e-08
3.19885e-06
2.91484e-08
3.14686e-08
3.18747e-06
3.66816e-06
1.79429e-08
3.6792e-06
6.73963e-08
3.68542e-06
7.33265e-08
3.68946e-06
7.60579e-08
3.69105e-06
7.75134e-08
3.69008e-06
7.55462e-08
3.68694e-06
7.16879e-08
3.68209e-06
6.73305e-08
3.67594e-06
6.2988e-08
3.66879e-06
5.87876e-08
3.66093e-06
5.48058e-08
3.65261e-06
5.1144e-08
3.64401e-06
4.7774e-08
3.63528e-06
4.47908e-08
3.62649e-06
4.20526e-08
3.61803e-06
4.00552e-08
3.6093e-06
3.7871e-08
3.76649e-08
3.60311e-06
3.92585e-06
1.74825e-08
3.93592e-06
5.73257e-08
3.94257e-06
6.66756e-08
3.9481e-06
7.0518e-08
3.95252e-06
7.31003e-08
3.95546e-06
7.26e-08
3.95712e-06
7.0021e-08
3.95775e-06
6.67006e-08
3.95753e-06
6.32064e-08
3.95661e-06
5.97076e-08
3.95512e-06
5.6294e-08
3.95318e-06
5.30787e-08
3.95089e-06
5.00649e-08
3.94834e-06
4.73374e-08
3.94557e-06
4.48222e-08
3.94285e-06
4.27736e-08
3.93992e-06
4.07965e-08
3.95064e-08
3.93808e-06
4.2082e-06
1.64105e-08
4.21598e-06
4.9541e-08
4.22168e-06
6.09786e-08
4.22678e-06
6.54143e-08
4.23152e-06
6.83539e-08
4.23549e-06
6.86313e-08
4.23866e-06
6.68565e-08
4.24113e-06
6.42286e-08
4.24301e-06
6.1321e-08
4.24439e-06
5.83213e-08
4.24536e-06
5.53273e-08
4.24599e-06
5.24497e-08
4.24633e-06
4.97169e-08
4.24648e-06
4.71949e-08
4.24645e-06
4.48511e-08
4.24641e-06
4.28034e-08
4.24634e-06
4.08717e-08
3.91482e-08
4.2467e-06
4.51071e-06
1.47881e-08
4.51688e-06
4.3368e-08
4.52213e-06
5.57307e-08
4.52694e-06
6.05987e-08
4.53165e-06
6.36433e-08
4.53589e-06
6.43852e-08
4.53956e-06
6.31865e-08
4.54272e-06
6.10722e-08
4.54543e-06
5.86045e-08
4.54777e-06
5.59832e-08
4.54978e-06
5.3316e-08
4.55152e-06
5.07059e-08
4.55304e-06
4.81984e-08
4.55439e-06
4.58418e-08
4.55561e-06
4.36261e-08
4.55682e-06
4.15956e-08
4.55804e-06
3.96551e-08
3.77451e-08
4.55944e-06
4.83433e-06
1.31784e-08
4.83963e-06
3.80708e-08
4.84475e-06
5.06071e-08
4.84945e-06
5.58969e-08
4.85408e-06
5.90127e-08
4.85839e-06
6.00709e-08
4.86226e-06
5.93182e-08
4.86572e-06
5.76123e-08
4.86882e-06
5.54956e-08
4.87163e-06
5.31795e-08
4.87416e-06
5.07793e-08
4.87647e-06
4.83913e-08
4.8786e-06
4.60701e-08
4.88059e-06
4.38522e-08
4.88248e-06
4.17378e-08
4.88434e-06
3.97351e-08
4.88621e-06
3.77842e-08
3.58023e-08
4.88815e-06
5.18105e-06
1.17124e-08
5.18575e-06
3.33648e-08
5.19075e-06
4.5606e-08
5.1954e-06
5.12471e-08
5.19998e-06
5.44292e-08
5.20433e-06
5.57148e-08
5.20832e-06
5.53261e-08
5.21197e-06
5.39667e-08
5.21531e-06
5.2149e-08
5.2184e-06
5.00947e-08
5.22125e-06
4.79244e-08
5.22391e-06
4.57299e-08
5.22641e-06
4.35693e-08
5.22879e-06
4.14734e-08
5.23108e-06
3.94466e-08
5.23333e-06
3.74827e-08
5.23557e-06
3.55394e-08
3.35508e-08
5.23782e-06
5.55269e-06
1.03575e-08
5.55689e-06
2.91693e-08
5.56169e-06
4.08005e-08
5.56629e-06
4.66408e-08
5.57086e-06
4.98676e-08
5.57526e-06
5.13133e-08
5.57935e-06
5.12257e-08
5.58315e-06
5.01716e-08
5.58668e-06
4.86205e-08
5.58997e-06
4.68017e-08
5.59305e-06
4.48386e-08
5.59596e-06
4.28205e-08
5.59872e-06
4.08057e-08
5.60137e-06
3.88239e-08
5.60394e-06
3.68814e-08
5.60645e-06
3.49696e-08
5.60893e-06
3.30581e-08
3.11069e-08
5.61137e-06
5.95104e-06
9.09496e-09
5.95478e-06
2.54224e-08
5.95935e-06
3.62289e-08
5.9639e-06
4.20877e-08
5.96845e-06
4.53233e-08
5.97289e-06
4.68722e-08
5.97708e-06
4.70268e-08
5.98101e-06
4.62408e-08
5.9847e-06
4.49316e-08
5.98817e-06
4.33293e-08
5.99145e-06
4.15592e-08
5.99456e-06
3.97076e-08
5.99753e-06
3.78322e-08
6.00039e-06
3.59632e-08
6.00316e-06
3.41097e-08
6.00587e-06
3.2266e-08
6.00851e-06
3.04121e-08
2.85305e-08
6.01109e-06
6.37798e-06
7.92433e-09
6.38134e-06
2.20602e-08
6.38567e-06
3.19023e-08
6.39015e-06
3.76046e-08
6.39467e-06
4.08022e-08
6.39914e-06
4.2404e-08
6.40342e-06
4.27418e-08
6.40747e-06
4.21852e-08
6.41131e-06
4.10943e-08
6.41494e-06
3.96925e-08
6.4184e-06
3.81045e-08
6.42169e-06
3.64137e-08
6.42484e-06
3.46765e-08
6.42788e-06
3.29242e-08
6.43082e-06
3.11692e-08
6.43368e-06
2.94112e-08
6.43645e-06
2.76392e-08
2.58531e-08
6.43912e-06
5.74176e-06
6.99862e-09
5.74434e-06
1.94776e-08
5.74781e-06
2.8434e-08
5.75153e-06
3.38785e-08
5.75533e-06
3.7002e-08
5.75912e-06
3.86146e-08
5.7628e-06
3.90628e-08
5.76631e-06
3.86677e-08
5.76966e-06
3.77433e-08
5.77285e-06
3.64992e-08
5.7759e-06
3.5058e-08
5.77881e-06
3.35004e-08
5.7816e-06
3.18814e-08
5.78429e-06
3.02331e-08
5.78689e-06
2.85709e-08
5.7894e-06
2.68991e-08
5.79183e-06
2.52133e-08
2.35247e-08
5.79416e-06
6.99914e-06
6.01556e-09
7.00187e-06
1.67449e-08
7.00563e-06
2.4671e-08
7.00979e-06
2.97135e-08
7.01411e-06
3.26843e-08
7.01846e-06
3.42634e-08
7.02273e-06
3.47923e-08
7.02685e-06
3.45462e-08
7.0308e-06
3.37892e-08
7.03459e-06
3.27118e-08
7.03821e-06
3.14312e-08
7.04169e-06
3.0024e-08
7.04503e-06
2.85429e-08
7.04824e-06
2.70212e-08
7.05133e-06
2.54767e-08
7.05431e-06
2.3919e-08
7.05717e-06
2.2349e-08
2.07875e-08
7.05991e-06
8.53188e-06
4.9829e-09
8.53473e-06
1.38894e-08
8.53876e-06
2.06408e-08
8.54336e-06
2.51167e-08
8.54821e-06
2.78304e-08
8.55316e-06
2.93125e-08
8.55807e-06
2.9876e-08
8.56287e-06
2.97522e-08
8.5675e-06
2.91546e-08
8.57196e-06
2.82479e-08
8.57625e-06
2.71396e-08
8.58037e-06
2.5901e-08
8.58434e-06
2.4581e-08
8.58814e-06
2.32128e-08
8.5918e-06
2.18168e-08
8.59531e-06
2.04064e-08
8.59867e-06
1.89876e-08
1.75856e-08
8.60188e-06
1.04003e-05
3.90954e-09
1.04032e-05
1.09306e-08
1.04075e-05
1.6365e-08
1.04125e-05
2.00965e-08
1.04179e-05
2.24239e-08
1.04235e-05
2.37247e-08
1.04291e-05
2.42597e-08
1.04347e-05
2.42163e-08
1.04401e-05
2.3759e-08
1.04453e-05
2.30204e-08
1.04503e-05
2.20939e-08
1.04552e-05
2.10418e-08
1.04599e-05
1.99087e-08
1.04644e-05
1.87253e-08
1.04687e-05
1.75135e-08
1.04728e-05
1.62884e-08
1.04767e-05
1.50593e-08
1.3853e-08
1.04804e-05
1.26779e-05
2.80042e-09
1.2681e-05
7.86283e-09
1.26855e-05
1.18419e-08
1.26909e-05
1.4647e-08
1.26969e-05
1.64367e-08
1.27032e-05
1.74508e-08
1.27096e-05
1.7879e-08
1.27159e-05
1.78608e-08
1.27222e-05
1.75134e-08
1.27283e-05
1.69344e-08
1.27342e-05
1.61959e-08
1.27398e-05
1.5349e-08
1.27453e-05
1.44302e-08
1.27506e-05
1.34665e-08
1.27556e-05
1.24776e-08
1.27604e-05
1.14791e-08
1.2765e-05
1.04802e-08
9.50755e-09
1.27693e-05
1.54543e-05
1.64454e-09
1.54576e-05
4.63989e-09
1.54624e-05
7.01359e-09
1.54683e-05
8.70784e-09
1.5475e-05
9.7948e-09
1.5482e-05
1.04001e-08
1.54893e-05
1.06331e-08
1.54965e-05
1.05779e-08
1.55037e-05
1.03045e-08
1.55108e-05
9.87264e-09
1.55177e-05
9.3286e-09
1.55243e-05
8.70669e-09
1.55307e-05
8.03248e-09
1.55368e-05
7.3257e-09
1.55427e-05
6.6016e-09
1.55483e-05
5.87279e-09
1.55537e-05
5.14695e-09
4.44708e-09
1.55587e-05
1.88389e-05
4.01806e-10
1.88424e-05
1.13692e-09
1.88477e-05
1.70601e-09
1.88543e-05
2.08766e-09
1.88618e-05
2.29999e-09
1.88698e-05
2.37116e-09
1.88781e-05
2.32297e-09
1.88865e-05
2.17514e-09
1.88949e-05
1.94765e-09
1.89031e-05
1.65871e-09
1.89111e-05
1.32343e-09
1.89189e-05
9.54323e-10
1.89263e-05
5.62069e-10
1.89335e-05
1.55831e-10
1.89403e-05
-2.56555e-10
1.89469e-05
-6.67916e-10
1.89531e-05
-1.07409e-09
-1.45751e-09
1.8959e-05
2.29648e-05
-1.0293e-09
2.29688e-05
-2.93546e-09
2.2975e-05
-4.50066e-09
2.29828e-05
-5.69014e-09
2.29916e-05
-6.52595e-09
2.30011e-05
-7.09396e-09
2.30109e-05
-7.48181e-09
2.30208e-05
-7.74385e-09
2.30307e-05
-7.91723e-09
2.30404e-05
-8.03282e-09
2.30498e-05
-8.11495e-09
2.30589e-05
-8.17771e-09
2.30677e-05
-8.22956e-09
2.30762e-05
-8.27442e-09
2.30842e-05
-8.31477e-09
2.30919e-05
-8.3503e-09
2.30992e-05
-8.38201e-09
-8.39868e-09
2.31061e-05
1.68118e-05
-2.15301e-09
1.6815e-05
-6.10759e-09
1.68198e-05
-9.33331e-09
1.68258e-05
-1.1692e-08
1.68325e-05
-1.32437e-08
1.68397e-05
-1.42164e-08
1.6847e-05
-1.47973e-08
1.68543e-05
-1.50907e-08
1.68616e-05
-1.5175e-08
1.68687e-05
-1.5123e-08
1.68755e-05
-1.49866e-08
1.68822e-05
-1.47998e-08
1.68885e-05
-1.45823e-08
1.68946e-05
-1.43491e-08
1.69004e-05
-1.41076e-08
1.69059e-05
-1.38636e-08
1.69111e-05
-1.36193e-08
-1.3369e-08
1.69161e-05
1.46356e-05
-3.23228e-09
1.46387e-05
-9.19608e-09
1.46434e-05
-1.40505e-08
1.46492e-05
-1.744e-08
1.46555e-05
-1.95365e-08
1.46621e-05
-2.07894e-08
1.46687e-05
-2.14692e-08
1.46753e-05
-2.17115e-08
1.46818e-05
-2.16479e-08
1.46881e-05
-2.13943e-08
1.46941e-05
-2.1027e-08
1.46999e-05
-2.05901e-08
1.47054e-05
-2.01144e-08
1.47107e-05
-1.96205e-08
1.47157e-05
-1.91221e-08
1.47205e-05
-1.86262e-08
1.4725e-05
-1.81381e-08
-1.76532e-08
1.47293e-05
1.27411e-05
-4.24288e-09
1.27443e-05
-1.23253e-08
1.27491e-05
-1.8884e-08
1.27547e-05
-2.30901e-08
1.27607e-05
-2.55224e-08
1.27669e-05
-2.69545e-08
1.27731e-05
-2.76492e-08
1.27791e-05
-2.77557e-08
1.27849e-05
-2.74814e-08
1.27905e-05
-2.69915e-08
1.27959e-05
-2.63757e-08
1.2801e-05
-2.56855e-08
1.28058e-05
-2.49581e-08
1.28104e-05
-2.42188e-08
1.28148e-05
-2.34836e-08
1.28189e-05
-2.276e-08
1.28228e-05
-2.20536e-08
-2.13607e-08
1.28265e-05
1.10918e-05
-5.08736e-09
1.1095e-05
-1.55487e-08
1.11001e-05
-2.40122e-08
1.11057e-05
-2.87181e-08
1.11115e-05
-3.12623e-08
1.11173e-05
-3.27736e-08
1.1123e-05
-3.33834e-08
1.11286e-05
-3.3274e-08
1.11338e-05
-3.27478e-08
1.11388e-05
-3.20023e-08
1.11436e-05
-3.11291e-08
1.11481e-05
-3.01852e-08
1.11523e-05
-2.92134e-08
1.11563e-05
-2.82425e-08
1.11602e-05
-2.72873e-08
1.11637e-05
-2.63566e-08
1.11671e-05
-2.54534e-08
-2.45763e-08
1.11704e-05
9.65582e-06
-5.69504e-09
9.65925e-06
-1.8974e-08
9.66459e-06
-2.93596e-08
9.67009e-06
-3.42175e-08
9.67565e-06
-3.68237e-08
9.68121e-06
-3.83365e-08
9.68655e-06
-3.87202e-08
9.69158e-06
-3.83061e-08
9.69632e-06
-3.74972e-08
9.70081e-06
-3.64874e-08
9.70503e-06
-3.53559e-08
9.70901e-06
-3.4162e-08
9.71275e-06
-3.29535e-08
9.71626e-06
-3.17595e-08
9.71957e-06
-3.05954e-08
9.72268e-06
-2.9468e-08
9.7256e-06
-2.83796e-08
-2.73265e-08
9.72835e-06
8.40532e-06
-5.66602e-09
8.40964e-06
-2.329e-08
8.41487e-06
-3.45961e-08
8.4199e-06
-3.92471e-08
8.42527e-06
-4.21919e-08
8.43068e-06
-4.3747e-08
8.43576e-06
-4.38086e-08
8.44047e-06
-4.30151e-08
8.44484e-06
-4.18693e-08
8.4489e-06
-4.05475e-08
8.45266e-06
-3.91192e-08
8.45615e-06
-3.76469e-08
8.45937e-06
-3.61802e-08
8.46236e-06
-3.47466e-08
8.46512e-06
-3.33613e-08
8.46768e-06
-3.20304e-08
8.47006e-06
-3.0756e-08
-2.95344e-08
8.47227e-06
7.31455e-06
-2.92852e-09
7.32119e-06
-2.99342e-08
7.32674e-06
-4.01484e-08
7.33169e-06
-4.42e-08
7.33709e-06
-4.75914e-08
7.34241e-06
-4.90698e-08
7.34729e-06
-4.86884e-08
7.3517e-06
-4.74301e-08
7.35568e-06
-4.58494e-08
7.35924e-06
-4.41052e-08
7.3624e-06
-4.22778e-08
7.36519e-06
-4.04403e-08
7.36765e-06
-3.86446e-08
7.36982e-06
-3.69152e-08
7.37173e-06
-3.52672e-08
7.3734e-06
-3.37034e-08
7.37486e-06
-3.22242e-08
-3.082e-08
7.37615e-06
6.36245e-06
4.68716e-09
6.37189e-06
-3.93768e-08
6.37932e-06
-4.75765e-08
6.38596e-06
-5.08422e-08
6.39224e-06
-5.38747e-08
6.39756e-06
-5.43841e-08
6.40185e-06
-5.29846e-08
6.40533e-06
-5.09123e-08
6.40813e-06
-4.86509e-08
6.41032e-06
-4.62917e-08
6.41195e-06
-4.39122e-08
6.4131e-06
-4.15891e-08
6.41383e-06
-3.93733e-08
6.41419e-06
-3.72828e-08
6.41426e-06
-3.53315e-08
6.41407e-06
-3.35155e-08
6.41368e-06
-3.18357e-08
-3.02726e-08
6.41313e-06
5.5412e-06
8.94927e-09
5.55032e-06
-4.85006e-08
5.55834e-06
-5.55959e-08
5.56604e-06
-5.85455e-08
5.57251e-06
-6.03376e-08
5.57683e-06
-5.87102e-08
5.57907e-06
-5.52276e-08
5.57963e-06
-5.14731e-08
5.57888e-06
-4.78989e-08
5.5771e-06
-4.45084e-08
5.5745e-06
-4.13203e-08
5.57129e-06
-3.83773e-08
5.5676e-06
-3.56875e-08
5.56356e-06
-3.32427e-08
5.55927e-06
-3.104e-08
5.55482e-06
-2.90622e-08
5.55029e-06
-2.73113e-08
-2.57379e-08
5.54575e-06
4.86004e-06
-2.34871e-08
4.86539e-06
-5.38437e-08
4.86524e-06
-5.54515e-08
4.86217e-06
-5.54774e-08
4.857e-06
-5.51686e-08
4.8495e-06
-5.1211e-08
4.8398e-06
-4.55328e-08
4.82841e-06
-4.00813e-08
4.81584e-06
-3.5327e-08
4.80256e-06
-3.12316e-08
4.78896e-06
-2.77239e-08
4.77532e-06
-2.4741e-08
4.76184e-06
-2.22051e-08
4.74864e-06
-2.00453e-08
4.73581e-06
-1.82151e-08
4.72343e-06
-1.66816e-08
4.7116e-06
-1.54826e-08
-1.51376e-08
4.701e-06
4.17919e-06
4.12535e-06
4.06989e-06
4.01442e-06
3.95925e-06
3.90804e-06
3.8625e-06
3.82242e-06
3.78709e-06
3.75586e-06
3.72814e-06
3.7034e-06
3.68119e-06
3.66115e-06
3.64293e-06
3.62625e-06
3.61077e-06
3.59563e-06
1.47921e-08
-1.48358e-08
2.83913e-08
-1.36669e-08
3.5485e-08
-7.14093e-09
3.55144e-08
-7.87583e-11
2.93488e-08
6.13075e-09
1.83298e-08
1.09768e-08
3.79416e-09
1.45086e-08
-1.32564e-08
1.70132e-08
-3.20811e-08
1.88035e-08
-5.22226e-08
2.01086e-08
-7.33472e-08
2.11076e-08
-9.52983e-08
2.19214e-08
-1.17936e-07
2.26242e-08
-1.4122e-07
2.32574e-08
-1.65077e-07
2.38455e-08
-1.89504e-07
2.4403e-08
-2.14455e-07
2.49432e-08
-2.39959e-07
2.54807e-08
-2.66001e-07
2.60347e-08
-2.92651e-07
2.66271e-08
-3.19945e-07
2.72883e-08
-3.48031e-07
2.80636e-08
-3.77012e-07
2.89741e-08
-4.0708e-07
3.00466e-08
-4.38397e-07
3.13083e-08
-4.69719e-07
3.13013e-08
-4.98985e-07
2.92559e-08
-5.28002e-07
2.89967e-08
-5.59633e-07
3.1618e-08
-5.94165e-07
3.45081e-08
-6.32683e-07
3.85052e-08
-6.77853e-07
4.51401e-08
-7.20642e-07
4.2772e-08
-7.58689e-07
3.80123e-08
-8.0192e-07
4.32201e-08
-8.45596e-07
4.3647e-08
-8.8564e-07
4.00377e-08
-9.25259e-07
3.95936e-08
-9.67339e-07
4.20755e-08
-1.00984e-06
4.24781e-08
-1.05256e-06
4.27188e-08
-1.09546e-06
4.28826e-08
-1.13845e-06
4.29819e-08
-1.18147e-06
4.30063e-08
-1.22444e-06
4.29743e-08
-1.26736e-06
4.28965e-08
-1.31014e-06
4.27883e-08
-1.35281e-06
4.26554e-08
-1.39532e-06
4.25052e-08
-1.43767e-06
4.23388e-08
-1.47984e-06
4.21598e-08
-1.52182e-06
4.19663e-08
-1.56359e-06
4.176e-08
-1.60515e-06
4.15381e-08
-1.64646e-06
4.13013e-08
-1.68753e-06
4.10449e-08
-1.7283e-06
4.07695e-08
-1.7688e-06
4.04707e-08
-1.80895e-06
4.0149e-08
-1.84877e-06
3.97989e-08
-1.88819e-06
3.94213e-08
-1.92722e-06
3.90117e-08
-1.96579e-06
3.85707e-08
-2.0039e-06
3.8093e-08
-2.04147e-06
3.75799e-08
-2.07851e-06
3.70263e-08
-2.11494e-06
3.64337e-08
-2.15074e-06
3.57976e-08
-2.18586e-06
3.512e-08
-2.22026e-06
3.43962e-08
-2.25388e-06
3.36286e-08
-2.2867e-06
3.28126e-08
-2.31864e-06
3.19506e-08
-2.34969e-06
3.10381e-08
-2.37976e-06
3.0078e-08
-2.40883e-06
2.90659e-08
-2.43683e-06
2.80051e-08
-2.46374e-06
2.68922e-08
-2.48946e-06
2.57304e-08
-2.51398e-06
2.45146e-08
-2.53722e-06
2.32481e-08
-2.55914e-06
2.19263e-08
-2.57968e-06
2.05517e-08
-2.59879e-06
1.91183e-08
-2.6164e-06
1.76278e-08
-2.63246e-06
1.60738e-08
-2.64689e-06
1.4456e-08
-2.65964e-06
1.27659e-08
-2.6706e-06
1.09983e-08
-2.6797e-06
9.14132e-09
-2.68684e-06
7.17752e-09
-2.69191e-06
5.0918e-09
-2.69478e-06
2.88948e-09
-2.69541e-06
6.37469e-10
-2.69394e-06
-1.45698e-09
-2.69057e-06
-3.35614e-09
-2.68536e-06
-5.20386e-09
-2.67831e-06
-7.04279e-09
-2.66941e-06
-8.89095e-09
-2.65865e-06
-1.07515e-08
-2.64602e-06
-1.26227e-08
-2.63151e-06
-1.45021e-08
-2.61511e-06
-1.63856e-08
-2.59682e-06
-1.82699e-08
-2.57665e-06
-2.01506e-08
-2.5546e-06
-2.20238e-08
-2.53069e-06
-2.38853e-08
-2.50492e-06
-2.573e-08
-2.47733e-06
-2.75539e-08
-2.44794e-06
-2.93509e-08
-2.41678e-06
-3.11175e-08
-2.38389e-06
-3.28464e-08
-2.34932e-06
-3.45348e-08
-2.3131e-06
-3.61743e-08
-2.2753e-06
-3.77631e-08
-2.23596e-06
-3.92926e-08
-2.19516e-06
-4.07618e-08
-2.15297e-06
-4.2162e-08
-2.10945e-06
-4.34918e-08
-2.06468e-06
-4.4741e-08
-2.01873e-06
-4.59099e-08
-1.97168e-06
-4.70029e-08
-1.92361e-06
-4.80227e-08
-1.87461e-06
-4.89516e-08
-1.82479e-06
-4.97918e-08
-1.77424e-06
-5.05391e-08
-1.72304e-06
-5.12084e-08
-1.67129e-06
-5.17836e-08
-1.61908e-06
-5.22679e-08
-1.5665e-06
-5.26513e-08
-1.51366e-06
-5.29396e-08
-1.46065e-06
-5.31254e-08
-1.40757e-06
-5.32138e-08
-1.35452e-06
-5.32011e-08
-1.3016e-06
-5.30915e-08
-1.24888e-06
-5.2886e-08
-1.19646e-06
-5.25845e-08
-1.14441e-06
-5.2189e-08
-1.09283e-06
-5.16965e-08
-1.04177e-06
-5.11217e-08
-9.91337e-07
-5.04742e-08
-9.41572e-07
-4.97738e-08
-8.92533e-07
-4.90257e-08
-8.44258e-07
-4.82394e-08
-7.96785e-07
-4.7414e-08
-7.50141e-07
-4.6563e-08
-7.04349e-07
-4.56878e-08
-6.59416e-07
-4.48045e-08
-6.15349e-07
-4.39131e-08
-5.72137e-07
-4.30314e-08
-5.29765e-07
-4.21614e-08
-4.88203e-07
-4.13223e-08
-4.47419e-07
-4.05138e-08
-4.07363e-07
-3.9756e-08
-3.67982e-07
-3.90524e-08
-3.29203e-07
-3.84216e-08
-2.90959e-07
-3.78619e-08
-2.53153e-07
-3.73995e-08
-2.15694e-07
-3.70336e-08
-1.78475e-07
-3.67721e-08
-1.41378e-07
-3.66369e-08
-1.04239e-07
-3.66623e-08
-6.69756e-08
-3.67804e-08
-2.95444e-08
-3.69375e-08
7.96413e-09
-3.70154e-08
4.53546e-08
-3.6895e-08
8.26796e-08
-3.68467e-08
1.2042e-07
-3.7272e-08
1.59092e-07
-3.82262e-08
1.99146e-07
-3.96197e-08
2.4092e-07
-4.13666e-08
2.84683e-07
-4.33668e-08
3.30586e-07
-4.55384e-08
3.78729e-07
-4.7794e-08
4.29031e-07
-4.99882e-08
4.81121e-07
-5.17962e-08
5.33984e-07
-5.26097e-08
5.84909e-07
-5.06946e-08
6.27877e-07
-4.27714e-08
2.52159e-09
6.2554e-07
7.90908e-09
-2.27834e-08
7.89084e-09
-1.36954e-08
3.10251e-09
-2.37999e-09
-4.92756e-09
7.9263e-09
-1.57532e-08
1.69382e-08
-2.93139e-08
2.45172e-08
-4.54784e-08
3.06584e-08
-6.39923e-08
3.55085e-08
-8.45069e-08
3.93051e-08
-1.0672e-07
4.23041e-08
-1.3036e-07
4.47359e-08
-1.5524e-07
4.67844e-08
-1.81212e-07
4.85859e-08
-2.08208e-07
5.02375e-08
-2.36179e-07
5.18083e-08
-2.6514e-07
5.3349e-08
-2.95104e-07
5.49003e-08
-3.26132e-07
5.64951e-08
-3.58266e-07
5.8162e-08
-3.91582e-07
5.99303e-08
-4.26136e-07
6.18358e-08
-4.6199e-07
6.39053e-08
-4.99138e-07
6.6115e-08
-5.37464e-07
6.83613e-08
-5.76636e-07
7.04734e-08
-6.17372e-07
7.20257e-08
-6.61118e-07
7.29932e-08
-7.06587e-07
7.44523e-08
-7.51778e-07
7.67997e-08
-7.96903e-07
7.96183e-08
-8.41028e-07
8.26178e-08
-8.81017e-07
8.51122e-08
-9.23525e-07
8.52671e-08
-9.69967e-07
8.44382e-08
-1.01191e-06
8.51494e-08
-1.05313e-06
8.48557e-08
-1.0968e-06
8.36975e-08
-1.14047e-06
8.32533e-08
-1.18194e-06
8.35392e-08
-1.22298e-06
8.35103e-08
-1.26359e-06
8.33185e-08
-1.30377e-06
8.3061e-08
-1.34356e-06
8.27638e-08
-1.38299e-06
8.24332e-08
-1.4221e-06
8.20721e-08
-1.46089e-06
8.16831e-08
-1.49937e-06
8.12703e-08
-1.53756e-06
8.08361e-08
-1.57544e-06
8.03821e-08
-1.61301e-06
7.9908e-08
-1.65027e-06
7.94131e-08
-1.68721e-06
7.88951e-08
-1.72381e-06
7.83518e-08
-1.76006e-06
7.77797e-08
-1.79594e-06
7.71754e-08
-1.83144e-06
7.65346e-08
-1.86653e-06
7.58539e-08
-1.9012e-06
7.51289e-08
-1.93541e-06
7.43558e-08
-1.96915e-06
7.35304e-08
-2.00239e-06
7.26494e-08
-2.03509e-06
7.17089e-08
-2.06723e-06
7.07056e-08
-2.09878e-06
6.96356e-08
-2.1297e-06
6.84964e-08
-2.15996e-06
6.72843e-08
-2.18952e-06
6.59974e-08
-2.21836e-06
6.46326e-08
-2.24643e-06
6.31885e-08
-2.2737e-06
6.16623e-08
-2.30012e-06
6.0053e-08
-2.32566e-06
5.8358e-08
-2.35029e-06
5.65765e-08
-2.37396e-06
5.47063e-08
-2.39662e-06
5.27471e-08
-2.41826e-06
5.06971e-08
-2.43881e-06
4.8557e-08
-2.45824e-06
4.6325e-08
-2.47651e-06
4.40017e-08
-2.49358e-06
4.15849e-08
-2.5094e-06
3.90754e-08
-2.52394e-06
3.64712e-08
-2.53716e-06
3.37729e-08
-2.54901e-06
3.09781e-08
-2.55946e-06
2.80876e-08
-2.56848e-06
2.50995e-08
-2.57602e-06
2.20143e-08
-2.58207e-06
1.88305e-08
-2.5866e-06
1.55498e-08
-2.58961e-06
1.21734e-08
-2.59112e-06
8.71071e-09
-2.5912e-06
5.18618e-09
-2.58994e-06
1.64111e-09
-2.58741e-06
-1.8844e-09
-2.58346e-06
-5.40438e-09
-2.57785e-06
-8.95538e-09
-2.57051e-06
-1.25409e-08
-2.56139e-06
-1.61579e-08
-2.55047e-06
-1.98063e-08
-2.53774e-06
-2.34825e-08
-2.52318e-06
-2.71808e-08
-2.50678e-06
-3.08944e-08
-2.48854e-06
-3.46158e-08
-2.46846e-06
-3.83374e-08
-2.44655e-06
-4.20506e-08
-2.42281e-06
-4.57474e-08
-2.39726e-06
-4.94184e-08
-2.36991e-06
-5.30548e-08
-2.34079e-06
-5.66466e-08
-2.30993e-06
-6.01839e-08
-2.27737e-06
-6.36565e-08
-2.24313e-06
-6.70539e-08
-2.20728e-06
-7.03656e-08
-2.16984e-06
-7.3581e-08
-2.13089e-06
-7.66899e-08
-2.09048e-06
-7.96818e-08
-2.04867e-06
-8.25476e-08
-2.00553e-06
-8.52774e-08
-1.96115e-06
-8.78621e-08
-1.91558e-06
-9.02909e-08
-1.8689e-06
-9.25582e-08
-1.82122e-06
-9.46633e-08
-1.77259e-06
-9.66118e-08
-1.72313e-06
-9.83919e-08
-1.67291e-06
-9.99884e-08
-1.62204e-06
-1.01402e-07
-1.57061e-06
-1.02648e-07
-1.5187e-06
-1.03711e-07
-1.46641e-06
-1.04588e-07
-1.41383e-06
-1.0527e-07
-1.36106e-06
-1.0576e-07
-1.3082e-06
-1.06051e-07
-1.25534e-06
-1.06149e-07
-1.20257e-06
-1.06051e-07
-1.14999e-06
-1.05764e-07
-1.09767e-06
-1.05291e-07
-1.04571e-06
-1.04638e-07
-9.94162e-07
-1.03806e-07
-9.43109e-07
-1.02804e-07
-8.92616e-07
-1.01644e-07
-8.42753e-07
-1.00353e-07
-7.93575e-07
-9.89511e-08
-7.4513e-07
-9.7463e-08
-6.97451e-07
-9.58947e-08
-6.50568e-07
-9.42668e-08
-6.04498e-07
-9.25861e-08
-5.59253e-07
-9.08792e-08
-5.14832e-07
-8.91537e-08
-4.71229e-07
-8.74374e-08
-4.28423e-07
-8.57379e-08
-3.86389e-07
-8.40885e-08
-3.45085e-07
-8.24973e-08
-3.04466e-07
-8.09965e-08
-2.64468e-07
-7.9594e-08
-2.25024e-07
-7.833e-08
-1.86047e-07
-7.72099e-08
-1.4745e-07
-7.62674e-08
-1.09116e-07
-7.55202e-08
-7.09313e-08
-7.50046e-08
-3.27642e-08
-7.47075e-08
5.48405e-09
-7.46555e-08
4.38952e-08
-7.48299e-08
8.26056e-08
-7.52539e-08
1.21873e-07
-7.59594e-08
1.62023e-07
-7.69297e-08
2.03447e-07
-7.80771e-08
2.46375e-07
-7.95441e-08
2.90909e-07
-8.15718e-08
3.37182e-07
-8.4277e-08
3.85395e-07
-8.76107e-08
4.35724e-07
-9.14845e-08
4.88315e-07
-9.57517e-08
5.43232e-07
-1.00261e-07
6.00426e-07
-1.04802e-07
6.5965e-07
-1.09041e-07
7.20389e-07
-1.12377e-07
7.81463e-07
-1.13543e-07
8.41145e-07
-1.10252e-07
8.94062e-07
-9.55798e-08
-4.67725e-08
9.43454e-07
-3.47891e-09
-1.93337e-08
-1.30036e-08
-4.20139e-09
-2.48263e-08
9.4257e-09
-3.81579e-08
2.12426e-08
-5.28436e-08
3.16127e-08
-6.89833e-08
4.0644e-08
-8.67168e-08
4.83821e-08
-1.06132e-07
5.49109e-08
-1.27213e-07
6.03773e-08
-1.49891e-07
6.49693e-08
-1.74047e-07
6.88835e-08
-1.99576e-07
7.23012e-08
-2.26374e-07
7.5376e-08
-2.54379e-07
7.82307e-08
-2.83539e-07
8.09612e-08
-3.13842e-07
8.36416e-08
-3.45277e-07
8.63294e-08
-3.77859e-07
8.90678e-08
-4.11591e-07
9.18883e-08
-4.46479e-07
9.4809e-08
-4.82478e-07
9.78302e-08
-5.19502e-07
1.00921e-07
-5.57401e-07
1.0401e-07
-5.9603e-07
1.06982e-07
-6.35249e-07
1.09688e-07
-6.75213e-07
1.11982e-07
-7.16095e-07
1.1387e-07
-7.57334e-07
1.15683e-07
-7.98088e-07
1.17548e-07
-8.37858e-07
1.19378e-07
-8.76276e-07
1.21029e-07
-9.13288e-07
1.22113e-07
-9.50467e-07
1.22438e-07
-9.88307e-07
1.22267e-07
-1.02523e-06
1.22067e-07
-1.06194e-06
1.21558e-07
-1.09912e-06
1.20872e-07
-1.13624e-06
1.20362e-07
-1.17269e-06
1.19979e-07
-1.2087e-06
1.19512e-07
-1.24437e-06
1.18988e-07
-1.27975e-06
1.18434e-07
-1.31485e-06
1.17862e-07
-1.3497e-06
1.17276e-07
-1.38431e-06
1.16676e-07
-1.41869e-06
1.16059e-07
-1.45284e-06
1.15425e-07
-1.48678e-06
1.1477e-07
-1.52049e-06
1.14094e-07
-1.55398e-06
1.13391e-07
-1.58723e-06
1.12659e-07
-1.62023e-06
1.11894e-07
-1.65297e-06
1.1109e-07
-1.68544e-06
1.10242e-07
-1.71761e-06
1.09345e-07
-1.74948e-06
1.08393e-07
-1.78101e-06
1.07381e-07
-1.81219e-06
1.06303e-07
-1.84299e-06
1.05154e-07
-1.87339e-06
1.03927e-07
-1.90337e-06
1.02618e-07
-1.93289e-06
1.01223e-07
-1.96192e-06
9.9735e-08
-1.99044e-06
9.81506e-08
-2.01841e-06
9.64654e-08
-2.0458e-06
9.46751e-08
-2.07259e-06
9.27764e-08
-2.09872e-06
9.07656e-08
-2.12417e-06
8.86399e-08
-2.14891e-06
8.63963e-08
-2.17289e-06
8.40323e-08
-2.19607e-06
8.15454e-08
-2.21843e-06
7.89336e-08
-2.23992e-06
7.61949e-08
-2.2605e-06
7.33278e-08
-2.28013e-06
7.0331e-08
-2.29878e-06
6.72039e-08
-2.3164e-06
6.39456e-08
-2.33295e-06
6.05556e-08
-2.34839e-06
5.70331e-08
-2.36269e-06
5.33782e-08
-2.37581e-06
4.95905e-08
-2.3877e-06
4.56705e-08
-2.39834e-06
4.16185e-08
-2.40768e-06
3.74359e-08
-2.4157e-06
3.31242e-08
-2.42236e-06
2.86864e-08
-2.42765e-06
2.4126e-08
-2.43153e-06
1.94492e-08
-2.43401e-06
1.46644e-08
-2.43507e-06
9.78538e-09
-2.43471e-06
4.83284e-09
-2.43289e-06
-1.71326e-10
-2.42955e-06
-5.21968e-09
-2.42462e-06
-1.0333e-08
-2.41805e-06
-1.5527e-08
-2.40979e-06
-2.07934e-08
-2.39983e-06
-2.61222e-08
-2.38813e-06
-3.15045e-08
-2.37468e-06
-3.69307e-08
-2.35946e-06
-4.23909e-08
-2.34248e-06
-4.78738e-08
-2.32372e-06
-5.3368e-08
-2.30319e-06
-5.88613e-08
-2.28089e-06
-6.43415e-08
-2.25683e-06
-6.97956e-08
-2.23103e-06
-7.52099e-08
-2.20349e-06
-8.05707e-08
-2.17426e-06
-8.5863e-08
-2.14335e-06
-9.10724e-08
-2.11081e-06
-9.6183e-08
-2.07666e-06
-1.0118e-07
-2.04096e-06
-1.06047e-07
-2.00376e-06
-1.10769e-07
-1.9651e-06
-1.1533e-07
-1.92505e-06
-1.19715e-07
-1.88367e-06
-1.2391e-07
-1.84103e-06
-1.27902e-07
-1.79721e-06
-1.31676e-07
-1.75227e-06
-1.35218e-07
-1.70629e-06
-1.38519e-07
-1.65935e-06
-1.41573e-07
-1.61156e-06
-1.44385e-07
-1.56298e-06
-1.4695e-07
-1.51371e-06
-1.49245e-07
-1.46384e-06
-1.51266e-07
-1.41346e-06
-1.53027e-07
-1.36266e-06
-1.54523e-07
-1.31153e-06
-1.5574e-07
-1.26015e-06
-1.56674e-07
-1.20863e-06
-1.57322e-07
-1.15704e-06
-1.57682e-07
-1.10548e-06
-1.57756e-07
-1.05404e-06
-1.57547e-07
-1.0028e-06
-1.57063e-07
-9.51841e-07
-1.56311e-07
-9.01234e-07
-1.553e-07
-8.51048e-07
-1.54039e-07
-8.01344e-07
-1.5254e-07
-7.52185e-07
-1.50824e-07
-7.03628e-07
-1.4892e-07
-6.55724e-07
-1.46861e-07
-6.08511e-07
-1.44674e-07
-5.62019e-07
-1.42382e-07
-5.16267e-07
-1.40006e-07
-4.71268e-07
-1.3757e-07
-4.27021e-07
-1.35101e-07
-3.83523e-07
-1.32626e-07
-3.40753e-07
-1.30172e-07
-2.98689e-07
-1.27766e-07
-2.57289e-07
-1.25441e-07
-2.16511e-07
-1.23227e-07
-1.76293e-07
-1.21155e-07
-1.36572e-07
-1.19255e-07
-9.72628e-08
-1.17569e-07
-5.8278e-08
-1.16125e-07
-1.95122e-08
-1.14955e-07
1.91317e-08
-1.14088e-07
5.77654e-08
-1.13556e-07
9.65347e-08
-1.13398e-07
1.3562e-07
-1.13658e-07
1.75212e-07
-1.14343e-07
2.15515e-07
-1.15475e-07
2.56727e-07
-1.17094e-07
2.99088e-07
-1.19211e-07
3.42896e-07
-1.2181e-07
3.88409e-07
-1.24982e-07
4.35785e-07
-1.28875e-07
4.8515e-07
-1.33569e-07
5.36636e-07
-1.39029e-07
5.90368e-07
-1.45147e-07
6.46428e-07
-1.51748e-07
7.04829e-07
-1.58598e-07
7.65468e-07
-1.65381e-07
8.2808e-07
-1.71595e-07
8.92159e-07
-1.76403e-07
9.56837e-07
-1.7817e-07
1.02083e-06
-1.74204e-07
1.08265e-06
-1.57348e-07
-1.12348e-07
1.14827e-06
-1.22346e-08
-7.1229e-09
-2.79027e-08
1.1444e-08
-4.45125e-08
2.60229e-08
-6.17043e-08
3.84229e-08
-7.94996e-08
4.93994e-08
-9.80547e-08
5.91891e-08
-1.17557e-07
6.78767e-08
-1.38181e-07
7.55247e-08
-1.60036e-07
8.22247e-08
-1.83179e-07
8.81021e-08
-2.07605e-07
9.33023e-08
-2.33287e-07
9.79732e-08
-2.60169e-07
1.02252e-07
-2.88204e-07
1.06256e-07
-3.17332e-07
1.10083e-07
-3.47506e-07
1.13807e-07
-3.78666e-07
1.17485e-07
-4.1076e-07
1.21154e-07
-4.43707e-07
1.24831e-07
-4.77421e-07
1.28516e-07
-5.11774e-07
1.32179e-07
-5.46624e-07
1.35765e-07
-5.81804e-07
1.39186e-07
-6.17171e-07
1.42344e-07
-6.52619e-07
1.45134e-07
-6.88124e-07
1.47482e-07
-7.23661e-07
1.49403e-07
-7.59006e-07
1.51022e-07
-7.93893e-07
1.5243e-07
-8.28143e-07
1.53621e-07
-8.61658e-07
1.54539e-07
-8.9464e-07
1.55087e-07
-9.27463e-07
1.55256e-07
-9.60316e-07
1.55112e-07
-9.92993e-07
1.54739e-07
-1.0256e-06
1.54154e-07
-1.05819e-06
1.53461e-07
-1.09062e-06
1.52787e-07
-1.12279e-06
1.52142e-07
-1.15476e-06
1.51477e-07
-1.18656e-06
1.50785e-07
-1.21821e-06
1.50074e-07
-1.2497e-06
1.49349e-07
-1.28104e-06
1.48612e-07
-1.31223e-06
1.47863e-07
-1.34327e-06
1.47099e-07
-1.37416e-06
1.46315e-07
-1.4049e-06
1.45509e-07
-1.43548e-06
1.44674e-07
-1.4659e-06
1.43805e-07
-1.49614e-06
1.42897e-07
-1.52619e-06
1.41942e-07
-1.55604e-06
1.40934e-07
-1.58566e-06
1.39867e-07
-1.61505e-06
1.38732e-07
-1.64419e-06
1.37524e-07
-1.67304e-06
1.36234e-07
-1.7016e-06
1.34856e-07
-1.72983e-06
1.33383e-07
-1.75772e-06
1.31808e-07
-1.78523e-06
1.30125e-07
-1.81234e-06
1.28326e-07
-1.83901e-06
1.26407e-07
-1.86523e-06
1.24362e-07
-1.89095e-06
1.22184e-07
-1.91615e-06
1.19869e-07
-1.94079e-06
1.17413e-07
-1.96483e-06
1.14811e-07
-1.98825e-06
1.12059e-07
-2.01101e-06
1.09154e-07
-2.03307e-06
1.06091e-07
-2.05439e-06
1.02869e-07
-2.07494e-06
9.94847e-08
-2.09468e-06
9.59354e-08
-2.11357e-06
9.22194e-08
-2.13158e-06
8.83351e-08
-2.14865e-06
8.42816e-08
-2.16476e-06
8.00578e-08
-2.17987e-06
7.56634e-08
-2.19393e-06
7.10978e-08
-2.20691e-06
6.63616e-08
-2.21877e-06
6.1455e-08
-2.22948e-06
5.63792e-08
-2.23899e-06
5.11358e-08
-2.24728e-06
4.57274e-08
-2.2543e-06
4.01574e-08
-2.26004e-06
3.44302e-08
-2.26446e-06
2.85517e-08
-2.26753e-06
2.25296e-08
-2.26923e-06
1.63735e-08
-2.26953e-06
1.0095e-08
-2.2684e-06
3.70813e-09
-2.26579e-06
-2.77663e-09
-2.26165e-06
-9.35808e-09
-2.25594e-06
-1.60447e-08
-2.24863e-06
-2.28388e-08
-2.23969e-06
-2.97314e-08
-2.2291e-06
-3.67098e-08
-2.21684e-06
-4.37613e-08
-2.2029e-06
-5.08718e-08
-2.18726e-06
-5.80275e-08
-2.16992e-06
-6.5213e-08
-2.15087e-06
-7.24133e-08
-2.13012e-06
-7.96116e-08
-2.10766e-06
-8.67917e-08
-2.08351e-06
-9.39361e-08
-2.05768e-06
-1.01027e-07
-2.03019e-06
-1.08045e-07
-2.00107e-06
-1.14971e-07
-1.97034e-06
-1.21785e-07
-1.93804e-06
-1.28467e-07
-1.90421e-06
-1.34998e-07
-1.86889e-06
-1.41354e-07
-1.83212e-06
-1.47517e-07
-1.79397e-06
-1.53466e-07
-1.75449e-06
-1.59181e-07