/*--------------------------------*- C++ -*----------------------------------*\
  =========                 |
  \\      /  F ield         | OpenFOAM: The Open Source CFD Toolbox
   \\    /   O peration     | Website:  https://openfoam.org
    \\  /    A nd           | Version:  8
     \\/     M anipulation  |
\*---------------------------------------------------------------------------*/
FoamFile
{
    version     2.0;
    format      ascii;
    class       volVectorField;
    location    "200";
    object      U;
}
// * * * * * * * * * * * * * * * * * * * * * * * * * * * * * * * * * * * * * //

dimensions      [0 1 -1 0 0 0 0];

internalField   nonuniform List<vector> 
12225
(
(9.85697 -0.886445 0)
(9.66664 -0.740745 0)
(9.4557 -0.429481 0)
(9.2245 -0.222211 0)
(9.00645 -0.106455 0)
(8.81431 -0.0458642 0)
(8.64738 -0.0151706 0)
(8.50517 0.000456734 0)
(8.38345 0.00839581 0)
(8.28064 0.0122881 0)
(8.19214 0.0140085 0)
(8.11587 0.0150294 0)
(8.04896 0.0154389 0)
(7.98974 0.0156355 0)
(7.93615 0.0156622 0)
(7.88943 0.0156285 0)
(7.83421 0.0171908 0)
(7.82447 0.0124004 0)
(10.0545 0.227567 0)
(10.121 0.326912 0)
(10.1196 0.261573 0)
(10.0855 0.186543 0)
(10.0434 0.134673 0)
(9.99669 0.101121 0)
(9.94397 0.0792959 0)
(9.88519 0.0645777 0)
(9.82381 0.0542764 0)
(9.76125 0.0466963 0)
(9.69975 0.0409403 0)
(9.63987 0.036402 0)
(9.58251 0.0327688 0)
(9.52803 0.0299439 0)
(9.47604 0.0275628 0)
(9.42832 0.0268777 0)
(9.3804 0.024013 0)
(9.34656 0.0337611 0)
(10.0035 0.0579191 0)
(10.0303 0.056008 0)
(10.0561 0.0337826 0)
(10.0703 0.0329015 0)
(10.077 0.0406533 0)
(10.0778 0.0465542 0)
(10.0725 0.0493722 0)
(10.0613 0.0503227 0)
(10.0461 0.0502285 0)
(10.0276 0.0495256 0)
(10.007 0.0484976 0)
(9.98478 0.0473574 0)
(9.96159 0.0462076 0)
(9.93786 0.045196 0)
(9.91383 0.0442151 0)
(9.89029 0.0440013 0)
(9.86679 0.0434591 0)
(9.84497 0.0462166 0)
(9.99779 0.0110545 0)
(10.011 0.0266099 0)
(10.035 0.0371546 0)
(10.0525 0.0480924 0)
(10.0643 0.0554627 0)
(10.0734 0.0581991 0)
(10.0794 0.0583746 0)
(10.0823 0.0576404 0)
(10.0827 0.0566023 0)
(10.0811 0.0554214 0)
(10.078 0.0541714 0)
(10.0736 0.052974 0)
(10.0681 0.0518306 0)
(10.062 0.050857 0)
(10.0551 0.049971 0)
(10.0481 0.0496029 0)
(10.0409 0.04915 0)
(10.034 0.0499633 0)
(9.99935 0.00719939 0)
(10.009 0.0316569 0)
(10.0275 0.0439278 0)
(10.0418 0.0499321 0)
(10.0528 0.0536256 0)
(10.0628 0.0552556 0)
(10.0715 0.0555428 0)
(10.0783 0.0552628 0)
(10.0834 0.0547329 0)
(10.0872 0.0540477 0)
(10.0899 0.053265 0)
(10.0918 0.0524845 0)
(10.0929 0.0517277 0)
(10.0935 0.0510816 0)
(10.0936 0.0505159 0)
(10.0935 0.0502483 0)
(10.0933 0.0499987 0)
(10.0933 0.0501369 0)
(10.0003 0.00918012 0)
(10.0083 0.0311732 0)
(10.0227 0.0409506 0)
(10.0349 0.0454044 0)
(10.045 0.0490546 0)
(10.0547 0.0513962 0)
(10.0637 0.0523857 0)
(10.0713 0.0526302 0)
(10.0778 0.0525116 0)
(10.0833 0.0521697 0)
(10.0881 0.0516835 0)
(10.0923 0.0511452 0)
(10.0959 0.0505964 0)
(10.099 0.0501009 0)
(10.1019 0.0496553 0)
(10.1045 0.0493552 0)
(10.1072 0.0490684 0)
(10.11 0.0487957 0)
(10.0005 0.00894701 0)
(10.0071 0.0270895 0)
(10.0191 0.0364214 0)
(10.0301 0.041404 0)
(10.0396 0.0454335 0)
(10.0486 0.0481061 0)
(10.0572 0.0493845 0)
(10.0649 0.0498663 0)
(10.0716 0.0499558 0)
(10.0777 0.0498008 0)
(10.0832 0.0494823 0)
(10.0882 0.0490815 0)
(10.0928 0.048647 0)
(10.097 0.0482244 0)
(10.101 0.0478187 0)
(10.1049 0.0474619 0)
(10.1087 0.0470749 0)
(10.1126 0.0465594 0)
(10.0004 0.0079187 0)
(10.006 0.0233842 0)
(10.0161 0.0327452 0)
(10.0263 0.038117 0)
(10.0351 0.0421186 0)
(10.0436 0.0448096 0)
(10.0517 0.0462304 0)
(10.0591 0.0468768 0)
(10.0659 0.0471154 0)
(10.072 0.0470933 0)
(10.0777 0.0468918 0)
(10.0831 0.0465842 0)
(10.088 0.0462205 0)
(10.0927 0.0458343 0)
(10.0972 0.0454313 0)
(10.1016 0.0450125 0)
(10.1059 0.0445195 0)
(10.1102 0.0438514 0)
(10.0004 0.00696353 0)
(10.0051 0.0204329 0)
(10.0137 0.0294651 0)
(10.0229 0.0348793 0)
(10.0312 0.0387373 0)
(10.0391 0.0414074 0)
(10.0468 0.0429498 0)
(10.054 0.0437366 0)
(10.0605 0.0440931 0)
(10.0667 0.044171 0)
(10.0724 0.0440537 0)
(10.0778 0.0438095 0)
(10.0829 0.0434864 0)
(10.0877 0.0431116 0)
(10.0924 0.042689 0)
(10.097 0.0422077 0)
(10.1015 0.0416206 0)
(10.1059 0.0408539 0)
(10.0004 0.00613318 0)
(10.0043 0.0178685 0)
(10.0116 0.026289 0)
(10.0199 0.0316018 0)
(10.0276 0.0353344 0)
(10.0351 0.0379695 0)
(10.0424 0.0395921 0)
(10.0492 0.0404825 0)
(10.0556 0.0409263 0)
(10.0616 0.0410778 0)
(10.0673 0.041021 0)
(10.0727 0.0408193 0)
(10.0778 0.0405175 0)
(10.0827 0.0401395 0)
(10.0874 0.0396885 0)
(10.092 0.0391514 0)
(10.0965 0.0384913 0)
(10.1009 0.0376642 0)
(10.0003 0.00537368 0)
(10.0037 0.0155599 0)
(10.0099 0.0232523 0)
(10.0173 0.0283683 0)
(10.0245 0.0319593 0)
(10.0315 0.0345182 0)
(10.0383 0.0361664 0)
(10.0449 0.0371212 0)
(10.0511 0.0376257 0)
(10.057 0.0378294 0)
(10.0625 0.0378151 0)
(10.0678 0.0376412 0)
(10.0729 0.0373495 0)
(10.0777 0.0369621 0)
(10.0824 0.0364829 0)
(10.0869 0.0359017 0)
(10.0913 0.0351919 0)
(10.0956 0.0343335 0)
(10.0003 0.00470883 0)
(10.0032 0.0136196 0)
(10.0086 0.0206072 0)
(10.0152 0.0254584 0)
(10.0219 0.0288838 0)
(10.0285 0.0313376 0)
(10.035 0.0329668 0)
(10.0413 0.0339481 0)
(10.0473 0.0344859 0)
(10.053 0.0347199 0)
(10.0584 0.0347303 0)
(10.0636 0.0345717 0)
(10.0686 0.0342829 0)
(10.0734 0.0338853 0)
(10.078 0.0333846 0)
(10.0824 0.032775 0)
(10.0867 0.0320387 0)
(10.0909 0.0311736 0)
(10.0003 0.00409438 0)
(10.0028 0.0118507 0)
(10.0075 0.0181087 0)
(10.0134 0.0226187 0)
(10.0196 0.025844 0)
(10.0259 0.0281669 0)
(10.032 0.0297445 0)
(10.038 0.0307247 0)
(10.0438 0.0312771 0)
(10.0494 0.0315273 0)
(10.0547 0.031552 0)
(10.0597 0.0314023 0)
(10.0646 0.031114 0)
(10.0693 0.0307083 0)
(10.0738 0.030193 0)
(10.0781 0.0295671 0)
(10.0823 0.0288201 0)
(10.0863 0.0279637 0)
(10.0002 0.0034597 0)
(10.0024 0.0100124 0)
(10.0064 0.0154289 0)
(10.0117 0.0194729 0)
(10.0174 0.0224144 0)
(10.0232 0.0245464 0)
(10.029 0.0260212 0)
(10.0347 0.0269624 0)
(10.0402 0.0275037 0)
(10.0456 0.0277528 0)
(10.0507 0.0277801 0)
(10.0556 0.0276323 0)
(10.0604 0.027342 0)
(10.0649 0.0269301 0)
(10.0693 0.0264067 0)
(10.0735 0.0257758 0)
(10.0775 0.0250334 0)
(10.0814 0.0242012 0)
(10.0002 0.00280071 0)
(10.002 0.00810328 0)
(10.0055 0.0125778 0)
(10.0101 0.0160258 0)
(10.0153 0.0185811 0)
(10.0206 0.0204467 0)
(10.026 0.0217542 0)
(10.0314 0.0226039 0)
(10.0367 0.0230969 0)
(10.0418 0.0233192 0)
(10.0467 0.0233318 0)
(10.0515 0.0231757 0)
(10.0561 0.0228803 0)
(10.0605 0.0224651 0)
(10.0647 0.0219426 0)
(10.0688 0.0213205 0)
(10.0726 0.0206006 0)
(10.0763 0.0198097 0)
(10.0002 0.00211662 0)
(10.0017 0.0061251 0)
(10.0047 0.00956368 0)
(10.0087 0.0122818 0)
(10.0134 0.0143316 0)
(10.0183 0.0158375 0)
(10.0233 0.0168983 0)
(10.0283 0.0175899 0)
(10.0333 0.017984 0)
(10.0382 0.0181438 0)
(10.0429 0.0181175 0)
(10.0475 0.0179391 0)
(10.0519 0.0176332 0)
(10.0561 0.0172178 0)
(10.0602 0.0167057 0)
(10.0641 0.016107 0)
(10.0678 0.0154266 0)
(10.0713 0.0146937 0)
(10.0002 0.00140439 0)
(10.0015 0.00406362 0)
(10.0041 0.00636992 0)
(10.0076 0.00822343 0)
(10.0118 0.00963649 0)
(10.0163 0.0106738 0)
(10.0209 0.011396 0)
(10.0256 0.0118519 0)
(10.0304 0.0120863 0)
(10.035 0.0121398 0)
(10.0395 0.0120452 0)
(10.0439 0.0118269 0)
(10.0481 0.0115035 0)
(10.0522 0.0110894 0)
(10.056 0.010596 0)
(10.0598 0.0100333 0)
(10.0633 0.00940712 0)
(10.0667 0.00874512 0)
(10.0001 0.00064746 0)
(10.0013 0.00186675 0)
(10.0036 0.00292392 0)
(10.0069 0.00376996 0)
(10.0107 0.0044044 0)
(10.0148 0.00484997 0)
(10.0192 0.00512945 0)
(10.0237 0.00526268 0)
(10.0281 0.0052688 0)
(10.0325 0.00516586 0)
(10.0369 0.00496902 0)
(10.041 0.00469057 0)
(10.0451 0.00434052 0)
(10.049 0.0039276 0)
(10.0527 0.00345937 0)
(10.0563 0.00294337 0)
(10.0597 0.00238388 0)
(10.0629 0.00180446 0)
(10.0001 -0.000197372 0)
(10.0012 -0.000587852 0)
(10.0034 -0.000948086 0)
(10.0066 -0.00127161 0)
(10.0102 -0.00155863 0)
(10.0143 -0.00182292 0)
(10.0185 -0.00208245 0)
(10.0228 -0.00234934 0)
(10.0271 -0.00263113 0)
(10.0314 -0.00293352 0)
(10.0356 -0.0032611 0)
(10.0396 -0.00361639 0)
(10.0435 -0.00400034 0)
(10.0473 -0.0044124 0)
(10.0509 -0.00485127 0)
(10.0543 -0.00531428 0)
(10.0576 -0.00580047 0)
(10.0607 -0.00629281 0)
(10.0001 -0.00100586 0)
(10.0013 -0.00294369 0)
(10.0037 -0.0046709 0)
(10.007 -0.00610964 0)
(10.0108 -0.00725726 0)
(10.015 -0.00817352 0)
(10.0193 -0.00891976 0)
(10.0237 -0.00953816 0)
(10.0281 -0.0100629 0)
(10.0323 -0.0105259 0)
(10.0365 -0.0109516 0)
(10.0405 -0.0113572 0)
(10.0444 -0.0117536 0)
(10.0481 -0.0121486 0)
(10.0516 -0.0125468 0)
(10.055 -0.0129509 0)
(10.0582 -0.013363 0)
(10.0612 -0.0137725 0)
(10.0002 -0.00170318 0)
(10.0015 -0.00500168 0)
(10.0041 -0.00792483 0)
(10.0078 -0.0102727 0)
(10.012 -0.0120669 0)
(10.0165 -0.0134574 0)
(10.021 -0.0145503 0)
(10.0256 -0.0154027 0)
(10.03 -0.0160714 0)
(10.0344 -0.0166151 0)
(10.0386 -0.0170782 0)
(10.0427 -0.0174895 0)
(10.0465 -0.0178681 0)
(10.0502 -0.0182279 0)
(10.0537 -0.0185781 0)
(10.0571 -0.0189242 0)
(10.0603 -0.0192704 0)
(10.0633 -0.0196097 0)
(10.0002 -0.00236544 0)
(10.0017 -0.0070354 0)
(10.0047 -0.0111762 0)
(10.009 -0.0143434 0)
(10.0137 -0.0166377 0)
(10.0185 -0.0183693 0)
(10.0234 -0.0196983 0)
(10.0282 -0.0206953 0)
(10.0329 -0.0214421 0)
(10.0374 -0.0220195 0)
(10.0417 -0.0224843 0)
(10.0458 -0.0228731 0)
(10.0497 -0.0232125 0)
(10.0534 -0.0235217 0)
(10.0569 -0.0238142 0)
(10.0602 -0.0240973 0)
(10.0634 -0.0243768 0)
(10.0664 -0.0246479 0)
(10.0002 -0.00298528 0)
(10.0018 -0.00909491 0)
(10.0054 -0.0144495 0)
(10.0105 -0.0183375 0)
(10.0159 -0.0210804 0)
(10.0211 -0.0231015 0)
(10.0263 -0.024556 0)
(10.0314 -0.025569 0)
(10.0363 -0.0262949 0)
(10.0409 -0.0268435 0)
(10.0453 -0.0272713 0)
(10.0495 -0.0276141 0)
(10.0535 -0.0279011 0)
(10.0572 -0.0281549 0)
(10.0607 -0.0283895 0)
(10.064 -0.0286134 0)
(10.0672 -0.028832 0)
(10.0702 -0.029043 0)
(10.0001 -0.00353168 0)
(10.0018 -0.0115495 0)
(10.0063 -0.0178859 0)
(10.0123 -0.0219832 0)
(10.0183 -0.0250499 0)
(10.024 -0.027459 0)
(10.0297 -0.0290967 0)
(10.0351 -0.0301064 0)
(10.0402 -0.0307584 0)
(10.0449 -0.0312178 0)
(10.0494 -0.031552 0)
(10.0537 -0.0318018 0)
(10.0577 -0.0320009 0)
(10.0614 -0.0321733 0)
(10.065 -0.0323324 0)
(10.0683 -0.0324856 0)
(10.0714 -0.0326364 0)
(10.0743 -0.0327816 0)
(9.99991 -0.00338066 0)
(10.0016 -0.0149669 0)
(10.0073 -0.022725 0)
(10.0142 -0.0262368 0)
(10.0206 -0.0288239 0)
(10.0269 -0.0311893 0)
(10.0331 -0.0329105 0)
(10.039 -0.0339984 0)
(10.0445 -0.034698 0)
(10.0494 -0.0351618 0)
(10.0541 -0.03546 0)
(10.0584 -0.0356469 0)
(10.0624 -0.0357688 0)
(10.0661 -0.0358563 0)
(10.0695 -0.0359277 0)
(10.0727 -0.0359928 0)
(10.0756 -0.0360564 0)
(10.0783 -0.0361172 0)
(9.9986 -0.000398005 0)
(9.99909 -0.0157555 0)
(10.0075 -0.0274289 0)
(10.0166 -0.0324898 0)
(10.0238 -0.0348665 0)
(10.0306 -0.0362223 0)
(10.0376 -0.036974 0)
(10.0441 -0.0374406 0)
(10.0499 -0.037789 0)
(10.055 -0.0380362 0)
(10.0596 -0.0381811 0)
(10.0636 -0.0382494 0)
(10.0672 -0.0382707 0)
(10.0704 -0.0382661 0)
(10.0732 -0.0382512 0)
(10.0756 -0.038234 0)
(10.0777 -0.0382187 0)
(10.0796 -0.038203 0)
(9.99488 0.00133565 0)
(9.99288 -0.00809191 0)
(10.006 -0.0203508 0)
(10.0202 -0.0322756 0)
(10.0307 -0.0404775 0)
(10.0392 -0.0441489 0)
(10.0467 -0.0450609 0)
(10.0529 -0.044916 0)
(10.0578 -0.0444488 0)
(10.0617 -0.0438528 0)
(10.0646 -0.0432081 0)
(10.0668 -0.0425717 0)
(10.0683 -0.0419775 0)
(10.0691 -0.0414337 0)
(10.0694 -0.0409501 0)
(10.0693 -0.0405233 0)
(10.0688 -0.0401503 0)
(10.0681 -0.039806 0)
(9.99473 -0.0305613 0)
(9.99925 -0.0228714 0)
(10.0147 -0.00263487 0)
(10.0304 -0.0019087 0)
(10.0434 -0.011658 0)
(10.0533 -0.0209215 0)
(10.0594 -0.0272782 0)
(10.0619 -0.0315057 0)
(10.0615 -0.0342803 0)
(10.0591 -0.0359763 0)
(10.0551 -0.0369081 0)
(10.0498 -0.0373416 0)
(10.0435 -0.0374674 0)
(10.0365 -0.0374051 0)
(10.0289 -0.0372451 0)
(10.021 -0.0370427 0)
(10.0129 -0.0368628 0)
(10.0047 -0.0366743 0)
(10.0273 -0.182758 0)
(10.0763 -0.288313 0)
(10.0871 -0.247755 0)
(10.0777 -0.186519 0)
(10.0664 -0.140296 0)
(10.0538 -0.108221 0)
(10.0365 -0.0858812 0)
(10.0145 -0.0704209 0)
(9.98939 -0.0596517 0)
(9.96235 -0.0518777 0)
(9.93438 -0.0460555 0)
(9.90607 -0.0415579 0)
(9.8779 -0.038002 0)
(9.8502 -0.0351272 0)
(9.82321 -0.0327611 0)
(9.79705 -0.0308406 0)
(9.77196 -0.0293248 0)
(9.74796 -0.0285063 0)
(9.93574 0.689319 0)
(9.86861 0.609605 0)
(9.76453 0.380623 0)
(9.62664 0.217442 0)
(9.4859 0.119267 0)
(9.35721 0.0631869 0)
(9.24269 0.0315756 0)
(9.14115 0.013616 0)
(9.05147 0.00326312 0)
(8.9725 -0.00279812 0)
(8.9026 -0.00635373 0)
(8.84043 -0.00847294 0)
(8.78473 -0.00972381 0)
(8.73463 -0.01047 0)
(8.6892 -0.0109734 0)
(8.64787 -0.0112431 0)
(8.60967 -0.0114505 0)
(8.57433 -0.0121117 0)
(0.00701302 -0.0162095 -8.45653e-19)
(0.0205777 -0.0198815 6.4995e-19)
(0.0295545 -0.0128789 0)
(0.0328812 -0.00321824 0)
(0.0299372 0.00548078 0)
(0.0220349 0.0119283 -2.92077e-19)
(0.0104401 0.0161575 0)
(-0.00378751 0.0186835 0)
(-0.0198623 0.0201045 0)
(-0.0372832 0.0209046 0)
(-0.0557154 0.0213985 1.58109e-19)
(-0.0749521 0.0217632 0)
(-0.0948683 0.0220897 0)
(-0.115389 0.022417 0)
(-0.136466 0.0227606 0)
(-0.158074 0.0231264 1.03505e-19)
(-0.180185 0.0235219 0)
(-0.202782 0.0239579 0)
(-0.22588 0.0244517 0)
(-0.249543 0.0250489 0)
(-0.273824 0.0258392 0)
(-0.298756 0.0269396 0)
(-0.32447 0.028316 0)
(-0.35117 0.0299122 8.04128e-20)
(-0.378793 0.0315539 -7.97521e-20)
(-0.406911 0.0282893 7.81165e-20)
(-0.435014 0.018643 7.54286e-20)
(-0.461214 0.0164392 0)
(-0.487737 0.0249049 0)
(-0.518302 0.0355159 -6.7372e-20)
(-0.551172 0.0508675 -6.53556e-20)
(-0.586861 0.0722428 0)
(-0.627047 0.0592845 0)
(-0.667804 0.0344372 -9.46737e-20)
(-0.703088 0.0437191 0)
(-0.743282 0.0410077 0)
(-0.782091 0.0275602 8.10141e-20)
(-0.818066 0.026245 0)
(-0.853678 0.0343547 7.62526e-20)
(-0.893122 0.0351738 1.47695e-19)
(-0.932289 0.0352847 0)
(-0.97167 0.0352122 0)
(-1.01116 0.0351159 0)
(-1.05075 0.0349573 0)
(-1.09037 0.0347566 0)
(-1.13 0.0345174 1.23484e-19)
(-1.16959 0.0342554 1.2026e-19)
(-1.20913 0.0339762 1.17223e-19)
(-1.24859 0.0336866 0)
(-1.28797 0.0333887 -1.11659e-19)
(-1.32725 0.0330853 0)
(-1.36642 0.0327757 1.06681e-19)
(-1.40546 0.0324614 1.04383e-19)
(-1.44437 0.0321407 0)
(-1.48313 0.0318134 0)
(-1.52173 0.0314769 0)
(-1.56014 0.0311312 9.62428e-20)
(-1.59836 0.0307736 0)
(-1.63634 0.0304039 0)
(-1.67409 0.0300188 0)
(-1.71156 0.0296187 0)
(-1.74873 0.0292009 0)
(-1.78557 0.0287653 0)
(-1.82205 0.0283091 0)
(-1.85813 0.0278326 0)
(-1.89379 0.0273334 -8.23086e-20)
(-1.92899 0.0268122 0)
(-1.96368 0.0262668 0)
(-1.99783 0.0256984 7.85714e-20)
(-2.0314 0.0251046 7.73967e-20)
(-2.06434 0.0244869 0)
(-2.09661 0.023843 -7.5139e-20)
(-2.12817 0.0231744 7.40508e-20)
(-2.15897 0.0224791 0)
(-2.18897 0.0217588 -7.1943e-20)
(-2.21811 0.0210114 0)
(-2.24636 0.0202393 0)
(-2.27366 0.0194406 6.89206e-20)
(-2.29996 0.0186165 0)
(-2.32521 0.0177642 -6.69748e-20)
(-2.34936 0.0168847 0)
(-2.37236 0.0159746 6.50656e-20)
(-2.39415 0.0150328 6.41203e-20)
(-2.41469 0.0140536 6.31782e-20)
(-2.43391 0.013034 1.24477e-19)
(-2.45176 0.0119655 -1.22596e-19)
(-2.46817 0.0108423 0)
(-2.48308 0.00965396 0)
(-2.49639 0.00839498 0)
(-2.50805 0.00706314 -1.15018e-19)
(-2.51796 0.00566927 -1.13099e-19)
(-2.52604 0.00424669 1.11172e-19)
(-2.53216 0.00284222 0)
(-2.53617 0.00150086 -1.07283e-19)
(-2.53798 0.000295267 -1.05251e-19)
(-2.5381 -0.000797319 -1.03175e-19)
(-2.53647 -0.00186306 0)
(-2.53312 -0.00292197 0)
(-2.52804 -0.00398384 0)
(-2.52122 -0.00504914 -9.43533e-20)
(-2.51263 -0.00611702 0)
(-2.50226 -0.00718682 0)
(-2.49011 -0.00825713 8.70775e-20)
(-2.47615 -0.00932679 0)
(-2.46039 -0.010394 0)
(-2.44283 -0.0114571 7.91119e-20)
(-2.42346 -0.012514 0)
(-2.4023 -0.0135626 0)
(-2.37936 -0.0146007 -7.03446e-20)
(-2.35465 -0.0156253 -6.72255e-20)
(-2.3282 -0.0166344 0)
(-2.30004 -0.0176245 6.06692e-20)
(-2.2702 -0.0185938 0)
(-2.2387 -0.0195384 -5.3665e-20)
(-2.20561 -0.0204571 0)
(-2.17096 -0.0213453 -4.61861e-20)
(-2.13481 -0.0222018 -4.2261e-20)
(-2.09721 -0.0230214 0)
(-2.05823 -0.0238027 0)
(-2.01794 -0.0245378 0)
(-1.97639 -0.0252292 0)
(-1.93365 -0.025891 0)
(-1.8898 -0.0265114 0)
(-1.84492 -0.0270785 0)
(-1.7991 -0.0276072 -6.07531e-21)
(-1.75241 -0.028083 9.2462e-22)
(-1.70497 -0.0285109 0)
(-1.65683 -0.0288861 0)
(-1.60809 -0.0292098 0)
(-1.55884 -0.0294749 0)
(-1.50917 -0.029684 -5.39825e-20)
(-1.45918 -0.0298316 0)
(-1.40896 -0.0299204 7.83347e-20)
(-1.3586 -0.0299469 -9.09388e-20)
(-1.30819 -0.0299133 0)
(-1.25783 -0.0298179 0)
(-1.2076 -0.0296604 0)
(-1.15758 -0.0294393 1.4415e-19)
(-1.10784 -0.0291545 1.58147e-19)
(-1.05847 -0.0288124 0)
(-1.00954 -0.0284192 1.86962e-19)
(-0.961132 -0.0279832 2.01773e-19)
(-0.913294 -0.0275075 -2.16845e-19)
(-0.866074 -0.0269944 0)
(-0.819509 -0.0264452 0)
(-0.773635 -0.0258646 -2.63609e-19)
(-0.728478 -0.0252559 0)
(-0.684054 -0.0246253 0)
(-0.640374 -0.0239754 0)
(-0.597435 -0.0233136 0)
(-0.555229 -0.022644 3.46699e-19)
(-0.513733 -0.0219752 3.64129e-19)
(-0.47292 -0.0213105 0)
(-0.432747 -0.0206588 3.99917e-19)
(-0.393167 -0.0200264 0)
(-0.354115 -0.0194228 0)
(-0.315523 -0.0188523 4.56369e-19)
(-0.277307 -0.0183284 0)
(-0.239373 -0.0178593 4.96436e-19)
(-0.201618 -0.0174532 0)
(-0.163927 -0.0171254 0)
(-0.126153 -0.016904 5.62003e-19)
(-0.0881665 -0.01681 0)
(-0.0498995 -0.0168485 6.1119e-19)
(-0.0112014 -0.0169539 0)
(0.0276661 -0.0168648 0)
(0.0661835 -0.0164625 0)
(0.104959 -0.0160708 -6.38397e-19)
(0.144821 -0.0159356 0)
(0.186052 -0.0160569 6.11005e-19)
(0.229053 -0.0163939 0)
(0.274156 -0.0168916 0)
(0.321611 -0.0175043 0)
(0.37159 -0.0181968 0)
(0.424174 -0.0189183 0)
(0.479001 -0.0195392 0)
(0.536144 -0.0197692 0)
(0.590669 -0.0190316 -1.0401e-18)
(0.651169 -0.0158697 0)
(0.658054 0.00263333 0)
(0.0044811 -0.0411976 1.89602e-18)
(0.00806079 -0.031314 -1.00182e-18)
(0.00553263 -0.0131268 0)
(-0.000180868 0.00408374 3.03121e-19)
(-0.00849229 0.0189286 0)
(-0.0193773 0.0308469 1.12414e-19)
(-0.0326733 0.0398798 -2.03873e-19)
(-0.0481869 0.0464537 -1.87218e-19)
(-0.0656432 0.0511472 0)
(-0.0847484 0.0545159 -1.61038e-19)
(-0.105246 0.0570038 -7.53156e-20)
(-0.126933 0.0589257 0)
(-0.149666 0.0604898 0)
(-0.173352 0.0618266 0)
(-0.197941 0.0630178 0)
(-0.223425 0.0641152 -5.79538e-20)
(-0.249814 0.0651565 0)
(-0.27715 0.0661716 1.08009e-19)
(-0.305494 0.0671895 0)
(-0.334907 0.0682488 0)
(-0.365426 0.0694146 -1.01259e-19)
(-0.397097 0.0707667 0)
(-0.429999 0.0723395 9.9598e-20)
(-0.464092 0.0741046 -4.97678e-20)
(-0.498963 0.0760033 4.97118e-20)
(-0.535134 0.0776149 -4.93327e-20)
(-0.573418 0.0787335 -4.84343e-20)
(-0.61369 0.0801899 0)
(-0.654907 0.0823598 0)
(-0.69544 0.0845368 4.57917e-20)
(-0.73567 0.0859102 -4.5512e-20)
(-0.773753 0.0870723 0)
(-0.813236 0.0878246 0)
(-0.853089 0.0885985 4.69824e-20)
(-0.893005 0.0907153 0)
(-0.931025 0.0914529 0)
(-0.9699 0.0912127 -4.08926e-20)
(-1.00954 0.0911016 0)
(-1.0488 0.0913856 3.85716e-20)
(-1.08676 0.0913349 -7.55448e-20)
(-1.1243 0.0909475 0)
(-1.16149 0.0903724 0)
(-1.19837 0.0896638 -1.40873e-19)
(-1.23497 0.0888648 -1.3791e-19)
(-1.27131 0.0880016 -1.35096e-19)
(-1.30741 0.0870928 6.60491e-20)
(-1.34329 0.0861536 -6.50935e-20)
(-1.37894 0.0851923 -1.9131e-19)
(-1.41437 0.0842157 1.25109e-19)
(-1.44958 0.0832257 6.16005e-20)
(-1.48455 0.0822244 0)
(-1.51929 0.0812101 -5.95106e-20)
(-1.55378 0.0801827 5.82132e-20)
(-1.58802 0.0791389 0)
(-1.62198 0.0780769 0)
(-1.65565 0.0769925 0)
(-1.68901 0.0758838 -5.49361e-20)
(-1.72205 0.0747466 0)
(-1.75474 0.0735789 1.06329e-19)
(-1.78707 0.0723763 0)
(-1.819 0.0711377 1.03281e-19)
(-1.85051 0.0698594 0)
(-1.88157 0.0685402 -1.00397e-19)
(-1.91216 0.0671765 0)
(-1.94224 0.0657678 9.7652e-20)
(-1.97179 0.0643109 -4.80284e-20)
(-2.00076 0.0628062 0)
(-2.02914 0.0612512 -9.3749e-20)
(-2.05688 0.0596467 -4.63725e-20)
(-2.08396 0.0579907 -4.57522e-20)
(-2.11032 0.0562843 0)
(-2.13595 0.0545257 -4.43081e-20)
(-2.16079 0.0527163 -4.39387e-20)
(-2.18482 0.0508546 0)
(-2.208 0.0489424 4.27589e-20)
(-2.23028 0.0469786 -8.41548e-20)
(-2.25163 0.044966 0)
(-2.27201 0.0429039 -4.10133e-20)
(-2.29138 0.0407947 0)
(-2.30969 0.0386371 1.19408e-19)
(-2.32692 0.0364335 0)
(-2.34301 0.034183 -1.1594e-19)
(-2.35792 0.0318876 -3.81052e-20)
(-2.37162 0.0295455 3.74061e-20)
(-2.38408 0.0271587 7.36487e-20)
(-2.39524 0.0247248 -7.2475e-20)
(-2.40508 0.0222439 0)
(-2.41357 0.0197113 0)
(-2.42067 0.0171233 0)
(-2.42637 0.0144717 2.03034e-19)
(-2.43068 0.0117509 6.64132e-20)
(-2.43363 0.00897006 -6.5119e-20)
(-2.43529 0.00616524 0)
(-2.43573 0.00340136 -6.25324e-20)
(-2.43507 0.000765047 6.10698e-20)
(-2.43289 -0.00175786 5.96516e-20)
(-2.42911 -0.00423994 0)
(-2.42368 -0.00669843 0)
(-2.41656 -0.00914229 0)
(-2.40773 -0.0115717 5.36909e-20)
(-2.39718 -0.0139837 0)
(-2.38489 -0.0163742 -1.01388e-19)
(-2.37085 -0.0187385 -1.47039e-19)
(-2.35505 -0.0210721 9.48494e-20)
(-2.33749 -0.02337 0)
(-2.31816 -0.0256277 4.42619e-20)
(-2.29708 -0.0278402 0)
(-2.27425 -0.0300023 8.08745e-20)
(-2.24969 -0.0321089 -3.89081e-20)
(-2.22342 -0.0341547 -3.70436e-20)
(-2.19545 -0.0361348 0)
(-2.16583 -0.0380432 -9.80668e-20)
(-2.13458 -0.0398756 6.16151e-20)
(-2.10174 -0.0416259 2.83424e-20)
(-2.06735 -0.0432905 0)
(-2.03148 -0.0448637 2.40888e-20)
(-1.99416 -0.0463426 6.66617e-20)
(-1.95546 -0.047722 0)
(-1.91545 -0.0489995 3.58688e-20)
(-1.87418 -0.0501701 3.13168e-20)
(-1.83173 -0.0512336 2.66959e-20)
(-1.78816 -0.0521916 0)
(-1.74355 -0.05305 0)
(-1.698 -0.0537966 0)
(-1.65158 -0.0544272 -4.39191e-21)
(-1.60437 -0.0549505 -7.44327e-22)
(-1.55647 -0.0553774 0)
(-1.50795 -0.0556958 7.24323e-21)
(-1.45891 -0.055907 1.22624e-20)
(-1.40943 -0.0560072 0)
(-1.35961 -0.0560008 2.36419e-20)
(-1.30953 -0.0558849 5.49081e-20)
(-1.25929 -0.055665 -3.38151e-20)
(-1.20898 -0.0553405 -3.63565e-20)
(-1.15868 -0.0549178 0)
(-1.10848 -0.0543991 0)
(-1.05847 -0.0537894 0)
(-1.00871 -0.0530898 -5.90849e-20)
(-0.959283 -0.0523053 6.16137e-20)
(-0.910246 -0.0514446 1.35575e-19)
(-0.861673 -0.0505221 -7.38772e-20)
(-0.813629 -0.0495511 7.63942e-20)
(-0.766166 -0.0485436 8.34807e-20)
(-0.719325 -0.0475046 0)
(-0.673138 -0.0464421 0)
(-0.627629 -0.0453617 -9.5294e-20)
(-0.582815 -0.0442743 0)
(-0.538703 -0.0431861 0)
(-0.495292 -0.0421079 2.19111e-19)
(-0.452569 -0.0410457 0)
(-0.410513 -0.0400125 1.1704e-19)
(-0.369093 -0.0390148 -1.22677e-19)
(-0.328264 -0.0380641 0)
(-0.287975 -0.037166 1.28828e-19)
(-0.248159 -0.036336 0)
(-0.20874 -0.0355784 0)
(-0.16963 -0.0349046 -1.40706e-19)
(-0.130722 -0.0343248 2.86851e-19)
(-0.0919033 -0.0338544 -1.47089e-19)
(-0.0530449 -0.0334934 0)
(-0.0140043 -0.0332545 0)
(0.0253043 -0.0331187 1.54625e-19)
(0.0649243 -0.0330463 0)
(0.105114 -0.0330453 1.55511e-19)
(0.14621 -0.0331196 0)
(0.188552 -0.0331957 0)
(0.23249 -0.0333417 0)
(0.278242 -0.0337562 1.55212e-19)
(0.325917 -0.0345136 0)
(0.375689 -0.035572 -1.5481e-19)
(0.427766 -0.0368779 0)
(0.48234 -0.0383583 0)
(0.539558 -0.0399427 3.08542e-19)
(0.599459 -0.041545 -3.08721e-19)
(0.661949 -0.0430279 0)
(0.726563 -0.0441599 0)
(0.792983 -0.0443893 0)
(0.857757 -0.0428174 9.44508e-19)
(0.925433 -0.0360897 0)
(0.9649 -0.0130222 -6.59766e-19)
(-0.00255307 -0.0430649 -1.0248e-21)
(-0.00772369 -0.0192795 9.54365e-19)
(-0.0165223 0.00448653 0)
(-0.0275224 0.0252525 -3.81065e-19)
(-0.0400008 0.043161 0)
(-0.0537226 0.0582813 0)
(-0.0687931 0.0707017 3.34312e-23)
(-0.08534 0.0806529 1.18501e-19)
(-0.103403 0.0885045 1.11652e-19)
(-0.122942 0.0946892 1.05944e-19)
(-0.143869 0.0996279 0)
(-0.166082 0.103682 0)
(-0.189486 0.107137 -9.25598e-20)
(-0.214009 0.110208 -1.78133e-19)
(-0.239602 0.113056 1.71952e-19)
(-0.266241 0.115801 0)
(-0.293919 0.118537 1.6182e-19)
(-0.322643 0.121338 -7.89318e-20)
(-0.352431 0.124267 0)
(-0.383296 0.127372 1.51737e-19)
(-0.415221 0.130678 7.48076e-20)
(-0.448145 0.13417 -1.47762e-19)
(-0.481966 0.137783 -7.30543e-20)
(-0.516532 0.141343 0)
(-0.551673 0.144576 1.41808e-19)
(-0.587408 0.147098 1.389e-19)
(-0.623954 0.148846 0)
(-0.661218 0.1507 1.32299e-19)
(-0.698487 0.152908 0)
(-0.734988 0.155195 1.26509e-19)
(-0.770575 0.157449 6.23963e-20)
(-0.805052 0.158862 0)
(-0.839163 0.158487 0)
(-0.873366 0.157003 0)
(-0.907324 0.155758 0)
(-0.94078 0.153661 0)
(-0.974573 0.151007 0)
(-1.00876 0.148977 1.05015e-19)
(-1.04271 0.147509 -1.54028e-19)
(-1.07608 0.145957 0)
(-1.10912 0.144366 0)
(-1.14191 0.142758 0)
(-1.17448 0.141135 1.49238e-22)
(-1.20686 0.139497 9.27899e-20)
(-1.23907 0.137845 1.81979e-19)
(-1.27112 0.136182 -1.78683e-19)
(-1.303 0.134508 -8.76786e-20)
(-1.33474 0.132826 8.63314e-20)
(-1.36632 0.131135 -1.71498e-22)
(-1.39774 0.129434 8.33022e-20)
(-1.429 0.127719 0)
(-1.46008 0.125988 8.06471e-20)
(-1.49099 0.124237 -1.76166e-22)
(-1.5217 0.122461 0)
(-1.5522 0.120655 0)
(-1.58247 0.118813 -7.5842e-20)
(-1.6125 0.116932 0)
(-1.64226 0.115006 0)
(-1.67175 0.113032 7.242e-20)
(-1.70092 0.111003 1.43133e-19)
(-1.72977 0.108918 -7.07338e-20)
(-1.75827 0.106772 0)
(-1.78638 0.104562 6.87892e-20)
(-1.81408 0.102285 0)
(-1.84135 0.099939 6.6598e-20)
(-1.86815 0.0975211 6.60093e-20)
(-1.89445 0.0950305 -1.29917e-19)
(-1.92022 0.0924652 -6.39275e-20)
(-1.94543 0.0898251 0)
(-1.97005 0.087109 1.24703e-19)
(-1.99403 0.0843169 0)
(-2.01735 0.0814483 1.82115e-19)
(-2.03996 0.078504 1.1965e-19)
(-2.06184 0.0754835 1.17989e-19)
(-2.08294 0.0723883 -1.16337e-19)
(-2.10323 0.0692187 1.72147e-19)
(-2.12267 0.065977 0)
(-2.14122 0.0626637 0)
(-2.15884 0.059281 -1.09759e-19)
(-2.1755 0.0558295 -1.62254e-19)
(-2.19114 0.0523116 0)
(-2.20575 0.0487281 5.24712e-20)
(-2.21927 0.0450815 0)
(-2.23167 0.0413731 -1.52221e-19)
(-2.24291 0.0376062 -9.97358e-23)
(-2.25297 0.0337829 8.33251e-23)
(-2.26181 0.0299079 9.63022e-20)
(-2.2694 0.0259853 0)
(-2.27571 0.0220228 -9.27835e-20)
(-2.28074 0.01803 -1.123e-23)
(-2.28447 0.0140217 0)
(-2.28689 0.010019 0)
(-2.28797 0.00604378 0)
(-2.28768 0.00210694 8.34597e-20)
(-2.28595 -0.00181713 0)
(-2.2827 -0.00574622 0)
(-2.27789 -0.0096679 0)
(-2.27148 -0.0135753 0)
(-2.26344 -0.0174635 0)
(-2.25376 -0.0213265 7.11714e-20)
(-2.24241 -0.0251574 0)
(-2.22938 -0.0289487 6.65231e-20)
(-2.21466 -0.0326925 6.42427e-20)
(-2.19824 -0.036381 -6.19225e-20)
(-2.18012 -0.0400061 0)
(-2.16029 -0.0435598 -5.71608e-20)
(-2.13877 -0.0470339 0)
(-2.11557 -0.0504201 -5.22352e-20)
(-2.0907 -0.0537097 4.97108e-20)
(-2.06418 -0.0568946 1.42329e-19)
(-2.03603 -0.0599661 0)
(-2.00628 -0.0629161 1.26675e-19)
(-1.97497 -0.0657361 4.02464e-20)
(-1.94214 -0.0684187 0)
(-1.90783 -0.0709559 6.85955e-20)
(-1.87209 -0.0733412 6.30569e-20)
(-1.83498 -0.0755681 -8.55736e-20)
(-1.79655 -0.0776312 0)
(-1.75686 -0.0795244 -2.23864e-20)
(-1.71598 -0.0812426 -1.94786e-20)
(-1.67398 -0.0827825 -5.09958e-20)
(-1.63093 -0.0841459 0)
(-1.58691 -0.0853416 0)
(-1.542 -0.0863671 0)
(-1.49627 -0.087207 -6.10704e-21)
(-1.44982 -0.0878676 0)
(-1.40273 -0.0883639 0)
(-1.35508 -0.088692 -4.37718e-21)
(-1.30696 -0.0888482 -7.38276e-21)
(-1.25844 -0.0888325 0)
(-1.20962 -0.0886472 0)
(-1.16058 -0.088294 -3.2687e-20)
(-1.11141 -0.0877781 0)
(-1.0622 -0.0871039 4.44635e-20)
(-1.01302 -0.0862793 4.87471e-20)
(-0.963959 -0.0853112 0)
(-0.915091 -0.0842073 0)
(-0.866483 -0.0829738 -6.58387e-20)
(-0.818198 -0.0816201 -1.46653e-21)
(-0.770295 -0.0801599 -1.44268e-21)
(-0.722837 -0.0786129 0)
(-0.675879 -0.076998 -1.76444e-19)
(-0.629468 -0.0753326 0)
(-0.583636 -0.0736277 0)
(-0.538409 -0.0718964 0)
(-0.493803 -0.0701495 1.08836e-19)
(-0.449828 -0.0684027 0)
(-0.406481 -0.0666676 -2.33814e-19)
(-0.363753 -0.0649591 -1.22459e-19)
(-0.321622 -0.0632883 0)
(-0.280057 -0.0616728 -1.30843e-19)
(-0.23902 -0.060124 0)
(-0.198457 -0.0586575 0)
(-0.158305 -0.057284 -4.25222e-19)
(-0.11849 -0.0560234 2.90057e-19)
(-0.0789268 -0.0548853 0)
(-0.0395153 -0.0538852 3.03392e-19)
(-0.000139537 -0.0530335 -1.55417e-19)
(0.0392875 -0.0523388 0)
(0.0788943 -0.0518054 0)
(0.118872 -0.0514522 0)
(0.159409 -0.0512786 -4.83042e-19)
(0.200707 -0.0513043 0)
(0.242986 -0.0515502 -1.62694e-19)
(0.286473 -0.0520086 0)
(0.331446 -0.0526566 0)
(0.378226 -0.053542 0)
(0.427063 -0.0547468 0)
(0.478098 -0.0563185 0)
(0.531469 -0.0582409 0)
(0.587328 -0.0604609 -3.31355e-19)
(0.645808 -0.0628884 0)
(0.706993 -0.0654195 -1.67354e-19)
(0.770857 -0.0679201 5.03886e-19)
(0.83726 -0.0701843 0)
(0.905754 -0.0718559 0)
(0.975999 -0.0722265 -3.437e-19)
(1.04547 -0.0700758 -3.49301e-19)
(1.11803 -0.0619962 3.54842e-19)
(1.17508 -0.0393715 3.66625e-19)
(-0.0086217 -0.02669 -2.86824e-18)
(-0.0193705 0.00495433 -1.14036e-18)
(-0.0321184 0.0314011 -4.11792e-19)
(-0.0468345 0.0538324 -1.47796e-19)
(-0.0624384 0.0732798 0)
(-0.0786208 0.0901246 2.1413e-19)
(-0.0955392 0.104542 -9.78469e-20)
(-0.113393 0.11671 0)
(-0.132321 0.126875 -8.65085e-20)
(-0.152397 0.135352 0)
(-0.173644 0.142476 1.58207e-19)
(-0.196045 0.148568 0)
(-0.219564 0.153912 7.34768e-20)
(-0.244153 0.158739 1.42192e-19)
(-0.269766 0.163234 -1.37907e-19)
(-0.29636 0.167539 0)
(-0.323889 0.171762 -1.30612e-19)
(-0.352306 0.175978 0)
(-0.381559 0.180234 0)
(-0.411578 0.184545 -1.22407e-19)
(-0.442268 0.188883 0)
(-0.473505 0.193157 2.25524e-23)
(-0.50514 0.197211 0)
(-0.537016 0.200841 0)
(-0.569015 0.203836 -8.49672e-23)
(-0.601088 0.206034 -1.08904e-19)
(-0.63324 0.207489 -1.05935e-19)
(-0.665403 0.208535 -1.0318e-19)
(-0.697329 0.209411 0)
(-0.728791 0.210109 -1.95636e-19)
(-0.759692 0.210492 0)
(-0.790087 0.210287 -9.34337e-20)
(-0.820201 0.209331 0)
(-0.850224 0.207797 0)
(-0.880131 0.205927 8.71914e-20)
(-0.909941 0.203615 0)
(-0.939813 0.201062 -8.31669e-20)
(-0.969723 0.198609 -4.41019e-23)
(-0.999503 0.196306 1.59353e-19)
(-1.02909 0.194015 -1.56052e-19)
(-1.05854 0.191728 0)
(-1.08787 0.189452 0)
(-1.1171 0.187193 -7.35283e-20)
(-1.14623 0.184947 0)
(-1.17527 0.182712 -7.10006e-20)
(-1.20421 0.180483 6.97673e-20)
(-1.23306 0.178255 6.85825e-20)
(-1.26182 0.176025 0)
(-1.29048 0.173787 -6.63442e-20)
(-1.31903 0.171537 -6.52846e-20)
(-1.34748 0.169268 1.28368e-19)
(-1.3758 0.166974 -6.32702e-20)
(-1.40398 0.16465 -6.23105e-20)
(-1.43202 0.162288 0)
(-1.4599 0.159882 0)