/*--------------------------------*- C++ -*----------------------------------*\
| =========                 |                                                 |
| \\      /  F ield         | OpenFOAM: The Open Source CFD Toolbox           |
|  \\    /   O peration     | Version:  2312                                  |
|   \\  /    A nd           | Website:  www.openfoam.com                      |
|    \\/     M anipulation  |                                                 |
\*---------------------------------------------------------------------------*/
FoamFile
{
    version     2.0;
    format      ascii;
    arch        "LSB;label=64;scalar=64";
    class       volScalarField;
    location    "80";
    object      omega;
}
// * * * * * * * * * * * * * * * * * * * * * * * * * * * * * * * * * * * * * //

dimensions      [0 0 -1 0 0 0 0];

internalField   nonuniform List<scalar> 
404911
(
598.974
143.85
3564.73
1666.26
129.538
149.568
185.693
725.127
456.457
394.245
1084.29
377.871
134.745
317.396
496.918
1225.96
905.478
117.478
107.528
382.417
1182.01
127.966
630.043
706.921
126.093
1011.43
1043.81
116.206
119.638
1094.62
931.94
118.205
184.238
399.028
278.643
128.415
265.44
517.427
291.259
144.701
396.646
1128.69
290.313
143.443
109.836
468.185
419.164
143.773
141.244
2043.96
493.724
1606.82
346.911
1449.74
439.866
687.85
9536.32
81.624
406.752
301.585
60.0922
43.2909
241.215
3.84309
70.9985
257.601
6.13112
541.116
77.176
5.5151
67.4136
1.39005
67.643
21.2371
12.1577
689.891
2390.64
307.623
40.6867
91.0504
25.6485
103.529
2.97742
63.9745
41.668
36.9202
373.086
22.3199
1247.08
137.592
208.833
3079.87
20.1535
89.8878
98.7155
18.3889
54.2958
117.704
8.59108
301.423
707.112
17.3306
37.2409
551.501
1256.57
506.008
254.1
682.679
339.516
263.52
206.907
211.754
203.698
220.212
2318.49
519.938
221.704
4579.18
615.155
179.803
185.219
184.579
190.124
269.131
1320.91
320.446
214.015
201.893
184.262
535.877
493.886
533.878
180.126
173.519
185.601
178.24
231.613
228.892
176.848
293.286
1193.36
315.061
201.576
184.947
186.313
184.37
187.164
176.576
533.009
477.318
182.224
172.093
193.398
1813.4
293.389
1000.66
262.897
177.731
165.019
174.919
177.544
185.243
188.836
187.896
182.332
176.8
177.153
176.715
190.192
266.078
408.186
598.928
467.363
444.288
465.313
460.605
538.906
183.092
189.809
182.035
181.758
180.268
188.734
200.535
206.037
205.745
296.28
719.36
484.88
434.665
438.542
591.614
387.491
563.767
474.805
169.279
178.974
177.322
186.829
194.113
200.298
230.849
1180.09
1003.29
261.559
593.027
1215.73
305.093
297.212
604.835
468.111
356.724
411.881
472.825
481.487
165.893
182.665
188.704
187.847
213.79
505.044
873.174
608.489
289.306
212.634
134.294
247.142
654.49
298.535
382.09
785.551
476.44
456.672
150.45
184.75
188.999
209.619
304.896
1218.96
1234.93
291.592
135.693
228.245
118.551
120.362
122.315
140.897
332.845
391.081
269.287
172.49
167.158
331.161
501.494
176.557
220.809
1125.18
476.17
176.37
122.951
285.043
117.425
117.802
105.509
116.293
126.792
153.512
131.068
138.269
435.473
414.248
484.799
550.241
442.312
483.843
217.979
168.547
482.298
133.057
113.087
130.065
107.393
103.496
141.634
103.362
112.916
258.938
396.511
460.13
491.374
1705.83
370.373
183.59
160.455
102.671
109.18
117.85
124.938
111.527
115.017
113.044
106.906
107.316
110.954
349.819
420.255
459.475
256.092
1045.9
996.437
898.911
313.439
218.364
53.3764
48.983
114.249
114.279
116.884
104.633
108.806
106.863
111.163
114.769
164.063
385.02
196.562
559.699
1125.78
261.156
154.231
672.016
122.777
104.542
103.937
40.6708
106.348
99.2592
114.667
128.388
60.2681
116.46
120.273
144.797
915.189
274.359
481.603
170.158
295.688
99.0873
82.4065
171.681
153.215
73.5948
46.2045
81.0841
44.3636
39.8311
77.8465
128.393
126.189
176.332
200.557
1018.82
1153.22
274.044
159.832
199.588
63.7799
52.8274
75.6929
91.8892
29.9963
28.7937
29.2604
66.6709
57.7325
66.0881
125.616
138.611
1064.98
902.133
360.733
151.788
129.012
99.5734
142.282
79.9413
83.2246
37.226
39.435
39.8482
36.2714
28.5748
66.6705
98.1545
134.821
145.899
288.606
726.678
1114.08
903.118
1037.7
137.027
186.837
34.727
75.9726
85.4757
41.1254
20.7676
30.0273
40.3858
38.9939
72.0027
117.587
187.086
155.203
451.395
442.083
173.908
600.071
87.4935
64.1541
17.1918
26.8268
63.0068
29.8655
71.5773
57.3632
38.4599
45.7832
57.6483
119.998
145.005
285.475
984.584
194.161
129.263
176.171
47.5832
28.9894
27.3468
23.9145
58.3476
84.7758
85.6362
136.266
60.5543
79.3123
64.2616
299.458
159.661
320.065
439.828
144.86
171.187
101.297
48.4462
32.4915
26.0866
16.7136
24.8111
45.5107
89.5082
82.4373
50.0175
91.7228
102.502
231.062
176.959
993.29
255.025
122.296
106.505
46.4256
31.2206
28.7364
55.9499
57.5376
25.4219
27.734
25.6622
29.4008
156.082
112.785
151.176
171.714
289.744
1188.94
471.499
179.413
287.985
71.2434
47.1422
37.1428
25.6588
18.4198
35.405
34.5957
31.8119
40.4664
43.3359
44.9134
126.197
122.639
191.777
1020.29
1143.32
241.874
124.663
157.267
62.9877
45.8444
39.1126
34.0183
25.1663
21.916
23.4703
19.6549
71.3794
50.1711
60.6765
115.756
161.87
304.73
445.727
159.533
242.942
69.9606
50.1225
43.2335
41.8556
29.9149
23.1819
24.2807
24.6629
23.8165
29.0396
78.2155
96.4054
293.112
185.268
1013.86
1154.25
242.443
126.934
117.209
54.4844
44.1328
42.1241
42.3471
42.1097
30.3203
21.6962
19.6384
20.1873
32.4768
68.6491
92.9925
182.701
278.664
915.593
164.2
230.686
67.4761
46.4492
42.2216
41.6376
43.5679
43.5561
41.9502
35.0824
27.6407
29.3146
31.3666
55.3422
330.081
205.789
334.379
272.639
131.611
105.616
53.5735
43.4434
40.0359
40.7606
42.0577
42.553
42.8573
40.6053
39.9822
42.0541
49.12
97.9593
304.965
172.199
519.208
246.369
280.284
162.696
35.5898
41.0369
37.0368
29.1782
29.6001
38.978
40.7623
39.7955
41.1481
45.1351
62.644
152.758
132.551
256.31
1134.39
1169.06
184.405
173.257
91.0633
23.7758
27.1751
39.0775
28.2131
19.7275
16.2753
33.0482
39.0483
42.8524
46.7017
63.5407
270.982
170.847
469.746
944.899
169.495
247.006
58.2725
40.4393
36.0224
37.2378
40.127
29.3641
35.6198
5.55557
29.2375
42.213
47.8561
71.4151
267.212
177.504
1079.04
298.387
146.966
280.571
64.0681
40.6895
36.6374
38.4988
41.6034
41.6951
37.1523
30.735
30.2096
40.5893
47.6905
107.97
120.206
185.186
1119.37
283.877
129.491
116.458
59.1812
39.2403
27.648
24.7499
31.7014
41.1501
42.0399
39.8221
40.8944
44.3399
54.6351
116.47
132.232
279.063
1051.99
208.36
128.071
109.018
49.5394
41.398
35.2216
22.529
18.6412
26.7677
37.4246
39.4366
41.5003
45.5556
61.9744
240.646
156.78
458.369
445.436
156.409
289.429
104.873
47.8538
34.5069
28.8152
31.516
23.5773
17.0837
17.4308
27.4093
42.8312
46.2516
62.9078
248.127
176.76
1026.6
290.346
131.325
111.926
57.1894
42.9664
27.3167
21.8102
17.618
23.0235
31.113
21.0823
6.03415
23.0455
44.4828
66.7237
251.816
227.685
1158.91
1069.59
189.88
121.923
107.774
51.5804
43.552
35.5902
22.3028
15.9976
16.6684
19.1213
28.9894
26.5915
15.2063
32.018
97.6051
124.359
256.508
1061.53
177.402
258.347
71.4792
47.3922
43.2219
40.9914
36.1766
21.1921
18.4905
17.6118
13.3509
22.1814
36.7491
45.2692
105.776
142.086
433.943
1045.37
175.777
261.464
63.5059
46.0001
41.3486
40.8915
40.5889
38.6263
27.222
10.2356
9.96555
14.1875
27.964
57.332
220.646
158.664
926.201
1040.27
172.196
250.082
64.4572
44.7005
42.2304
40.8403
40.8729
39.2834
37.5264
32.294
20.3323
9.43409
18.5081
43.5175
234.367
226.143
1156.32
286.399
151.948
248.089
62.1806
44.7931
42.066
40.8023
40.5596
39.1888
26.934
14.7741
20.1352
25.0694
19.6642
39.091
207.871
251.388
1171.78
262.626
129.463
117.903
56.1503
45.0775
41.6342
40.2352
39.9193
42.1477
36.2281
17.9848
5.53492
19.6532
28.415
53.5571
212.416
245.523
1119.63
177.433
288.219
109.234
53.1709
46.1302
38.7866
34.4241
33.868
39.4937
43.536
37.7876
28.0826
13.0033
19.909
79.727
279.223
260.505
997.404
173.343
264.299
65.153
47.625
43.4122
40.4483
27.6721
19.6208
16.7454
32.6489
39.1731
40.9345
41.4649
42.2998
91.3566
128.929
272.697
1063.79
173.957
271.393
65.6401
44.4298
43.4858
40.9856
39.7339
27.7195
11.8589
13.4489
29.4019
40.5955
44.3451
49.5574
114.394
132.728
289.195
1066.09
178.575
278.339
66.3947
44.1054
43.9869
41.1811
40.3134
41.4747
38.7611
33.0324
29.3685
38.7432
43.3713
60.0736
165.379
143.57
435.248
997.908
170.468
275.941
67.2182
43.6792
42.913
40.6903
40.9515
40.5837
42.5911
40.5828
38.5998
41.5207
44.087
62.9538
258.578
171.539
1006.79
300.632
166.638
270.623
63.4215
42.684
40.7728
39.2774
36.9287
37.513
37.038
39.8083
39.3816
41.9168
45.0893
63.4546
259.005
174.662
1091.94
305.778
162.07
237.889
49.0669
28.5556
34.2808
35.277
32.8338
25.2495
16.8659
24.1358
33.3473
42.79
44.5746
63.557
252.435
172.479
1060.19
1197.2
214.956
156.533
265.718
56.5516
23.0268
16.1796
13.3275
22.8994
19.7927
5.04669
3.51681
4.8864
31.656
43.7906
63.3991
255.4
185.745
1046.01
1084.16
176.281
121.706
161.451
63.4193
37.5602
18.8467
6.60198
3.07193
3.82314
4.05425
2.89009
3.30446
12.863
38.9334
70.9917
267.314
234.789
182.082
278.477
76.5991
49.2823
42.1021
39.2988
27.7361
7.42259
2.89557
6.45343
2.49997
12.4204
27.0478
39.1488
107.258
122.116
247.075
1022.1
184.887
265.742
67.1326
44.5767
41.9125
40.7922
38.7955
26.0006
4.89486
2.80119
2.30422
4.89412
19.4146
43.7213
112.778
133.118
293.504
1064.7
176.549
238.303
63.3183
44.5135
42.6569
38.4412
36.123
35.6528
25.2306
4.41895
2.69278
3.9938
19.2742
41.6188
111.331
140.58
442.724
1162.58
175.599
251.662
61.6969
44.3379
41.851
38.1999
26.6498
15.8748
24.6746
24.3214
6.28108
9.86935
19.0932
45.874
149.168
147.815
870.223
161.676
270.035
65.9835
44.7741
41.3901
40.8093
36.7346
16.6473
5.13712
8.04791
24.2915
30.2878
33.7725
58.3952
241.824
170.763
973.773
778.415
278.863
51.1504
44.1399
40.9159
40.3596
40.308
35.6893
12.098
4.1975
5.66972
33.3296
42.4063
68.7145
249.998
175.935
1074.07
2200.49
882.214
102.348
65.7176
34.2
40.3881
40.3635
35.6428
28.0332
28.3416
14.953
8.00784
23.6725
43.6922
103.151
122.398
194.612
1124.02
292.542
112.329
147.524
27.8258
32.1447
39.1466
40.4167
34.9834
18.0295
5.151
6.13907
25.3981
27.2074
39.537
109.656
130.46
271.313
275.29
350.326
74.7847
39.4186
31.6416
29.278
33.596
38.279
27.9752
8.39614
5.31923
11.6128
36.1251
51.3823
118.507
137.533
290.665
1207.61
239.825
269.46
77.8958
32.3391
23.4443
21.6875
16.5378
23.2078
21.8271
16.8607
12.6864
22.1203
29.3931
56.7004
239.882
159.026
875.137
974.378
181.47
167.326
49.543
28.0618
18.2633
14.7821
13.2041
16.1991
11.0337
5.49701
9.97585
21.1441
34.7202
56.6382
231.379
170.537
1006.57
842.78
136.521
199.104
49.9647
23.3236
18.7828
5.49401
0.690576
2.12047
3.90303
3.61276
11.0628
16.5456
19.8799
32.6375
142.18
172.924
1016.11
447.322
127.888
98.9368
26.4047
19.7122
13.5227
9.23464
1.73039
1.69426
4.27446
11.3803
15.346
18.5327
20.2998
31.9753
102.13
178.657
1052.01
1026.23
236.82
126.357
88.8578
23.4489
17.1064
8.06302
0.567095
0.701473
10.0072
15.9242
18.6258
19.477
20.0554
30.5394
62.8061
111.853
322.598
1059.62
910.2
144.466
141.098
44.2831
19.8003
17.1293
1.69323
0.54429
1.41344
10.3799
19.1822
25.1985
33.026
36.5549
41.5609
66.5971
200.164
192.349
1089.28
211.743
94.9866
30.468
21.0737
14.5672
1.27671
0.582097
1.05686
5.5609
13.6162
35.3665
34.7419
40.5358
46.6821
103.64
122.389
245.658
1213.65
245.325
130.43
37.5836
17.9692
10.5167
0.645708
0.580484
3.28113
3.29126
7.83609
13.82
30.9693
40.4583
47.04
111.706
132.699
287.593
252.255
158.327
59.1869
19.5175
7.96579
0.614092
0.552438
0.759106
8.99569
5.04655
11.4783
27.4119
39.0297
48.7711
115.087
140.118
439.757
228.078
213.623
59.5982
21.6998
11.4936
0.519285
0.630362
1.69369
2.74687
5.35098
15.4036
22.3821
40.2137
56.9017
157.38
146.312
886.466
964.568
160.675
220.999
45.7911
22.1826
13.602
1.07041
0.832076
2.64044
4.4515
12.1654
15.1253
15.0331
39.043
67.8147
242.26
178.286
990.789
915.043
167.209
175.334
42.8437
21.47
10.6514
0.625165
0.548986
3.25443
16.0567
16.1833
17.0847
20.3052
33.5699
94.9297
122.491
258.867
851.323
141.035
83.4871
33.0338
19.9387
14.2477
0.741727
0.620922
1.32398
8.21146
21.7204
20.9328
35.1832
42.1376
99.7198
130.387
297.003
862.281
138.096
87.7199
32.4637
21.9856
11.7
0.541635
1.47855
12.6509
19.8655
17.9549
20.4666
30.3165
45.5863
106.483
137.401
297.859
874.782
141.572
81.8787
32.0468
25.6305
13.2958
0.72999
1.07575
7.09919
12.7011
17.4526
20.7542
37.9374
55.913
144.17
144.939
873.964
882.957
142.951
77.6769
31.3555
20.5097
19.9904
12.9085
1.00147
2.71356
19.8971
21.818
22.32
38.7896
59.1117
235.356
171.052
979.994
279.531
144.52
263.823
38.787
19.6755
5.58658
4.75039
8.91991
14.7392
16.8745
19.4734
36.1265
40.4726
59.9541
238.02
177.712
1057.27
342.708
282.153
64.2834
21.2578
10.8418
0.544026
1.23784
12.0861
17.0164
20.7844
36.3193
46.3289
90.1927
271.61
224.418
1190.54
327.568
128.055
90.7299
27.4592
0.682263
0.516281
0.620007
11.8536
21.336
22.2943
24.5311
43.2683
98.1662
131.388
271.103
276.809
1133.38
125.444
99.3723
35.896
0.59126
0.769751
3.80454
6.97656
23.334
21.4631
36.6014
48.1463
109.026
135.249
294.884
297.129
130.501
139.905
109.936
79.0732
3.66347
0.49656
0.698659
12.7086
27.0418
23.0417
36.7027
49.3274
161.444
160.586
863.369
305.739
135.942
223.53
106.444
116.883
83.3587
8.84672
12.4984
18.8684
24.3077
65.5209
87.711
84.291
153.503
189.209
1055.38
1175.16
282.075
161.735
152.903
104.033
114.522
108.703
77.2367
21.0952
85.9982
90.7
121.469
58.714
99.4518
219.983
484.255
1222.62
202.987
130.361
120.499
50.5124
95.7042
105.042
73.5659
8.07381
32.2069
85.0707
94.8737
106.919
113.049
427.058
239.953
988.914
194.239
148.533
164.828
52.4911
155.58
84.2843
111.906
83.1624
28.3396
85.1865
108.884
111.539
123.866
809.18
814.347
290.491
143.542
604.04
199.15
100.218
31.048
31.2796
27.9698
22.4486
24.3599
116.66
68.463
91.9926
162.247
298.883
4096.49
301.706
541.107
400.291
123.06
104.693
81.7875
28.8867
88.9053
85.0684
81.4403
83.2028
98.1849
213.947
178.539
283.8
785.119
1068.09
629.457
315.424
120.419
137.238
83.917
20.3646
34.7109
128.179
89.7093
111.373
266.021
200.643
189.772
314.893
1186.39
194.943
445.914
237.029
86.7292
78.4297
38.1786
68.5122
106.199
113.591
108.807
122
130.821
187.253
225.363
1406.15
1175.25
212.899
156.493
895.577
247.171
125.701
28.4619
36.5836
99.1673
117.953
113.776
124.085
139.388
151.174
311.006
1236.87
568.505
203.709
161.066
485.398
332.581
139.645
90.9318
68.2417
112.476
119.014
121.259
218.323
131.725
163.563
319.546
1134.19
538.29
473.105
371.577
357.894
84.2421
99.1659
102.721
125.537
123.027
252.305
156.875
220.078
1139.4
712.594
515.513
453.817
398.835
334.284
312.691
119.354
100.426
123.94
218.456
132.44
166.181
309.481
1161.22
195.658
158.624
495.917
1200.68
137.537
320.087
802.59
134.296
141.933
269.812
154.445
197.389
508.235
1220.6
208.002
165.242
502.814
476.361
286.182
154.015
297.342
405.495
907.321
338.074
162.578
210.425
1188.06
1145.09
207.823
540.562
491.214
502.218
377.402
190.381
256.125
153.918
348.636
495.218
166.895
216.963
1270.38
1209.41
208.884
555.25
493.558
502.346
473.57
208.76
167.653
127.17
382.484
493.681
170.911
296.853
1314.67
1159.93
219.128
178.287
516.083
477.432
512.78
1047.15
126.739
139.952
337.031
161.896
182.545
299.23
1417.88
1441.56
1151.71
183.188
170.683
493.316
489.832
610.271
680.544
232.018
357.063
506.756
185.452
313.927
176.402
520.741
475.829
483.594
151.92
496.238
507.182
523.838
483.598
178.885
160.339
475.06
551.304
168.345
185.601
256.395
1129.65
6296.91
590.212
160.182
487.347
515.537
198.365
344.838
2827.61
2106.05
493.298
779.161
194.075
217.022
1129.39
472.186
769.519
199.633
209.556
543.439
830.353
600.835
240.953
194.928
231.95
1126.15
1154.83
275.041
1951.85
818.677
484.888
328.723
185.357
179.705
214.107
215.138
608.492
269.274
195.73
356.814
669.265
1460.35
1311.2
6442.95
476.917
1369.37
495.395
474.151
1265.08
499.135
319.982
235.531
224.695
208.981
194.592
190.583
274.046
1293.8
510.925
307.659
220.345
208.076
192.628
184.71
185.369
192.135
191.784
188.957
179.705
183.261
188.419
182.101
1209.19
479.161
236.448
207.873
188.735
186.222
183.269
180.441
185.251
187.357
190.078
180.465
172.729
176.664
185.706
184.551
186.354
181.769
190.912
272.291
329.959
760.659
915.771
458.671
228.434
198.64
191.602
180.849
177.849
181.037
182.326
182.447
183.649
186.699
190.745
170.708
513.113
512.82
185.243
193.913
180.826
189.515
187.557
212.597
529.758
512.61
282.684
212.746
190.324
170.738
161.429
166.57
172.755
178.337
179.358
180.714
177.455
184.923
182.944
185.553
185.122
166.143
478.388
520.597
166.296
187.193
191.096
204.511
236.744
1190.34
388.856
173.435
135.591
130.322
165.886
173.547
567.246
567.769
758.759
151.349
170.389
176.547
162.096
154.114
161.412
179.54
182.627
171.771
156.844
458.595
514.41
173.371
197.297
234.748
547.867
1472.53
368.653
147.751
123.325
69.3685
67.7538
61.7081
97.2153
118.657
125.361
123.352
238.555
147.617
162.037
1681.19
149.417
583.289
160.587
178.522
186.2
184.194
514.727
522.323
217.028
532.617
1230.18
805.392
188.168
92.3574
50.701
46.3445
32.5048
31.3498
35.9576
52.1392
101.143
128.412
121.596
116.115
172.932
344.461
493.978
111.267
339.98
173.306
183.866
184.511
189.965
215.846
482.401
398.676
1321.53
296.443
139.756
87.7691
38.8484
31.6953
37.8791
36.8806
27.7107
19.6347
49.1757
42.4561
100.669
109.925
120.944
118.826
92.5706
200.831
116.314
232.169
139.766
179.85
200.695
304.407
542.567
1069.79
376.548
161.921
611.268
129.371
71.4201
34.0495
25.7723
25.6458
30.1018
28.8674
20.0255
28.191
29.1492
36.6073
39.7323
40.2639
44.3519
73.6537
109.477
196.525
157.221
158.312
164.187
197.314
478.589
1083.6
219.89
132.456
179.972
89.9478
54.6974
26.0324
22.3793
24.2791
22.8466
26.6337
22.3208
20.2988
19.973
22.418
29.7561
39.2956
41.3587
44.4427
52.7054
157.093
150.061
543.525
505.328
623.522
4484.18
757.57
1368.75
299.33
90.0334
46.3752
30.5393
20.7571
17.503
26.5435
17.4566
18.8412
23.1658
20.9353
22.2895
21.5031
21.0952
21.3743
27.6907
43.6228
50.3344
65.8222
154.453
129.485
538.566
1616.68
1253.2
962.125
137.842
39.1272
34.1276
16.4396
4.21073
3.98849
2.52273
3.65559
22.0074
18.1917
19.4537
21.3435
20.6897
19.089
23.7546
21.3097
69.2515
71.3682
154.413
121.723
182.67
415.959
423.153
167.402
860.382
102.552
76.738
41.1623
27.8153
15.7517
3.33072
2.56765
2.41233
2.49314
2.78127
4.12768
7.16638
3.05882
3.20274
18.6649
19.5682
30.9272
103.162
236.716
123.872
180.282
445.332
402.998
172.329
261.219
106.458
43.133
23.8716
31.8588
38.7813
15.3641
2.9716
2.7048
2.47078
2.34109
2.88939
3.08277
2.79667
3.01729
8.30421
8.26156
19.7011
47.6688
80.6568
652.572
172.005
442.605
361.166
145.551
162.858
103.241
51.8252
35.3832
26.0759
41.2718
25.2165
14.5965
4.66394
2.46162
2.3561
2.69785
2.59539
2.83399
2.72474
5.50675
10.962
16.9685
26.1429
127.794
129.911
385.632
829.106
1121.15
349.668
141.664
141.582
57.5052
39.7963
41.9522
25.7801
19.3279
12.1501
11.6071
10.1209
8.75379
3.84671
2.0157
2.54461
2.16654
2.75526
3.62866
3.6324
21.7338
20.9505
49.2529
86.9428
283.394
408.868
1099.53
344.679
133.148
120.722
53.2069
31.2952
29.1995
16.3105
15.1528
5.25221
2.50328
7.27924
8.52962
8.08146
7.28424
4.53787
4.26132
9.07909
4.23262
2.91776
12.3351
19.4642
19.1808
105.705
280.308
432.586
992.156
232.254
130.804
124.34
49.5745
47.4142
23.3387
13.1088
10.3334
8.71029
5.58329
1.12047
1.10471
6.55188
7.708
8.03164
7.91464
9.2851
8.59291
9.84073
23.1422
30.288
47.7464
121.522
142.721
314.294
1326.86
1194.06
249.213
127.067
105.327
43.8873
43.4154
22.252
11.88
8.93087
8.30156
8.15222
8.04867
7.42636
5.28208
4.51814
7.14838
7.74283
8.43729
4.67405
3.05096
3.87461
23.1843
53.3688
107.233
294.245
177.887
1510.97
380.933
136.378
138.351
52.8533
37.57
18.2705
9.80073
7.37403
6.96365
7.40341
7.92939
8.09704
7.95281
7.68685
7.23243
7.09035
7.46519
8.58984
9.65727
2.99017
2.52387
6.41912
80.7285
264.483
171.638
419.539
430.3
168.457
213.398
61.2458
30.986
22.5648
8.63011
1.4358
1.1452
1.152
1.1994
5.06684
7.61816
8.06824
7.68602
7.59271
7.70447
8.24717
9.10325
10.6908
16.0527
19.8177
33.7193
110.44
169.584
432.436
972.05
215.583
199.721
74.7892
33.1447
17.1147
8.48677
1.96046
1.08313
0.930298
0.878565
0.948944
0.965565
1.0175
6.0439
7.46681
7.53311
8.01058
8.68217
9.76873
14.615
36.6872
47.455
133.183
142.188
380.042
375.938
134.905
91.6465
44.1313
20.1382
7.8289
1.25977
0.850488
0.837906
0.891342
0.830501
0.763257
0.896943
0.867297
3.93777
6.4782
7.72922
8.28764
8.80677
11.6504
26.4612
33.4489
82.2272
282.646
262.859
435.246
154.971
137.666
51.9582
30.1896
8.09797
1.2741
1.19412
0.563034
0.595846
0.758546
0.787203
0.634246
0.758686
0.679434
0.692337
4.69535
7.62235
8.54402
10.7405
21.176
43.2697
53.7896
149.284
155.092
803.96
923.289
207.524
224.656
76.9125
47.2612
20.3839
7.11876
0.834375
0.537902
0.529553
0.529274
0.56236
0.618681
0.651931
0.658543
0.583235
0.611148
0.904069
1.18639
7.5973
14.0557
34.9935
45.8359
123.849
133.688
378.583
929.016
221.873
248.589
87.0136
36.5361
26.185
11.2504
5.11503
1.46554
0.548874
0.514667
0.514732
0.528844
0.530774
0.551186
0.550048
0.583568
0.79188
3.10716
1.29679
4.01468
25.1675
37.9683
92.1775
269.826
232.596
1063.31
388.882
272.131
89.6353
37.926
27.3946
14.1147
8.05868
3.63584
0.667192
0.541758
0.537124
0.515878
0.525731
0.548385
0.516845
0.542641
0.744281
0.849748
0.951328
7.48855
31.2715
108.443
83.9143
248.609
213.204
897.2
764.965
183.333
132.859
46.1866
22.8276
11.659
7.45792
4.43067
2.46933
0.639081
0.534744
0.518389
0.517943
0.781456
0.513149
0.518094
0.535507
0.806574
0.977855
0.840625
15.643
39.44
76.5341
240.051
210.372
885.789
231.569
202.03
56.6489
38.265
11.3215
1.67538
0.856422
1.93841
1.82734
0.59287
0.520917
0.519931
0.872541
1.07466
0.732694
0.519282
0.533052
0.617255
4.1303
11.0407
23.0207
47.3703
133.106
194.998
881.378
764.299
146.357
93.3743
47.9546
18.9412
8.97346
2.88244
0.546932
0.787712
1.17744
1.3568
0.907287
0.851424
0.967852
1.38241
1.79033
0.557686
0.534971
1.86789
5.13879
19.7923
35.5916
91.9156
294.19
362.53
249.533
189.321
52.4122
28.688
10.9608
7.9159
3.80418
1.36491
0.528429
0.597851
0.711754
1.4015
1.90356
1.19677
1.34619
2.70429
3.24891
0.636015
0.667002
10.8239
35.8368
68.4235
239.328
219.19
922.4
938.128
191.989
101.236
48.1761
18.675
7.9363
5.71825
2.95351
1.38927
1.78546
1.07453
0.659571
0.617354
0.776104
0.928227
0.618214
0.51895
4.12637
5.08344
1.45743
32.0069
44.8481
123.51
148.473
830.138
326.645
232.399
63.2719
23.467
9.58115
6.09388
3.38257
1.77476
1.8394
1.07288
0.666026
1.34382
1.39999
1.23811
0.663549
0.519414
0.522823
0.543351
5.9593
18.3873
34.4421
84.6647
248.046
243.903
1201.65
726.644
141.538
99.5037
49.2764
12.4256
1.56991
0.88146
1.7018
0.778575
0.524924
0.632898
0.592111
0.533294
0.829497
1.52727
1.55679
1.65929
2.15021
2.96244
8.35853
26.3848
52.2035
183.232
211.654
889.445
205.843
134.201
45.4007
26.1747
10.8367
3.16905
0.535145
0.552339
0.542966
0.584509
0.619376
0.590512
0.503036
0.565485
0.934989
1.78645
2.38873
4.0469
6.78179
19.7879
33.2888
93.7161
134.278
398.114
709.259
142.958
85.9314
37.8841
13.9911
7.98805
5.5762
2.01499
0.613186
0.505862
0.557101
0.498817
0.507091
0.509437
0.64146
0.715228
2.05651
2.71818
7.09459
7.95612
25.0604
46.1703
191.747
215.955
997.888
237.202
198.191
49.9298
25.8686
10.3079
5.70443
3.64581
2.20677
0.938235
0.562257
0.522906
0.521898
0.48767
0.692204
0.78985
0.493307
1.27083
3.67086
6.83002
10.2553
33.0615
70.0521
261.558
382.962
718.747
142.473
101.193
34.6783
18.5338
7.30396
4.08749
2.14122
1.06802
0.851479
0.810475
0.751897
0.656177
0.74883
0.8318
0.664042
0.500548
1.09276
3.50412
8.89923
21.1776
53.6173
115.578
159.164
886.681
236.928
191.817
51.3485
28.8755
12.0295
8.02243
3.36225
2.0175
1.43757
0.629004
0.549317
0.682702
0.713376
1.11835
1.47386
1.65023
1.48628
2.56173
4.32665
11.9301
34.9396
70.2139
230.896
250.201
735.855
143.344
94.7967
47.9185
17.3441
7.76591
5.17853
2.93851
1.89926
1.5175
1.26885
0.718119
0.570102
0.568054
0.575903
1.06879
1.86052
2.46962
4.0081
8.30195
23.1811
38.6863
118.713
149.028
846.233
245.695
205.471
52.7074
27.0985
10.9527
6.83618
3.21555
2.16104
1.73555
1.58184
0.899549
0.609472
0.622154
0.589146
0.587955
0.61746
1.28108
3.44153
7.42419
11.5368
33.1914
57.4116
219.766
244.965
204.559
116.788
53.1468
17.5958
7.46248
4.28443
2.42808
1.77286
1.61127
1.60615
1.52402
0.819763
0.552702
0.514485
0.562308
0.699411
1.43441
3.79652
8.02652
20.0411
35.2105
100.241
135.341
712.457
762.748
139.439
78.1631
33.8943
11.7443
6.77272
3.0521
1.94091
1.61254
1.55246
1.60435
1.61785
1.51442
1.23225
0.735893
0.772816
0.834825
2.10906
7.06664
9.39224
25.4978
47.7655
201.533
221.541
1012.99
724.501
225.989
50.0362
22.5648
8.40746
4.13044
2.38554
1.71518
1.50122
1.49194
1.53656
1.55979
1.55471
1.48648
1.49267
1.54433
1.81906
3.24374
7.31576
9.70153
28.175
55.9875
234.616
667.921
360.28
187.853
41.6506
17.7068
4.2434
2.03875
1.08852
1.55041
1.38806
0.869496
0.86643
1.42174
1.47183
1.45225
1.53443
1.68348
2.28403
4.55584
7.23465
17.0986
46.6071
99.418
175.784
803.99
205.518
120.77
51.7764
14.1485
6.12723
1.51198
0.652563
0.774244
1.40175
0.861007
0.553628
0.569901
1.18172
1.41969
1.58758
1.756
2.36762
6.46818
9.13352
26.4461
52.0115
191.579
238.232
734.905
287.773
75.2575
34.453
11.6463
6.79255
2.69455
1.53438
1.26808
1.32817
1.44055
0.855572
0.542593
0.525728
1.11398
1.55385
1.79609
2.61217
6.69248
10.0626
35.9959
83.6968
137.196
739.611
377.84
220.666
48.3811
24.1358
9.08079
7.16594
2.99553
1.63991
1.36657
1.41636
1.49611
1.50214
1.34622
1.12219
1.14569
1.51245
1.79926
3.46478
5.89146
12.4094
42.8111
100.708
183.479
992.438
201.389
129.892
39.4963
20.7409
7.69823
4.36227
2.63688
1.60243
0.729829
0.597667
0.8171
1.46996
1.50656
1.43497
1.49765
1.62275
2.0374
3.9326
7.24474
20.6107
39.1959
159.742
228.865
771.433
143.983
87.5961
40.1465
14.8219
7.28764
4.01707
2.13679
1.61288
1.30377
0.586298
0.517069
0.685961
1.33845
1.43274
1.53661
1.68654
2.26455
5.79166
8.92735
26.7176
52.8844
219.775
377.465
371.192
227.255
53.6713
26.8624
10.3866
7.4857
3.79138
2.05595
1.3133
0.830236
1.06048
0.659687
0.543282
0.545298
1.05765
1.5656
1.72637
2.33954
6.33055
9.99622
34.0447
83.0166
136.275
722.157
253.689
171.978
40.5684
21.3805
8.07912
4.31956
2.56303
1.77801
0.906258
0.593872
0.531163
0.644161
1.01261
0.597563
0.500582
0.731725
1.64425
2.4528
6.82206
14.9969
43.6349
97.2699
189.703
1006.61
211.934
124.671
48.0508
14.3902
6.82949
3.95685
2.21557
1.69027
1.32176
0.602993
0.501809
0.523054
0.582583
0.966376
0.599237
0.603221
0.938959
3.22999
6.27824
19.1827
41.7224
143.81
206.433
937.096
147.884
94.0339
40.0376
12.0834
7.24973
3.24151
1.9962
1.65233
1.51167
1.29649
0.582909
0.522309
0.516898
0.513629
0.735649
1.3377
1.66641
3.59941
8.35339
24.9012
53.3138
229.204
365.175
749.084
138.141
81.402
36.7725
11.496
7.17161
2.95588
1.85099
1.55543
1.48806
1.46522
1.39796
0.76558
0.512105
0.487048
0.500436
0.765725
2.15084
5.43545
9.61814
33.6832
88.9833
141.495
762.262
692.516
231.982
55.3061
33.8876
10.8974
6.89438
2.96725
1.80046
1.56724
1.47972
1.47128
1.43656
1.37605
1.2078
0.627752
0.505368
0.572175
1.33629
6.0592
15.0979
51.0474
126.458
200.195
257.574
199.083
44.6998
22.5757
9.15172
6.53772
2.86661
1.78892
1.54941
1.46599
1.45167
1.42879
1.09208
0.668328
0.641646
0.617483
0.63255
1.27457
5.76565
18.2982
43.9391
198.055
252.467
248.198
155.691
54.8703
18.1408
7.88227
4.53768
2.53258
1.79393
1.55004
1.46358
1.44155
1.49309
1.35175
0.668076
0.507123
0.531921
0.785618
2.02136
6.01873
18.2463
47.2082
233.606
673.931
215.286
124.182
47.401
12.7797
7.90903
4.01829
2.34139
1.79516
1.4804
1.28108
1.24876
1.44594
1.54582
1.38295
1.07099
0.636527
0.768981
2.61894
7.47284
20.3747
60.6853
253.507
713.038
210.029
94.7256
37.6648
11.7152
7.23827
3.07197
1.97479
1.6765
1.50991
0.874709
0.575804
0.572187
1.18051
1.41283
1.46743
1.53245
1.54429
3.04212
6.42886
22.8473
64.0763
284.856
850.725
199.458
91.6049
37.1436
11.1267
7.28233
3.04054
1.82244
1.63055
1.50679
1.44713
0.850414
0.551512
0.522223
1.07598
1.44375
1.64451
1.88739
3.74815
7.23046
24.6542
71.381
151.387
955.388
909.837
152.451
90.085
37.2706
11.4661
7.49022
3.07688
1.80036
1.62688
1.51126
1.45804
1.48939
1.39755
1.16264
1.09383
1.3826
1.61697
2.24787
4.85607
9.04381
27.09
75.7186
190.615
723.483
262.018
71.6586
34.2079
10.9154
7.3992
3.09536
1.77509
1.57576
1.48625
1.47144
1.45566
1.51111
1.44295
1.38453
1.48863
1.65676
2.36284
6.18366
9.75605
35.1534
93.5496
198.653
710.236
216.346
47.6705
24.9126
9.45875
7.12014
2.92368
1.71597
1.48711
1.42199
1.36568
1.38731
1.36565
1.4183
1.42024
1.51742
1.70869
2.4022
6.19674
10.5772
45.0046
121.726
206.55
369.638
185.148
42.0483
22.9029
8.28436
6.41552
1.97907
1.01055
1.29088
1.29988
1.24747
0.716561
0.649109
0.698648
1.25748
1.53529
1.70365
2.43883
6.2428
10.4136
46.836
169.623
258.52
250.147
160.77
54.4507
16.1179
7.70192
6.78635
2.62578
0.724987
0.546101
0.590345
0.677062
0.887921
0.511751
0.485256
0.5213
1.1715
1.66181
2.45185
6.54746
12.6114
48.2821
177.118
648.308
254.808
165.96
49.3109
12.9526
6.7384
5.07871
2.80167
1.50896
0.641931
0.487334
0.482567
0.487595
0.495787
0.484258
0.50155
0.608403
1.46622
2.6675
6.9671
17.1059
41.8487
194.583
684.121
219.751
158.675
35.3302
13.5215
7.74787
3.47487
2.12293
1.62949
1.42357
1.11876
0.615667
0.48196
0.482408
0.481166
0.553024
1.06373
1.41477
3.44647
6.29727
20.2428
51.1753
234.488
713.901
203.288
100.737
42.9716
13.5478
7.61735
3.15127
1.83314
1.56247
1.46374
1.3819
1.08631
0.51962
0.480618
0.480474
0.502675
0.744991
1.59996
3.61585
7.29472
24.9326
66.124
137.598
781.344
210.486
94.9344
38.0093
11.4885
6.719
2.93695
1.8086
1.56889
1.41959
1.33956
1.3002
1.04958
0.504839
0.481198
0.491892
0.660418
1.5321
3.69745
8.32931
27.2091
76.0019
184.537
976.64
200.89
105.651
42.9667
11.7791
6.96104
2.82999
1.77152
1.54853
1.41595
1.05948
0.657936
0.688431
0.959899
0.540714
0.534315
0.70275
1.66579
4.37819
8.98403
30.1769
91.4086
198.982
899.111
145.062
66.1348
33.5261
8.89452
7.10063
3.03683
1.78301
1.53528
1.47364
1.35745
0.654908
0.49131
0.502926
0.975896
1.13678
1.26873
2.1619
5.85901
9.14789
32.9304
94.4975
202.879
710.968
259.625
48.1444
4.76488
1.79198
0.817835
1.91046
1.73759
1.5169
1.45959
1.44124
1.31909
0.63224
0.484366
0.549759
1.19167
1.58982
2.50163
6.36333
9.84573
35.2362
93.6408
209.863
716.014
226.949
46.861
17.5714
0.889892
0.522963
0.634258
1.22625
1.472
1.46243