/*--------------------------------*- C++ -*----------------------------------*\
| =========                 |                                                 |
| \\      /  F ield         | OpenFOAM: The Open Source CFD Toolbox           |
|  \\    /   O peration     | Version:  2312                                  |
|   \\  /    A nd           | Website:  www.openfoam.com                      |
|    \\/     M anipulation  |                                                 |
\*---------------------------------------------------------------------------*/
FoamFile
{
    version     2.0;
    format      ascii;
    arch        "LSB;label=64;scalar=64";
    class       volScalarField;
    location    "80";
    object      p;
}
// * * * * * * * * * * * * * * * * * * * * * * * * * * * * * * * * * * * * * //

dimensions      [0 2 -2 0 0 0 0];

internalField   nonuniform List<scalar> 
404911
(
0.107092
0.10701
0.107011
0.107018
0.107171
0.107082
0.107023
0.107024
0.107021
0.107019
0.108518
0.107932
0.107608
0.10738
0.107204
0.107107
0.109067
0.108643
0.108212
0.10789
0.109784
0.109403
0.108899
0.110648
0.110225
0.109582
0.111411
0.111058
0.110735
0.112581
0.11222
0.111827
0.11138
0.111113
0.112821
0.112533
0.112152
0.114006
0.113604
0.113229
0.112805
0.114495
0.114241
0.113938
0.113602
0.113122
0.114788
0.114504
0.11421
0.113945
0.115435
0.115111
0.114754
0.114541
0.115557
0.115366
0.119112
0.106682
0.106966
0.106877
0.10806
0.107613
0.109085
0.108634
0.108268
0.10984
0.109436
0.108938
0.110671
0.110029
0.111437
0.111037
0.110694
0.112233
0.111848
0.111297
0.110972
0.112804
0.112485
0.113663
0.113121
0.114269
0.114006
0.113653
0.11489
0.114534
0.115553
0.115049
0.114717
0.11572
0.115502
0.119005
0.119277
0.118924
0.120449
0.119951
0.119635
0.12116
0.120669
0.120206
0.121811
0.121629
0.121196
0.121789
0.0426648
0.0422617
0.0418581
0.0449753
0.0445281
0.043698
0.0434849
0.0429527
0.0425611
0.042224
0.0416407
0.0462809
0.0458068
0.0447179
0.0440893
0.0435578
0.0432181
0.042787
0.0424136
0.0406954
0.0478675
0.0473595
0.046961
0.0465107
0.046128
0.0458014
0.0451402
0.0444384
0.0438249
0.0434605
0.0430929
0.0426147
0.0418625
0.0410654
0.0408025
0.0405345
0.0491681
0.0485892
0.0480547
0.0475395
0.0470908
0.046683
0.0463096
0.0459434
0.0454722
0.0448992
0.0443177
0.043767
0.0433989
0.0429135
0.0407852
0.0507981
0.0500591
0.0494333
0.0487663
0.0481542
0.0476738
0.0472235
0.0468212
0.0464436
0.0460789
0.0455882
0.0450909
0.0446317
0.0441216
0.0438049
0.0518057
0.0512699
0.0504446
0.0497736
0.0491083
0.0483929
0.0478449
0.0473549
0.0469743
0.0466418
0.0462364
0.0458324
0.0453299
0.0448572
0.044399
0.0440754
0.0536177
0.0528564
0.0521583
0.0515708
0.0507033
0.0501432
0.0494666
0.0486122
0.048007
0.047518
0.0471795
0.0468125
0.0464172
0.0459915
0.0455358
0.0450767
0.0446726
0.0559867
0.0553345
0.0547421
0.0539741
0.0532085
0.0525381
0.0519519
0.0511876
0.0505193
0.0497831
0.0488886
0.0482831
0.0477893
0.0474243
0.047053
0.046619
0.0462116
0.0457709
0.0571882
0.0565601
0.0557403
0.0550987
0.0543603
0.0535967
0.0529757
0.052226
0.0515551
0.0508118
0.050121
0.0492837
0.0485066
0.0480847
0.0477058
0.0472711
0.0468908
0.0464481
0.0587397
0.0582097
0.0576558
0.0569903
0.0562423
0.0554856
0.0547792
0.054011
0.0533281
0.0526001
0.0518964
0.0511978
0.0504993
0.0497022
0.0489016
0.0483977
0.0480134
0.0476097
0.0597629
0.0591866
0.0585982
0.0580671
0.0574138
0.0566615
0.0559408
0.055209
0.0544383
0.0537616
0.0530285
0.052322
0.0515691
0.05087
0.0502595
0.0494463
0.0486601
0.0611672
0.0606405
0.0600144
0.0595708
0.0590334
0.0584679
0.057823
0.0571016
0.0563488
0.0556449
0.0548858
0.0541281
0.0534294
0.0527309
0.0519703
0.0512481
0.050696
0.0625629
0.061989
0.0614251
0.0610987
0.0605846
0.0600264
0.0594488
0.0589261
0.0583016
0.0576116
0.0568432
0.0560092
0.055241
0.0544773
0.0538377
0.053089
0.0523722
0.051702
0.0643752
0.0637859
0.0629877
0.0623245
0.0617227
0.0614659
0.0609389
0.0604271
0.0598715
0.0593758
0.0588953
0.0581158
0.0572653
0.0564331
0.0555744
0.054773
0.0542146
0.0536311
0.0655652
0.0651838
0.0647887
0.0643955
0.0635988
0.0628083
0.0621355
0.0618123
0.0613727
0.060853
0.0602214
0.059757
0.0594059
0.0586246
0.0576477
0.0567613
0.0560035
0.0551752
0.0663315
0.0658644
0.0654509
0.065071
0.0647026
0.0641572
0.0634222
0.0627006
0.0621159
0.0617189
0.0610946
0.0604703
0.0600692
0.0597488
0.0590308
0.0580128
0.057086
0.0563295
0.0676306
0.0671113
0.0665123
0.0661206
0.0657258
0.06524
0.0648595
0.0644319
0.0639144
0.0633171
0.0625872
0.0621358
0.0615009
0.0608233
0.0603144
0.0599613
0.0592844
0.0584255
0.0685413
0.0679497
0.0674169
0.0669094
0.0664022
0.065953
0.0655283
0.0650098
0.0645573
0.0642346
0.0638591
0.0632362
0.0626459
0.0620024
0.0612539
0.0606982
0.0602637
0.0596969
0.0704151
0.0698618
0.0690092
0.0683203
0.0677999
0.067306
0.0667916
0.0662924
0.065827
0.0652438
0.064719
0.0644481
0.0641546
0.0637827
0.0632683
0.0625892
0.0617938
0.0610865
0.0713463
0.0709049
0.0704588
0.0696991
0.0689501
0.0683501
0.0678158
0.0673368
0.066745
0.0662427
0.0655914
0.0650435
0.0647007
0.0643793
0.0640119
0.0635886
0.0629779
0.0724636
0.07204
0.0716049
0.071255
0.0709068
0.0702003
0.0695461
0.0688847
0.0683566
0.0677445
0.0671413
0.0666482
0.0659835
0.0654055
0.065056
0.0646772
0.0642942
0.0638325
0.0732717
0.0728015
0.0723888
0.0719239
0.0715532
0.071174
0.0706223
0.0700229
0.069478
0.0689444
0.0683674
0.0676857
0.0670252
0.0663924
0.0658173
0.065372
0.0649895
0.0645888
0.0739952
0.0735934
0.0731698
0.0727551
0.0722443
0.0717543
0.0713479
0.0708981
0.070371
0.0699466
0.0695261
0.0689575
0.0681676
0.0675153
0.0668404
0.0664238
0.065796
0.0653613
0.0751585
0.0747135
0.0743211
0.0739437
0.0735525
0.0731998
0.07265
0.0721306
0.071543
0.071006
0.0705346
0.0702025
0.0698303
0.0694251
0.0686987
0.0680181
0.0673267
0.0667279
0.0762277
0.0758382
0.0754452
0.0750514
0.0746845
0.0743002
0.0738962
0.0735034
0.0730879
0.0725144
0.0719313
0.0713522
0.0707441
0.0704094
0.0700299
0.0696045
0.0689761
0.0684246
0.0769724
0.0765253
0.0761302
0.0757503
0.0753659
0.0750199
0.074691
0.0742823
0.0738408
0.0733214
0.0728169
0.0722877
0.0717339
0.0711097
0.0707085
0.0703089
0.0698642
0.0693079
0.0780626
0.0776454
0.0772319
0.076821
0.0764031
0.0760342
0.0756761
0.0753401
0.0750498
0.0747317
0.0742403
0.0737103
0.0731818
0.0726775
0.0721517
0.0715491
0.0709112
0.0706656
0.078758
0.0783424
0.0779291
0.0775227
0.0770909
0.0766789
0.0763066
0.0759503
0.075621
0.0753311
0.0750699
0.0746221
0.0741318
0.0735641
0.07298
0.0725859
0.0719886
0.0714639
0.0795384
0.0790685
0.0786017
0.0782062
0.0778018
0.0773504
0.076921
0.0765563
0.076212
0.0758808
0.0755592
0.0752261
0.074832
0.0743613
0.0738463
0.0733438
0.0728522
0.0722847
0.0804248
0.079893
0.079377
0.0788579
0.0785441
0.0781449
0.0776488
0.0771094
0.0767854
0.076464
0.076137
0.0757966
0.0754304
0.0750197
0.0745742
0.074115
0.0736107
0.0731742
0.0814971
0.0811877
0.0808341
0.080343
0.079828
0.0792892
0.0789332
0.0785503
0.078065
0.0774489
0.0770589
0.0767455
0.0764106
0.076051
0.075672
0.0752691
0.0748495
0.0743251
0.0823478
0.0818728
0.0814593
0.0810855
0.0806292
0.080117
0.0796719
0.0793231
0.079021
0.0785367
0.0779338
0.0774148
0.077078
0.0767216
0.0763264
0.0759489
0.0755499
0.0751476
0.0831355
0.0826971
0.0822281
0.0818105
0.0812841
0.0807622
0.0802974
0.0799166
0.07958
0.0792832
0.0788896
0.0783691
0.0778535
0.0774394
0.077049
0.0766725
0.0762812
0.0758945
0.083851
0.0834455
0.0830239
0.0825594
0.0821848
0.0816459
0.0810655
0.0803975
0.0801071
0.0797932
0.0794797
0.0791173
0.0786715
0.0782355
0.0777932
0.0773697
0.0769872
0.0851313
0.0846585
0.0842263
0.0838066
0.083338
0.0828894
0.0825495
0.0820137
0.0813975
0.0806581
0.0803265
0.0800319
0.0797246
0.0793664
0.0789602
0.0785505
0.0781197
0.0776629
0.0859189
0.0854869
0.0850602
0.0846356
0.0841525
0.0836403
0.0831351
0.0827792
0.0823719
0.0818327
0.0810948
0.0805559
0.0803207
0.0800051
0.0796552
0.0792715
0.0788576
0.0784957
0.0865718
0.086213
0.0858426
0.0854535
0.0850712
0.0846012
0.0840961
0.0834926
0.0830505
0.0827193
0.0822587
0.0816071
0.081002
0.080682
0.0803408
0.0799973
0.0796359
0.0792139
0.0876565
0.0872652
0.0869058
0.086551
0.0862071
0.0858813
0.0855852
0.0850335
0.0845369
0.0839257
0.083359
0.0829769
0.0825985
0.0820956
0.0815159
0.0811007
0.0807156
0.0803379
0.0882837
0.0879277
0.0875948
0.0872412
0.0868995
0.0865649
0.0862563
0.085997
0.0855521
0.0850088
0.0843538
0.0837713
0.0831772
0.0829374
0.0825312
0.0819893
0.0815193
0.0810446
0.0889987
0.0886011
0.0882433
0.087906
0.0875567
0.0872274
0.0868996
0.0865876
0.0863194
0.0860247
0.0854202
0.0848564
0.084141
0.0835446
0.0832228
0.082837
0.0823708
0.0819549
0.0896254
0.0893124
0.0889298
0.0885684
0.088221
0.087874
0.0875474
0.0872229
0.0868734
0.0865348
0.086236
0.0858573
0.085247
0.0845871
0.0840002
0.0835852
0.0832071
0.0827242
0.0904018
0.0900478
0.089629
0.089253
0.0888653
0.0885176
0.0881854
0.0878744
0.0875682
0.087192
0.0867862
0.0863958
0.0860315
0.0855791
0.0849597
0.0844637
0.0839878
0.0914951
0.0910821
0.0907128
0.0903316
0.0899282
0.0895546
0.0891531
0.0887945
0.0884774
0.0881864
0.0879365
0.0875855
0.0872304
0.0866945
0.0862638
0.0858756
0.0853798
0.0849015
0.0921261
0.0917601
0.0914059
0.0910398
0.0906727
0.0902955
0.0898746
0.0894125
0.0890245
0.0887457
0.0884853
0.0882598
0.0880989
0.0875692
0.0870842
0.0865777
0.086179
0.0857497
0.0928354
0.0924513
0.0920779
0.0917289
0.0913482
0.0910143
0.0906937
0.0902888
0.0898566
0.0893038
0.0890063
0.0887683
0.0885145
0.0882619
0.0879027
0.0874188
0.0869528
0.0865215
0.093516
0.0931375
0.0927701
0.0923843
0.0920218
0.091652
0.0913308
0.0910518
0.0907892
0.090435
0.0898061
0.0893749
0.089088
0.0887902
0.088482
0.088112
0.0877135
0.0872949
0.094307
0.0938454
0.0934433
0.0930688
0.0926722
0.0922896
0.0919257
0.0916045
0.0913125
0.0910485
0.0906883
0.0902359
0.0897893
0.0894389
0.089098
0.0887441
0.0883915
0.0879719
0.0951066
0.0946389
0.0941786
0.0937515
0.0933404
0.0929379
0.0925456
0.0921698
0.0918342
0.091534
0.0912407
0.0909128
0.0905322
0.0901342
0.0897673
0.089407
0.0890547
0.0886783
0.0959442
0.0954682
0.0949556
0.0944816
0.0940109
0.0935909
0.0931973
0.0927848
0.0923836
0.0920321
0.091754
0.0914678
0.0911648
0.0908131
0.0904487
0.0900967
0.0897253
0.0893263
0.0967184
0.0963285
0.0959066
0.0953194
0.0946912
0.094227
0.0938246
0.0934778
0.0930815
0.0925992
0.0921893
0.0919744
0.091733
0.0914461
0.0911121
0.0907579
0.0904045
0.0900835
0.097839
0.0974816
0.0970941
0.0967693
0.0964281
0.0957815
0.0951404
0.0945428
0.0940607
0.0937937
0.0933821
0.093078
0.0926134
0.0922865
0.0920435
0.0917584
0.091426
0.0910826
0.0907277
0.0985204
0.0982061
0.0978553
0.097494
0.0971715
0.0969307
0.0964788
0.0959488
0.0952236
0.0945875
0.0942521
0.0938937
0.0935215
0.0930336
0.092705
0.0924221
0.0921012
0.0917693
0.0988576
0.0985206
0.0981796
0.0978224
0.0975238
0.0972735
0.0970059
0.0965756
0.0958669
0.0952859
0.0947045
0.0943083
0.0940339
0.0936144
0.0931613
0.0927993
0.0924551
0.0999212
0.099583
0.0992291
0.098864
0.0985068
0.0981487
0.0978239
0.0975592
0.0973209
0.0968458
0.0963372
0.0957232
0.0951752
0.0947083
0.0943459
0.093978
0.0935754
0.0931783
0.100653
0.100235
0.0999161
0.0995656
0.0992019
0.0988389
0.0984611
0.0980884
0.0977923
0.0975796
0.0971943
0.0966953
0.0961375
0.095547
0.0951448
0.0947425
0.0943519
0.0938942
0.101204
0.100924
0.100584
0.100235
0.099892
0.0995512
0.099213
0.0988022
0.0983395
0.0979554
0.0977868
0.0974537
0.0970617
0.0965355
0.0959865
0.0955435
0.095139
0.0947641
0.10155
0.101205
0.100875
0.100542
0.100211
0.0998899
0.0996103
0.0992613
0.0987608
0.0982537
0.0979788
0.0977662
0.0973721
0.0968644
0.0964077
0.0959464
0.0955395
0.102481
0.101892
0.101455
0.101178
0.100862
0.100521
0.100195
0.0999392
0.0996428
0.0991728
0.0986118
0.0982389
0.0979796
0.0976132
0.0971936
0.0967698
0.096339
0.104371
0.103717
0.103042
0.102377
0.101884
0.101535
0.101199
0.100817
0.100447
0.10018
0.0999445
0.0995371
0.0989622
0.0985959
0.098276
0.0979212
0.0974922
0.0971008
0.105168
0.104727
0.104143
0.103512
0.102789
0.102305
0.10192
0.101583
0.101192
0.100822
0.100426
0.100226
0.0998293
0.0993516
0.0989607
0.0985889
0.0982701
0.105821
0.105476
0.104998
0.104466
0.103882
0.103167
0.102611
0.102269
0.10198
0.10154
0.101204
0.100812
0.10047
0.100195
0.0997481
0.0993183
0.0989278
0.107016
0.106585
0.106205
0.105822
0.105333
0.104863
0.104306
0.103639
0.102994
0.102587
0.102264
0.101978
0.101578
0.101175
0.100819
0.10049
0.100086
0.0996865
0.107768
0.107314
0.106865
0.106555
0.106202
0.105858
0.105386
0.104794
0.104235
0.103705
0.103103
0.102758
0.102252
0.10186
0.101554
0.101205
0.10086
0.100478
0.108595
0.108076
0.107736
0.107218
0.106966
0.106654
0.106499
0.106087
0.105553
0.104933
0.104324
0.10381
0.103309
0.102749
0.102167
0.101863
0.101569
0.10123
0.109587
0.10912
0.108567
0.108098
0.10772
0.107371
0.107089
0.106763
0.106478
0.106161
0.105591
0.104981
0.104471
0.103943
0.103388
0.102778
0.102359
0.102
0.11082
0.110391
0.109941
0.109462
0.109044
0.108563
0.10816
0.107828
0.107664
0.107251
0.106872
0.106482
0.106038
0.105528
0.105088
0.104631
0.104021
0.103348
0.102874
0.111505
0.111145
0.110748
0.110347
0.109904
0.10945
0.109026
0.108592
0.108253
0.107842
0.10747
0.107117
0.106753
0.106384
0.105922
0.105443
0.105031
0.104451
0.10391
0.111823
0.111487
0.111075
0.110687
0.110272
0.109827
0.10935
0.108911
0.108546
0.108077
0.107723
0.107366
0.107015
0.10663
0.106192
0.10577
0.105318
0.104838
0.112753
0.112324
0.111891
0.111453
0.111039
0.110652
0.110147
0.109736
0.109226
0.1088
0.108391
0.107991
0.107668
0.107303
0.106902
0.10649
0.106066
0.113584
0.113151
0.112741
0.112295
0.111833
0.111438
0.110909
0.110598
0.110052
0.109624
0.109117
0.108715
0.108341
0.107997
0.107623
0.107239
0.106756
0.114491
0.113983
0.113549
0.113109
0.112675
0.112188
0.111769
0.111304
0.110956
0.110553
0.109967
0.109498
0.109102
0.108729
0.10835
0.107963
0.107565
0.115701
0.115306
0.114885
0.114355
0.113908
0.113427
0.112936
0.112539
0.112128
0.111753
0.111343
0.110889
0.110332
0.109875
0.10949
0.109108
0.1087
0.108346
0.116615
0.116167
0.115657
0.1152
0.114695
0.1142
0.113796
0.113457
0.112872
0.112497
0.112104
0.111714
0.111287
0.110733
0.110281
0.109874
0.109482
0.117472
0.117023
0.116539
0.116024
0.115464
0.114931
0.114387
0.114041
0.113654
0.113279
0.112868
0.112453
0.112087
0.111672
0.111185
0.110701
0.110274
0.1183
0.117873
0.11746
0.116927
0.116297
0.115643
0.115196
0.114819
0.114389
0.11405
0.113651
0.113243
0.112809
0.112407
0.111997
0.111548
0.111105
0.119231
0.118736
0.118264
0.117799
0.117236
0.116551
0.115986
0.115529
0.114998
0.114719
0.114403
0.114032
0.113628
0.113221
0.112779
0.112383
0.111934
0.120062
0.11965
0.119172
0.118695
0.11821
0.117665
0.116937
0.115932
0.115787
0.115457
0.115193
0.114816
0.114398
0.113991
0.113573
0.113145
0.112742
0.120882
0.120448
0.120022
0.119655
0.119177
0.118776
0.118174
0.117426
0.116814
0.116308
0.115917
0.115614
0.115247
0.114784
0.114372
0.113941
0.113512
0.121283
0.120805
0.1204
0.119972
0.11953
0.119007
0.118616
0.118056
0.117357
0.116779
0.11635
0.115974
0.115583
0.11516
0.11478
0.114284
0.122602
0.121909
0.121284
0.120813
0.120356
0.11995
0.119616
0.118947
0.118373
0.117769
0.117163
0.116701
0.116349
0.115931
0.115523
0.124363
0.123897
0.123209
0.122481
0.121766
0.121356
0.120733
0.120257
0.119968
0.119298
0.118622
0.118068
0.117631
0.117155
0.116733
0.116324
0.12522
0.124836
0.124433
0.123785
0.123065
0.122286
0.121655
0.121459
0.120711
0.120317
0.119771
0.119034
0.118307
0.117956
0.117551
0.117146
0.126149
0.125733
0.125307
0.124751
0.124168
0.123552
0.122817
0.12237
0.121732
0.121223
0.120791
0.120305
0.119573
0.11887
0.11836
0.117975
0.127515
0.127048
0.126583
0.126148
0.125791
0.125228
0.124647
0.124119
0.123579
0.12299
0.122386
0.12171
0.121117
0.120686
0.120139
0.119522
0.128265
0.127797
0.127429
0.127058
0.12661
0.126182
0.125622
0.125074
0.124546
0.124138
0.123585
0.122976
0.122293
0.121689
0.121212
0.120727
0.129242
0.128665
0.128137
0.127737
0.127408
0.126976
0.126542
0.126051
0.125496
0.125077
0.12472
0.124311
0.123703
0.122963
0.122308
0.121654
0.130357
0.129694
0.128974
0.128433
0.128063
0.127724
0.127317
0.12681
0.126349
0.12589
0.125517
0.125204
0.124835
0.124351
0.12359
0.122948
0.131511
0.130773
0.13018
0.129581
0.128951
0.12851
0.128093
0.127695
0.127173
0.126685
0.126232
0.125809
0.125567
0.125235
0.124724
0.124164
0.132554
0.132011
0.131358
0.130778
0.130193
0.129686
0.129133
0.128624
0.128199
0.127595
0.127026
0.1266
0.126273
0.125858
0.125505
0.133503
0.133091
0.132515
0.131929
0.131294
0.130693
0.130202
0.129712
0.129236
0.128704
0.128162
0.127485
0.126997
0.126647
0.126277
0.125841
0.134336
0.133912
0.133519
0.133049
0.132465
0.131798
0.131242
0.130651
0.13026
0.129751
0.129275
0.12876
0.128084
0.127546
0.127154
0.126699
0.135214
0.134769
0.134308
0.133884
0.133407
0.132853
0.13232
0.131794
0.131261
0.130773
0.130296
0.129836
0.129406
0.12877
0.128118
0.135762
0.13516
0.134754
0.134386
0.13388
0.133319
0.132747
0.132292
0.131805
0.131324
0.130781
0.130339
0.129782
0.129268
0.137418
0.136613
0.135853
0.135348
0.134852
0.134321
0.133777
0.133261
0.132763
0.132336
0.13186
0.131256
0.130789
0.138851
0.138439
0.137868
0.137308
0.136586
0.13591
0.135357
0.134827
0.134277
0.133745
0.133201
0.132703
0.132259
0.131648
0.139691
0.139224
0.138832
0.138301
0.137767
0.137069
0.136498
0.135823
0.135272
0.134737
0.134144
0.133621
0.133145
0.132694
0.14063
0.140161
0.139662
0.139117
0.138722
0.138161
0.137591
0.136937
0.136357
0.135847
0.135163
0.134584
0.134092
0.133651
0.141404
0.141092
0.140633
0.140146
0.139658
0.13909
0.138633
0.138034
0.137405
0.136825
0.136318
0.135636
0.135103
0.13458
0.142145
0.14182
0.141528
0.141193
0.140787
0.140359
0.139669
0.139105
0.138482
0.137817
0.137229
0.13675
0.136194
0.13559
0.142822
0.142446
0.142158
0.141985
0.14168
0.141153
0.140717
0.140278
0.139724
0.139029
0.138212
0.137657
0.13719
0.142394
0.142239
0.141826
0.141189
0.140816
0.140339
0.139548
0.138662
0.138047
0.142822
0.142691
0.142285
0.141691
0.141222
0.140814
0.140193
0.13934
0.143751
0.14325
0.14311
0.142917
0.14233
0.141679
0.141225
0.14532
0.144692
0.143934
0.143585
0.143307
0.142814
0.14221
0.145367
0.144782
0.14424
0.143788
0.143353
0.147444
0.146633
0.145568
0.14543
0.144835
0.144349
0.151702
0.151332
0.149226
0.148303
0.145736
0.151883
0.151351
0.150872
0.150349
0.149947
0.146853
0.15271
0.150595
0.149924
0.149569
0.148789
0.153192
0.151913
0.150712
0.00996238
0.00950742
0.00916631
0.0133385
0.0126705
0.0120193
0.0114493
0.0108017
0.0101808
0.00961556
0.00923984
0.00701607
0.0161847
0.0155687
0.014793
0.014199
0.0135266
0.0128594
0.0122479
0.0116196
0.0109654
0.0103306
0.00967657
0.0091899
0.00862792
0.00790836
0.00735068
0.0184097
0.0177475
0.017116
0.0163985
0.0157666
0.0150031
0.0143434
0.0137213
0.0130727
0.0124334
0.0117998
0.0110736
0.0104155
0.00977085
0.00917524
0.00865401
0.00804152
0.00737405
0.00689086
0.00604236
0.00514763
0.00454566
0.0208269
0.0202551
0.0194344
0.0186896
0.0179237
0.0172667
0.0166142
0.0158957
0.0151873
0.0144956
0.0138644
0.0132514
0.0126407
0.0120375
0.0113254
0.0105968
0.00975258
0.00923582
0.00872146
0.00812679
0.00752933
0.00688157
0.00614846
0.0235679
0.0226964
0.0220608
0.0212391
0.0205462
0.0196449
0.0188458
0.0181033
0.0174653
0.0168099
0.0160845
0.0153311
0.0146042
0.013973
0.0133192
0.012851
0.0123475
0.0117142
0.0105844
0.00980327
0.00928055
0.00879839
0.00822831
0.00766871
0.00706369
0.0254368
0.0245007
0.0238704
0.0231238
0.0224047
0.0214558
0.0208421
0.0199075
0.0190347
0.0182467
0.0176493
0.0170392
0.0163612
0.0154387
0.0146651
0.0140586
0.013469
0.0129949
0.0125214
0.0118084
0.0107478
0.00996647
0.00943897
0.00892397
0.00836022
0.0278226
0.0267366
0.025587
0.0249209
0.0241419
0.023331
0.0227277
0.0222086
0.0213641
0.0203289
0.0192925
0.0183953
0.0178809
0.0172968
0.0168308
0.0157201
0.0147384
0.014122
0.0135666
0.0130621
0.0125338
0.0119486
0.0109973
0.0102511
0.00964745
0.0302816
0.0292347
0.0280996
0.0268944
0.0258404
0.0252383
0.024547
0.0237366
0.0229353
0.0225479
0.0218965
0.0209228
0.0198076
0.0187917
0.0181432
0.017694
0.0171479
0.0160622
0.0148598
0.0142071
0.0136617
0.013094
0.0125458
0.0118971
0.0111797
0.033916
0.0330947
0.0318133
0.0307837
0.0295306
0.0282583
0.0271169
0.0262141
0.0255411
0.0249206
0.0240329
0.0232011
0.0228159
0.0223295
0.0215239
0.0205576
0.0194475
0.0184687
0.0178622
0.0173532
0.0162563
0.0151137
0.0143796
0.0137983
0.0132021
0.012544
0.0361334
0.0355169
0.0348869
0.0342572
0.033434
0.0322919
0.0311835
0.0297798
0.028461
0.0276311
0.0267331
0.0258563
0.0250031
0.0241137
0.0234649
0.0229999
0.022521
0.021901
0.0211118
0.0200216
0.0190013
0.0181903
0.0172351
0.016249
0.0154593
0.0145553
0.013966
0.0371157
0.0364778
0.0358497
0.0352609
0.0345239
0.0337118
0.0326037
0.0315896
0.0304758
0.0292384
0.0281814
0.0271497
0.026193
0.0252525
0.0241881
0.0237076
0.0232282
0.022725
0.0221523
0.0215327
0.0207119
0.0195559
0.0187071
0.0176335
0.0164534
0.0405118
0.0398339
0.0388519
0.0378029
0.0369905
0.0361645
0.035636
0.0349513
0.0339601
0.033032
0.0320278
0.0309729
0.0299035
0.0286549
0.0276387
0.026625
0.0255413
0.0244225
0.0239529
0.0234868
0.022979
0.0224942
0.0219689
0.0212876
0.0202471
0.0415659
0.0408268
0.0402641
0.0394951
0.0385619
0.0375412
0.0367662
0.0361163
0.0353231
0.0344333
0.0333923
0.0325003
0.0315052
0.0304346
0.0291789
0.0280746
0.0269439
0.0258445
0.0247831
0.0242125
0.0237438
0.0232843
0.0228087
0.0223112
0.0436578
0.0432895
0.0426992
0.0419999
0.0412094
0.0406714
0.0400697
0.039259
0.0384028
0.0374329
0.0366972
0.0358889
0.0350189
0.0341204
0.0330968
0.0320727
0.0310192
0.0297548
0.0285743
0.0273825
0.0261357
0.025112
0.0245115
0.0239908
0.0234768
0.04498
0.0443997
0.0439083
0.043533
0.0431451
0.0423205
0.0417507
0.0412241
0.0406676
0.039922
0.0389557
0.0380326
0.0373653
0.0364544
0.0356121
0.0347188
0.0337908
0.0327266
0.03162
0.0304248
0.0291443
0.0277322
0.0262566
0.0255021
0.0247476
0.0462034
0.0457009
0.0452144
0.0446792
0.0441517
0.0436906
0.0432601
0.0426892
0.0422036
0.0417402
0.0411903
0.040411
0.0394808
0.0387774
0.0378421
0.0370605
0.0362751
0.035406
0.0344561
0.0334542
0.0323932
0.0311687
0.029965
0.0285026
0.0269278
0.0479174
0.0474294
0.0469433
0.0464651
0.0459941
0.0455286
0.044932
0.0444245
0.0438391
0.043416
0.0429603
0.0425509
0.0421163
0.0414793
0.0409515
0.0401384
0.0393174
0.0384783
0.0378213
0.0369821
0.0360502
0.0351412
0.0341416
0.0331548
0.0320879
0.0308976
0.0493135
0.0488794
0.0482165
0.0476781
0.0471991
0.0466948
0.0462587
0.0458132
0.0453041
0.0447048
0.0441329
0.0435974
0.0432143
0.0428099
0.0423974
0.0417682
0.0410957
0.0405806
0.0398331
0.0392298
0.0386613
0.0377273
0.036747
0.0358177
0.0349303
0.0339038
0.0510012
0.05027
0.0495747
0.049022
0.048475
0.0478732
0.0473518
0.0469102
0.0465018
0.0461099
0.0455747
0.0450135
0.0445589
0.0438961
0.0434823
0.0430703
0.042566
0.0419074
0.0411794
0.0407023
0.0402668
0.0395338
0.0390497
0.0384622
0.0374753
0.0365289
0.035609
0.0524264
0.0518968
0.0512384
0.0505572
0.0498693
0.0492094
0.0486007
0.0480454
0.047546
0.0471065
0.0466941
0.0463077
0.0459246
0.0453446
0.0447685
0.0442821
0.0437962
0.0433799
0.0428439
0.042067
0.0413188
0.0407619
0.0402721
0.0397374
0.0392647
0.0388074
0.0382042
0.0535298
0.052815
0.052187
0.0515458
0.0508407
0.0500863
0.0494213
0.0487751
0.048163
0.0476635
0.0472342
0.0468396
0.0464592
0.046067
0.0456167
0.0451049
0.0446016
0.044138
0.0437315
0.0432688
0.0424589
0.041597
0.0409411
0.040479
0.0399402
0.0394166
0.0553048
0.0545125
0.0538266
0.053153
0.0524712
0.0518406
0.0510797
0.0504795
0.0498113
0.0490683
0.0484195
0.0478249
0.0473514
0.0469927
0.0466281
0.0462271
0.0457926
0.0453245
0.0448518
0.0444068
0.0440625
0.0435141
0.0425978
0.0418523
0.0412377
0.0407024
0.0569177
0.0562649
0.0556188
0.0549485
0.0542308
0.0535164
0.0528422
0.0521179
0.0514985
0.0508314
0.0500693
0.0493494
0.0485497
0.0480525
0.0475382
0.0471787
0.0468169
0.046419
0.0459827
0.0455325
0.0450858
0.0446149
0.0441101
0.0435458
0.042962
0.0422111
0.0579139
0.0573263
0.0566905
0.0559824
0.0553108
0.0545142
0.0539499
0.053226
0.0524609
0.051815
0.0511594
0.0503909
0.0496853
0.0488418
0.0481793
0.0477826
0.0474134
0.0470338
0.0466269
0.0461901
0.0457216
0.0452773
0.0448009
0.0442989
0.0437897
0.0595043
0.0589335
0.0583565
0.0577837
0.0571589
0.0564511
0.0559032
0.055008
0.054259
0.0534724
0.0528525
0.0522137
0.0514939
0.0507533
0.0500474
0.049213
0.0485042
0.0480706
0.0476914
0.0472928
0.0468813
0.0464229
0.0459454
0.0454725
0.0450304
0.0445612
0.0610401
0.0604809
0.0599116
0.0593304
0.0587536
0.0581803
0.0576117
0.0567437
0.0562208
0.0554754
0.0547129
0.0539592
0.0532125
0.0525007
0.051873
0.0511532
0.0504022
0.0496496
0.0490766
0.0484115
0.0480287
0.047585
0.0471231
0.0466605
0.0462175
0.0457428
0.0625605
0.0619439
0.0613622
0.0608253
0.0602671
0.0597383
0.0591845
0.0586134
0.058001
0.0572647
0.0565806
0.0559071
0.0551113
0.0543749
0.0536482
0.0529098
0.0522171
0.0516065
0.0509037
0.0500554
0.0494369
0.0488264
0.0483993
0.0478914
0.0474127
0.0469567
0.0464743
0.0634326
0.0628397
0.0622816
0.0616762
0.0611504
0.0606214
0.0601215
0.0595946
0.0590243
0.0584609
0.0577586
0.0570246
0.0563553
0.0555285
0.0547754
0.0540297
0.053302
0.0526887
0.0519049
0.0513961
0.050612
0.0499551
0.0493065
0.0487581
0.0482289
0.0477381
0.0649054
0.0643962
0.0638579
0.0632164
0.0625867
0.0619719
0.0614598
0.0610271
0.0605605
0.0600179
0.0594277
0.058872
0.0582604
0.0576177
0.0567761
0.0559507
0.0551188
0.0542939
0.0534433
0.0532926
0.0524313
0.0516624
0.0510205
0.0503356
0.0496283
0.0490897
0.0656898
0.0652411
0.0647925
0.0642985
0.0636693
0.0632064
0.0624492
0.0618619
0.0613576
0.0609248
0.0604411
0.0598592
0.0593116
0.0586637
0.0580668
0.0572295
0.0562832
0.0554201
0.0549138
0.0542381
0.0534509
0.0527034
0.0520605
0.0514336
0.0507262
0.0670135
0.0665286
0.0660423
0.0655406
0.0651182
0.0647197
0.0641374
0.0634555
0.062833
0.0623166
0.0617783
0.0611857
0.0607744
0.0602546
0.059729
0.0591861
0.0584956
0.0576613
0.0568028
0.0558989
0.0551566
0.0545328
0.0538188
0.0531391
0.0523935
0.0678967
0.0673474
0.0668507
0.0663354
0.0658572
0.0654349
0.0650216
0.0644883
0.0638775
0.0633647
0.0627841
0.0622112
0.0616128
0.0611003
0.0605472
0.0600143
0.05956
0.0588986
0.0580904
0.0571385
0.0563088
0.0555447
0.0548486
0.0541595
0.0535556
0.0694154
0.0688375
0.0682483
0.0676436
0.0671118
0.0665942
0.0661305
0.0656842
0.0652759
0.0648132
0.0642104
0.0636755
0.0632083
0.062812
0.062118
0.0614943
0.0609033
0.0603005
0.0598389
0.0593653
0.0584329
0.05756
0.0567436
0.0560346
0.0552476
0.0704518
0.0698784
0.0692571
0.0686085
0.0679427
0.0674192
0.0669028
0.0664468
0.0659806
0.0653555
0.0651004
0.0645524
0.0641174
0.0636486
0.0630841
0.0626094
0.0620598
0.0613574
0.0606608
0.0602386
0.0595741
0.0586801
0.0580313
0.0572509
0.0564476
0.0717253
0.0713091
0.070835
0.0703401
0.0697178
0.0692683
0.0685924
0.0678567
0.0672806
0.0668316
0.0663533
0.0657096
0.0652839
0.064852
0.0644134
0.0640693
0.0636229
0.063053
0.0625163
0.0618783
0.0611484
0.0605755
0.0599177
0.0591476
0.05843
0.0725515
0.0721281
0.0716884
0.0712491
0.0708502
0.070228
0.0695577
0.0690297
0.0683768
0.0678505
0.0672495
0.0666852
0.0661173
0.0655656
0.0650913
0.0646957
0.0643204
0.0639881
0.0635453
0.062962
0.0623332
0.0616554
0.0610289
0.0601936
0.0737607
0.0733037
0.0728772
0.0724421
0.0720047
0.0716027
0.0712025
0.0707047
0.070047
0.0695974
0.0689797
0.0683913
0.0678284
0.0672013
0.0665654
0.0659537
0.0654798
0.0650888
0.0646609
0.0642704
0.0638089
0.0632845
0.0627197
0.0621148
0.0615315
0.0744678
0.0740423
0.0736532
0.073238
0.0728108
0.0723576
0.0719556
0.0715222
0.0709876
0.0705424
0.0700731
0.0695606
0.0689789
0.068348
0.0677068
0.067073
0.0664642
0.0658474
0.0654155
0.065015
0.0645717
0.0641008
0.0636453
0.0630788
0.0756139
0.075187
0.0747883
0.0743555
0.0739674
0.0735798
0.0731704
0.0727534
0.0723413
0.0718679
0.0712846
0.0707749
0.0703612
0.0698922
0.0692926
0.0687371
0.0682093
0.0676274
0.0668989
0.0663372
0.0658713
0.0653906
0.0649041
0.0644605
0.0639835
0.0763448
0.0759174
0.0755174
0.0751088
0.0746889
0.0743082
0.0739071
0.0735304
0.0730865
0.0725331
0.0721717
0.0715848
0.0710274
0.0706515
0.0701934
0.0697805
0.069206
0.0685913
0.0680103
0.0673632
0.0667742
0.0662502
0.0657748
0.065292
0.0774969
0.0770719
0.0766482
0.0762023
0.0758074
0.0754318
0.075029
0.0746794
0.0742886
0.0738977
0.0734943
0.0728497
0.072442
0.0719023
0.0713585
0.0708841
0.0704108
0.0700187
0.0695785
0.0690124
0.0683773
0.0677871
0.0671791
0.0666892
0.0662163
0.0781923
0.0777745
0.0773649
0.0769444
0.0765168
0.0761206
0.0757298
0.0753775
0.0750143
0.0746668
0.0741987
0.0739014
0.0733377
0.0727926
0.0722002
0.0717474
0.0712629
0.0707649
0.0703113
0.0698618
0.0692928
0.0686848
0.0681813
0.0676125
0.0789262
0.0785137
0.078076
0.0776291
0.0772349
0.076813
0.0764259
0.0760347
0.0756733
0.0753224
0.0750009
0.0745061
0.0741411
0.0736628
0.0732087
0.072659
0.0720209
0.0715615
0.0710589
0.070629
0.0701591
0.0696057
0.0690905
0.0685849
0.0801049
0.0796949
0.0792613
0.0787793
0.0783424
0.0779261
0.0774992
0.0770966
0.0766836
0.0763099
0.0759458
0.075607
0.0752944
0.0748746
0.0744441
0.0739799
0.0734786
0.0730259
0.0724901
0.0719453
0.0714359
0.0709576
0.070456
0.0699327
0.0694546
0.0808663
0.0804511
0.0800319
0.0795669
0.0790806
0.0786198
0.0782163
0.0778019
0.0773811
0.076928
0.0765402
0.0762027
0.0758769
0.0755466
0.0751996
0.0747862
0.0743498
0.0738709
0.073306
0.0728099
0.0722736
0.0717729
0.0713298
0.0708441
0.081725
0.0812067
0.0808193
0.0803978
0.079924
0.0795285
0.0790796
0.0785824
0.0781688
0.0777142
0.0772589
0.076776
0.0764414
0.0761312
0.0757851
0.075421
0.0750141
0.0745811
0.0740952
0.0736262
0.0731377
0.0726075
0.0721351
0.0716313
0.08244
0.0820247
0.0815733
0.0811414
0.0807722
0.0800584
0.0797708
0.0794762
0.0789795
0.0785243
0.0780979
0.0776382
0.0770885
0.0767266
0.0764043
0.0760425
0.0756832
0.0752592
0.0748159
0.0743479
0.0738976
0.0734382
0.0729661
0.0836298
0.083214
0.0828146
0.0823384
0.0819088
0.0814644
0.0810213
0.0804904
0.0799982
0.0796627
0.0793121
0.0788089