/*--------------------------------*- C++ -*----------------------------------*\
| =========                 |                                                 |
| \\      /  F ield         | OpenFOAM: The Open Source CFD Toolbox           |
|  \\    /   O peration     | Version:  2312                                  |
|   \\  /    A nd           | Website:  www.openfoam.com                      |
|    \\/     M anipulation  |                                                 |
\*---------------------------------------------------------------------------*/
FoamFile
{
    version     2.0;
    format      ascii;
    arch        "LSB;label=64;scalar=64";
    class       volScalarField;
    location    "20";
    object      omega;
}
// * * * * * * * * * * * * * * * * * * * * * * * * * * * * * * * * * * * * * //

dimensions      [0 0 -1 0 0 0 0];

internalField   nonuniform List<scalar> 
404911
(
445.116
173.792
3561.88
1663.86
191.842
223.931
221.767
723.558
455.163
392.978
491.778
377.05
215.142
267.696
495.702
1223.89
442.495
176.614
208.257
313.532
627.767
243.961
391.644
667.219
228.006
1009.94
529.069
176.242
172.353
1092.3
495.357
191.98
284.714
366.574
277.78
227.999
343.079
515.751
290.374
269.138
434.988
1126.71
289.492
196.943
187.936
466.909
418.164
202.834
216.088
1128.64
492.4
933.972
347.245
1447.22
438.736
686.321
9530.91
130.354
405.998
301.094
105.733
88.7082
240.762
8.16239
88.971
318.85
11.8739
458.268
113.59
8.92324
85.5464
2.49227
74.9427
29.606
13.1045
688.998
2388.47
307.187
50.6926
146.203
30.638
145.401
4.94149
73.7978
82.1302
50.0392
491.274
32.6957
1245.67
330.094
293.558
3077.83
40.1228
132.807
147.535
40.5246
65.7153
174.997
14.6507
300.826
705.792
26.802
62.0091
550.343
1253.44
504.111
252.983
680.586
338.162
262.324
205.912
210.736
202.745
219.216
2316.05
517.785
220.583
4576.17
613.985
179.037
184.346
183.727
189.238
268.051
1317.5
318.849
212.936
200.919
183.411
534.776
493.019
532.952
179.407
172.771
184.744
177.391
230.43
227.892
176
292.187
1190.21
313.496
200.564
184.055
185.435
183.507
186.301
175.808
531.945
476.383
181.496
171.338
192.465
1810.62
292.248
997.947
261.684
176.942
164.321
174.189
176.748
184.389
187.958
187.02
181.49
175.997
176.358
175.921
189.308
264.944
406.575
597.631
466.491
443.453
464.447
459.731
537.82
182.286
188.93
181.184
180.91
179.424
187.856
199.601
205.039
204.73
295.16
718.003
483.925
433.848
437.685
393.588
386.667
562.812
473.946
168.561
178.139
176.489
185.956
193.201
199.328
229.66
1176.9
1000.54
260.369
591.816
544.184
304.395
296.412
345.942
467.293
355.971
411.131
471.979
480.57
165.159
181.813
187.819
186.943
212.699
502.939
870.607
607.213
288.602
355.316
277.983
388.016
363.333
297.821
432.067
389.18
299.483
417.041
149.786
183.927
188.106
208.58
303.368
1215.72
1231.69
290.159
135.087
413.778
276.447
268.775
246.53
283.191
412.451
342.77
268.767
306.209
330.74
330.378
500.589
175.782
219.665
1122.02
474.148
175.496
122.436
381.429
244.021
261.179
232.929
270.156
306.474
299.405
287.551
318.146
423.96
413.482
483.931
549.209
440.451
481.779
216.879
167.793
428.856
272.346
248.019
306.94
264.377
249.34
324.67
229.874
250.337
397.987
395.785
459.306
490.424
1703.47
368.906
182.746
159.765
238.824
232.841
228.299
294.683
216.436
252.68
245.519
221.067
280.22
271.733
404.494
419.472
458.623
254.988
1043.13
993.64
897.36
312.601
452.491
122.167
110.86
238.747
231.29
278.303
213.699
227.365
261.306
269.253
258.857
352.768
384.26
195.677
557.854
1122.65
259.804
153.464
344.748
253.293
272.648
219.387
71.0642
228.112
188.998
219.376
291.84
196.366
278.271
331.632
304.411
505.235
273.122
479.524
169.279
178.325
193.218
187.702
231.053
164.863
171.052
110.695
271.239
126.846
118.707
177.363
141.63
284.013
419.644
199.671
1016.07
1150.04
272.641
159.098
221.005
195.367
136.857
138.077
199.604
49.3776
43.7706
55.6016
152.829
86.5897
195.576
125.141
138.016
965.647
900.462
359.279
151.062
128.445
171.139
280.223
159.167
175.505
45.6994
90.7683
88.8423
90.4256
58.5978
110.391
243.615
311.398
145.192
287.189
724.343
1111.04
901.531
790.866
343.088
263.923
63.1145
170.499
173.286
73.5806
25.9278
45.5324
94.7557
98.8356
183.042
302.466
307.039
154.455
449.455
440.132
173.053
330.248
204.581
114.287
33.1021
41.6755
93.6179
39.897
160.967
71.135
66.3133
137.232
184.238
169.152
144.318
284.042
981.629
193.167
128.558
236.615
140.426
54.5569
31.2724
30.7028
113.343
202.47
201.363
183.247
127.751
199.717
206.664
186.927
158.878
318.415
437.91
144.046
220.927
220.735
149.898
57.9508
33.6453
19.516
25.4807
60.0443
230.156
204.914
99.7093
214.505
318.615
301.536
176.035
990.333
253.659
121.688
188.793
164.282
79.1676
42.3646
74.6531
99.7117
26.6673
38.2167
54.4435
59.5998
192.627
261.68
302.296
170.838
288.242
1185.69
469.469
178.498
183.785
202.035
160.125
103.935
43.4808
25.7782
39.9551
45.445
74.6997
90.7067
111.849
117.4
288.137
122.128
190.814
1017.32
1140.2
240.598
124.026
251.648
199.583
161.228
134.415
74.2097
34.0138
30.6341
24.1205
28.1673
107.21
143.445
180.755
178.102
161.047
303.169
443.784
158.671
171.733
193.643
165.904
141.432
127.572
68.986
35.1714
23.9882
23.5701
25.2793
39.4163
174.32
225.733
245.772
184.325
1010.91
1151.08
241.174
126.317
191.779
172.979
144.523
133.747
130.672
112.59
54.515
29.3989
23.5829
27.543
37.0434
171.243
311.529
181.848
277.195
912.803
163.315
165.46
188.221
154.458
133.354
125.691
133.499
133.342
114.363
77.0228
44.804
49.1097
64.0727
218.883
220.518
204.805
332.613
271.229
130.978
205.916
155.852
139.208
127.392
116.467
113.886
122.131
128.028
121.649
116.619
129.3
161.832
211.771
214.793
171.301
517.076
245.112
217.15
217.163
69.453
108.352
114.979
60.2534
53.5045
92.8018
112.448
122.336
129.312
146.694
202.335
199.032
131.852
254.988
1131.24
1165.79
183.446
159.156
185.932
32.7071
49.0448
109.607
56.9938
26.3153
25.3801
82.7805
112.279
134.42
154.968
198.288
175.243
169.987
467.722
942.019
168.605
187.519
164.572
104.8
91.3056
109.241
106.285
51.0355
27.7613
9.9475
91.5482
131.432
159.107
200.719
175.072
176.585
1075.95
296.812
146.181
176.502
204.194
144.013
103.445
96.7928
104.863
111.63
89.5919
77.8165
100.363
142.7
166.919
202.503
119.626
184.194
1116.17
282.393
128.816
178.893
175.263
132.442
58.2115
35.6891
49.1984
90.1929
112.2
115.176
118.257
147.34
189.782
235.367
131.543
277.604
1048.9
207.288
127.415
189.221
159.662
119.407
77.1555
34.7408
27.0423
37.6184
82.859
101.966
118.853
142.129
193.484
189.669
155.935
456.385
443.496
155.573
178.487
227.414
185.471
107.731
45.0906
47.038
38.6144
25.036
15.8475
66.6457
106
139.099
194.314
170.201
175.848
1023.59
288.841
130.645
180.934
166.266
145.718
55.7573
32.6032
24.0618
32.1024
42.9142
37.1481
8.74301
29.3887
131.606
183.229
175.15
226.499
1155.75
1066.46
188.867
121.331
181.49
158.345
129.4
94.9705
37.988
19.0387
20.4642
25.8824
40.4684
33.1747
21.8901
85.477
212.789
123.762
255.133
1058.44
176.48
175.911
185.699
143.845
127.603
115.792
85.0315
34.6154
23.0399
23.5235
18.3349
24.6142
79.2778
147.316
249.439
141.332
432.052
1042.32
174.865
180.343
182.665
142.779
122.288
118.771
111.806
86.3144
40.6252
10.53
10.8017
13.2695
38.4131
165.145
163.655
157.816
923.372
1037.23
171.309
162.904
183.603
139.582
128.686
120.637
119.289
114.855
89.4095
58.4609
20.3761
10.929
23.951
119.347
238.499
224.965
1153.14
284.88
151.152
168.789
181.104
141.358
123.746
120.222
117.124
109.047
76.1786
17.0798
21.6819
23.0276
25.5443
91.8693
183.845
250.072
1168.53
261.267
128.775
187.062
172.448
146.117
124.615
108.289
105.298
121.062
94.5438
17.9827
6.27088
15.7245
35.3726
167.08
177.357
244.24
1116.41
176.497
171.411
208.224
169.824
148.278
134
98.3734
86.8943
89.8195
111.279
95.8587
57.3238
22.9582
32.0797
201.08
315.107
259.131
994.392
172.436
176.808
172.458
142.693
127.861
115.637
57.1205
28.4086
22.8457
79.9585
101.872
112.194
101.539
114.881
188.435
128.317
271.25
1060.69
173.051
165.23
183.233
133.825
126.436
115.371
101.269
46.3308
18.1067
15.248
94.6388
118.076
133.171
153.135
204.692
132.045
287.667
1062.96
177.647
177.557
185.237
137.541
127.333
120.942
110.313
106.849
86.6148
78.4007
88.799
119.959
136.786
184.96
200.846
142.751
433.326
994.924
169.581
168.064
184.609
134.336
124.252
119.054
116.209
108.164
111.7
109.476
107.489
121.538
138.468
184.633
173.64
170.662
1003.8
299.022
165.817
213.422
181.822
121.016
107.535
110.609
102.439
93.4519
84.8209
91.9113
107.681
117.759
136.782
184.526
169.175
173.748
1088.78
304.161
161.287
162.698
150.205
58.0887
76.4481
76.1696
78.7612
26.6876
19.6122
25.6095
73.5381
108.758
129.813
182.909
168.106
171.576
1057.06
1193.83
213.833
155.794
164.97
169.699
49.9742
25.6201
15.688
22.9227
27.6812
6.87846
4.52505
6.44053
81.4194
125.511
181.749
175.173
184.769
1042.9
1081
175.335
121.102
235.701
183.994
99.4273
35.5006
8.99984
4.47774
4.78605
5.66031
4.15874
4.14583
14.8689
129.489
188.879
191.649
233.523
181.122
172.116
188.192
150.795
121.096
95.4196
55.9883
7.68398
3.62047
6.3024
3.53207
10.28
55.5489
127.7
204.471
121.514
245.709
1019.07
183.924
168.992
189.065
141.732
125.208
113.014
92.6064
51.2175
8.04757
3.39729
3.26282
5.28731
27.1969
135.369
191.665
132.427
291.959
1061.61
175.642
165.122
174.364
140.438
132.176
117.769
92.4997
73.8191
42.9782
6.27791
3.49385
4.48369
18.2197
132.939
209.207
139.81
440.786
1159.35
174.685
161.253
173.788
134.812
123.903
113.446
82.4707
17.8739
25.4568
33.6953
8.79278
8.62965
22.8772
173.38
200.822
146.987
867.474
160.961
165.985
182.53
139.124
122.24
117.692
93.7063
16.3138
5.76423
7.9608
44.0696
60.0888
86.3847
190.95
171.588
169.905
970.844
777.176
344.229
122.553
126.05
124.432
121.372
108.165
80.9593
11.9801
5.03715
6.97624
84.5166
118.995
172.122
189.092
175.025
1070.97
2197.92
423.63
221.403
111.522
89.0653
118.932
123.108
108.729
71.0122
51.0032
14.6148
7.39759
30.8736
135.878
184.879
121.814
193.581
1120.82
291.051
145.455
164.076
45.8206
81.2263
115.617
112.999
101.577
18.4222
8.2687
9.88981
35.1875
40.7798
151.477
212.895
129.791
269.883
273.856
257.458
181.763
101.557
80.5904
51.5142
85.0459
86.5534
55.3077
10.2872
5.59036
15.4657
95.3439
156.629
240.204
136.806
289.119
1204.34
238.596
182.425
200.878
71.2351
34.6901
33.4204
24.2467
33.8539
31.9173
13.9929
8.96098
22.5746
57.3966
183.05
204.895
158.164
872.414
971.496
180.582
279.479
162.375
53.8871
19.6056
19.5507
21.1315
14.8063
8.74349
10.1474
9.6732
19.8983
73.2268
145.89
169.79
169.659
1003.6
840.25
135.824
230.751
95.9091
36.7086
19.1071
5.64747
1.36359
3.38005
4.97066
4.82992
9.89596
20.6279
23.3101
47.8086
239.038
172.043
1013.07
445.416
127.249
227.79
38.1371
21.4852
15.3978
10.5697
2.60746
2.50253
4.59923
10.4157
17.5046
22.7739
22.7029
38.8255
227.034
177.781
1048.93
1023.22
235.601
125.844
94.1077
37.8756
19.9153
7.87816
1.00767
1.44406
7.31801
17.4222
21.3513
26.2167
28.7366
52.4877
166.418
238.313
321.747
1056.61
907.364
143.671
222.486
90.2407
25.3777
19.6485
2.70273
0.757221
1.94612
8.9743
21.9928
24.2382
71.6902
94.618
138.107
190.896
190.184
191.398
1086.22
210.634
213.975
53.32
26.6083
15.2547
2.45191
0.844106
1.60219
5.01058
17.4744
30.4837
91.2546
122.452
149.902
203.644
121.8
244.38
1210.37
244.064
182.607
84.6201
20.1799
11.1578
0.992737
0.82092
3.50284
4.22457
9.7183
14.3955
78.6311
118.836
156.478
207.3
132.01
286.093
250.973
196.35
126.527
22.3581
8.97661
1.16842
0.718702
1.20162
9.30373
6.77628
16.1706
47.4694
130.645
163.744
218.993
139.354
437.848
226.704
377.031
134.66
26.0619
11.6567
0.807313
0.894176
2.12709
3.42096
6.37499
12.8513
30.7327
131.674
193.738
193.582
145.479
883.709
961.57
159.499
344.993
110.601
27.2261
16.1669
2.15647
1.19218
2.96432
5.41662
13.2575
18.889
21.7873
127.958
198.478
217.365
177.37
987.807
912.231
166.353
400.383
102.649
25.3117
12.3742
1.06619
0.864178
3.77915
13.2187
16.0845
22.5572
30.3855
93.4792
228.644
121.897
257.488
848.613
140.306
186.771
71.5053
25.998
15.9344
1.66899
0.939349
1.78473
9.17826
26.1872
29.6225
83.0947
150.842
205.823
129.73
295.465
859.546
137.379
177.2
68.2987
27.766
10.8349
0.959109
1.70057
11.2796
21.371
23.0532
30.0972
73.5372
177.577
223.136
136.686
296.298
872.051
140.862
192.492
57.629
34.953
17.5265
1.37029
1.53503
6.24398
16.9392
23.6382
30.903
127.948
206.067
208.431
144.134
871.244
880.203
142.143
217.589
67.6106
27.8419
27.1776
19.3007
2.46672
3.53958
24.3172
23.7854
34.1548
139.267
212.538
177.777
170.19
977.063
278.181
143.637
328.554
86.5807
23.6984
7.57099
6.70119
14.3548
20.2726
19.9722
25.3356
92.5192
142.804
221.587
175.629
176.79
1054.2
341.792
352.814
113.673
23.2601
10.1464
0.865211
2.1416
12.913
21.8285
23.4336
95.7526
153.971
194.597
271.92
223.24
1187.31
326.724
356.816
208.91
36.4988
1.16573
0.77963
1.16231
10.5034
22.3846
25.2216
34.3781
150.545
191.733
130.735
269.679
275.392
757.54
314.994
236.775
54.0518
1.1194
1.10433
3.66427
6.70303
23.8859
26.964
78.9123
160.077
240.456
134.547
293.329
295.587
129.837
213.363
234.315
190.707
7.12124
0.915342
1.30492
14.6238
30.3268
34.9162
73.8006
122.058
217.002
159.73
860.656
304.147
135.205
263.314
238.583
299.057
265.699
15.9395
13.2169
16.9641
26.2344
143.714
207.2
208.897
379.715
188.351
1052.32
1171.92
280.641
160.997
219.197
263.608
321.395
238.942
170.736
48.6353
210.483
238.389
209.5
144.118
191.541
359.163
483.266
1219.28
201.936
129.705
237.232
208.817
192.36
243.506
173.275
17.418
38.3642
158.724
260.573
306.514
300.852
504.291
238.874
986.007
193.27
147.892
182.95
197.082
226.126
89.2458
125.695
123.637
41.6833
169.95
277.56
290.475
356.725
527.93
812.948
289.035
142.872
526.995
314.08
283.788
78.0361
56.3425
47.4325
30.1098
33.205
269.052
239.332
177.102
311.374
298.158
4093.31
300.215
539.949
525.226
340.328
313.161
216.37
50.1579
194.377
268.409
115.01
260.562
226.749
171.191
177.716
282.453
782.791
1065.08
628.106
314.748
290.982
244.048
239.694
39.015
50.1911
210.639
262.609
300.19
283.178
199.748
188.879
313.303
1183.11
194.031
445.045
379.839
183.129
170.449
79.8301
126.227
248.352
265.804
253.265
334.547
130.302
186.372
224.181
1402.55
1171.94
211.831
155.883
470.45
275.537
296.749
46.2367
60.2391
211.892
284.475
258.463
284.643
379.352
150.46
309.458
1233.46
566.499
202.728
160.426
484.459
331.944
298.922
184.022
145.723
272.312
258.961
260.359
328.967
131.199
162.783
317.926
1132.27
537.161
472.237
370.764
330.117
217.501
234.069
223.284
268.222
247.866
385.534
156.146
218.959
1136.24
711.232
514.574
452.987
398.098
335.826
312.054
256.691
195.4
266.962
298.308
131.89
165.379
307.892
1158.02
194.721
158.027
494.946
650.406
281.465
319.281
775.46
252.878
273.619
351.219
153.751
196.388
506.099
1217.31
206.978
164.567
501.845
475.494
285.59
276.179
410.958
428.644
811.898
337.34
161.858
209.345
1184.75
1141.9
206.815
539.394
490.277
501.311
376.631
302.333
255.665
310.333
347.832
494.338
166.182
215.852
1266.95
1206.14
207.83
554.032
492.658
501.452
472.732
257.297
317.757
256.368
362.084
492.769
170.208
295.455
1311.28
1156.77
218.024
177.494
515.037
476.597
511.94
764.949
241.493
281.082
336.342
161.266
181.693
297.741
1414.41
1438.08
1149.44
182.385
169.986
492.404
488.936
609.223
622.734
364.608
356.264
505.82
184.585
312.298
175.673
519.721
474.966
482.701
151.376
495.279
506.297
522.827
481.576
178.154
159.695
474.215
550.336
167.655
184.761
255.244
1126.77
6293.13
589.004
159.505
486.316
514.55
197.437
343.156
2824.62
2103.79
492.336
777.741
193.187
215.962
1126.33
471.288
768.231
198.714
208.519
541.28
828.933
599.671
240.018
194.002
230.786
1123.12
1151.86
273.879
1949.64
817.18
482.979
327.226
184.513
178.86
213.135
214.197
606.556
268.005
194.761
355.352
667.097
1457.19
1309.07
6439.12
475.205
1366.03
493.478
472.417
1261.83
497.13
318.425
234.375
223.599
207.962
193.676
189.677
272.962
1290.44
508.859
306.136
219.243
207.054
191.709
183.834
184.502
191.243
190.895
188.085
178.872
182.418
187.567
181.25
1205.94
477.166
235.239
206.842
187.828
185.339
182.41
179.596
184.391
186.491
189.209
179.648
171.943
175.848
184.847
183.699
185.5
180.917
189.985
271.091
328.493
758.343
913.053
456.738
227.263
197.651
190.688
179.992
177.012
180.193
181.478
181.598
182.796
185.834
189.869
169.959
511.976
511.74
184.431
193.021
179.984
188.639
186.675
211.55
527.756
510.466
281.23
211.68
189.395
169.955
160.711
165.814
171.957
177.505
178.522
179.881
176.64
184.074
182.093
184.689
184.27
165.465
477.508
519.686
165.611
186.329
190.2
203.534
235.557
1187.25
387.177
172.547
134.931
129.731
165.166
172.762
367.506
317.019
378.001
150.689
169.608
175.743
161.375
153.469
160.693
178.716
181.775
170.969
156.198
457.74
513.513
172.654
196.353
233.565
545.697
1470.51
367.781
331.958
277.2
340.935
358.16
264.458
394.815
395.291
513.442
466.455
246.604
146.989
161.33
803.731
493.377
393.712
159.856
177.687
185.337
183.387
513.689
521.329
215.987
530.484
1228.65
438.582
556.136
305.064
240.091
223.01
133.219
93.0049
90.226
176.578
383.771
529.084
555.055
449.621
262.793
209.407
424.737
406.144
604.144
172.534
183.006
183.631
189.048
214.761
480.418
396.973
1319.54
295.755
499.927
232.25
104.759
128.804
200.032
153.349
74.277
38.5338
125.879
129.739
294.829
377.435
449.542
452.995
379.357
225.958
115.774
512.965
139.128
179.008
199.689
302.882
540.35
1066.81
374.935
161.053
465.56
337.528
150.873
100.367
48.5029
71.9735
120.998
75.5162
51.26
49.3334
65.9968
154.33
184.97
201.516
236.383
456.832
481.73
195.718
156.571
157.681
163.476
196.34
476.63
1080.61
218.865
131.805
303.002
271.509
210.628
65.6106
33.3021
58.342
54.9631
61.7641
51.4826
43.7688
41.0317
42.3531
74.8431
152.699
195.614
237.568
285.215
297.626
149.446
542.374
504.292
622.286
4480.87
755.313
1366.79
298.707
253.745
217.717
107.276
45.1212
32.8761
36.4047
34.1024
41.8192
46.9069
42.9373
45.3392
41.1766
40.1265
43.3423
67.6433
179.769
242.899
285.862
242.37
128.825
537.328
1614.65
1251.46
427.604
290.989
204.769
153.232
55.7242
11.8039
8.7962
4.57832
6.75391
31.3689
41.1795
38.9282
32.4903
38.0393
43.5471
48.2643
43.7011
198.824
302.107
254.624
121.121
181.741
414.228
421.281
166.524
480.359
349.754
209.713
193.625
119.367
34.0431
8.48827
4.81704
4.89134
4.37893
4.77892
6.18093
14.5788
7.96959
7.15269
26.2026
45.4945
57.4965
204.325
373.71
123.246
179.355
443.404
401.224
171.413
204.066
260.813
160.211
61.694
131.702
161.85
27.6006
5.38703
4.82736
4.81262
4.1451
4.55993
5.0328
6.51447
6.05293
12.5294
19.4737
45.5137
82.6335
375.776
576.415
171.134
440.7
359.521
144.78
260.032
293.05
252.075
166.098
96.6165
84.9288
74.105
45.9422
10.3283
5.84477
5.11322
4.85583
4.61431
4.70848
6.63664
13.3465
23.0273
37.5119
48.9247
218.827
453.002
639.748
827.529
1118.03
348.109
140.924
251.21
219.047
179.57
153.36
121.296
62.4369
35.6155
32.8968
31.0493
20.0691
7.17125
4.18702
5.08347
4.3908
6.77263
7.63555
6.40816
23.3029
51.0416
87.8669
367.804
447.644
407.994
1096.48
343.137
132.479
226.937
215.567
136.226
96.8327
52.1154
34.4564
11.9503
8.03888
19.6949
23.9072
25.148
18.0076
12.8176
10.0588
13.8987
8.53098
5.91404
17.1444
36.285
45.2457
174.637
524.674
431.565
989.279
230.977
130.178
245.136
223.335
139.034
74.7185
40.3639
30.493
24.4279
11.241
3.24038
3.87336
17.5403
24.8818
21.5006
22.0638
23.0792
20.6593
24.3231
64.1361
140.575
227.083
287.423
502.778
313.541
1324.97
1190.82
247.913
126.452
222.494
211.182
142.532
74.8479
40.4864
30.1607
24.762
22.8793
21.6916
14.7877
10.1969
10.0359
22.5128
26.0588
22.0396
10.4334
8.25786
7.92711
68.3247
274.723
329.827
230.206
177.033
1508.72
379.189
135.661
270.919
232.452
134.415
51.9661
27.8275
20.2323
18.3008
22.1211
22.1486
22.7295
22.3826
21.64
21.8619
23.3337
25.8168
27.6721
19.8602
8.07319
4.87074
14.0739
279.005
351.457
170.729
417.675
428.396
167.589
202.642
247.137
147.385
75.2811
18.9941
5.34862
3.60228
3.37015
3.89036
8.57448
19.0968
22.0688
21.9496
22.9327
24.036
26.5432
30.1788
29.446
47.0063
48.8635
79.3096
233.677
168.741
430.55
969.195
214.44
202.276
237.942
158.664
50.3335
19.8259
6.84245
2.9548
1.93904
1.80472
1.89171
2.05641
3.27888
14.4154
21.1249
22.53
24.3433
26.9276
31.9412
43.3757
87.4728
208.105
271.545
141.499
378.372
374.26
134.249
219.216
168.259
58.4282
17.0508
4.42366
2.18967
1.75412
1.69134
1.58174
1.53692
1.74202
2.3771
6.89954
18.9135
22.9722
25.1325
28.9109
32.343
69.7806
166.059
241.002
277.478
261.515
433.362
154.151
292.441
245.948
103.851
17.995
4.39436
2.29014
1.01045
1.08097
1.35392
1.46638
1.23256
1.36097
1.36946
2.69112
9.03475
21.3176
25.5626
29.2124
65.7057
117.273
220.971
263.037
154.242
801.38
920.577
206.418
201.208
235.164
168.04
68.7132
18.4614
2.83669
0.933464
0.800225
0.777038
0.898424
1.11522
1.20968
1.10545
1.07634
1.51636
2.11158
4.76501
22.9031
41.5557
86.9477
201.658
238.44
133.007
376.883
926.246
220.703
212.437
240.155
174.182
105.985
35.9989
12.0308
3.41956
1.05054
0.786556
0.76735
0.774625
0.778646
0.850057
0.893098
1.04497
1.5316
4.32039
4.45841
15.3291
90.613
200.598
273.252
270.96
231.403
1060.32
387.168
219.84
243.548
174.354
102.936
45.3572
22.951
7.14937
1.97572
0.925903
0.807733
0.753285
0.779375
0.82211
0.741055
0.877634
1.34633
1.80782
4.03041
14.1861
59.8919
301.719
313.2
317.057
212.071
894.511
762.497
182.379
273.794
215.254
84.6391
33.3176
20.8011
11.8007
4.70886
1.48631
0.847018
0.768485
0.802576
1.09477
0.771243
0.752407
0.876615
2.12336
3.7094
7.30561
34.1833
138.341
252.764
317.936
209.265
883.158
230.328
199.703
207.929
110.736
27.1867
5.76214
2.87233
4.73556
3.40324
1.29138
0.842436
0.79054
1.46886
1.84339
1.21605
0.776552
0.867244
1.64659
8.1884
25.27
35.7432
255.258
291.763
193.966
878.774
761.777
145.628
205.132
143.814
55.8911
25.374
5.84145
1.20635
1.3324
2.14975
2.30314
1.66043
1.3872
1.70554
3.36176
3.41435
1.07558
0.967084
3.55185
11.1557
58.3026
201.089
293.245
332.912
360.912
248.182
205.823
210.632
111.123
32.7516
19.5976
10.4088
3.83421
1.01388
1.06058
1.45608
2.74581
3.91258
2.35392
2.66073
6.00025
5.03594
1.62664
4.29613
21.4341
107.333
239.642
324.613
218.037
919.651
935.357
191.006
217.281
159.046
59.2333
26.2684
15.6419
8.58684
4.64712
2.91743
1.76202
1.32595
1.54042
1.99684
1.7027
1.1562
1.46695
7.42419
10.9851
12.2074
78.4466
288.437
280.805
147.702
827.562
325.07
220.495
218.908
93.9315
27.5335
18.4506
7.42489
3.60387
3.22685
1.90011
1.38381
2.55732
2.8704
2.60408
1.50099
0.935214
1.03017
3.28325
18.1754
51.2288
82.1795
291.818
294.29
242.694
1198.51
724.217
140.832
203.741
152.927
32.5049
5.84279
2.84537
3.20525
1.56655
0.966554
1.10545
0.981148
0.896836
1.921
3.3462
3.72863
3.53089
4.24453
6.91605
19.8326
89.8373
255.922
265.961
210.571
886.831
204.68
238.733
170.778
89.8182
28.8201
6.54303
1.17746
0.956844
0.882746
0.896545
0.942094
0.921325
0.757344
0.944954
2.30279
4.63292
7.14019
10.703
21.3336
53.994
159.562
278.343
133.632
396.395
706.843
142.25
182.064
103.15
41.7847
22.2866
14.9924
4.46274
1.20595
0.782085
0.807035
0.709872
0.755095
0.768534
1.00459
1.34718
4.52316
8.73293
17.0222
21.6508
76.3515
212.432
202.76
214.81
995.069
235.909
185.448
174.862
84.5381
28.2984
17.7879
9.94882
5.66114
2.4053
0.978589
0.774187
0.776742
0.690866
1.0435
1.11004
0.869856
2.55995
12.6582
20.9585
30.1474
84.2932
205.449
273.788
381.25
716.303
141.755
196.092
131.216
51.9779
21.905
11.6067
6.26686
3.17781
2.02795
2.01335
1.46528
1.33254
1.55178
1.36669
1.21474
0.990695
2.34813
7.74135
30.7324
71.2716
171.253
227.271
158.344
884
235.646
185.481
174.191
93.955
34.46
19.7006
10.5965
5.86821
3.35352
1.36116
0.941621
1.52508
1.74511
2.25949
3.09982
3.63835
3.24791
4.64112
10.1498
37.6004
121.156
222.606
307.673
248.92
733.365
142.624
185.493
124.201
47.4584
23.1807
15.6818
8.58601
5.47905
3.92743
2.4505
1.43263
0.972688
1.12079
1.06892
2.63982
4.7821
7.24723
11.3203
22.1481
74.2919
198.495
252.258
148.241
843.582
244.403
178.558
168.743
85.0946
29.8593
16.6552
9.71916
6.29717
4.80491
3.95371
2.40643
1.17018
1.14907
1.14369
1.20022
1.33902
4.33831
9.51922
18.4895
30.0255
86.1461
235.397
207.617
243.703
203.44
221.778
136.803
47.7733
21.0739
11.8121
7.08884
4.96311
4.29089
4.09408
3.5348
2.01244
0.953327
0.849462
0.976585
1.83078
4.23671
11.6036
24.7765
54.0879
146.202
258.951
134.663
710.05
760.176
138.756
169.278
84.1561
30.0073
15.8097
8.95435
5.56716
4.33294
3.95524
4.01497
4.02211
3.59263
2.56485
1.86338
1.93124
2.53487
5.91041
17.3909
30.1036
78.2563
197.776
189.222
220.367
1010.07
722.069
190.711
164.178
66.4678
22.8949
10.9652
6.50814
4.67689
3.85821
3.60149
3.65082
3.79051
3.83498
3.71477
3.67153
3.9613
5.1866
8.58051
17.8469
26.6701
78.331
220.801
207.297
665.653
358.68
189.283
151.889
48.5285
11.9578
4.20399
3.26911
3.73971
3.29592
2.24318
2.14091
3.11944
3.54883
3.69752
3.99833
4.69282
7.09682
12.1535
22.107
44.6874
122.076
252.417
174.894
801.41
204.397
231.701
147.28
43.3543
15.2677
3.82554
1.55549
2.12361
3.15347
2.11732
0.991113
1.06931
2.49765
3.50862
4.08426
4.94368
7.48224
15.4849
22.8935
66.7879
200.118
243.621
236.942
732.424
223.067
198.193
91.8721
31.6693
17.0447
7.60965
3.69085
2.70669
3.04357
3.2156
1.98485
1.00933
1.12045
2.58324
4.00715
5.17761
7.86466
16.0125
25.4628
80.6185
192.712
136.524
737.156
376.15
190.759
172.662
70.8019
25.8163
16.4459
8.66927
4.3357
3.04403
3.12676
3.39336
3.45376
2.88461
2.32098
2.62525
4.00496
5.50886
9.29381
17.3476
32.0132
102.996
239.442
182.502
989.56
200.259
239.695
153.42
59.2849
21.9885
11.9217
7.249
4.13082
1.70064
1.20084
1.98137
3.1185
3.48289
3.47386
3.65478
4.41279
6.35215
10.8808
21.4526
51.3316
141.872
193.032
227.623
768.867
143.267
169.698
101.558
42.9962
20.9004
11.1981
6.00118
3.99607
2.59229
1.10213
0.835615
1.52863
2.83299
3.36936
3.81545
4.57065
6.94436
13.6065
21.2826
62.8108
189.921
195.662
375.786
369.502
185.312
171.884
83.3858
27.815
17.8487
10.8131
5.75731
3.06048
1.9477
1.76047
1.16775
0.855448
1.05405
2.13667
3.6003
4.63171
7.23402
14.812
24.5007
75.3755
182.261
135.605
719.692
252.384
157.978
130.56
54.679
21.1966
11.7994
7.20911
4.73273
2.25027
1.08728
0.858246
1.06451
1.54006
0.962733
0.756417
1.69818
4.40252
7.41042
16.6675
33.8571
99.7574
224.226
188.706
1003.72
210.762
232.137
125.368
41.6921
19.0531
10.2828
6.0836
4.35472
2.90235
1.15446
0.721767
0.722305
0.928076
1.53338
1.18731
1.28145
3.12648
8.76299
17.8866
47.4411
150.328
219.698
205.265
934.235
147.103
177.943
100.32
31.7135
16.621
9.2013
5.43858
4.1922
3.6379
2.61508
1.08369
0.730141
0.69057
0.77272
1.44113
2.70941
4.37564
9.53144
21.279
60.9425
187.834
216.815
363.53
746.542
137.458
161.404
84.3144
28.7138
16.1411
8.23521
5.04816
3.9766
3.65165
3.45786
2.86022
1.6243
0.895994
0.62075
0.742675
1.90129
6.03422
12.8345
24.2439
81.6443
211.474
140.782
759.716
690.168
186.156
176.95
76.6598
26.6183
15.4592
8.12999
4.88047
3.98846
3.66111
3.5531
3.35676
2.82129
2.11412
1.16862
0.738845
1.14059
4.03095
15.2864
35.5521
125.931
217.481
199.07
256.226
173.36
143.959
59.738
23.5639
14.683
7.94839
4.88186
3.86853
3.59579
3.51176
3.2895
2.24449
1.3203
1.2643
1.24221
1.39656
3.49553
14.1648
45.5922
161.381
187.789
251.154
246.923
153.79
128.387
48.0063
20.6197
12.0552
7.30227
4.9211
3.91336
3.48517
3.41555
3.53138
2.97691
1.37881
0.731177
0.869058
1.90166
5.26717
14.9079
46.1059
178.004
208.507
671.618
214.082
232.03
122.232
34.7473
18.302
10.5937
6.3806
4.71475
3.73308
2.8032
2.69662
3.18587
3.46722
3.09392
1.97807
1.27126
1.93047
5.94712
17.9743
50.6867
190.634
324.678
710.583
208.89
182.089
95.7507
30.192
16.1299
8.315
5.29797
4.22454
3.58785
2.20067
1.09275
1.2896
2.56337
3.28579
3.46245
3.45663
3.83766
7.07875
18.4839
57.1178
165.987
215.842
848.033
198.379
180.552
91.0594
27.9722
15.9282
8.23434
4.90041
4.04867
3.63603
3.22873
1.93936
0.99672
1.19487
2.58183
3.54897
4.23313
5.52302
9.50298
19.416
62.6522
171.143
150.628
952.488
907.037
151.662
177.846
92.5122
28.9847
16.5503
8.39793
4.89441
4.01301
3.71527
3.46885
3.36266
2.86968
2.29555
2.39011
3.37935
4.35459
6.67209
11.6409
21.6324
61.8954
189.329
189.613
721.022
204.546
199.244
85.6592
28.0639
16.3377
8.39035
4.80264
3.88445
3.62493
3.52206
3.40546
3.43306
3.34853
3.26306
3.60088
4.46417
7.00522
13.8703
23.2201
77.3742
201.726
197.582
707.851
196.197
158.507
70.6527
25.4072
15.9415
7.86282
4.47212
3.53689
3.34699
3.09697
2.98172
2.92762
3.11808
3.38433
3.68477
4.53282
7.13185
13.9613
25.6697
99.5146
202.219
205.393
367.976
177.366
146.513
61.6618
22.2837
14.1513
5.4336
2.69127
2.69043
2.69825
2.50838
1.56463
1.29828
1.51362
2.64192
3.55043
4.46585
7.15759
14.1099
26.0922
105.56
167.05
257.187
248.827
161.274
131.452
47.2236
20.811
14.0929
6.21238
1.67759
0.965428
1.13227
1.30703
1.26762
0.69444
0.596227
0.862895
2.43265
4.33694
7.24666
15.0001
31.0237
119.648
191.295
646.091
253.476
172.313
124.396
35.8925
18.6332
13.3742
7.26977
3.45268
1.26686
0.673991
0.56788
0.593443
0.614795
0.593394
0.703842
1.26624
3.75526
7.89971
16.4148
38.3813
139.912
217.102
681.784
218.544
163.757
122.22
37.769
17.6282
9.65092
5.85527
4.17083
3.12703
1.98024
0.818653
0.534135
0.534265
0.551743
0.896505
1.88385
3.62436
8.5687
18.4965
48.3603
157.545
213.699
711.474
202.168
189.619
109.951
37.728
17.63
8.68205
5.09322
4.00237
3.5056
2.98154
1.86809
0.708514
0.524685
0.530156
0.682153
1.59257
4.30744
8.90675
19.8561
62.8629
160.689
136.94
778.747
209.335
187.471
93.5878
28.6409
15.2609
7.9929
4.91978
3.99435
3.47035
2.94647
2.56155
1.67475
0.673819
0.546587
0.654471
1.37503
4.05188
9.51354
19.2163
63.324
190.688
183.594
973.773
199.814
216.412
102.718
29.3262
15.1977
7.75148
4.73381
3.86653
3.39273
2.2984
1.35884
1.39973
1.49071
0.862464
0.8692
1.583
4.26383
10.3352
20.951
65.3105
195.658
197.91
896.31
144.386
175.111
101.347
19.3219
13.4294
7.88118
4.77063
3.84869
3.53875
2.90294
1.28203
0.650759
0.755891
1.62812
2.08196
2.74052
5.77511
12.6471
20.5123
69.3121
201.525
201.766
708.53
207.439
152.572
13.8314
4.15369
2.26355
4.33169
4.40465
3.85741
3.59829
3.2924
2.60509
1.08585
0.594483
0.883077
2.42512
4.07375
6.83114
14.2549
22.5693
69.3107
193.447
208.715
713.592
192.508
167.688
27.0097
2.36256
0.942403
1.20539
2.64034
3.62533
3.57358
3.05528
2.2321
1.88041
1.12173
0.764161
1.60133
4.41332
8.44619
15.3789
32.8957
97.3527
207.279
198.786
375.464
194.341
163.987
57.2015
8.65825
1.84473
1.37856
2.16179
3.24389
3.4284
2.9351
1.39046