/*--------------------------------*- C++ -*----------------------------------*\
| =========                 |                                                 |
| \\      /  F ield         | OpenFOAM: The Open Source CFD Toolbox           |
|  \\    /   O peration     | Version:  2312                                  |
|   \\  /    A nd           | Website:  www.openfoam.com                      |
|    \\/     M anipulation  |                                                 |
\*---------------------------------------------------------------------------*/
FoamFile
{
    version     2.0;
    format      ascii;
    arch        "LSB;label=64;scalar=64";
    class       volScalarField;
    location    "20";
    object      p;
}
// * * * * * * * * * * * * * * * * * * * * * * * * * * * * * * * * * * * * * //

dimensions      [0 2 -2 0 0 0 0];

internalField   nonuniform List<scalar> 
404911
(
1.59514
1.59295
1.59289
1.59386
1.5973
1.59446
1.59334
1.59359
1.59375
1.5938
1.6186
1.61206
1.60506
1.60104
1.59714
1.59474
1.62682
1.62122
1.61423
1.60816
1.63776
1.63212
1.62519
1.64948
1.64396
1.63918
1.66096
1.65546
1.65074
1.6765
1.67152
1.66585
1.66015
1.65458
1.68219
1.67687
1.67069
1.69976
1.69425
1.68801
1.68305
1.70832
1.70422
1.69921
1.69395
1.68943
1.71371
1.70881
1.70365
1.69863
1.72312
1.71892
1.7131
1.70754
1.72472
1.72247
1.76858
1.58815
1.59425
1.59085
1.61147
1.60496
1.627
1.62082
1.61402
1.63772
1.63182
1.62479
1.64972
1.64306
1.66056
1.65509
1.65021
1.67141
1.66534
1.65852
1.6534
1.68214
1.67636
1.69489
1.68854
1.70538
1.69963
1.69414
1.71583
1.7108
1.72648
1.72074
1.71374
1.72932
1.72513
1.76734
1.7714
1.76656
1.78833
1.7823
1.77672
1.7995
1.79404
1.7868
1.81003
1.80542
1.79991
1.80921
0.689409
0.680437
0.672544
0.729357
0.719661
0.708654
0.70177
0.693869
0.685941
0.67981
0.668711
0.749562
0.742404
0.724608
0.713208
0.703983
0.698009
0.690379
0.683131
0.651956
0.775368
0.767492
0.760445
0.753358
0.746815
0.742279
0.731362
0.719175
0.709118
0.702788
0.695293
0.686726
0.674604
0.661876
0.653636
0.647072
0.796069
0.786991
0.778511
0.77064
0.763404
0.756483
0.749836
0.743564
0.737085
0.725266
0.716486
0.708251
0.700714
0.692291
0.655106
0.819536
0.809075
0.799171
0.789656
0.780515
0.772922
0.765831
0.75905
0.752327
0.745481
0.737488
0.729008
0.720914
0.713118
0.707107
0.833135
0.825662
0.814634
0.804247
0.794771
0.784237
0.775226
0.767974
0.761847
0.755472
0.748397
0.740951
0.732856
0.724882
0.716873
0.710244
0.85771
0.848032
0.838839
0.829491
0.819338
0.810089
0.800214
0.789147
0.779505
0.770832
0.765331
0.75873
0.75177
0.744411
0.7367
0.728926
0.72098
0.890541
0.881058
0.873607
0.863194
0.854017
0.8441
0.834223
0.824863
0.815032
0.805492
0.793369
0.783831
0.775684
0.769334
0.762596
0.755414
0.748269
0.740825
0.906243
0.897857
0.887283
0.878012
0.868792
0.858966
0.849956
0.840053
0.829711
0.82007
0.810012
0.798459
0.786141
0.780149
0.77373
0.766653
0.759456
0.752306
0.928635
0.920506
0.912958
0.904504
0.89365
0.883902
0.874341
0.864796
0.854885
0.844909
0.834969
0.82533
0.815744
0.804644
0.792931
0.784012
0.778357
0.771433
0.942523
0.934401
0.926201
0.918335
0.909511
0.899164
0.889943
0.879884
0.870185
0.860701
0.850602
0.840506
0.830415
0.820694
0.812508
0.800186
0.78961
0.963592
0.956082
0.94788
0.940196
0.932125
0.923401
0.914298
0.904853
0.895852
0.885494
0.875665
0.865841
0.856121
0.846242
0.835955
0.825786
0.819262
0.98308
0.974898
0.968164
0.96208
0.955306
0.94659
0.938021
0.929179
0.92061
0.911502
0.902227
0.891236
0.880785
0.870831
0.862662
0.852012
0.84085
0.831865
1.00787
1.00139
0.990329
0.980013
0.972142
0.968299
0.961002
0.952214
0.943251
0.93465
0.927557
0.918075
0.90748
0.896603
0.886214
0.874503
0.8671
0.85814
1.02536
1.01922
1.0133
1.00892
0.998139
0.98643
0.976905
0.972931
0.967551
0.958353
0.948852
0.939759
0.933715
0.924962
0.912602
0.901431
0.892111
0.880519
1.03683
1.02994
1.02351
1.01756
1.01248
1.00395
0.992801
0.984699
0.977377
0.971731
0.961876
0.951707
0.944242
0.939005
0.930422
0.917364
0.904775
0.896718
1.05633
1.04902
1.04136
1.03406
1.02735
1.02089
1.01459
1.00891
1.00006
0.99131
0.983722
0.977047
0.967612
0.956426
0.947829
0.943739
0.935703
0.922722
1.06886
1.06033
1.05358
1.04629
1.03803
1.03027
1.02531
1.01729
1.01036
1.00432
0.997955
0.992065
0.982792
0.973525
0.963163
0.952853
0.947068
0.940015
1.09439
1.0877
1.07702
1.06714
1.05931
1.05271
1.04494
1.03615
1.02909
1.02097
1.01309
1.00796
1.00257
0.997407
0.990765
0.980329
0.968981
0.959935
1.10603
1.10036
1.09594
1.08593
1.07578
1.06751
1.06002
1.05185
1.04272
1.03437
1.02484
1.01678
1.01202
1.00623
1.00037
0.992966
0.98486
1.12263
1.11665
1.11083
1.10461
1.09944
1.09283
1.08307
1.07492
1.0667
1.05748
1.04861
1.03985
1.03068
1.02188
1.01693
1.01065
1.00426
0.997294
1.13339
1.12741
1.12098
1.11525
1.10902
1.104
1.09677
1.08895
1.08182
1.07488
1.0652
1.05614
1.04623
1.03616
1.0281
1.02171
1.01557
1.0089
1.14376
1.13807
1.13217
1.12625
1.1192
1.11225
1.10744
1.1007
1.09348
1.08789
1.08241
1.07298
1.06279
1.05287
1.04292
1.03484
1.02734
1.02088
1.16041
1.15442
1.14849
1.14254
1.13683
1.13122
1.12585
1.11718
1.11011
1.10333
1.09662
1.09099
1.08512
1.07933
1.06988
1.05849
1.04967
1.04081
1.17647
1.17071
1.16494
1.15871
1.15302
1.14715
1.14128
1.13509
1.12975
1.12257
1.11514
1.10792
1.09935
1.0944
1.08841
1.08206
1.07329
1.06435
1.18673
1.18071
1.1751
1.16918
1.16336
1.15757
1.15207
1.14684
1.13902
1.13175
1.12562
1.12
1.11308
1.10429
1.09852
1.09253
1.08612
1.07826
1.2026
1.19683
1.19107
1.18518
1.17919
1.17335
1.16763
1.16207
1.15685
1.15223
1.1453
1.1378
1.13073
1.12363
1.11785
1.10993
1.10266
1.0971
1.21275
1.20663
1.20104
1.19514
1.18919
1.18319
1.17743
1.17181
1.16632
1.16109
1.15614
1.15028
1.14349
1.13642
1.12879
1.12244
1.11563
1.10844
1.22322
1.21668
1.21056
1.20496
1.19924
1.19315
1.18701
1.18133
1.17588
1.17043
1.16499
1.15947
1.15347
1.14693
1.14017
1.1334
1.12681
1.12017
1.23479
1.2288
1.22106
1.21409
1.20924
1.20377
1.19702
1.19029
1.18505
1.17989
1.17454
1.16899
1.16329
1.15721
1.15108
1.14414
1.13765
1.13141
1.25064
1.2448
1.23999
1.23516
1.22741
1.21954
1.21447
1.20968
1.20284
1.19493
1.18933
1.18421
1.17886
1.17325
1.16752
1.16138
1.15517
1.14863
1.2615
1.25545
1.24942
1.24375
1.23809
1.23151
1.22507
1.21963
1.21529
1.20916
1.20108
1.19439
1.18895
1.18345
1.17778
1.17194
1.16618
1.16
1.2719
1.26598
1.26017
1.254
1.24768
1.24108
1.23471
1.22905
1.22376
1.21877
1.21311
1.20658
1.1999
1.1939
1.18803
1.18236
1.17685
1.17114
1.28233
1.2766
1.2708
1.26485
1.2591
1.25286
1.24464
1.23773
1.23275
1.22763
1.22242
1.21689
1.21087
1.20465
1.19862
1.19261
1.18686
1.29925
1.29319
1.28731
1.28132
1.27521
1.2692
1.26389
1.25898
1.2503
1.24191
1.23672
1.23164
1.22646
1.22102
1.21529
1.20924
1.2035
1.19747
1.30948
1.30372
1.29811
1.29233
1.28608
1.27954
1.2727
1.26742
1.26345
1.25607
1.24681
1.24091
1.23589
1.23077
1.22544
1.21978
1.21401
1.20817
1.31956
1.31414
1.30858
1.30316
1.29758
1.29149
1.28432
1.27768
1.27054
1.26633
1.26134
1.25312
1.24537
1.24058
1.23538
1.22998
1.22459
1.2191
1.33439
1.32899
1.32395
1.31871
1.31332
1.30807
1.30319
1.29828
1.29025
1.2831
1.2757
1.2706
1.26667
1.25946
1.25123
1.24566
1.24021
1.23467
1.34415
1.33878
1.33369
1.32843
1.32323
1.31801
1.31293
1.30829
1.30389
1.29595
1.28848
1.28016
1.27411
1.26976
1.26409
1.25746
1.251
1.24503
1.35434
1.34881
1.34345
1.33815
1.33294
1.32773
1.32258
1.31746
1.31259
1.30779
1.30186
1.29448
1.28647
1.27867
1.27404
1.26855
1.26273
1.25643
1.36433
1.35889
1.35349
1.34804
1.34271
1.33744
1.33229
1.32718
1.32184
1.31634
1.31106
1.30596
1.29954
1.29175
1.28427
1.27901
1.27346
1.26774
1.37452
1.36907
1.36356
1.35799
1.35251
1.34711
1.34186
1.33696
1.3321
1.32667
1.32018
1.31444
1.30974
1.30443
1.29685
1.29054
1.28455
1.38929
1.38418
1.37906
1.3735
1.36801
1.36249
1.35686
1.35136
1.34613
1.34145
1.33705
1.33257
1.32604
1.31906
1.31277
1.30815
1.30204
1.29601
1.39899
1.39374
1.38865
1.38363
1.37815
1.37273
1.36715
1.361
1.35518
1.35015
1.34566
1.3414
1.33734
1.33277
1.32496
1.31805
1.31274
1.30694
1.40893
1.4036
1.39834
1.39323
1.38797
1.38277
1.3777
1.37293
1.3655
1.35899
1.35422
1.34987
1.34538
1.34078
1.3356
1.32941
1.32318
1.31761
1.41877
1.41337
1.40814
1.40278
1.39756
1.39229
1.3872
1.38243
1.37838
1.37261
1.36556
1.35915
1.35437
1.34954
1.34451
1.33915
1.33353
1.32799
1.42908
1.42344
1.41795
1.41253
1.40718
1.4018
1.39646
1.39135
1.38648
1.38184
1.37666
1.37071
1.3646
1.35919
1.35397
1.34903
1.34317
1.3379
1.4397
1.43377
1.42804
1.42237
1.4169
1.41143
1.4059
1.40044
1.39521
1.39025
1.38539
1.38038
1.37499
1.36942
1.364
1.35859
1.35325
1.34768
1.45049
1.44466
1.4384
1.43215
1.42653
1.42109
1.41563
1.40991
1.40424
1.39884
1.39397
1.38922
1.38437
1.37925
1.37398
1.36865
1.36338
1.35779
1.46049
1.45532
1.44989
1.44283
1.43583
1.43054
1.42523
1.42011
1.41396
1.40791
1.40251
1.3977
1.39331
1.38863
1.3837
1.37853
1.37329
1.36817
1.47572
1.47062
1.46548
1.46048
1.4558
1.45046
1.44155
1.43566
1.42971
1.42483
1.42025
1.4134
1.40665
1.40213
1.39777
1.39313
1.3882
1.38327
1.37797
1.48534
1.48035
1.47535
1.47003
1.46539
1.46101
1.45691
1.44907
1.44151
1.43477
1.42861
1.42502
1.41963
1.41333
1.40736
1.40261
1.39775
1.39287
1.4901
1.48504
1.47996
1.47486
1.46985
1.46523
1.46051
1.45415
1.44803
1.44117
1.43439
1.42847
1.42403
1.41857
1.41275
1.40759
1.40246
1.50528
1.49998
1.4949
1.48971
1.48453
1.47926
1.47408
1.46929
1.46473
1.4602
1.45289
1.44608
1.43968
1.43314
1.42852
1.42325
1.41785
1.41259
1.5152
1.50979
1.50468
1.49955
1.49436
1.48911
1.48367
1.47814
1.47313
1.4688
1.46467
1.45773
1.45094
1.4443
1.4388
1.43351
1.42812
1.42277
1.52468
1.51931
1.51428
1.50923
1.50417
1.49908
1.494
1.4885
1.48201
1.47669
1.47252
1.46884
1.46283
1.45597
1.44962
1.44428
1.43855
1.43322
1.52846
1.52356
1.5187
1.51383
1.50883
1.5038
1.49897
1.49423
1.48757
1.48029
1.4761
1.47197
1.46675
1.46073
1.45469
1.44909
1.4437
1.54168
1.53355
1.52767
1.52338
1.51853
1.51346
1.5083
1.50349
1.49893
1.49307
1.48542
1.48029
1.4757
1.47065
1.46505
1.45952
1.45405
1.56512
1.55695
1.54876
1.54066
1.53344
1.52862
1.52353
1.51808
1.51251
1.5075
1.50365
1.49736
1.48973
1.48491
1.47991
1.47493
1.46952
1.46383
1.57475
1.57045
1.56352
1.55505
1.54682
1.53969
1.53411
1.52892
1.52327
1.51667
1.51078
1.50713
1.50238
1.49549
1.48978
1.4844
1.47939
1.58462
1.57941
1.57309
1.5668
1.5595
1.55109
1.54437
1.53916
1.5342
1.52919
1.5228
1.51617
1.51109
1.50614
1.50043
1.49456
1.48907
1.60051
1.59482
1.58928
1.58406
1.57802
1.57081
1.56417
1.55709
1.54972
1.54405
1.53817
1.53354
1.5281
1.52209
1.51607
1.51076
1.50547
1.4996
1.61108
1.60513
1.5992
1.59385
1.58884
1.58337
1.57761
1.57126
1.56362
1.55555
1.55072
1.54376
1.53645
1.53128
1.5262
1.52092
1.51571
1.51036
1.62245
1.61539
1.60901
1.60396
1.5981
1.59379
1.58887
1.58436
1.57776
1.56986
1.56263
1.55652
1.55012
1.54309
1.53537
1.53067
1.52582
1.52059
1.63432
1.62893
1.62174
1.61514
1.60946
1.60413
1.59928
1.59393
1.5882
1.58339
1.57568
1.5691
1.5631
1.55667
1.54975
1.54222
1.53619
1.53101
1.65092
1.64551
1.63957
1.63394
1.62726
1.62081
1.61526
1.60901
1.60446
1.59839
1.59291
1.58757
1.58185
1.57541
1.56951
1.56367
1.55734
1.54876
1.54199
1.66103
1.65579
1.65008
1.64481
1.63889
1.63215
1.62613
1.61891
1.6136
1.60788
1.60252
1.59667
1.59154
1.58602
1.57987
1.57356
1.56763
1.56139
1.55466
1.66656
1.66075
1.65497
1.64974
1.64366
1.63745
1.63067
1.62369
1.61814
1.61236
1.60675
1.60127
1.59589
1.59027
1.58422
1.57822
1.57214
1.56627
1.67865
1.67249
1.66648
1.66043
1.65501
1.64933
1.64291
1.63641
1.62924
1.6231
1.61629
1.61118
1.60605
1.60063
1.59494
1.58896
1.58297
1.69137
1.6848
1.67844
1.67206
1.66632
1.66014
1.65394
1.64983
1.64216
1.6346
1.628
1.62229
1.61645
1.61109
1.60559
1.59987
1.59403
1.70452
1.69672
1.69074
1.68404
1.67727
1.67133
1.66517
1.65832
1.65341
1.64721
1.63996
1.63303
1.62729
1.62171
1.61662
1.61074
1.605
1.72426
1.71775
1.71099
1.70379
1.69643
1.68967
1.68243
1.67648
1.67077
1.66455
1.65838
1.65224
1.64492
1.63832
1.63262
1.6269
1.62141
1.61598
1.7363
1.73041
1.72447
1.71685
1.70947
1.70215
1.69599
1.68965
1.68178
1.67605
1.66976
1.66441
1.65817
1.65136
1.6442
1.63827
1.6323
1.74807
1.74201
1.73581
1.72961
1.72193
1.71458
1.70696
1.7008
1.69457
1.68749
1.68144
1.67473
1.66893
1.66304
1.6565
1.64998
1.64391
1.75979
1.75365
1.74775
1.74165
1.73418
1.72629
1.71907
1.71309
1.70528
1.69927
1.6932
1.68722
1.68085
1.6741
1.668
1.66159
1.65539
1.77229
1.76571
1.75917
1.75219
1.74707
1.73872
1.73058
1.72503
1.71759
1.71157
1.70534
1.6988
1.69243
1.68603
1.67993
1.67335
1.66705
1.78409
1.7775
1.77138
1.76499
1.7582
1.75135
1.74367
1.73465
1.7286
1.7236
1.71805
1.7114
1.70464
1.69816
1.69165
1.68525
1.67887
1.79564
1.78932
1.78307
1.77642
1.77051
1.76486
1.75846
1.75027
1.74296
1.73546
1.7292
1.7234
1.71712
1.71038
1.70386
1.69753
1.69095
1.80182
1.79397
1.78857
1.78229
1.77613
1.76958
1.76343
1.75624
1.74857
1.74081
1.73424
1.72828
1.72202
1.71572
1.70952
1.70337
1.82041
1.81014
1.80089
1.79462
1.78775
1.78142
1.77512
1.76801
1.76082
1.75394
1.74655
1.73932
1.73336
1.72715
1.72098
1.84446
1.8392
1.82921
1.81868
1.80791
1.80084
1.79387
1.78721
1.77984
1.77293
1.76511
1.7577
1.75144
1.74483
1.73855
1.73248
1.85834
1.85129
1.84385
1.83556
1.8257
1.81473
1.80665
1.80057
1.79362
1.78666
1.77905
1.76977
1.76098
1.75579
1.75038
1.74412
1.87305
1.86604
1.85917
1.85049
1.84119
1.8318
1.82256
1.81487
1.80713
1.79988
1.79281
1.78725
1.77777
1.76802
1.76137
1.75605
1.89513
1.88763
1.88037
1.87395
1.86866
1.85863
1.84935
1.84136
1.83318
1.82586
1.81676
1.8074
1.79853
1.79408
1.78625
1.7772
1.9103
1.90152
1.89419
1.88711
1.88093
1.87447
1.86505
1.85608
1.84861
1.84222
1.83491
1.82616
1.81615
1.80683
1.79906
1.79421
1.92686
1.91671
1.9078
1.90099
1.89394
1.88718
1.87984
1.87209
1.86369
1.85687
1.85098
1.84622
1.83742
1.82694
1.81679
1.80756
1.94365
1.93415
1.92177
1.91239
1.90633
1.90037
1.8937
1.88482
1.8775
1.87006
1.86472
1.85858
1.85344
1.84769
1.83677
1.826
1.96018
1.95133
1.94153
1.93236
1.92207
1.91341
1.90793
1.9012
1.89076
1.88301
1.87625
1.87009
1.86515
1.85939
1.85288
1.84518
1.97544
1.96813
1.95981
1.95052
1.94194
1.9332
1.92434
1.91683
1.90955
1.8993
1.88971
1.88293
1.87759
1.87152
1.86542
1.98987
1.98385
1.97632
1.96712
1.95794
1.95005
1.94179
1.93392
1.92487
1.91717
1.90856
1.89801
1.88936
1.8844
1.87851
1.87197
2.00325
1.99637
1.99038
1.98435
1.97418
1.96522
1.95701
1.94966
1.94213
1.93346
1.92502
1.91761
1.90756
1.89746
1.89155
1.88532
2.01495
2.00926
2.00238
1.99593
1.98914
1.98038
1.97236
1.96478
1.95684
1.94907
1.94115
1.93309
1.92627
1.91686
1.90689
2.02348
2.01603
2.00933
2.00237
1.99495
1.98611
1.97873
1.97152
1.9641
1.9568
1.94808
1.9403
1.93221
1.92355
2.04548
2.03533
2.02519
2.01779
2.00953
2.00174
1.99294
1.98612
1.97829
1.97103
1.96419
1.95536
1.94726
2.06566
2.05924
2.05142
2.04456
2.03404
2.02577
2.0168
2.00902
2.00076
1.99324
1.98509
1.97697
1.96945
1.96161
2.07981
2.07198
2.06507
2.05794
2.04984
2.04084
2.03264
2.02432
2.01607
2.00754
1.99947
1.99181
1.98397
1.97612
2.09455
2.08714
2.07927
2.06971
2.06444
2.05664
2.04831
2.03983
2.03155
2.02317
2.01447
2.00573
1.99872
1.99116
2.10808
2.10166
2.09502
2.08677
2.07826
2.07034
2.06413
2.05619
2.04709
2.03849
2.03136
2.02183
2.01358
2.00597
2.1214
2.11444
2.10839
2.103
2.09439
2.0867
2.07783
2.0706
2.062
2.0532
2.04439
2.03716
2.02901
2.02094
2.13508
2.12692
2.11896
2.11544
2.1097
2.1013
2.0935
2.08637
2.07903
2.06927
2.05797
2.05049
2.04323
2.1214
2.11853
2.11018
2.0998
2.09331
2.08868
2.07796
2.0656
2.05744
2.12761
2.12413
2.11757
2.10696
2.09849
2.0934
2.08574
2.07503
2.14328
2.13291
2.12957
2.12576
2.11583
2.10609
2.09894
2.16439
2.15464
2.144
2.13507
2.13057
2.12279
2.11401
2.16383
2.15558
2.14589
2.1377
2.12986
2.19596
2.183
2.16828
2.16254
2.15409
2.14552
2.25696
2.25025
2.21962
2.20743
2.17054
2.26025
2.25132
2.24402
2.23679
2.2296
2.19085
2.27762
2.24035
2.23309
2.22668
2.21507
2.28482
2.26435
2.2457
0.186016
0.174746
0.166356
0.248465
0.236618
0.225026
0.213773
0.202096
0.190185
0.178787
0.169236
0.125659
0.298739
0.287212
0.2755
0.264041
0.252458
0.240646
0.228969
0.217372
0.205411
0.193238
0.181159
0.170017
0.158211
0.144371
0.131524
0.338216
0.326209
0.314462
0.302816
0.291368
0.279295
0.267572
0.2561
0.244625
0.232972
0.221088
0.208089
0.195258
0.183087
0.171399
0.159822
0.147408
0.133741
0.120613
0.103959
0.08462
0.0677592
0.380599
0.367984
0.354803
0.342562
0.330196
0.318255
0.306734
0.294914
0.282919
0.270986
0.259528
0.248429
0.237268
0.226131
0.214198
0.197709
0.183357
0.17294
0.161875
0.150128
0.136969
0.122325
0.105851
0.420268
0.409786
0.398707
0.386078
0.372791
0.358884
0.345717
0.333411
0.322017
0.310655
0.298806
0.286286
0.27392
0.262515
0.251624
0.24172
0.232859
0.220648
0.200734
0.184231
0.174979
0.164454
0.152838
0.140287
0.125625
0.447733
0.436002
0.425353
0.414732
0.403921
0.391793
0.378186
0.362487
0.348071
0.33536
0.325777
0.315215
0.303753
0.289032
0.275228
0.264888
0.254843
0.24537
0.237169
0.224804
0.204452
0.187561
0.178341
0.167703
0.155836
0.481681
0.465625
0.450578
0.441468
0.431203
0.419899
0.409487
0.401425
0.388157
0.371401
0.354668
0.337936
0.329734
0.320884
0.3131
0.295824
0.276424
0.266656
0.257628
0.248175
0.238512
0.229079
0.209613
0.19383
0.182629
0.51614
0.50217
0.487184
0.471389
0.4567
0.447315
0.438254
0.425903
0.413508
0.407186
0.396419
0.380176
0.363027
0.347023
0.334125
0.325382
0.319943
0.302207
0.281831
0.270161
0.260824
0.250662
0.239895
0.227453
0.213284
0.561984
0.554281
0.538391
0.522464
0.507849
0.491824
0.476928
0.464011
0.4527
0.443976
0.432018
0.418696
0.411344
0.404389
0.389809
0.37441
0.357123
0.341203
0.331483
0.321224
0.306539
0.286187
0.275256
0.264454
0.253502
0.242667
0.596113
0.586399
0.576897
0.568379
0.556993
0.54283
0.528667
0.511653
0.497863
0.48388
0.471638
0.457214
0.445972
0.435354
0.423883
0.414664
0.405256
0.394737
0.382227
0.366366
0.34915
0.336095
0.321546
0.306417
0.293702
0.280162
0.268554
0.609947
0.60161
0.590922
0.582302
0.573565
0.561123
0.544926
0.534214
0.517576
0.503651
0.490375
0.477813
0.463994
0.450399
0.437429
0.42795
0.418576
0.408941
0.398672
0.386499
0.374441
0.359486
0.342635
0.328284
0.308945
0.655574
0.646544
0.632865
0.619037
0.607637
0.596005
0.587797
0.577012
0.565506
0.55225
0.53957
0.525268
0.510922
0.497075
0.482996
0.469782
0.455682
0.440951
0.432185
0.422933
0.413366
0.403771
0.393223
0.383892
0.36725
0.67204
0.658675
0.650328
0.639593
0.628025
0.618288
0.603047
0.593868
0.582384
0.570254
0.558178
0.547385
0.531474
0.517215
0.503021
0.488761
0.474559
0.46029
0.445301
0.436739
0.427593
0.417777
0.408547
0.398913
0.706186
0.698653
0.69254
0.679756
0.665669
0.655751
0.646323
0.635578
0.623924
0.610661
0.59969
0.588346
0.576175
0.562759
0.553837
0.538262
0.523399
0.5095
0.49453
0.479178
0.465165
0.451172
0.441592
0.432341
0.422805
0.727482
0.719027
0.710912
0.702996
0.695045
0.684937
0.673564
0.663621
0.654253
0.643872
0.63047
0.618442
0.606189
0.594175
0.58343
0.573722
0.558641
0.545093
0.530913
0.517294
0.502337
0.484833
0.466583
0.456734
0.446623
0.747792
0.740088
0.731733
0.723985
0.714946
0.706241
0.698362
0.689528
0.680325
0.671543
0.663096
0.650705
0.637964
0.624949
0.611685
0.601775
0.588656
0.580301
0.566395
0.552918
0.538617
0.524859
0.510298
0.493488
0.476124
0.775873
0.767809
0.760112
0.7521
0.744708
0.737448
0.728885
0.719626
0.709278
0.701355
0.693684
0.685723
0.677937
0.670337
0.656292
0.644643
0.632414
0.61817
0.610471
0.597756
0.583417
0.57337
0.560221
0.544847
0.531539
0.516922
0.797389
0.788848
0.780261
0.771751
0.764024
0.75681
0.749216
0.742198
0.734684
0.724469
0.712185
0.70469
0.697548
0.690281
0.682864
0.673029
0.659745
0.649471
0.641691
0.627821
0.617156
0.608035
0.594063
0.579773
0.566672
0.553177
0.820013
0.81102
0.802007
0.792506
0.783785
0.775566
0.767453
0.760345
0.753109
0.746366
0.739456
0.730181
0.717377
0.709593
0.70254
0.69512
0.686173
0.67473
0.662136
0.652735
0.643314
0.632271
0.623498
0.615689
0.602651
0.587638
0.573845
0.841445
0.83299
0.824415
0.815327
0.805877
0.796358
0.786902
0.778411
0.770319
0.763143
0.75628
0.749731
0.742767
0.733984
0.723771
0.714812
0.707915
0.700583
0.69105
0.679889
0.663338
0.65566
0.646346
0.636999
0.628101
0.620506
0.612473
0.855964
0.846961
0.837719
0.828988
0.819794
0.810139
0.799952
0.790223
0.781121
0.772547
0.765668
0.75914
0.75252
0.745489
0.737479
0.72871
0.720236
0.713071
0.706282
0.698598
0.684592
0.670578
0.659958
0.65091
0.641732
0.632448
0.879488
0.870349
0.861638
0.852043
0.843084
0.833792
0.8245
0.814203
0.803756
0.793602
0.783587
0.775238
0.768077
0.761865
0.755274
0.748206
0.74055
0.732577
0.724691
0.717009
0.70928
0.699781
0.689047
0.6764
0.666195
0.656245
0.90203
0.893528
0.884908
0.876051
0.866962
0.857501
0.848364
0.838268
0.828779
0.819001
0.808937
0.798851
0.788407
0.777815
0.771482
0.76507
0.758571
0.751545
0.744036
0.736334
0.728642
0.720615
0.712223
0.70318
0.692925
0.682411
0.916378
0.907969
0.89952
0.8905
0.8814
0.872099
0.862348
0.852703
0.843138
0.833693
0.824023
0.814108
0.803904
0.793098
0.783948
0.775597
0.769092
0.762386
0.755398
0.748054
0.740164
0.732356
0.724521
0.715991
0.706937
0.939186
0.931163
0.922181
0.913961
0.905652
0.89643
0.886386
0.87713
0.867788
0.858088
0.848436
0.838893
0.829143
0.81924
0.808957
0.797658
0.789277
0.780122
0.773639
0.766827
0.759383
0.752125
0.744471
0.736956
0.728621
0.72059
0.960873
0.952817
0.944883
0.936783
0.928265
0.919946
0.911423
0.90324
0.892737
0.882939
0.873295
0.86356
0.853865
0.844222
0.834318
0.824435
0.814875
0.804045
0.792591
0.785224
0.778528
0.771567
0.764098
0.756815
0.74883
0.741364
0.981499
0.973884
0.966103
0.958241
0.950401
0.942173
0.933858
0.925469
0.91672
0.908679
0.898181
0.889336
0.879102
0.869214
0.859441
0.849771
0.839836
0.82958
0.820358
0.811222
0.799314
0.791296
0.783678
0.776433
0.7688
0.761051
0.75368
0.994847
0.986838
0.979097
0.971203
0.963502
0.955914
0.947784
0.939495
0.931446
0.922473
0.913606
0.904072
0.894703
0.884715
0.874734
0.865035
0.855608
0.845503
0.835473
0.826165
0.817034
0.806551
0.797406
0.789263
0.781482
0.77404
1.01511
1.00816
1.00053
0.992772
0.984156
0.975897
0.968512
0.962108
0.954377
0.946131
0.93725
0.928428
0.919974
0.910608
0.901191
0.89028
0.879935
0.870249
0.862042
0.851458
0.840745
0.831591
0.822417
0.812779
0.803156
0.794869
1.02704
1.02049
1.01355
1.007
0.999335
0.989658
0.979227
0.972637
0.96774
0.961089
0.951807
0.942806
0.934165
0.926459
0.917261
0.906495
0.895771
0.885208
0.875477
0.866244
0.856679
0.84686
0.83783
0.827875
0.818864
1.04643
1.03913
1.03225
1.02523
1.01877
1.01284
1.00611
0.997344
0.985352
0.977772
0.972911
0.967379
0.958069
0.948392
0.939812
0.932296
0.923898
0.911524
0.90086
0.891051
0.880914
0.871339
0.862116
0.852743
0.843318
1.0592
1.05181
1.04436
1.03701
1.02969
1.02324
1.01756
1.01177
1.00388
0.992272
0.984069
0.97785
0.97133
0.962255
0.952295
0.944223
0.936558
0.929112
0.916264
0.906333
0.896256
0.886642
0.876827
0.867296
0.858516
1.08069
1.07299
1.06476
1.05664
1.04908
1.04175
1.03388
1.02699
1.02116
1.01503
1.00772
0.99954
0.991351
0.983887
0.976106
0.966926
0.955628
0.949107
0.941851
0.934519
0.921626
0.911785
0.902657
0.89255
0.882742
1.09415
1.08689
1.07914
1.07036
1.06174
1.054
1.04684
1.03826
1.03076
1.02393
1.01715
1.01053
1.00427
0.997929
0.991653
0.983098
0.972961
0.962347
0.95439
0.946985
0.937881
0.927676
0.917884
0.908463
0.898827
1.11279
1.10647
1.10015
1.09334
1.08611
1.07677
1.0672
1.05991
1.05265
1.04441
1.03545
1.02836
1.01996
1.0132
1.00792
1.00287
0.997174
0.989069
0.978827
0.96895
0.960041
0.951969
0.942985
0.933463
0.924146
1.12389
1.11745
1.1117
1.10551
1.09951
1.09351
1.08606
1.07565
1.06717
1.05942
1.05143
1.04231
1.03385
1.02391
1.01721
1.012
1.00666
1.00032
0.992832
0.984468
0.975103
0.966273
0.95797
0.948664
1.14076
1.13449
1.12855
1.12235
1.11643
1.11052
1.10466
1.09921
1.09251
1.08342
1.07513
1.06708
1.05759
1.04836
1.0394
1.0299
1.02243
1.01673
1.01101
1.00425
0.996664
0.989076
0.980665
0.972535
0.96477
1.15108
1.14527
1.13925
1.13322
1.12707
1.12129
1.11506
1.10888
1.10352
1.09721
1.08967
1.08263
1.07553
1.06555
1.05601
1.04539
1.0358
1.02801
1.02171
1.01585
1.00877
1.00146
0.994001
0.986219
1.16756
1.16156
1.15576
1.14975
1.14371
1.1381
1.13187
1.12598
1.11942
1.11267
1.10697
1.10076
1.09417
1.08805
1.08155
1.07339
1.06313
1.05231
1.04303
1.03471
1.02745
1.02095
1.01412
1.00651
0.999047
1.1778
1.17209
1.16618
1.16024
1.15426
1.14816
1.14253
1.13663
1.13078
1.12471
1.11714
1.11052
1.10383
1.09728
1.09144
1.0857
1.07895
1.06901
1.05857
1.0495
1.04129
1.03376
1.02655
1.01908
1.19413
1.18818
1.18237
1.17635
1.1705
1.16491
1.15882
1.15271
1.14698
1.14115
1.13499
1.129
1.12211
1.11495
1.10755
1.10057
1.09475
1.08888
1.08216
1.07366
1.06429
1.05558
1.0477
1.03973
1.03249
1.20403
1.19848
1.19262
1.18672
1.1807
1.1748
1.16899
1.16304
1.15724
1.15177
1.14619
1.13953
1.13282
1.12617
1.11955
1.11236
1.10512
1.09876
1.09262
1.08585
1.07799
1.06963
1.06105
1.05316
1.2143
1.20822
1.20263
1.19685
1.19118
1.18504
1.17905
1.1731
1.16733
1.16178
1.1565
1.15143
1.14525
1.13801
1.13079
1.124
1.11719
1.11012
1.10333
1.09718
1.09014
1.08259
1.07493
1.06701
1.23006
1.22443
1.21887
1.21294
1.20675
1.201
1.19521
1.1891
1.1831
1.17726
1.17158
1.16606
1.16074
1.15556
1.14982
1.14297
1.13583
1.12878
1.12207
1.11515
1.10856
1.10188
1.09463
1.08735
1.08016
1.24087
1.23504
1.22928
1.22346
1.21735
1.21096
1.20512
1.19931
1.19315
1.187
1.18127
1.17573
1.17019
1.16469
1.15916
1.15319
1.14667
1.13996
1.13319
1.12663
1.11964
1.11319
1.10656
1.09969
1.25206
1.2458
1.23993
1.23415
1.22832
1.22174
1.2147
1.20934
1.20383
1.19739
1.19067
1.18515
1.17987
1.17441
1.16881
1.16305
1.15701
1.15047
1.14403
1.13771
1.13109
1.12437
1.11787
1.11144
1.26283
1.25657
1.25064
1.24472
1.23912
1.2338
1.22708
1.21995
1.21448
1.20926
1.20272
1.19504
1.18947
1.18421
1.17879
1.17317
1.16746
1.16145
1.15501
1.14848
1.14217
1.13558
1.12943
1.27891
1.27293
1.26742
1.26162
1.2553
1.2494
1.24366
1.23805
1.23162
1.22519
1.21964
1.21474
1.20885
1.20108
1.19462
1.18895
1.18335
1.17763
1.17201
1.16613
1.15978
1.15335
1.14717
1.14038
1.28952
1.2837
1.27776
1.27203
1.26629
1.26016
1.25408
1.2479
1.24138
1.2351
1.2293
1.22393
1.21876
1.21297
1.20641
1.19991
1.1939
1.18814
1.18226
1.17655
1.17065
1.16444
1.1583
1.15227
1.30025
1.29398
1.28839
1.28239
1.27657
1.27075
1.26483
1.25896
1.25258
1.24488
1.23834
1.233
1.22783
1.22254
1.21684
1.21082
1.20461
1.19851
1.1927
1.187
1.18118
1.17521
1.16927
1.31572
1.31009
1.30476
1.29889
1.29307
1.28717
1.2812
1.27517
1.26912
1.2636
1.25789
1.24996
1.24262
1.23705
1.23187
1.22661
1.22104
1.21532
1.20929
1.20322
1.1972
1.19148
1.18571
1.17979
1.32539
1.32024
1.31483
1.30934
1.30362
1.29807
1.29217
1.28597
1.27961
1.27307
1.26751
1.26245
1.25556
1.24758
1.24133
1.23614
1.23096
1.22559
1.21998
1.21414
1.20816
1.20213
1.19631
1.19053
1.33509
1.32988
1.32465
1.31937
1.31399
1.30835
1.30288
1.29715
1.29115
1.28439
1.27736
1.27121
1.26632
1.26084
1.25327
1.24615
1.24075
1.23544
1.23017
1.22457
1.21867
1.21291
1.20698
1.20131
1.34521
1.33945
1.33438
1.32912
1.32396
1.31845
1.31297
1.30772
1.30258
1.29708
1.28997
1.28269
1.27586
1.27066
1.26593
1.25923
1.25198
1.24596
1.24018
1.23484
1.22915
1.22362
1.21746
1.36018
1.35502
1.34971
1.34424
1.3388
1.3336
1.32843
1.32298
1.31764
1.31255
1.30774
1.30272
1.29554
1.28803
1.28067
1.27473
1.26985
1.26401
1.25747
1.25125
1.24514
1.23951
1.23366
1.22784
1.37052
1.365
1.35972
1.35421
1.34873
1.34342
1.33813
1.33291
1.32759
1.32229
1.3171
1.31214
1.30716
1.30096
1.29349
1.28594
1.27938
1.27419
1.26859
1.26252
1.25631
1.25018
1.24458
1.23859
1.38034
1.3751
1.36986
1.36456
1.35886
1.35339
1.34802
1.34269
1.33744
1.3322
1.32694
1.32155
1.31609
1.31075
1.30539
1.29881
1.29143
1.28497
1.27939
1.2736
1.26753
1.26165
1.25521
1.38998
1.38491
1.37958
1.37445
1.36928
1.36367
1.35806
1.35263
1.34717
1.34191
1.33683
1.33178
1.32636
1.3203
1.31443
1.30926
1.30361
1.29696
1.29073
1.28477
1.27875
1.27256
1.26647
1.39963
1.3945
1.38929
1.38415
1.3788
1.3736
1.36827
1.36265
1.35702
1.35148
1.34629
1.34146
1.33681
1.33202
1.32581
1.31904
1.3133
1.30783
1.30204
1.29603
1.28996
1.28386
1.27771
1.40973
1.40412
1.39909
1.39378
1.38868
1.38343
1.37799
1.37271
1.36721
1.36128
1.35541
1.35026
1.34566
1.34123
1.33674
1.33138
1.32451
1.318
1.31239
1.30687
1.30096
1.29504
1.28922
1.42003
1.41449
1.40903
1.40357
1.39828
1.39303
1.38776
1.38252
1.37749
1.37239
1.36615
1.35926
1.35435
1.3498
1.34526
1.34052
1.33515
1.32907
1.32307
1.31745
1.31175
1.30601
1.30006
1.43015
1.42455
1.41903
1.41352
1.40811
1.40278
1.39746
1.39221
1.38704
1.38222
1.37771
1.3723
1.36519
1.35943
1.35437
1.34945
1.34431
1.3389
1.33323
1.32778
1.3223
1.31682
1.31123
1.44588
1.44046
1.43493
1.42923
1.42358
1.41811
1.41264
1.40721
1.40181
1.39652
1.39129
1.38634
1.38163
1.37643
1.37051
1.36465
1.35917
1.35388
1.34846
1.34301
1.33746
1.33233
1.32704
1.45627
1.45082
1.44552
1.43995
1.43392
1.42813
1.42254
1.41701
1.41149
1.40599
1.40061
1.39533
1.39027
1.38542
1.38032
1.37491
1.3694
1.36395
1.35855
1.35309
1.34756
1.34215
1.33698
1.46625
1.46092
1.45569
1.45041
1.44487
1.4386
1.43248
1.42679
1.42125
1.41578
1.41012
1.40452
1.39911
1.39413
1.38937
1.3844
1.37925
1.374
1.36865
1.36323
1.35762
1.35232
1.34668
1.47638
1.47101
1.46573
1.46044
1.45518
1.44978
1.44347
1.43663
1.43089
1.42547
1.42026
1.41445
1.40838
1.40262
1.39801
1.3935
1.38872
1.38375
1.37861
1.37334
1.36786
1.3622
1.35665
1.48626
1.48107
1.47567
1.47048
1.46532
1.46015
1.45518
1.44946
1.44192
1.43554
1.42979
1.42481
1.41947
1.41335
1.40717
1.40248
1.39798
1.3933
1.38839
1.38311
1.37796
1.37249
1.36707
1.49611
1.49092
1.48565
1.48037
1.47535
1.47022
1.4651
1.46048
1.45569
1.4487
1.44147
1.43505
1.42946
1.42451
1.41917
1.41314
1.4077
1.40277
1.39802
1.39301
1.38785
1.38264
1.37724
1.50593
1.5008
1.49553
1.49017
1.48507
1.47994
1.47471
1.46959
1.46485
1.45987
1.45401
1.44733
1.44078
1.43468
1.42908
1.42396
1.41852
1.41295
1.40775
1.40288
1.39775
1.39256
1.38735
1.51635
1.5108
1.50543
1.50009
1.49481
1.48966
1.48448
1.47918
1.47396
1.46902
1.46421
1.45914
1.45248
1.44596
1.4397
1.43382
1.4286
1.42326
1.4178
1.41279
1.40765
1.40272
1.39742
1.52713
1.52103
1.51534