/*--------------------------------*- C++ -*----------------------------------*\
| =========                 |                                                 |
| \\      /  F ield         | OpenFOAM: The Open Source CFD Toolbox           |
|  \\    /   O peration     | Version:  2312                                  |
|   \\  /    A nd           | Website:  www.openfoam.com                      |
|    \\/     M anipulation  |                                                 |
\*---------------------------------------------------------------------------*/
FoamFile
{
    version     2.0;
    format      ascii;
    arch        "LSB;label=64;scalar=64";
    class       volScalarField;
    location    "130";
    object      omega;
}
// * * * * * * * * * * * * * * * * * * * * * * * * * * * * * * * * * * * * * //

dimensions      [0 0 -1 0 0 0 0];

internalField   nonuniform List<scalar> 
404911
(
279.673
218.037
3450.09
1536.62
197.705
217.212
185.34
604.886
342.673
282.358
240.915
320.179
199.229
297.079
434.288
1116.42
257.494
207.661
227.792
357.313
496.918
255.741
701.751
490.652
213.133
973.892
261.631
184.872
240.051
981.317
225.747
177.351
321.352
455.598
225.4
167.968
317.714
421.981
223.996
139.474
235.801
1007.68
213.462
125.001
143.071
388.619
321.982
126.433
141.889
813.391
385.638
297.476
183.897
1338.25
336.971
576.926
9402.8
155.516
316.109
216.215
250.001
149.876
173.988
93.5576
86.653
155.924
186.742
396.081
140.818
109.72
140.485
52.3932
168.834
98.4723
48.4255
598.709
2269.15
232.404
79.0012
187.418
74.0909
197.09
49.7421
115.531
151.026
73.334
282.762
72.6573
1127.59
218.994
183.015
2962.95
144.913
230.109
143.176
102.941
123.258
226.027
94.8403
223.391
640.834
142.963
123.135
488.596
1269.72
515.189
259.601
702.757
348.586
277.22
219.19
225.039
216.697
230.976
2309.95
548.268
239.938
4573.09
615.841
201.605
201.681
198.171
198.312
277.949
1350.29
343.764
233.893
221.398
199.042
551.285
489.933
531.733
197.194
183.955
191.345
181.419
237.365
253.627
188.052
290.116
1210.67
329.401
216.602
200.882
200.954
194.155
189.866
174.459
517.903
457.432
180.611
171.593
192.848
1799.87
296.385
1011.66
269.012
189.533
179.324
188.544
186.642
189.268
185.242
176.555
169.083
165.784
169.16
172.511
190.092
267.747
414.71
606.326
463.846
430.479
428.152
430.304
517.769
182.807
180.429
169.414
170.688
172.47
185.029
201.901
211.597
212.471
304.196
724.67
476.357
404.31
396.452
273.747
342.68
530.176
451.135
171.641
171.97
169.582
181.683
193.26
203.19
238.097
1194.92
1012.7
269.202
603.825
308.283
263.316
236.432
380.947
403.134
297.648
340.517
416.646
442.384
156.034
173.961
185.677
189.716
218.738
515.557
882.749
615.697
277.869
251.785
186.777
222.981
239.187
245.953
351.031
372.499
377.62
264.433
140.172
180.291
189.78
214.019
312.683
1235.97
1235.31
292.063
140.06
203.532
183.197
166.379
164.326
195.078
399.617
279.073
216.792
186.768
203.586
285.498
474.632
182.895
226.45
1136.21
469.498
171.486
120.83
260.552
185.101
166.821
161.105
176.78
169.591
177.487
157.584
188.806
240.037
377.945
461.069
542.685
438.094
488.751
216.94
161.686
419.916
209.52
167.556
178.561
158.083
167.524
184.852
165.943
171.415
324.371
349.829
435.526
483.843
1711.93
370.77
188.195
165.756
145.956
154.265
165.774
173.046
156.3
163.537
157.555
162.626
170.998
184.01
423.494
381.887
442.864
252.467
1047.79
1001.05
905.616
310.109
249.467
133.295
120.94
181.54
151.771
167.602
167.629
169.193
162.543
155.627
172.193
226.093
348.098
190.583
553.921
1127.72
261.298
155.2
159.186
164.04
160.846
162.26
108.226
172.516
144.488
173.952
137.031
129.501
152.193
155.355
205.737
520.779
268.975
480.633
167.77
123.613
125.881
127.461
226.506
146.308
153.028
99.8103
121.942
104.284
110.998
143.251
116.958
152.105
234.807
197.208
1023.21
1161.83
275.385
157.174
127.518
113.133
106.244
134.386
128.255
110.653
103.253
94.7363
135.491
135.979
152.297
129.715
145.81
395.797
923.101
363.159
153.691
129.237
184.774
204.434
124.65
127.891
122.713
96.9557
90.2972
94.0831
113.945
138.908
148.474
176.029
150.339
300.825
745.529
1131.43
917.868
328.69
187.169
161.314
159.68
161.125
116.409
124.363
107.753
100.893
100.89
107.001
127.259
175.459
167.5
164.377
466.837
454.413
181.035
159.739
147.381
136.844
127.943
115.288
163.375
116.309
158.768
123.879
119.294
116.996
137.89
130.501
153.482
302.477
999.802
201.236
133.954
161.649
117.374
116.822
121.349
107.023
116.514
123.087
137.252
156.529
156.743
141.56
137.583
199.823
172.653
341.403
447.976
150.471
177.671
149.658
112.979
106.65
121.175
103.369
89.2516
111.719
160.611
142.208
138.986
163.114
157.933
203.266
194.304
1029.47
262.627
126.291
117.082
102.535
102.911
100.98
107.671
130.605
78.511
75.3942
93.0928
126.8
151.83
169.56
224.232
181.517
307.177
1222.57
473.213
183.795
128.758
112.096
102.689
95.7741
102.9
104.262
87.0921
84.4938
78.2773
87.5105
99.9943
114.167
204.285
124.557
199.676
1040.8
1136.74
240.236
126.671
159.268
118.263
104.82
98.1152
93.9857
90.1234
96.9096
80.1135
92.7048
118.896
115.871
120.82
128.548
168.106
316.166
433.243
153.639
121.712
106.299
100.026
97.0346
94.9521
99.8696
106.266
84.995
84.4416
92.0484
115.424
143.616
163.938
158.29
194.509
1034.49
1146.54
232.555
118.876
109.858
98.5509
93.6388
90.4564
89.3249
89.3541
95.1171
109.487
102.924
104.411
108.557
127.321
144.988
187.137
288.371
916.642
159.35
125.696
108.368
96.5349
90.9135
85.5518
84.0317
84.2088
85.5014
86.0631
95.3559
100.062
105.912
116.36
144.245
209.883
341.669
282.049
131.756
145.514
117.186
100.443
90.6838
86.0623
80.4681
77.0229
79.8119
84.8669
92.258
100.752
106.304
127.52
143.29
177.882
528.256
258.76
150.08
146.037
115.365
103.714
92.2464
90.1741
82.4962
74.8086
74.7099
81.1643
90.7988
100.737
118.846
122.546
138.266
264.493
1144.54
1189.1
195.708
123.8
128.525
114.739
104.052
96.0117
90.5153
95.7783
83.3055
76.9427
81.4188
91.0791
101.313
114.009
161.357
178.827
481.453
956.422
177.683
124.403
105.408
99.3304
96.7451
92.2951
85.7572
81.8583
88.8236
86.2607
85.2751
91.8555
103.397
112.894
144.895
186.343
1093.92
303.982
151.693
130.547
110.831
102.866
100.008
94.0327
84.8351
76.692
72.911
76.5146
84.4313
94.7246
101.423
134.033
126.12
194.375
1130.08
288.065
133.246
111.75
102.544
97.0647
102.665
105.893
77.4824
74.7585
76.3246
81.6396
89.0133
98.2573
107.336
117.985
136.693
285.501
1055.78
211.159
130.046
112.539
100.168
94.3646
87.6456
97.0118
95.3106
65.5662
68.4155
80.0615
89.3033
98.2913
108.812
133.054
160.731
465.704
450.012
159.455
157.294
146.245
107.726
97.0908
87.8668
74.2557
91.7727
77.5433
58.3642
74.9713
91.9306
98.1662
108.605
131.745
179.752
1027.65
295.39
136.2
110.276
101.908
94.5955
95.7895
102.459
86.4089
80.2243
62.1255
81.5345
79.2293
92.1504
99.3447
105.523
141.154
229.559
1162.19
1076.24
196.421
127.271
114.524
100.276
93.7246
86.6031
96.6993
95.4849
84.3415
77.5007
58.7649
84.2334
97.2326
99.3488
115.451
126.563
258.2
1069.36
184.722
121.817
104.238
95.1513
90.1443
86.0852
81.5206
93.0081
92.8592
85.8018
73.8131
71.0796
88.0626
101.19
110.737
140.431
435.352
1050.98
181.679
121.845
101.592
95.217
89.0032
83.3189
80.128
77.83
76.5918
69.5352
81.4269
70.5664
92.5461
110.979
134.836
156.11
922.032
1045.3
175.964
120.361
100.672
93.0061
89.1175
82.5245
77.2095
77.1376
78.9847
67.8954
66.2958
81.5722
97.4381
114.094
151.957
217.609
1149.62
288.628
154.279
124.28
103.553
93.0297
85.911
80.1715
74.8933
72.0154
75.1213
76.9647
70.9712
81.0309
98.5008
111.548
146.28
242.391
1175.04
265.533
132.193
111.599
101.912
92.5434
84.2104
75.8109
71.1786
72.4309
69.7432
76.1484
88.6211
90.6998
102.951
105.513
145.842
237.933
1128.59
184.247
136.067
132.704
103.047
94.5652
85.4706
77.347
70.1437
68.8126
72.1748
74.0252
78.8473
92.4737
105.549
119.874
131.938
255.022
1006.87
181.557
122.649
101.11
94.8861
90.7414
85.3407
81.329
83.369
77.4272
72.2908
73.953
80.4467
87.5169
96.3592
117.344
128.384
270.301
1074.85
182.312
122
101.831
93.0118
89.5418
83.2605
77.161
74.3874
83.1319
84.1551
75.1558
79.9889
88.2384
95.6164
117.42
135.648
289.507
1071.53
184.952
126.791
102.196
92.8026
86.4972
79.0983
71.1633
67.5045
63.9152
66.1137
71.7603
81.8737
89.2738
98.5213
113.141
148.398
440.8
1001.25
173.88
123.155
101.876
91.4596
83.3484
73.0668
64.8178
58.7438
59.7446
63.1819
72.9114
83.3873
91.5312
98.9969
120.437
175.053
1012.89
298.232
168.214
119.601
102.983
91.7006
79.8473
68.7521
58.559
52.558
51.0533
59.5606
71.8393
82.8891
91.9009
100.084
117.512
175.978
1094.35
301.637
162.223
115.589
103.95
96.4979
77.739
68.0117
58.3586
49.4691
43.8826
50.6676
71.7645
84.3918
90.8828
101.196
121.515
173.832
1057.59
1183.32
210.074
155.032
118.595
99.7599
98.9554
93.5279
60.2493
62.9525
49.543
50.3495
48.5457
64.5859
87.4942
93.4486
100.078
131.319
187.698
1043.42
1065.09
170.852
119.222
166.93
113.96
93.1187
92.5891
86.7739
64.1956
53.402
48.3446
46.9535
72.003
98.9621
99.4249
104.209
124.994
234.024
174.525
114.83
97.9612
92.9411
90.3184
86.1353
74.8828
67.2202
59.6602
57.854
46.4869
69.6986
83.8705
97.4027
118.15
122.542
246.466
990.705
170.801
111.754
92.9224
89.0058
88.8073
87.5459
81.2105
68.0625
73.4824
51.276
42.9601
59.7746
90.208
97.3138
127.23
131.513
290.653
1028.77
160.611
108.339
90.8943
88.6199
88.4588
84.7855
84.5745
78.3089
60.9059
64.4844
53.5774
70.1695
93.9518
95.3983
119.679
137.723
441.053
1131.24
160.029
112.369
94.6795
89.2816
87.3708
83.1826
79.6352
81.7613
71.9726
56.0012
72.0125
89.0762
92.2873
99.1359
109.401
145.204
864.977
149.548
130.438
106.841
92.3327
85.0763
83.8594
79.1863
76.1298
79.5511
63.4314
69.8048
78.3437
85.1101
98.0888
119.854
168.305
967.648
749.54
220.815
108.611
90.0133
81.8483
78.3741
80.12
75.5481
67.1421
67.72
64.7602
80.4616
85.0434
94.5848
126.883
174.062
1066.01
2180.99
306.618
158.135
125.89
84.0406
73.8111
73.0296
71.6179
75.8211
73.0303
72.8359
76.7783
84.576
87.8073
97.8318
122.522
194.535
1114.13
272.644
127.594
117.008
91.8662
70.5234
64.9346
64.2605
64.4146
71.5688
77.7529
67.821
69.5838
83.9273
87.8822
102.915
127.573
262.669
253.811
124.226
107.394
81.3547
62.4749
56.9195
56.9921
64.3012
60.0364
75.8865
63.3819
71.6327
88.8381
93.5118
104.559
131.139
281.221
1182.62
219.822
121.909
109.217
96.4198
77.4918
74.2048
61.8634
48.5128
61.3273
57.1385
56.892
76.7498
95.9322
107.451
120.624
149.887
856.848
956.802
167.386
122.966
99.3883
91.6436
77.1728
145.367
141.45
63.0781
42.6566
60.4448
71.4858
83.3415
100.592
123.264
146.656
161.375
989.082
830.449
130.118
216.984
145.206
97.1752
59.2755
70.6975
97.9651
172.031
80.2345
50.2439
74.6229
101.127
117.147
136.965
172.344
168.869
1006.46
441.384
121.99
129.435
111.195
89.7786
54.6009
76.6246
72.8306
83.9206
92.9204
69.1121
90.0951
107.912
114.45
128.669
188.048
179.062
1051.81
1034.33
234.806
121.121
124.909
120.625
92.4551
48.8778
53.934
87.2881
111.42
77.4348
90.8463
105.521
108.583
103.965
122.544
152.647
317.958
1065.39
929.493
148.421
163.425
120.606
115.394
97.3867
46.8998
24.2478
33.3222
56.2716
65.2952
80.8601
88.6613
93.7634
100.566
108.295
126.877
198.525
1100.14
224.758
139.236
117.279
113.569
85.7613
46.6252
27.3477
22.7683
32.5322
45.8884
72.8526
87.8898
94.2543
101.334
117.577
128.596
255.352
1224.88
258.928
138.121
137.706
124.086
88.9852
34.3362
50.9839
55.588
32.1786
42.0878
62.0918
92.8331
97.516
103.272
120.458
138.926
297.192
263.339
147.208
150.145
134.693
101.716
32.9321
26.9766
47.3683
45.4492
45.3489
76.2207
100.099
101.924
105.545
126.066
145.591
452.24
231.861
232.822
169.178
141
103.834
26.6084
19.2471
24.505
37.2234
51.169
74.3281
106.497
106.487
113.422
122.044
153.459
901.346
981.057
165.463
147.613
138.504
132.875
100.725
36.689
20.1113
24.5999
38.9907
69.7209
101.662
115.91
115.161
115.774
146.981
188.87
1006.17
933.862
173.365
156.5
134.674
126.692
100.117
30.2123
23.757
27.5596
43.1356
73.0092
107.08
115.159
113.785
126.195
130.78
273.344
870.943
148.098
116.541
113.073
117.469
101.399
46.6692
25.4427
31.1495
50.0518
81.3998
110.958
105.051
107.122
124.996
139.778
312.395
883.014
145.193
116.067
109.938
112.506
97.6706
36.3073
30.8027
41.5912
61.4905
85.3658
108.543
104.021
103.435
121.622
148.373
314.092
898.289
148.667
120.408
111.511
108.078
93.0576
37.1389
31.8606
38.4152
58.4307
84.4575
104.803
99.2658
102.425
116.161
156.442
896.881
915.321
152.102
135.037
126.186
116.538
75.7727
53.4333
35.9184
41.923
57.1083
81.5047
102.632
96.28
102.986
119.135
180.706
999.649
301.72
156.712
173.176
155.546
106.922
95.8985
143.128
128.13
64.7255
55.9038
73.2344
91.019
96.7111
101.56
131.891
182.715
1071.01
357.639
347.19
172.237
129.616
56.5691
52.1124
81.2364
163.792
80.0303
72.7558
99.62
104.782
119.946
130.012
224.105
1200.34
348.902
214.606
169.183
156.956
60.9388
42.0173
59.7821
93.8032
114.26
114.64
132.38
113.002
126.142
126.73
268.092
322.346
219.476
187.011
171.189
153.644
93.3641
57.3055
77.8332
98.6261
130.009
131.741
113.468
122.887
124.356
131.016
293.977
346.675
154.729
151.85
172.475
176.636
138.981
78.2224
100.047
144.092
155.829
143.693
147.441
132.948
177.008
160.715
862.401
349.923
161.991
161.074
167.075
177.77
189.048
119.035
137.687
149.404
156.123
151.664
160.674
168.018
210.028
186.504
1056.6
1226.37
316.905
184.866
141.682
177.535
191.939
167.784
173.667
137.607
170.308
166.711
154.942
139.24
192.076
241.785
484.344
1267.12
229.693
150.448
165.305
134.376
216.536
199.232
152.386
110.957
145.243
153.78
149.127
157.657
178.123
281.047
250.284
1016.96
214.655
163.845
133.604
118.37
152.086
183.737
271.628
165.828
147.362
165.039
168.45
173.908
188.997
293.819
837.053
301.137
161.265
562.364
287.142
175.353
116.661
145.099
115.224
125.961
146.967
146.258
135.455
149.748
193.441
322.345
4140.06
306.568
554.688
258.148
184.135
161.552
133.026
125.562
167.222
148.381
143.016
159.229
165.493
164.34
204.091
319.06
832.945
1074.17
637.695
319.03
182.609
150.367
136.307
103.33
114.852
152.463
151.998
178.107
193.78
220.255
215.967
352.423
1198.31
202.733
447.162
228.981
149.389
115.251
99.4159
122.691
138.322
151.703
163.612
178.227
146.142
210.971
255.708
1469.77
1191.42
224.414
166.947
319.086
216.795
159.555
106.545
93.8383
136.237
151.722
168.571
176.548
177.021
171.58
343.595
1289.03
584.007
214.819
175.735
484.22
308.435
181.116
128.804
128.753
136.129
149.523
164.561
233.794
147.993
185.36
351.199
1148.01
551.913
477.542
349.955
232.274
145.779
128.48
124.236
157.873
164.111
231.805
170.134
241.276
1175.94
729.561
525.161
447.143
370.588
224.718
259.753
139.083
127.305
156.11
216.167
145.027
182.654
329.973
1171.26
209.172
171.013
493.023
424.373
172.478
241.041
249.478
148.714
177.162
209.055
169.087
213.519
538.76
1212.84
211.507
177.171
495.693
427.519
235.733
210.086
317.084
277.27
283.246
334.691
178.666
229.15
1217.35
1125.9
201.004
536.521
484.879
472.293
324.205
213.877
209.544
216.714
299.237
480.863
182.699
237.128
1304.66
1201.51
203.079
540.695
473.992
478.073
444.819
216.338
216.769
195.152
270.621
494.996
189.519
323.862
1356.77
1169.45
224.777
178.969
499.163
448.993
481.152
312.615
187.393
207.726
327.496
181.035
207.506
332.221
1472.94
1470.35
1172.3
198.589
177.724
475.801
466.526
589.456
312.281
258.707
365.846
530.138
213.348
354.092
188.901
523.699
465.008
475.473
170.871
535.394
551.188
573.094
535.798
191.715
170.109
484.275
571.884
200.363
224.967
305.35
1212.82
6323.69
605.145
173.809
516.049
562.015
240.525
405.435
2824.45
2134.14
525.825
813.377
228.646
261.097
1216.12
505.691
810.896
235.443
252.856
617.942
839.268
614.805
287.031
233.098
278.857
1213.65
1184.31
290.154
1920.66
791.456
542.8
358.543
211.198
194.02
218.766
211.997
672.581
301.382
213.795
377.852
699.24
1542.49
1350.55
6478.44
528.15
1531.89
612.533
579.958
1452.47
644.226
438.807
335.113
319.248
296.834
275.69
264.31
346.492
1484.32
658.865
430.078
321.82
304.807
282.499
268.597
265.367
270.387
266.461
260.589
247.059
249.329
255.121
246.662
1352.28
597.275
330.061
298.659
273.61
268.731
261.747
254.49
256.81
255.827
257.245
244.787
234.117
240.195
253.116
252.577
258.127
256.474
262.873
356.996
425.154
892.489
998.918
532.555
290.936
262.336
259.393
249.329
244.934
245.607
242.652
238.915
238.066
240.96
246.954
228.328
606.929
599.767
256.999
266.644
250.37
260.836
259.887
288.528
631.807
555.951
321.997
250.917
232.115
211.336
201.757
210.412
219.917
226.537
225.024
224.734
219.957
227.83
226.04
231.834
235.004
220.901
558.619
602.673
230.368
254.879
260.617
276.616
314.711
1324.37
431.732
203.205
160.494
153.326
192.714
205.11
444.996
654.719
809.978
191.892
210.274
216.147
202.688
193.277
197.973
220.199
226.896
217.214
205.727
531.021
586.732
237.19
264.648
309.63
652.5
1541.53
400.486
288.604
251.001
195.765
193.154
186.447
207.474
234.858
228.395
217.419
419.107
188.706
206.556
249.3
220.703
675.874
201.853
225.866
237.932
240.879
605.305
606.342
285.35
630.216
1292.98
326.182
330.177
263.667
190.314
170.525
179.338
205.52
194.019
173.891
273.95
220.423
206.056
209.01
310.106
485.645
188.079
214.428
549.683
226.559
241.391
243.893
252.066
284.15
579.054
429.261
1377.61
329.605
249.389
211.105
212.028
145.95
149.858
157.987
172.124
196.67
185.836
146.582
250.658
224.064
218.69
216.12
203.45
184.572
168.204
216.706
198.586
246.322
268.283
385.106
641.993
1091.95
398.207
181.78
175.044
210.538
180.47
184.954
146.405
136.105
128.511
163.171
169.374
159.363
148.144
143.176
146.389
146.041
149.873
195.547
184.551
240.511
209.65
219.864
230.284
263.012
578.598
1186.55
224.015
143.396
207.722
187.246
163.883
178.952
150.603
157.577
157.684
159.588
152.631
145.443
152.583
178.819
127.55
144.802
152.16
158.254
166.696
288.752
181.813
610.35
589.047
725.557
4646.45
786.872
1399.42
305.765
203.881
159.978
151.359
143.954
171.14
202.892
174.473
164.015
165.457
163.972
153.841
178.281
185.665
166.326
145.323
165.604
166.502
166.561
168.783
155.529
598.803
1716.07
1308.67
346.079
203.436
153.354
139.928
146.552
150.12
134.931
120.054
117.951
200.317
162.569
160.715
134.704
203.382
198.996
190.213
188.97
205.032
186.127
174.742
141.132
215.614
472.701
466.909
195.991
191.194
201.408
177.689
136.421
125.77
130.408
147.112
135.084
121.891
113.937
118.459
101.23
140.944
129.912
124.76
188.407
192.157
205.854
246.78
228.415
139.228
205.118
488.389
442.392
199.351
157.109
165.551
140.675
134.206
128.415
128.608
123.302
129.506
138.267
134.61
125.016
106.244
102.789
122.162
136.634
160.698
173.7
215.146
241.114
247.136
404.808
192.474
475.021
407.75
174.342
189.439
173.899
145.289
133.192
130.16
125.583
124.181
117.959
116.483
123.69
125.304
131.336
105.061
101.652
118.162
133.464
158.917
173.095
219.719
275.16
278.083
407.002
859.234
1185.98
396.941
171.924
173.109
144.205
137.869
135.77
136.16
130.634
117.119
107.123
92.709
94.7082
101.1
121.92
129.865
121.653
127.602
125.175
126.655
135.364
150.956
209.518
248.836
389.927
413.104
1164.75
389.738
160.972
167.238
140.058
131.487
129.001
128.011
128.908
127.201
105.117
79.2586
74.2303
75.3485
81.5089
98.5596
98.9435
114.456
124.854
137.275
124.254
137.68
150.98
187.117
378.513
456.472
1050.1
267.64
155.795
175.01
141.507
129.025
123.357
115.989
110.095
105.159
102.774
97.5271
73.7142
74.1107
73.2104
81.4129
90.9659
93.3181
86.3547
99.9392
127.123
125.981
138.625
165.842
223.046
328.726
1371.4
1253.5
283.978
149.908
137.613
129.012
125.503
121.804
108.673
92.0578
80.2209
76.7067
77.1941
78.8385
79.0902
77.444
81.5124
84.915
101.288
111.083
120.784
107.179
136.692
148.083
176.4
216.713
199.558
1562.53
420.528
158.214
177.634
139.041
126.144
123.021
112.447
88.2288
65.2465
60.2099
59.9246
61.4466
65.6322
71.3112
75.4236
81.4819
90.7569
102.797
115.296
125.428
136.941
152.703
176.383
222.734
193.243
455.894
468.756
193.683
147.357
131.337
123.894
122.162
115.79
102.387
53.5831
45.2618
44.9955
47.7183
52.3546
58.8324
68.5276
79.5183
90.9314
102.427
112.799
119.296
123.594
132.597
142.416
180.068
188.631
463.8
1021.97
245.539
146.636
147.232
127.247
122.185
119.392
105.778
62.2824
41.6302
33.5967
34.7142
37.3297
43.1337
52.1967
63.3111
77.918
95.2443
109.759
119.993
125.665
132.777
144.54
161.206
160.506
409.587
412.027
158.217
138.213
122.245
117.482
111.836
100.7
61.7194
37.7765
31.1468
28.9439
29.4379
32.3512
35.9926
43.674
53.3932
68.968
92.0668
109.66
122.11
128.007
133.937
163.249
207.535
294.041
464.482
175.872
176.126
137.438
120.22
112.158
106.143
75.8354
40.4534
29.0583
25.9214
25.4568
26.2684
27.9648
30.8599
36.5313
46.0869
61.8676
88.6754
111.219
123.087
132.094
138.804
154.996
179.758
848.837
952.432
225.408
144.195
145.489
122.48
113.094
102.422
92.9449
61.7045
39.2564
30.9486
26.7917
25.3539
25.7859
28.1618
31.1178
35.7606
45.3691
62.9517
97.9147
115.627
128.389
142.945
153.965
159.106
420.706
951.163
235.27
147.158
150.117
124.177
115.167
104.471
89.1314
71.2341
48.8064
37.1109
36.1691
30.9659
28.3523
27.3356
30.0965
36.5618
45.9903
69.0342
107.575
122.972
132.004
139.047
168.954
211.069
266.622
1118.45
409.672
169.206
149.743
122.786
117.181
110.138
95.7247
78.509
54.8987
35.8508
32.0264
36.1886
42.2762
35.9137
33.7916
36.8623
50.4684
76.8128
106.498
122.186
130.651
142.226
168.681
210.857
243.284
951.172
794.093
199.499
178.306
133.439
116.792
110.835
102.62
86.3886
74.3881
48.9314
32.0721
31.4804
40.2207
48.7215
47.1852
43.1804
44.7964
69.5589
100.834
115.714
122.17
131.126
172.768
207.38
238.982
936.751
248.764
146.636
125.948
114.611
109.376
107.902
94.1472
62.8136
60.9635
48.53
35.6277
32.6066
42.7729
59.3738
62.6451
53.2706
63.0996
92.2461
109.582
115.999
123.881
139.627
162.747
219.287
929.757
782.58
157.284
134.786
116.015
108.453
100.37
92.135
87.7831
59.2397
47.3776
49.2418
45.0279
39.5761
44.3483
58.7861
72.9202
81.9412
86.5221
103.207
111.724
121.917
135.688
165.325
211.119
399.753
255.823
145.131
123.165
113.041
101.583
86.5739
71.171
59.7458
52.5112
40.5259
39.3358
41.9021
42.274
42.9433
50.6585
72.8514
85.5042
98.6334
110.072
121.204
125.942
153.634
203.204
249.135
971.949
946.182
198.144
133.402
115.139
109.834
97.6255
74.0658
52.0202
42.6495
38.1019
34.4701
32.8058
36.7587
43.2577
49.9986
56.3155
71.2615
91.428
101.314
112.486
123.786
135.853
148.277
168.742
875.852
330.959
160.015
142.868
117.914
107.699
93.7112
60.5363
42.4003
33.0961
29.3922
28.6852
30.6014
36.2386
48.3487
64.9114
83.1178
93.102
105.845
109.322
114.102
126.363
143.734
184.604
273.193
1243.09
732.357
146.972
127.72
112.341
104.222
102.221
87.9144
46.32
31.9031
26.1407
24.295
24.5024
26.9176
33.1934
44.3841
60.4493
82.6575
97.898
107.284
114.742
119.02
126.952
170.099
233.827
927.037
210.678
167.353
123.566
110.195
100.926
92.1253
87.3942
62.0255
33.262
25.0111
23.2333
23.1809
24.421
28.7008
37.6212
51.1005
70.7777
93.5085
109.219
119.703
132.756
148.985
147.325
419.856
711.213
147.495
123.543
107.006
101.077
95.3919
86.9419
77.2158
65.0804
43.2571
27.3854
24.4315
25.4298
25.5239
27.5512
34.7513
48.4778
68.835
93.1765
110.735
122.511
135.051
181.204
235.135
1024.45
238.239
136.845
114.15
105.405
98.2923
89.9656
80.6488
65.2201
51.9859
41.1639
30.3415
25.4396
27.2706
31.9084
35.0045
37.3102
53.0919
83.0066
99.1494
114.162
126.811
153.706
187.233
408.474
716.832
144.661
122.994
109.467
101.285
92.9854
82.4098
70.0133
55.153
39.5465
33.6376
28.5345
26.3254
28.7233
36.9887
52.1267
64.6194
75.8041
96.7074
113.42
121.784
134.279
146.43
178.291
924.893
235.554
133.833
112.596
103.618
97.4067
87.4391
75.0226
63.81
50.8141
38.9793
28.3207
25.6892
25.0977
28.2693
37.2277
52.2837
75.8983
92.0552
103.997
117.047
127.32
151.794
191.317
274
732.05
143.804
121.443
105.296
98.9622
90.3158
78.0365
67.7435
59.1948
48.4011
38.9176
30.9837
25.8419
25.4463
28.1281
37.0482
51.0707
69.1079
90.1148
107.989
118.852
135.041
145.209
163.287
875.245
242.625
128.677
109.253
102.153
95.6668
84.7902
68.6022
56.0797
51.5379
47.93
40.4559
32.5263
28.3408
28.9332
34.767
47.3812
64.7408
79.669
93.0501
108.529
120.984
131.743
195.658
259.863
203.723
162.195
114.84
101.154
93.3398
81.8583
62.5092
48.3509
43.6201
43.5733
43.0904
40.1073
36.2166
36.6957
44.0872
58.4968
80.2735
91.0406
99.4867
111.074
128.974
153.997
143.171
726.386
761.803
140.718
120.514
104.47
97.1267
90.8754
79.7099
59.1943
43.5551
37.6071
37.1889
39.8581
42.8274
45.0311
48.4873
55.2625
66.5457
79.9226
91.7058
101.67
110.426
129.489
197.658
226.216
1018.65
728.473
155.749
116.384
101.203
95.9187
90.9235
79.8572
56.9915
41.0413
33.8645
32.1905
34.1147
38.8025
45.3718
52.506
61.4707
71.2411
81.329
90.7423
100.017
108.991
123.361
199.467
666.703
360.135
148.166
114.374
100.482
92.8914
88.3606
80.8847
57.6103
40.9382
32.237
28.6433
29.5221
33.3548
39.8454
48.8018
60.9586
75.2227
86.6595
97.6033
104.481
114.67
133.704
177.899
802.811
205.601
168.534
119.101
101.199
89.5434
79.8116
73.716
61.419
44.762
33.986
27.9133
26.1933
29.9288
36.6752
46.0422
58.0055
72.962
89.4062
102.557
111.395
116.625
162.558
238.568
729.811
167.588
140.235
107.854
98.3254
87.235
71.8961
59.9606
52.4278
45.6012
36.7748
31.0762
28.0896
29.2878
36.0851
46.1486
59.1489
74.5754
88.735
102.106
110.528
139.772
140.483
739.528
371.878
143.3
111.154
99.2674
93.4314
84.2938
68.6595
52.3371
43.3883
37.8572
34.7031
32.2598
31.7936
33.7933
39.4619
49.445
61.7737
77.5406
90.4746
98.831
111.577
131.136
183.244
987.251
197.778
165.527
117.006
100.057
90.4487
79.4156
64.853
48.5593
39.8329
31.282
28.8114
29.7538
32.2536
37.0786
44.4749
53.9596
66.7375
80.8749
94.0085
101.166
111.759
142.513
229.211
764.465
143.625
119.805
102.204
96.271
88.1369
76.8442
61.7482
45.0881
35.2327
28.7868
24.7233
25.2305
28.8508
35.1846
44.4816
55.7492
71.1773
85.1423
96.3511
105.704
112.648
151.789
376.635
366.47
140.128
109.413
101.308
93.4763
85.2189
75.9415
61.4391
42.9373
30.9091
25.2135
22.6678
21.9672
24.3729
30.4377
40.767
53.5157
71.0126
87.632
97.2716
105.743
134.424
136.77
716.309
252.541
126.074
106.336
98.1386
90.2568
80.1749
69.9198
58.5932
43.6197
29.2847
21.6168
19.8178
20.3377
22.3882
27.4183
37.8863
52.9114
72.5618
88.2584
98.2209
105.85
135.979
186.481
999.378
211.592
166.902
115.321
99.4063
88.3949
76.2327
65.5868
54.8662
44.151
33.2077
22.2061
17.8588
18.0363
21.0851
27.521
40.0504
54.9873
76.6319
91.7132
99.7676
114.775
129.717
202.651
928.075
147.928
114.86
102.939
97.9745
86.8228
71.0617
58.6002
51.3279
43.8734
35.6279
27.0854
19.9881
17.1767
18.8075
25.2546
38.6599
58.1782
79.9927
95.207
104.657
113.641
166.254
361.478
738.836
137.469
119.853
103.325
98.0526
88.6031
71.8454
54.6888
44.3055
40.4726
36.4309
30.3249
24.2091
20.0124
18.8128
23.3418
37.1701
62.5164
83.0365
96.1783
105.537
135.394
144.288
761.518
686.505
147.753
112.692
102.64
96.6109
87.7085
72.6919
53.9565
42.5097
36.0054
33.8014
30.7828
26.2112
22.4922
22.1456
25.7237
39.337
67.066
85.5984
96.8779
112.897
123.604
200.27
253.363
123.683
103.176
96.3957
93.5777
85.8662
71.0971
52.5891
41.0918
34.1776
32.1053
30.9542
27.7171
23.6028
23.2468
29.4406
44.9984
69.5616
85.9015
97.6026
115.237
164.041
247.725
244.893
124.177
104.087
98.2088
92.0563
83.4081
69.7283
50.9321
38.9039
32.1291
30.2359
31.2065
32.0978
31.4945
30.4346
36.499
50.7528
71.7127
86.1874
99.4077
111.796
171.223
662.432
214.696
170.047
115.626
98.2008
89.6502
81.4763
69.7186
52.0567
38.2266
29.8938
27.3576
28.9846
33.0621
37.8207
43.4078
51.5516
65.09
76.3788
85.8745
97.5567
130.953
162.924
695.139
211.266
128.651
104.109
96.0172
87.5993
76.5754
65.8621
52.6263
40.3165
30.0011
24.9746
24.9734
29.0375
35.412
43.9616
54.7372
67.0446
77.4813
86.56
98.2976
117.793
172.534
828.288
200.148
124.786
102.468
95.1083
85.8781
72.9548
59.7367
49.5473
40.5253
32.2683
26.9448
24.6691
26.4685
31.6604
39.6181
51.2436
65.3217
77.9427
87.3657
97.1743
122.496
142.276
929.352
898.548
152.033
117.822
101.631
94.9901
84.8605
69.1465
53.9896
44.5398
37.0528
31.5761
28.7017
27.6669
28.7398
32.9638
40.2447
51.355
65.5404
79.4394
89.2557
97.0392
118.376
180.23
713.836
159.261
137.717
105.507
94.367
83.6431
66.4426
48.4313
39.2272
32.51
28.0753
26.5674
27.4842
30.5019
36.2847
44.3493
55.1875
67.9267
81.4696
91.7667
97.4882
120.433
188.671
705.823
148.043
107.775
95.5046
89.9547
80.6483
64.3631
44.7013
34.1372
28.1869
24.5489
23.0938
24.1501
27.9418
34.7797
44.6649
56.9574
70.5854
82.504
92.1838
103.689
113.427
196.046
364.662
136.232
103.921
93.775
87.8379
78.6558
65.4101
44.2459
29.9313
24.4876
21.5725
20.0565
20.4462
23.5377
30.4773
41.0945
54.9711
71.4539
83.9796
92.4787
103.509
137.332
245.208
247.781
119.535
98.2403
90.6631
85.7068
77.8717
66.5136
49.3732
29.8373
21.0204
18.4714
17.3817
17.6238
20.2514
26.4024
38.1419
53.2833
70.781
83.5885
91.7144
104.936
139.577
628.455
251.162
120.334
98.157
88.5318
82.4462
76.2034
67.6052
52.3871
36.9385
22.0228
15.8088
14.4743
15.0847
18.1412
25.2209
38.266
53.1229
71.588
84.4801
91.6974
104.383
144.968
665.93
213.649
122.895
100.818
88.6815
79.8963
71.0306
62.5383
52.4855
40.9028
28.5171
18.678
13.2723
13.0709
16.1236
23.6001
37.0463
53.3695
73.9482
86.7383
96.3958
103.169
144.715
696.124
199.6
124.262
97.5062
86.5934
77.0201
65.2902
53.8938
47.1913
41.3173
32.69
23.9439
16.827
13.1047
15.042
22.4838
37.1192
54.382
75.1138
87.7487
99.2067
120.742
134.187
765.957
206.885
127.366
97.2707
85.4088
73.5568
58.1028
47.0951
40.8462
36.2494
32.5079
27.0836
21.8835
18.0068
17.8575
25.1341
40.3601
57.9399
76.2918
89.0804
98.9172
126.694
176.738
957.849
199.546
134.18
104.4
87.4998
70.9401
49.7186
41.4811
36.742
32.327
27.9159
24.5682
22.3626
22.8278
25.9883
34.5297
47.354
62.8397
76.3411
87.9716
99.4458
128.755
189.362
896.907
146.238
123.2
112.525
92.1742
69.1697
43.6265
36.6741
33.2518
30.2372
26.3437
22.4757
19.9178
21.1693
27.3958
38.5969
52.066
67.4505
79.4456
87.8568
96.908
128.119
192.152
714.183
167.719
130.943
102.135
91.597
65.3007
37.7617
32.9064
30.5746
28.4818
25.9775
22.9359
20.5589
19.7909
24.9436
36.5293
52.4693
69.7071
81.6007
89.7876
95.663
122.238
198.286
722.976
153.425
112.113
95.5511
88.2127
75.412
41.2209
30.5259
28.658
27.0877
24.8405
22.6839
21.4703
22.1564
25.0403
35.011
51.1469
70.2435
82.583
90.578
101.714
121.24
188.185
382.088
143.494
108.545
95.3732
86.3398
72.8442
51.0256
32.4054
27.1644
26.0099
24.029
21.3475
19.7991
21.1897
26.5494
36.3964
52.1605
73.4799
85.0922
91.895
104.615
136.922
223.889