/*--------------------------------*- C++ -*----------------------------------*\
| =========                 |                                                 |
| \\      /  F ield         | OpenFOAM: The Open Source CFD Toolbox           |
|  \\    /   O peration     | Version:  2312                                  |
|   \\  /    A nd           | Website:  www.openfoam.com                      |
|    \\/     M anipulation  |                                                 |
\*---------------------------------------------------------------------------*/
FoamFile
{
    version     2.0;
    format      ascii;
    arch        "LSB;label=64;scalar=64";
    class       volScalarField;
    location    "130";
    object      p;
}
// * * * * * * * * * * * * * * * * * * * * * * * * * * * * * * * * * * * * * //

dimensions      [0 2 -2 0 0 0 0];

internalField   nonuniform List<scalar> 
404911
(
0.400423
0.400204
0.404097
0.402997
0.399202
0.399998
0.402321
0.403137
0.402936
0.402935
0.406013
0.398941
0.398853
0.4002
0.400593
0.402903
0.403886
0.403299
0.401443
0.400895
0.402331
0.401468
0.400523
0.403822
0.403241
0.391982
0.406121
0.405106
0.406342
0.411339
0.410639
0.408531
0.407122
0.410457
0.412959
0.411163
0.40856
0.417168
0.414882
0.413707
0.410933
0.418003
0.417531
0.4159
0.41502
0.413108
0.418402
0.4178
0.417624
0.416726
0.421222
0.420171
0.418174
0.41677
0.421515
0.42104
0.429872
0.395423
0.397058
0.397217
0.40033
0.400152
0.403641
0.402056
0.400864
0.403557
0.404025
0.402927
0.404819
0.403133
0.407016
0.40576
0.40444
0.409678
0.408501
0.407179
0.405591
0.412665
0.411494
0.415067
0.413793
0.417048
0.416026
0.414576
0.418707
0.417804
0.420347
0.41974
0.418737
0.421353
0.420591
0.425541
0.426048
0.425891
0.430229
0.428534
0.427642
0.431165
0.430244
0.428794
0.431365
0.432114
0.431632
0.43126
0.224509
0.223947
0.223457
0.236941
0.23934
0.22821
0.234075
0.22718
0.225691
0.223872
0.221729
0.242928
0.240288
0.237857
0.236458
0.232144
0.230084
0.226763
0.225545
0.218813
0.251409
0.247864
0.247155
0.243919
0.242229
0.241448
0.239178
0.237793
0.233826
0.231455
0.229244
0.227031
0.223424
0.2171
0.219724
0.217705
0.25715
0.254537
0.25276
0.24929
0.246468
0.244437
0.242724
0.241262
0.239688
0.239047
0.235676
0.232347
0.230865
0.229023
0.216111
0.262585
0.260095
0.258726
0.25584
0.253067
0.250542
0.247603
0.245303
0.243377
0.24224
0.240199
0.238396
0.236836
0.23357
0.23172
0.264506
0.264275
0.261588
0.259852
0.258056
0.255226
0.252056
0.248753
0.246112
0.244633
0.242916
0.241853
0.239477
0.237087
0.234282
0.234832
0.272784
0.267748
0.264743
0.263795
0.261757
0.260847
0.259
0.255957
0.252779
0.24954
0.247222
0.245253
0.243639
0.242142
0.240269
0.237969
0.2365
0.276953
0.27535
0.273692
0.272882
0.269751
0.267441
0.265556
0.263994
0.261956
0.260235
0.257605
0.254115
0.251504
0.248936
0.246821
0.244469
0.243473
0.242546
0.278881
0.278661
0.276116
0.274488
0.273026
0.271049
0.269367
0.266959
0.264744
0.263208
0.26141
0.259322
0.255258
0.252787
0.250373
0.246939
0.246961
0.244231
0.284183
0.282223
0.27982
0.278642
0.277227
0.275306
0.274143
0.272347
0.270692
0.268366
0.266071
0.264254
0.262909
0.260841
0.257073
0.254788
0.252002
0.250356
0.287685
0.286214
0.283785
0.281286
0.279793
0.277843
0.276412
0.275414
0.27358
0.271859
0.269672
0.267358
0.265382
0.263432
0.262613
0.259064
0.253981
0.291785
0.290815
0.287992
0.287513
0.285559
0.28281
0.28114
0.278997
0.277353
0.27692
0.274925
0.273015
0.270825
0.26834
0.266647
0.264518
0.262108
0.296921
0.295327
0.291937
0.292101
0.290994
0.288552
0.286277
0.28398
0.281944
0.28021
0.279232
0.277437
0.275821
0.273982
0.271842
0.269394
0.267522
0.265894
0.299241
0.295807
0.296742
0.294899
0.292617
0.292521
0.291292
0.289237
0.287299
0.284992
0.283394
0.28213
0.280146
0.278923
0.277027
0.274409
0.272933
0.2722
0.304913
0.302767
0.300299
0.299395
0.297635
0.295967
0.29378
0.293356
0.291973
0.29027
0.288315
0.285799
0.284899
0.283495
0.281845
0.279944
0.278939
0.276535
0.308135
0.306545
0.3037
0.301477
0.299775
0.297959
0.296319
0.294873
0.293647
0.29284
0.290561
0.288027
0.28657
0.285599
0.28389
0.28342
0.281902
0.277899
0.312441
0.310772
0.307758
0.307639
0.305065
0.30237
0.300731
0.299634
0.297664
0.295766
0.294577
0.293893
0.29181
0.289488
0.287334
0.285883
0.284239
0.282176
0.315173
0.313821
0.311788
0.310421
0.308784
0.305819
0.304107
0.301192
0.299949
0.298298
0.296525
0.295145
0.294328
0.29253
0.290957
0.289643
0.2874
0.286346
0.316714
0.315778
0.314728
0.315385
0.313171
0.311244
0.310318
0.307635
0.305405
0.302435
0.300228
0.298887
0.297233
0.295338
0.294172
0.292786
0.291271
0.290032
0.320885
0.318355
0.317498
0.316507
0.316364
0.314812
0.312624
0.311414
0.309246
0.307263
0.30416
0.301135
0.299619
0.297648
0.296746
0.29509
0.292988
0.324121
0.322338
0.320944
0.31925
0.318032
0.317355
0.316752
0.315785
0.314114
0.312086
0.310249
0.308126
0.305822
0.302625
0.301172
0.298435
0.297156
0.296156
0.325049
0.324061
0.323144
0.321735
0.320688
0.319316
0.318087
0.317261
0.316611
0.315192
0.313632
0.311909
0.30963
0.307081
0.304747
0.302369
0.300156
0.298119
0.328019
0.326295
0.324902
0.324216
0.322796
0.321445
0.320519
0.319394
0.318465
0.317606
0.316165
0.314486
0.313018
0.310913
0.308987
0.30826
0.303069
0.302227
0.330898
0.329013
0.32805
0.327118
0.326111
0.325057
0.323895
0.322907
0.32123
0.320105
0.319123
0.318096
0.31667
0.315724
0.313365
0.312058
0.308984
0.306976
0.334186
0.333021
0.331513
0.329858
0.328952
0.327774
0.326974
0.326034
0.325031
0.323822
0.322757
0.32138
0.319656
0.318777
0.317083
0.316042
0.313168
0.313216
0.336176
0.334769
0.33375
0.332077
0.330554
0.329376
0.328444
0.327636
0.326957
0.325399
0.324388
0.323661
0.322542
0.320792
0.319991
0.318143
0.316195
0.314436
0.338787
0.33795
0.336878
0.335698
0.334448
0.332733
0.331235
0.329923
0.328974
0.328089
0.327737
0.326719
0.325416
0.32387
0.323283
0.32215
0.317496
0.321054
0.33967
0.33936
0.338419
0.337657
0.336497
0.335193
0.333635
0.331942
0.330533
0.329493
0.328544
0.327914
0.327202
0.326179
0.32504
0.325002
0.322869
0.321998
0.341163
0.340799
0.339986
0.33916
0.338312
0.337328
0.336054
0.334526
0.332831
0.331255
0.330076
0.32917
0.328447
0.327583
0.326444
0.325697
0.324794
0.323453
0.342281
0.341232
0.341141
0.34023
0.339839
0.33902
0.338066
0.336816
0.335478
0.333851
0.33221
0.330876
0.329814
0.32896
0.328216
0.326894
0.325733
0.325505
0.344524
0.345568
0.343422
0.34155
0.341127
0.340649
0.340173
0.339557
0.338963
0.337758
0.336392
0.334949
0.3334
0.331948
0.330805
0.329582
0.328645
0.327206
0.348101
0.346179
0.34533
0.344344
0.342782
0.341641
0.341054
0.340522
0.339888
0.339389
0.338749
0.337377
0.335969
0.334527
0.333054
0.331728
0.330309
0.330042
0.350573
0.348817
0.347448
0.346715
0.345426
0.344066
0.342667
0.341779
0.341124
0.340478
0.339785
0.339074
0.338092
0.336844
0.335539
0.33456
0.333885
0.332531
0.350869
0.351111
0.349901
0.348477
0.347345
0.346286
0.34526
0.343356
0.342605
0.341815
0.341051
0.340337
0.339532
0.338668
0.337529
0.336323
0.335651
0.354715
0.352288
0.352242
0.351781
0.350756
0.34947
0.348254
0.347158
0.346357
0.344558
0.34352
0.342621
0.341744
0.340821
0.340118
0.339251
0.33824
0.336778
0.356525
0.35488
0.353623
0.352912
0.352435
0.351567
0.35018
0.349094
0.34826
0.347394
0.345613
0.344488
0.343565
0.342444
0.341445
0.340638
0.339682
0.339949
0.356815
0.356634
0.355484
0.354654
0.353665
0.353128
0.352496
0.351352
0.349981
0.349024
0.348434
0.347134
0.345502
0.344635
0.343418
0.34259
0.342172
0.34105
0.361057
0.358855
0.357668
0.3568
0.356069
0.35528
0.354309
0.353532
0.353255
0.352211
0.350891
0.349636
0.348876
0.347914
0.346543
0.345591
0.344424
0.343258
0.361604
0.360713
0.360029
0.358739
0.357791
0.356742
0.355936
0.355032
0.354125
0.353902
0.352935
0.351715
0.350458
0.349577
0.348646
0.347557
0.34612
0.345062
0.364021
0.362276
0.361385
0.360586
0.359524
0.358511
0.357515
0.356737
0.355942
0.355116
0.354638
0.353933
0.352705
0.35125
0.35054
0.349367
0.348359
0.347163
0.363178
0.364863
0.363489
0.36236
0.3614
0.360283
0.359252
0.358316
0.357566
0.356907
0.356065
0.355241
0.354512
0.353543
0.352249
0.351539
0.350705
0.348774
0.367278
0.36655
0.36513
0.364341
0.363206
0.362158
0.361028
0.359972
0.359047
0.358431
0.357734
0.356704
0.355948
0.355133
0.354174
0.353421
0.351723
0.370348
0.367803
0.36761
0.366705
0.36606
0.365192
0.364119
0.362973
0.361788
0.360668
0.359756
0.359181
0.359051
0.357977
0.356477
0.355852
0.354955
0.35424
0.370307
0.369765
0.369065
0.368119
0.367341
0.366772
0.366028
0.365066
0.363804
0.362586
0.361414
0.360374
0.35958
0.3592
0.358817
0.35757
0.35681
0.35596
0.372318
0.371146
0.370288
0.369525
0.368485
0.367877
0.367324
0.366736
0.365973
0.364716
0.363434
0.362175
0.36104
0.360167
0.359361
0.358719
0.357855
0.35705
0.372935
0.372887
0.372051
0.370795
0.370133
0.369031
0.368375
0.367777
0.367149
0.366459
0.365838
0.364503
0.363249
0.362024
0.360964
0.360033
0.359002
0.358144
0.375899
0.373879
0.373453
0.372711
0.371745
0.370807
0.369774
0.368939
0.368285
0.367688
0.366917
0.366185
0.365373
0.36436
0.363172
0.362224
0.360996
0.359889
0.37711
0.376636
0.375615
0.374451
0.373632
0.372697
0.371743
0.370709
0.369735
0.368953
0.368255
0.367485
0.366786
0.366006
0.365125
0.364013
0.363259
0.361977
0.378195
0.377775
0.377345
0.376643
0.375458
0.374602
0.373727
0.372757
0.371692
0.370649
0.369736
0.368875
0.368055
0.367348
0.366727
0.366002
0.364624
0.363038
0.379961
0.378946
0.378573
0.378042
0.377188
0.376208
0.375405
0.374642
0.373621
0.372452
0.371287
0.370527
0.369605
0.368792
0.368069
0.367369
0.366532
0.366426
0.381309
0.380719
0.379822
0.379803
0.379197
0.378701
0.378171
0.37682
0.375822
0.37527
0.374527
0.373621
0.372378
0.371462
0.370454
0.369604
0.36882
0.368129
0.367566
0.383343
0.382657
0.381625
0.380471
0.38002
0.379605
0.37912
0.379149
0.378058
0.376814
0.375861
0.375058
0.374336
0.373459
0.372552
0.371555
0.370722
0.369866
0.383889
0.383135
0.382005
0.381074
0.380446
0.379991
0.379614
0.379485
0.378826
0.377774
0.376718
0.37564
0.374857
0.37391
0.373012
0.372005
0.372026
0.385829
0.3854
0.384517
0.383478
0.382554
0.381611
0.380971
0.380499
0.380003
0.379711
0.379262
0.378397
0.377437
0.376311
0.375593
0.374749
0.373904
0.372291
0.387733
0.386393
0.386164
0.385096
0.38412
0.383172
0.382287
0.381597
0.381082
0.380556
0.380194
0.379813
0.379178
0.378198
0.377366
0.376305
0.37547
0.374121
0.387694
0.388989
0.3877
0.386805
0.38584
0.384903
0.38399
0.383053
0.38208
0.381167
0.380922
0.380512
0.380268
0.379573
0.378838
0.378221
0.377088
0.37696
0.390603
0.389549
0.388613
0.387625
0.386626
0.385708
0.38485
0.384064
0.383359
0.382056
0.381305
0.380734
0.380243
0.379714
0.379127
0.378311
0.377991
0.391876
0.391339
0.390179
0.389344
0.388443
0.387426
0.386528
0.385743
0.384993
0.384329
0.383198
0.382217
0.381487
0.380848
0.380404
0.379752
0.378646
0.394515
0.394662
0.393909
0.392606
0.391269
0.390225
0.389278
0.388229
0.387214
0.386443
0.385939
0.385033
0.384056
0.383248
0.382493
0.381632
0.380936
0.381039
0.396057
0.395154
0.39452
0.394054
0.393188
0.392113
0.391114
0.390124
0.389161
0.3881
0.38691
0.386159
0.385565
0.384708
0.383998
0.382937
0.382971
0.397876
0.397821
0.396238
0.395794
0.394727
0.393697
0.392634
0.391816
0.390832
0.389896
0.389127
0.387954
0.387046
0.386324
0.385404
0.384422
0.38381
0.40091
0.400046
0.398963
0.398354
0.397565
0.396717
0.396048
0.394928
0.393152
0.392231
0.391282
0.390417
0.389769
0.388922
0.387877
0.386942
0.385988
0.384905
0.402646
0.401255
0.400304
0.399619
0.398774
0.397664
0.397237
0.397657
0.396431
0.394094
0.392985
0.391988
0.390828
0.3901
0.389502
0.388517
0.387955
0.386777
0.40186
0.402428
0.401691
0.400944
0.399987
0.3989
0.397371
0.396978
0.397224
0.397
0.395165
0.393735
0.392704
0.391772
0.390699
0.390147
0.389202
0.388455
0.404688
0.403215
0.402546
0.402347
0.401417
0.400442
0.399596
0.397971
0.396827
0.396552
0.396547
0.395596
0.394362
0.393344
0.392455
0.391561
0.390527
0.390289
0.406802
0.405965
0.404422
0.403911
0.403302
0.40266
0.401635
0.400415
0.400039
0.39912
0.397825
0.397094
0.39679
0.396063
0.394933
0.393915
0.392969
0.391531
0.391203
0.408606
0.408424
0.40639
0.405345
0.404454
0.40386
0.403226
0.402116
0.401044
0.400254
0.399439
0.398402
0.397565
0.396906
0.396052
0.395223
0.395088
0.392736
0.391911
0.405968
0.408625
0.406886
0.406005
0.40528
0.404291
0.403651
0.402935
0.40202
0.401051
0.400126
0.399141
0.398361
0.397669
0.396743
0.395918
0.395281
0.394717
0.409917
0.408846
0.408771
0.407724
0.406734
0.405487
0.404649
0.404259
0.403683
0.402905
0.401957
0.401099
0.400171
0.39926
0.398379
0.3975
0.396377
0.413731
0.411785
0.410616
0.409643
0.408577
0.407575
0.406399
0.405088
0.404818
0.404683
0.403923
0.403223
0.402045
0.401161
0.400437
0.399788
0.397927
0.416886
0.415283
0.413633
0.412083
0.410972
0.409805
0.408797
0.407622
0.406648
0.406248
0.405697
0.404904
0.404053
0.403008
0.402385
0.401008
0.400266
0.419107
0.419566
0.417741
0.416988
0.41526
0.413809
0.412551
0.41119
0.410017
0.408901
0.407966
0.40729
0.406607
0.405995
0.405043
0.404013
0.402895
0.403322
0.421736
0.42125
0.419738
0.418736
0.418006
0.416578
0.414922
0.413766
0.412541
0.411206
0.40988
0.408965
0.408174
0.407381
0.406537
0.405402
0.405015
0.422541
0.421876
0.421074
0.420511
0.419435
0.41857
0.417328
0.415811
0.414578
0.413424
0.412199
0.410778
0.409852
0.408746
0.408193
0.406897
0.405614
0.423821
0.423614
0.422415
0.421501
0.420642
0.419854
0.419107
0.418001
0.416625
0.415424
0.414205
0.413078
0.411931
0.410682
0.409556
0.408723
0.408455
0.426822
0.42507
0.424008
0.422847
0.422377
0.421377
0.420799
0.419949
0.418726
0.417382
0.416063
0.415143
0.414144
0.413076
0.412191
0.411248
0.409948
0.427602
0.427915
0.426542
0.424755
0.424152
0.423848
0.423176
0.421977
0.420842
0.41953
0.418215
0.416974
0.416089
0.415137
0.414066
0.412614
0.41242
0.432303
0.42958
0.428628
0.427643
0.42603
0.425126
0.425535
0.425339
0.423774
0.421878
0.42022
0.418919
0.417887
0.416953
0.416116
0.415158
0.413509
0.430637
0.430654
0.429545
0.429221
0.427682
0.426124
0.425185
0.425339
0.424555
0.422854
0.421111
0.419839
0.418863
0.417899
0.417974
0.415534
0.433933
0.433058
0.43142
0.430576
0.429872
0.428668
0.427333
0.426531
0.426082
0.425419
0.423696
0.422017
0.420786
0.419036
0.418282
0.435026
0.434569
0.432757
0.43277
0.431394
0.431204
0.430646
0.429883
0.428432
0.427596
0.426594
0.425307
0.423831
0.422546
0.421422
0.42066
0.437923
0.437392
0.435578
0.433745
0.432587
0.43118
0.431193
0.431091
0.430461
0.429528
0.428524
0.427286
0.425009
0.424434
0.423358
0.421278
0.445299
0.441897
0.439576
0.437751
0.435219
0.43455
0.432805
0.431729
0.431092
0.430467
0.430263
0.429291
0.428332
0.427102
0.426336
0.4245
0.455511
0.45012
0.446228
0.444255
0.441874
0.439427
0.437695
0.437013
0.435694
0.434833
0.433463
0.4322
0.430196
0.429743
0.429016
0.428158
0.457276
0.455625
0.453145
0.449904
0.446908
0.444076
0.442537
0.440217
0.437961
0.437162
0.436473
0.436228
0.435388
0.433423
0.432044
0.431534
0.463074
0.460269
0.456862
0.454395
0.452259
0.448968
0.445997
0.444077
0.442632
0.440389
0.438708
0.438174
0.437684
0.438074
0.436783
0.434237
0.46748
0.465187
0.461247
0.458056
0.456142
0.454154
0.451521
0.4483
0.445455
0.443474
0.442336
0.440404
0.438103
0.437922
0.437455
0.436738
0.471335
0.466356
0.466017
0.464496
0.461521
0.458085
0.456122
0.454537
0.451435
0.448056
0.446398
0.443056
0.443481
0.442165
0.4389
0.439556
0.471378
0.47072
0.469149
0.467994
0.466045
0.463518
0.460599
0.458588
0.456657
0.45416
0.451073
0.448833
0.44698
0.444478
0.444522
0.474712
0.473461
0.471055
0.471341
0.469251
0.467207
0.464828
0.462789
0.460707
0.458554
0.456767
0.454352
0.451741
0.449556
0.44814
0.444766
0.47687
0.476592
0.475638
0.474327
0.472631
0.470906
0.468397
0.466225
0.464253
0.462249
0.459983
0.458151
0.45643
0.454387
0.451582
0.451564
0.482388
0.479193
0.477921
0.476758
0.474631
0.473466
0.471997
0.470075
0.467962
0.465896
0.464056
0.461857
0.459531
0.457553
0.455901
0.482931
0.47889
0.479204
0.478462
0.476538
0.474996
0.473275
0.471338
0.469247
0.467509
0.465488
0.463657
0.46052
0.459814
0.485077
0.481743
0.481467
0.481047
0.479905
0.477944
0.476493
0.474552
0.472913
0.471354
0.469098
0.466658
0.465576
0.48988
0.487173
0.485057
0.483194
0.483507
0.482552
0.481466
0.479977
0.478343
0.476431
0.474593
0.472139
0.470975
0.467805
0.493619
0.491451
0.490206
0.487559
0.486673
0.485043
0.484111
0.48288
0.481578
0.479847
0.47774
0.475678
0.473933
0.473032
0.496862
0.494651
0.493046
0.490253
0.489492
0.487835
0.487151
0.48579
0.484607
0.484174
0.481273
0.479894
0.47782
0.476936
0.498268
0.498385
0.495416
0.49355
0.492105
0.489514
0.489571
0.488843
0.487863
0.486493
0.485213
0.48219
0.480961
0.480084
0.501788
0.498893
0.498054
0.497237
0.496752
0.494703
0.491106
0.490345
0.490061
0.488066
0.488493
0.487222
0.485046
0.481677
0.506557
0.503807
0.499384
0.497806
0.497601
0.493856
0.492381
0.491179
0.490229
0.489295
0.489913
0.488784
0.488929
0.497146
0.496807
0.49591
0.491883
0.490844
0.488895
0.489357
0.488871
0.488253
0.49852
0.497389
0.494611
0.494235
0.493407
0.490483
0.489997
0.488486
0.504631
0.501595
0.498177
0.498804
0.493368
0.491706
0.493424
0.512609
0.509323
0.501044
0.502736
0.49819
0.493426
0.490005
0.512333
0.504652
0.501943
0.499708
0.496528
0.5172
0.51514
0.505149
0.512729
0.504885
0.501215
0.517663
0.522986
0.520197
0.517333
0.50793
0.520076
0.518345
0.51958
0.520001
0.52223
0.503596
0.529466
0.519422
0.512475
0.51674
0.515345
0.536298
0.525921
0.517172
0.0806136
0.0792383
0.0804384
0.110816
0.100804
0.0977446
0.0958225
0.0893957
0.0832057
0.0774316
0.0827207
0.0613139
0.128832
0.123492
0.112234
0.113375
0.107637
0.103264
0.101424
0.0971597
0.0917306
0.0863004
0.0782561
0.077456
0.0746561
0.0675147
0.0642769
0.142881
0.136716
0.135485
0.128488
0.125808
0.11593
0.112254
0.110558
0.105839
0.101899
0.0983086
0.0926639
0.0878849
0.0819116
0.0766719
0.0749804
0.0682186
0.059468
0.0645642
0.0544705
0.0405296
0.032248
0.155707
0.155489
0.150305
0.14621
0.138558
0.134476
0.129865
0.123571
0.118673
0.114441
0.111519
0.108057
0.103709
0.100039
0.0934933
0.0940311
0.0842617
0.0812563
0.0765814
0.069171
0.0635322
0.0575224
0.0511415
0.170744
0.165387
0.163927
0.159431
0.158514
0.151726
0.146786
0.140772
0.136586
0.131498
0.125061
0.12046
0.11616
0.113472
0.107298
0.106207
0.101584
0.102296
0.095687
0.0881913
0.0817145
0.0789949
0.0717719
0.0659325
0.0600788
0.174983
0.169802
0.170486
0.167619
0.163955
0.158251
0.159861
0.153873
0.148713
0.142353
0.1375
0.132967
0.128571
0.122367
0.11905
0.115761
0.11146
0.108991
0.104585
0.0989972
0.0934926
0.0923534
0.0858569
0.0813719
0.0758803
0.184212
0.179139
0.174857
0.17236
0.169636
0.167826
0.164916
0.162865
0.160529
0.156162
0.150032
0.142374
0.138927
0.132406
0.132048
0.126325
0.121754
0.119734
0.11296
0.110184
0.10579
0.103364
0.0961853
0.0942755
0.0896813
0.191715
0.19086
0.184991
0.180384
0.176234
0.173834
0.170958
0.16889
0.165099
0.163861
0.162251
0.158706
0.153145
0.145017
0.14034
0.136429
0.127769
0.127995
0.122889
0.119336
0.115817
0.110326
0.108125
0.103095
0.099899
0.200592
0.193028
0.190911
0.193889
0.190402
0.186758
0.182843
0.17883
0.175814
0.173036
0.170507
0.166343
0.164591
0.162748
0.159499
0.154033
0.148728
0.143393
0.139146
0.13387
0.128607
0.126122
0.120079
0.118271
0.112707
0.105522
0.209991
0.207087
0.205807
0.20073
0.197292
0.195285
0.193402
0.190694
0.187983
0.18452
0.181338
0.177198
0.174016
0.171354
0.168428
0.165441
0.162536
0.158953
0.155173
0.150264
0.14521
0.141908
0.138545
0.133735
0.131533
0.124269
0.121489
0.213051
0.21102
0.20855
0.20627
0.202837
0.199654
0.195435
0.193619
0.19164
0.189066
0.186217
0.183242
0.179691
0.176298
0.171719
0.169912
0.167009
0.163484
0.159277
0.156219
0.1514
0.14343
0.147271
0.139887
0.138268
0.219844
0.21739
0.216465
0.214316
0.212025
0.209531
0.207164
0.204171
0.200967
0.197761
0.194963
0.192705
0.190007
0.18693
0.184545
0.182067
0.178493
0.172982
0.171226
0.168472
0.164654
0.160886
0.157038
0.151316
0.150199
0.222012
0.221692
0.218514
0.216822
0.215184
0.213096
0.210682
0.207915
0.205241
0.20172
0.198374
0.196281
0.193391
0.19006
0.18729
0.185369
0.18284
0.179472
0.173891
0.172893
0.170393
0.166211
0.161681
0.156896
0.230614
0.23052
0.224986
0.223381
0.222115
0.219525
0.217249
0.215997
0.214513
0.211355
0.208487
0.205822
0.202915
0.198965
0.196781
0.193706
0.190725
0.187511
0.185714
0.18327
0.180038
0.176436
0.174396
0.171289
0.167007
0.239775
0.235648
0.232832
0.230588
0.226973
0.224383
0.22217
0.219939
0.217726
0.216111
0.214736
0.211964
0.208977
0.205888
0.203418
0.200793
0.197551
0.194511
0.191281
0.188147
0.186242
0.184056
0.180416
0.178283
0.174962
0.243805
0.241939
0.239762
0.237456
0.235345
0.232154
0.229178
0.225962
0.223354
0.220977
0.218524
0.215998
0.214506
0.212254
0.209108
0.206913
0.204114
0.200861
0.198104
0.194813
0.191129
0.188787
0.186285
0.184577
0.180429
0.250414
0.24748
0.247219
0.244856
0.242451
0.240687
0.238284
0.236835
0.233826
0.230822
0.228043
0.225284
0.222533
0.220039
0.217304
0.215666
0.213384
0.210605
0.208147
0.20502
0.200988
0.198909
0.195671
0.191532
0.188363
0.186674
0.256697
0.257252
0.252458
0.249927
0.247874
0.245337
0.242921
0.240747
0.239411
0.238072
0.235352
0.232311
0.229774
0.227273
0.224277
0.221279
0.218566
0.216758
0.215814
0.212706
0.20939
0.206081
0.20337
0.200313
0.195161
0.19109
0.26599
0.259445
0.256385
0.255914
0.253808
0.250866
0.24842
0.246149
0.243798
0.241771
0.240093
0.238977
0.236434
0.233803
0.231163
0.228817
0.226466
0.22349
0.219787
0.217135
0.216138
0.213537
0.209922
0.206329
0.203422
0.199888
0.19636
0.266275
0.266856
0.26384
0.261189
0.259009
0.256693
0.254467
0.252
0.249474
0.247018
0.244724
0.242879
0.241324
0.239604
0.237483
0.235023
0.23231
0.230083
0.228546
0.22634
0.221326
0.218958
0.216616
0.213827
0.210367
0.206843
0.205816
0.270384
0.268156
0.265801
0.264048
0.262102
0.260165
0.257958
0.255508
0.253071
0.250405
0.247896
0.245555
0.243682
0.242151
0.240495
0.238385
0.235898
0.233103
0.231118
0.229668
0.227636
0.224463
0.221801
0.218058
0.21406
0.211856
0.27552
0.271645
0.271066
0.269201
0.267171
0.265092
0.263031
0.261471
0.259026
0.256649
0.254132
0.25136
0.248722
0.24639
0.244465
0.242919
0.241341
0.239359
0.236871
0.234005
0.231924
0.229188
0.228068
0.225687
0.222143
0.219825
0.280134
0.27653
0.27592
0.273004
0.271829
0.27041
0.268338
0.266369
0.264122
0.262319
0.260216
0.257994
0.255456
0.252553
0.249721
0.247319
0.245324
0.243662
0.242076
0.240227
0.237831
0.235219
0.232514
0.229896
0.228594
0.226783
0.281074
0.280319
0.277949
0.276178
0.274521
0.272971
0.271491
0.269354
0.267362
0.265334
0.263463
0.261455
0.259269
0.256689
0.253986
0.251073
0.248516
0.246373
0.24453
0.242929
0.241222
0.239129
0.236793
0.233827
0.231891
0.286215
0.286098
0.283353
0.281137
0.278924
0.277089
0.275829
0.274157
0.272571
0.270688
0.268684
0.266594
0.264658
0.262768
0.260631
0.258032
0.255283
0.252578
0.250098
0.247832
0.245788
0.244139
0.24224
0.24006
0.238112
0.236615
0.292548
0.291252
0.288845
0.286561
0.284924
0.282553
0.28019
0.278263
0.276835
0.275418
0.273897
0.272065
0.27005
0.267914
0.265946
0.264165
0.262311
0.260015
0.257034
0.254237
0.251894
0.249711
0.247347
0.24554
0.243641
0.243755
0.297889
0.293441
0.292627
0.291493
0.289939
0.288012
0.286114
0.283963
0.281583
0.279589
0.277934
0.276626
0.275112
0.27336
0.271382
0.269224
0.267324
0.265549
0.263619
0.261814
0.259181
0.256247
0.253654
0.251161
0.249127
0.24752
0.244766
0.297073
0.29677
0.295182
0.293538
0.292304
0.290942
0.289262
0.287371
0.285281
0.283013
0.281022
0.27926
0.277967
0.276427
0.274541
0.272545
0.270498
0.268607
0.266846
0.264796
0.262781
0.260387
0.258044
0.255636
0.25305
0.251079
0.303269
0.300943
0.29875
0.296944
0.295963
0.294514
0.292894
0.291693
0.290331
0.288484
0.286261
0.284016
0.282284
0.280698
0.279189
0.277608
0.275709
0.273525
0.271689
0.269698
0.267916
0.265852
0.26385
0.261423
0.257532
0.256846
0.304114
0.303569
0.301536
0.2995
0.297417
0.296664
0.295326
0.293332
0.292344
0.291158
0.289245
0.287084
0.284962
0.283545
0.282205
0.28049
0.278794
0.277012
0.274727
0.272856
0.270617
0.268603
0.266756
0.264835
0.262571
0.309471
0.308189
0.306404
0.304391
0.302359
0.300375
0.298261
0.297086
0.295793
0.294098
0.293016
0.29194
0.289957
0.287781
0.285837
0.284574
0.283632
0.281801
0.279759
0.278068
0.275974
0.273935
0.271979
0.269382
0.26554
0.31188
0.310778
0.309492
0.307577
0.305583
0.303621
0.301579
0.299402
0.297767
0.296196
0.294841
0.293723
0.292476
0.290622
0.288246
0.286462
0.285144
0.284083
0.282811
0.280992
0.278936
0.276771
0.274411
0.273721
0.272577
0.315157
0.314538
0.313312
0.311899
0.310647
0.308907
0.306872
0.3049
0.302814
0.300766
0.299024
0.297307
0.295748
0.294552
0.293317
0.291693
0.289305
0.287346
0.285991
0.284495
0.283402
0.281717
0.279916
0.278278
0.275424
0.31795
0.316611
0.315332
0.314768
0.313512
0.31188
0.310073
0.308147
0.305944
0.303827
0.301684
0.299892
0.298188
0.296519
0.295183
0.293959
0.292602
0.290726
0.288907
0.287375
0.285929
0.284584
0.283201
0.281281
0.27921
0.320904
0.320536
0.318888
0.317506
0.316292
0.316102
0.315132
0.313228
0.311282
0.309257
0.307057
0.304926
0.302578
0.300535
0.298783
0.296907
0.295598
0.294271
0.292832
0.291474
0.289923
0.288468
0.287524
0.286123
0.284261
0.324563
0.322662
0.321233
0.319771
0.318458
0.317311
0.316907
0.316399
0.314677
0.312622
0.31063
0.308488
0.306324
0.303876
0.301533
0.299618
0.297591
0.29592
0.294787
0.293586
0.29224
0.29112
0.289964
0.286728
0.328232
0.325391
0.324623
0.323532
0.32211
0.32067
0.319313
0.318214
0.317477
0.317031
0.315815
0.313983
0.311972
0.309874
0.307669
0.305325
0.302966
0.300908
0.298899
0.29713
0.295612
0.294284
0.292857
0.291455
0.290582
0.32924
0.32796
0.326844
0.32556
0.324358
0.323098
0.321858
0.320371
0.319223
0.318451
0.317896
0.316856
0.315164
0.31327
0.31152
0.309231
0.306839
0.304494
0.30222
0.300252
0.298527
0.297029
0.295511
0.293411
0.332911
0.331074
0.330137
0.328699
0.3274
0.326348
0.32529
0.324138
0.322989
0.321537
0.320378
0.31951
0.318791
0.317781
0.316178
0.314506
0.312956
0.310839
0.308464
0.306212
0.303823
0.301774
0.299723
0.29748
0.295813
0.334686
0.333335
0.332148
0.330769
0.329339
0.328072
0.327011
0.326097
0.325105
0.324019
0.322685
0.321407
0.32034
0.319391
0.318304
0.316675
0.315122
0.313871
0.311864
0.309664
0.307499
0.305207
0.302951
0.301483
0.337019
0.336115
0.335187
0.334021
0.332823
0.33148
0.329988
0.328729
0.327766
0.326847
0.325902
0.324865
0.323714
0.32254
0.321288
0.320089
0.318864
0.317253
0.31558
0.314461
0.312563
0.310537
0.308172
0.307234
0.305556
0.3384
0.33763
0.336854
0.335967
0.334877
0.333617
0.332174
0.330623
0.329316
0.328411
0.327563
0.326617
0.325533
0.324473
0.323391
0.322315
0.321156
0.319798
0.318132
0.316595
0.315013
0.313158
0.311553
0.309782
0.339547
0.339291
0.338318
0.337652
0.336822
0.335739
0.334414
0.332915
0.331306
0.32993
0.328972
0.328176
0.327392
0.326388
0.325257
0.323987
0.323096
0.322041
0.320556
0.319109
0.31769
0.31612
0.314235
0.313007
0.342054
0.340956
0.340356
0.339627
0.338981
0.338369
0.337558
0.336518
0.335179
0.333678
0.332072
0.330604
0.329496
0.328626
0.327889
0.327003
0.325885
0.324554
0.323655
0.322783
0.321393
0.319804
0.318376
0.317332
0.315699
0.344481
0.34297
0.341619
0.340754
0.340196
0.339621
0.33902
0.338242
0.337237
0.335939
0.334467
0.332916
0.331389
0.330119
0.329127
0.328312
0.327431
0.32641
0.325207
0.324105
0.323194
0.322123
0.321087
0.319157
0.347364
0.344801
0.343788
0.342274
0.341168
0.340656
0.340208
0.339621
0.338877
0.337946
0.336646
0.335294
0.333839
0.332351
0.330925
0.329805
0.328957
0.328052
0.327085
0.326038
0.324865
0.32357
0.322896
0.321858
0.348095
0.347493
0.345975
0.344614
0.343154
0.34176
0.34096
0.340647
0.340101
0.339443
0.338647
0.337395
0.336167
0.334855
0.333468
0.33209
0.330821
0.32984
0.328967
0.327909
0.326973
0.326252
0.325272
0.351059
0.350208
0.349188
0.348095
0.346897
0.345602
0.344248
0.342789
0.341641
0.341043
0.340518
0.339937
0.339279
0.338247
0.337113
0.335875
0.334575
0.333292
0.332049
0.330975
0.329944
0.328905
0.32782
0.326018
0.352488
0.351782
0.350742
0.349855
0.348917
0.347819
0.346638
0.345427
0.344018
0.342686
0.34179
0.341071
0.340437
0.339801
0.338931
0.33792
0.336757
0.335564
0.334325
0.333068
0.332126
0.331168
0.330387
0.328501
0.354568
0.353335
0.352616
0.351576
0.350732
0.349792
0.348719
0.347557
0.346478
0.345172
0.343786
0.342716
0.341767
0.340965
0.340261
0.339476
0.338544
0.337476
0.336399
0.335249
0.333989
0.333047
0.33145
0.357158
0.355792
0.355139
0.353993
0.353267
0.35246
0.351599
0.350647
0.349563
0.348442
0.347445
0.346283
0.344846
0.343637
0.34254
0.341583
0.34076
0.340024
0.339189
0.338154
0.337118
0.33617
0.335058
0.332536
0.359604
0.357431
0.356549
0.355629
0.354634
0.353877
0.353192
0.352407
0.351474
0.350334
0.349253
0.348339
0.347297
0.345884
0.344609
0.343504
0.342425
0.341481
0.340691
0.339878
0.338924
0.338058
0.337012
0.337471
0.359735
0.359388
0.358352
0.35721
0.356218
0.355255
0.354441
0.353802
0.353134
0.352267
0.351175
0.350047
0.349113
0.348218
0.34698
0.345684
0.344529
0.343401
0.34238
0.341503
0.340663
0.339655
0.338789
0.337825
0.361213
0.36098
0.360008
0.358951
0.357859
0.356871
0.355969
0.355132
0.354431
0.353777
0.353018
0.352018
0.350841
0.349816
0.348909
0.347857
0.346733
0.345517
0.344316
0.343277
0.342325
0.341319
0.340509
0.363853
0.364161
0.362285
0.361704
0.360828
0.359837
0.358661
0.357564
0.356684
0.355862
0.355093
0.354393
0.353688
0.352785
0.351667
0.350589
0.349631
0.348602
0.347559
0.346434
0.345106
0.344036
0.342991
0.342041
0.367574
0.364599
0.364461
0.36342
0.362542
0.36168
0.360671
0.359556
0.358419
0.357476
0.35664
0.355869
0.35512
0.354435
0.35357
0.352546
0.351495
0.350536
0.349488
0.348382
0.347292
0.346062
0.344717
0.343987
0.36718
0.3673
0.365969
0.365086
0.364271
0.363384
0.362466
0.361445
0.360336
0.359274
0.358346
0.35748
0.35667
0.355863
0.355131
0.354315
0.353403
0.352457
0.351463
0.350349
0.349155
0.347742
0.346516
0.36986
0.368493
0.367511
0.366683
0.36591
0.365111
0.364214
0.363241
0.362171
0.361045
0.360013
0.359173
0.358402
0.357531
0.356654
0.355817
0.354977
0.354134