/*--------------------------------*- C++ -*----------------------------------*\
| =========                 |                                                 |
| \\      /  F ield         | OpenFOAM: The Open Source CFD Toolbox           |
|  \\    /   O peration     | Version:  2312                                  |
|   \\  /    A nd           | Website:  www.openfoam.com                      |
|    \\/     M anipulation  |                                                 |
\*---------------------------------------------------------------------------*/
FoamFile
{
    version     2.0;
    format      ascii;
    arch        "LSB;label=64;scalar=64";
    class       volScalarField;
    location    "130";
    object      p;
}
// * * * * * * * * * * * * * * * * * * * * * * * * * * * * * * * * * * * * * //

dimensions      [0 2 -2 0 0 0 0];

internalField   nonuniform List<scalar> 
404911
(
0.0561718
0.0561698
0.0562124
0.056187
0.0561311
0.0561459
0.0561773
0.0561848
0.056184
0.0561854
0.0567342
0.0563655
0.0562432
0.0562385
0.0562031
0.0561964
0.0569079
0.0567047
0.0564833
0.0564074
0.0572003
0.0570438
0.0567557
0.0576365
0.0574096
0.056994
0.0580392
0.0578693
0.0577547
0.0585544
0.058421
0.058249
0.0580207
0.0579631
0.0586427
0.0585507
0.0583598
0.059225
0.0590217
0.0588314
0.0586199
0.0594244
0.0593313
0.0591994
0.0590427
0.0587713
0.0595381
0.0594468
0.0593269
0.059231
0.0598373
0.0597227
0.0595253
0.0594715
0.0598611
0.059844
0.0621297
0.0559188
0.0559256
0.0559274
0.0565114
0.0562798
0.0569069
0.0566924
0.0565228
0.0572489
0.0570518
0.0567836
0.0576843
0.0573476
0.0580518
0.0577502
0.0577636
0.0583983
0.0582231
0.0579091
0.057815
0.0585986
0.0585015
0.0590913
0.058854
0.0593485
0.0591514
0.0591279
0.0595752
0.0594989
0.0598795
0.059665
0.0595013
0.0598781
0.0599033
0.0619803
0.0620855
0.0619564
0.0626129
0.0623853
0.0622597
0.0628992
0.0626912
0.0624333
0.0631809
0.0631218
0.0629415
0.0631417
0.022984
0.0227538
0.0225474
0.0242354
0.0240284
0.0235083
0.0234714
0.0231505
0.0229304
0.0227564
0.0224285
0.0249661
0.0246909
0.0240742
0.0237419
0.0234652
0.0232906
0.0230394
0.0228486
0.0218173
0.0257957
0.0255264
0.0253348
0.0250923
0.0248846
0.0247164
0.0243148
0.0239112
0.0235977
0.0234123
0.0232046
0.0229392
0.0224712
0.0219533
0.0218723
0.0218127
0.0264463
0.0261576
0.0258989
0.0256317
0.025399
0.0251824
0.024977
0.024773
0.0244948
0.0241663
0.023882
0.02357
0.0233692
0.0230844
0.0218395
0.0272902
0.0268928
0.026579
0.0262396
0.0259345
0.0257085
0.0254755
0.0252536
0.0250393
0.0248419
0.0245507
0.0242748
0.0240516
0.0237744
0.0236173
0.0277711
0.0275278
0.0270927
0.0267455
0.0264221
0.0260501
0.0258109
0.0255433
0.0253338
0.0251563
0.0249271
0.0247126
0.0244257
0.0241735
0.023935
0.0237893
0.0287392
0.0283218
0.0279212
0.0276539
0.0271837
0.0269526
0.0266158
0.0261376
0.0258697
0.0256293
0.0254478
0.0252429
0.0250215
0.0247911
0.0245414
0.0242935
0.0240805
0.02993
0.0295981
0.0292971
0.0289049
0.0284934
0.0281387
0.027847
0.0274755
0.0271451
0.0267706
0.0262691
0.026028
0.025784
0.0255884
0.0253791
0.0251245
0.0249076
0.0246754
0.0305564
0.0302438
0.0297781
0.0294561
0.0290878
0.0286947
0.0283796
0.0279989
0.0276502
0.0272796
0.0269285
0.026496
0.0261541
0.0259365
0.025741
0.0254835
0.0252749
0.0250305
0.0313889
0.031102
0.0308041
0.0304577
0.0300473
0.0296726
0.0293076
0.0289107
0.0285608
0.0281819
0.0278356
0.0274772
0.0271245
0.026701
0.0263153
0.0260769
0.0258877
0.025667
0.0319274
0.0316261
0.0313051
0.0310183
0.0306824
0.0302841
0.0299292
0.0295362
0.0291435
0.0287933
0.0284181
0.0280606
0.0276561
0.0273015
0.027018
0.0265656
0.0261595
0.0326844
0.0324012
0.0320302
0.0318059
0.0315323
0.0312267
0.0308803
0.0305142
0.0301466
0.0297498
0.0293808
0.0289995
0.0286279
0.0282705
0.0278637
0.0274931
0.0272341
0.0333729
0.0330893
0.0328019
0.0326654
0.0323571
0.0320659
0.0317473
0.031463
0.0311366
0.0307954
0.0304231
0.0299741
0.0295716
0.0291862
0.0288691
0.0284413
0.0280564
0.02773
0.0343678
0.0340487
0.0335616
0.0332349
0.0329719
0.0328522
0.0325365
0.0322584
0.0319522
0.0316771
0.0314272
0.0310399
0.0306184
0.030186
0.0297392
0.029316
0.0290873
0.0288041
0.0349761
0.0347915
0.0345866
0.034391
0.0339038
0.0334738
0.0331911
0.033041
0.0328144
0.0324968
0.0321416
0.0318852
0.0317035
0.0312939
0.0307856
0.0303517
0.0299767
0.0295512
0.0353532
0.0351228
0.0349201
0.0347251
0.0345277
0.0342229
0.0337804
0.0334739
0.0331962
0.0329899
0.0326213
0.0322608
0.0320618
0.0319131
0.03151
0.0309438
0.0305161
0.0301408
0.0359868
0.0357477
0.0354186
0.0352431
0.0350478
0.0347938
0.0345953
0.0343296
0.03404
0.0337048
0.0334066
0.0332052
0.0328217
0.032419
0.0321757
0.0320344
0.0316794
0.0311377
0.0364083
0.0361357
0.035898
0.0356313
0.0353716
0.0351551
0.0349129
0.0346435
0.0344035
0.0342196
0.0340043
0.0336549
0.0333626
0.0330295
0.0326146
0.0323437
0.0321683
0.0319247
0.0374267
0.0371263
0.03661
0.036272
0.0360945
0.0358041
0.0355371
0.0352758
0.0350632
0.0347456
0.0344842
0.034338
0.0341768
0.0339892
0.0337034
0.0333291
0.0328875
0.0325223
0.0379078
0.0376836
0.0374475
0.0370008
0.0366071
0.0363397
0.0360846
0.0358393
0.0354972
0.0352612
0.0348629
0.0346418
0.0344656
0.0342945
0.0340936
0.033869
0.0335244
0.0384467
0.0382284
0.0380187
0.0378476
0.0376769
0.0372507
0.0369269
0.0365785
0.0363189
0.0359772
0.0356646
0.0354368
0.0350903
0.034824
0.03464
0.0344374
0.0342342
0.0339887
0.0388416
0.0386004
0.0383923
0.0381629
0.0379907
0.0377993
0.037498
0.0371884
0.0368892
0.0366333
0.0363177
0.0359438
0.0355936
0.0352625
0.0349877
0.0347792
0.0345757
0.0343598
0.0391948
0.0389947
0.0387782
0.0385626
0.0383001
0.0380671
0.0378947
0.0376407
0.0373699
0.0371335
0.0369013
0.0365915
0.0361444
0.0358115
0.035467
0.0353048
0.0349684
0.0347653
0.039789
0.0395507
0.0393481
0.0391556
0.0389575
0.0387819
0.0384695
0.0382155
0.0379828
0.0377014
0.0374502
0.0372795
0.0370723
0.0368481
0.0364367
0.0360339
0.0356974
0.035408
0.0403294
0.0401304
0.039933
0.0397225
0.0395289
0.0393212
0.0391115
0.0389156
0.0386978
0.0384025
0.038117
0.0378367
0.0375495
0.0373846
0.0371771
0.0369399
0.0365673
0.0362718
0.0407111
0.0404769
0.0402787
0.0400827
0.0398775
0.039698
0.0395251
0.0392917
0.0390798
0.0388363
0.0385584
0.038271
0.0380224
0.037728
0.0375211
0.0373163
0.0370927
0.0367677
0.0412669
0.0410498
0.040844
0.0406339
0.0404096
0.0402243
0.0400412
0.0398678
0.0397201
0.0395442
0.0392614
0.0389875
0.0387121
0.0384844
0.0382179
0.0378981
0.0375469
0.0374934
0.0416141
0.0414113
0.0412022
0.040994
0.0407671
0.0405575
0.0403701
0.0401865
0.0400162
0.0398715
0.0397455
0.0394806
0.0391999
0.0388936
0.0386039
0.0384367
0.0381363
0.0378634
0.0419919
0.0417605
0.0415323
0.0413305
0.0411247
0.0408905
0.0406793
0.0405044
0.0403275
0.0401518
0.0399862
0.0398145
0.0395997
0.0393352
0.0390552
0.0388026
0.0385686
0.0382815
0.0424528
0.042173
0.0418958
0.041647
0.0414972
0.0412841
0.0410327
0.0407656
0.0406206
0.0404568
0.0402817
0.0401026
0.0399103
0.0396897
0.0394443
0.039203
0.0389437
0.0387467
0.0429565
0.0428202
0.0426736
0.0424313
0.0421222
0.0418821
0.0416987
0.0414868
0.0412084
0.0408941
0.0407455
0.0405912
0.0404197
0.0402294
0.0400267
0.0398096
0.0395886
0.0393035
0.0433835
0.0431456
0.042947
0.0427872
0.0425706
0.0422999
0.0420773
0.0419123
0.0417661
0.0414943
0.0411057
0.0408961
0.0407471
0.0405767
0.040369
0.040172
0.0399663
0.0397488
0.0437717
0.0435523
0.0433226
0.0431158
0.042859
0.0426177
0.0423998
0.0422175
0.0420498
0.0418993
0.0416831
0.0413935
0.0411226
0.0409243
0.0407343
0.0405462
0.0403607
0.0401653
0.0440947
0.043916
0.0437205
0.0434827
0.0433018
0.0430211
0.042759
0.0424619
0.0423255
0.0421619
0.0419942
0.0418018
0.0415605
0.0413344
0.0411052
0.0408922
0.0406977
0.0447628
0.0444971
0.0442866
0.0440879
0.0438646
0.0436551
0.043495
0.0432012
0.042888
0.0426043
0.0424453
0.0422888
0.0421213
0.0419281
0.0417104
0.0414906
0.0412695
0.0410406
0.0451549
0.0449241
0.0446998
0.0444825
0.0442344
0.0439931
0.0437697
0.0436042
0.043394
0.0431212
0.0428475
0.0425422
0.0424308
0.0422639
0.0420753
0.0418719
0.0416529
0.041463
0.0454844
0.0453008
0.0450975
0.0448853
0.0446855
0.0444425
0.0442183
0.0438948
0.0437371
0.043585
0.0433299
0.0429769
0.0427442
0.0425916
0.0424232
0.0422475
0.0420691
0.0418616
0.046026
0.0458138
0.0456426
0.045465
0.0452838
0.0451125
0.0449586
0.0446405
0.0444195
0.04412
0.0438697
0.0437279
0.0435387
0.0432442
0.042973
0.0427729
0.0425904
0.0424049
0.0463346
0.0461459
0.0459843
0.0458085
0.045637
0.0454685
0.0453129
0.045185
0.0449352
0.0446525
0.0443308
0.0440801
0.0438262
0.0437217
0.0435117
0.0432089
0.0429698
0.0427349
0.0467067
0.0464961
0.0463099
0.0461395
0.045963
0.0457987
0.0456345
0.0454803
0.0453507
0.0451916
0.0447994
0.0445828
0.0442267
0.0439963
0.043852
0.0436596
0.0434188
0.0431978
0.0470022
0.0468644
0.0466689
0.0464822
0.0463029
0.0461246
0.0459589
0.0457922
0.0456089
0.0454425
0.0452981
0.0450928
0.0447751
0.0444531
0.0442127
0.0440144
0.0438377
0.0436014
0.0474301
0.0472422
0.0470198
0.0468352
0.0466356
0.0464579
0.0462886
0.0461343
0.0459745
0.0457621
0.0455595
0.0453738
0.0451951
0.0449777
0.0446663
0.0444316
0.0442021
0.0479748
0.0477602
0.0475828
0.0473762
0.0471556
0.0469749
0.0467769
0.046603
0.0464483
0.046308
0.0461869
0.0459756
0.04576
0.0454893
0.0453328
0.045142
0.0448925
0.04466
0.0482821
0.0481016
0.04793
0.0477473
0.0475514
0.0473477
0.0471251
0.0468943
0.0467178
0.0465919
0.0464709
0.0463688
0.0463076
0.0459762
0.045704
0.0454692
0.0452935
0.0450874
0.0486443
0.0484512
0.048269
0.0480994
0.0479041
0.0477346
0.0475682
0.0473374
0.0471185
0.0468413
0.0467107
0.0466113
0.0464978
0.0463771
0.0461802
0.0459092
0.0456722
0.0454705
0.048983
0.0487951
0.0486186
0.0484283
0.0482502
0.048062
0.0479041
0.0477683
0.0476375
0.0474548
0.0470634
0.0468751
0.0467609
0.0466292
0.046479
0.0462802
0.0460734
0.0458605
0.0493868
0.0491516
0.0489586
0.0487739
0.0485756
0.0483842
0.0482009
0.0480432
0.047901
0.0477719
0.0475749
0.0473249
0.0470931
0.046932
0.0467742
0.0465966
0.0464186
0.0462056
0.0497738
0.0495478
0.0493308
0.0491259
0.0489172
0.0487083
0.0485082
0.0483206
0.0481568
0.0480106
0.0478639
0.0476911
0.0474889
0.0472811
0.0471008
0.0469244
0.0467508
0.046552
0.0501989
0.0499416
0.0496832
0.0494746
0.0492623
0.0490506
0.0488384
0.0486188
0.0484224
0.0482558
0.0481232
0.0479783
0.0478217
0.0476371
0.0474476
0.0472705
0.0470861
0.0468781
0.0505828
0.0503788
0.0501531
0.0498425
0.0495646
0.0493795
0.0491786
0.0489944
0.0487826
0.0485184
0.0483291
0.0482298
0.0481137
0.0479683
0.0477955
0.0476103
0.0474273
0.0472735
0.0511511
0.0509713
0.0507762
0.0506141
0.0504268
0.0500188
0.0497282
0.0495838
0.0493162
0.049169
0.0489003
0.0487565
0.0484966
0.0483714
0.0482649
0.0481275
0.0479562
0.0477864
0.0475991
0.0514983
0.0513442
0.051175
0.0509935
0.0508302
0.0507122
0.0504459
0.0501531
0.0498097
0.0495172
0.0493935
0.0492063
0.0489993
0.0487263
0.0485701
0.0484463
0.0482932
0.0481285
0.0516776
0.0515055
0.0513356
0.0511569
0.051013
0.0508908
0.0507333
0.0504585
0.0501427
0.0498948
0.0495792
0.0493975
0.049272
0.0490499
0.0488042
0.048624
0.0484612
0.0522144
0.0520403
0.0518705
0.0516832
0.0515006
0.0513211
0.0511663
0.0510422
0.050913
0.050612
0.0503947
0.0500891
0.0498314
0.0496055
0.0494216
0.0492369
0.0490281
0.0488189
0.0526037
0.0523808
0.0522249
0.0520442
0.0518555
0.0516667
0.0514721
0.0512939
0.0511653
0.0510631
0.0508252
0.0505816
0.0502835
0.0500044
0.0498151
0.0496186
0.0494234
0.0491881
0.0528487
0.0527468
0.0525802
0.052395
0.0522162
0.0520422
0.0518648
0.0516381
0.0514091
0.0512484
0.0511849
0.051008
0.0507823
0.0504926
0.0502161
0.0500056
0.0498176
0.0496393
0.0530572
0.0528998
0.0527352
0.0525583
0.0523879
0.052228
0.0520856
0.0518798
0.0516064
0.0513662
0.0512922
0.0511928
0.0509701
0.0506763
0.0504418
0.0502176
0.0500246
0.0534767
0.0532032
0.0530167
0.0528888
0.0527251
0.0525499
0.0523923
0.0522707
0.0521015
0.0518656
0.051568
0.0514123
0.0512955
0.0510975
0.0508653
0.0506454
0.0504281
0.0544824
0.0541153
0.0537694
0.0534482
0.0532592
0.0530821
0.0529023
0.0526938
0.0525197
0.0524012
0.0522946
0.0520456
0.051755
0.0515793
0.0514306
0.0512511
0.0510302
0.050817
0.0548914
0.0546659
0.054361
0.0540155
0.0536586
0.0534711
0.0533
0.0531198
0.0528946
0.0527198
0.0525084
0.0524425
0.0522175
0.0519476
0.0517521
0.0515674
0.0514217
0.0552055
0.055041
0.0547868
0.0545211
0.0542155
0.0538665
0.0536257
0.0534883
0.0533438
0.0530705
0.0529063
0.0527055
0.0525544
0.0524197
0.0521642
0.0519326
0.0517349
0.0558062
0.0555889
0.0554033
0.055211
0.0549341
0.0547026
0.0544053
0.0540494
0.0538451
0.0536636
0.0534923
0.053376
0.0531401
0.0529082
0.0527256
0.0525572
0.0523431
0.0521275
0.0561796
0.0559593
0.0557333
0.0555788
0.0553934
0.0551942
0.0549706
0.0546598
0.0543488
0.0541947
0.0538531
0.0537028
0.0535019
0.0532884
0.0531134
0.0529252
0.0527441
0.0525465
0.0565787
0.0563209
0.0561807
0.0558975
0.0557989
0.0556362
0.0556118
0.0555187
0.0552032
0.0546855
0.0544018
0.0541779
0.0539521
0.0536769
0.0533968
0.0532434
0.0530974
0.0529223
0.0571072
0.0568406
0.0565535
0.0563312
0.0561556
0.0560017
0.0559327
0.0557342
0.0555688
0.0554793
0.0550722
0.0547594
0.054519
0.0542428
0.0539563
0.0536589
0.0534607
0.0533011
0.0577386
0.0575327
0.0572982
0.057029
0.0568
0.0565861
0.0564211
0.0563021
0.0563403
0.0560378
0.0557948
0.0555719
0.0553158
0.0550357
0.0548033
0.0545938
0.0542522
0.0539166
0.0536952
0.0580611
0.0578868
0.0577096
0.0575142
0.0572802
0.0570295
0.056841
0.056651
0.0565551
0.0562888
0.0560853
0.0558869
0.0556887
0.0554906
0.0552426
0.0549913
0.0547968
0.0545014
0.0542258
0.05819
0.0580474
0.0578489
0.0576694
0.057451
0.0572429
0.056979
0.0567635
0.0566079
0.0563669
0.056186
0.0559984
0.0558174
0.0556157
0.0553805
0.0551646
0.0549464
0.054728
0.0586749
0.0584613
0.0582473
0.0580352
0.0578478
0.0576966
0.0574719
0.0572107
0.05689
0.056701
0.0564802
0.056306
0.0561457
0.0559567
0.0557478
0.0555352
0.0553111
0.0591141
0.0588915
0.0586815
0.0584552
0.058232
0.0580361
0.0577009
0.0577164
0.0573795
0.0571034
0.0568438
0.0566522
0.0564761
0.0563091
0.0561153
0.0559166
0.0556614
0.0595864
0.0593295
0.0590993
0.0588717
0.0586313
0.0583516
0.0581396
0.0578884
0.0577871
0.0576209
0.0572883
0.0570589
0.0568569
0.0566713
0.056483
0.0562888
0.0560755
0.0601851
0.0599847
0.0597778
0.0595087
0.0592807
0.0590168
0.0587124
0.0585303
0.0583671
0.0581883
0.0579897
0.0577628
0.0574648
0.057245
0.0570488
0.0568594
0.0566614
0.0564966
0.0606597
0.0604304
0.0601667
0.0599495
0.0596881
0.0594127
0.0592413
0.059179
0.0587479
0.0585641
0.0583733
0.0581899
0.0579656
0.057655
0.0574369
0.0572339
0.0570396
0.0610927
0.0608669
0.0606104
0.0603558
0.0600726
0.0597824
0.0594319
0.0592577
0.0591402
0.0589598
0.0587568
0.0585569
0.0583835
0.0581675
0.05791
0.0576549
0.0574423
0.0615024
0.0612922
0.0610932
0.0608164
0.0604818
0.0600967
0.0598977
0.0597572
0.0594786
0.059337
0.0591586
0.0589595
0.0587303
0.0585363
0.0583299
0.0580999
0.0578749
0.0620036
0.0617396
0.0614885
0.0612587
0.0609407
0.0605729
0.0602336
0.0600995
0.0597797
0.0596576
0.0595294
0.0593546
0.0591554
0.0589499
0.0587187
0.0585261
0.0582933
0.0624052
0.0622319
0.0619732
0.0617017
0.0614493
0.0611462
0.0607301
0.060006
0.0601529
0.0600582
0.0599383
0.0597408
0.0595343
0.059338
0.0591253
0.0589005
0.058697
0.0628007
0.0626023
0.0624159
0.0622355
0.0619581
0.06181
0.0615382
0.0610455
0.0606993
0.0604674
0.0603112
0.0601673
0.0599791
0.0597335
0.059534
0.0593223
0.0590887
0.0629603
0.0627756
0.0625777
0.062336
0.0621381
0.0619194
0.0618138
0.0614335
0.0610202
0.0607326
0.0605406
0.0603551
0.0601499
0.0599279
0.0597524
0.059508
0.0636598
0.0632887
0.0629828
0.0627995
0.0625738
0.0623668
0.0622724
0.0618733
0.0615674
0.0612588
0.0609481
0.0607147
0.0605429
0.0603222
0.0601103
0.0646172
0.0643896
0.0640185
0.0636356
0.0632292
0.0630872
0.0628086
0.0624738
0.0623452
0.0620284
0.0617218
0.0614437
0.0612246
0.0609614
0.0607376
0.0605294
0.0650525
0.0648493
0.0646519
0.0643267
0.0639552
0.06347
0.0630843
0.0631945
0.0627579
0.0625377
0.0622463
0.0619233
0.0615357
0.0613685
0.0611573
0.0609375
0.0655592
0.0653315
0.0650945
0.0647932
0.0644875
0.0641565
0.0637495
0.0635792
0.0632328
0.0629948
0.0627943
0.0625141
0.0621423
0.0617964
0.0615538
0.0613543
0.0662809
0.0660274
0.0657831
0.0655508
0.0653775
0.0650597
0.0647562
0.0644914
0.0642305
0.0639539
0.063626
0.0632621
0.0629747
0.0627322
0.0624373
0.0621182
0.0666712
0.0664307
0.0662517
0.0660558
0.0658038
0.0655954
0.0652679
0.0649648
0.0646765
0.0644943
0.0642007
0.0638901
0.0635286
0.0632291
0.0630283
0.0627672
0.0671846
0.0668857
0.0666146
0.0664258
0.0662466
0.065992
0.0657933
0.0655343
0.0651999
0.0649923
0.0648008
0.06458
0.0642739
0.0638698
0.063536
0.0632222
0.0677668
0.0673992
0.0670108
0.0667718
0.0665937
0.0664166
0.0661912
0.0658894
0.065664
0.0654179
0.065229
0.0650742
0.0648844
0.0646306
0.0641893
0.0638336
0.0683751
0.0679319
0.067626
0.0673081
0.0669758
0.0668121
0.0665902
0.0663797
0.0660539
0.0658369
0.0656142
0.0653855
0.0652893
0.0651343
0.0648616
0.0645693
0.0689102
0.0686229
0.0682743
0.0679677
0.067659
0.0673993
0.0670983
0.0668384
0.0666343
0.0662716
0.0659909
0.0658228
0.0656647
0.0654428
0.0652649
0.0694508
0.0692222
0.0689036
0.0685762
0.0682142
0.0679189
0.0676638
0.0674143
0.067143
0.0668756
0.0665802
0.0661962
0.0659788
0.0658322
0.0656698
0.0654337
0.0699159
0.0696848
0.0694667
0.069238
0.0688662
0.0684908
0.0681962
0.0678885
0.067704
0.0674273
0.0671706
0.066905
0.0665012
0.0662395
0.0660717
0.0658892
0.0703137
0.0701437
0.0698984
0.0696585
0.069403
0.0690743
0.0687847
0.0685152
0.0682175
0.0679663
0.067723
0.0674876
0.0672663
0.0669089
0.0665518
0.0705733
0.0703117
0.070121
0.0699289
0.0696553
0.069319
0.0690103
0.0687713
0.0685246
0.0682663
0.0679569
0.0677514
0.0674672
0.0671901
0.0714701
0.0709963
0.0706642
0.0704331
0.0701593
0.0698728
0.0695535
0.0693029
0.0690286
0.0688209
0.0685616
0.0682289
0.0679907
0.0722183
0.0720109
0.0716808
0.0713631
0.071048
0.0707166
0.0704163
0.0701459
0.0698537
0.0695706
0.0692748
0.0689998
0.0687702
0.0684364
0.0726391
0.0723923
0.0722043
0.071926
0.0716573
0.0712915
0.0710268
0.0706504
0.0703682
0.0700903
0.0697783
0.0694996
0.0692452
0.0690003
0.0731277
0.0728707
0.0726035
0.0723264
0.0721521
0.0718676
0.0715708
0.071243
0.0709403
0.0706692
0.0702891
0.0700006
0.0697449
0.069521
0.0735354
0.0733651
0.0731052
0.07285
0.0726166
0.0723242
0.072123
0.071831
0.0714939
0.0711852
0.0709242
0.0705412
0.0702701
0.0700232
0.0739605
0.0737612
0.0735813
0.0733882
0.073207
0.0730081
0.0726273
0.0723348
0.0720285
0.0716986
0.0714137
0.0711702
0.0708747
0.0705475
0.0743431
0.0741142
0.0739277
0.0738159
0.073654
0.0733479
0.0731627
0.0729525
0.0726527
0.0722873
0.0718731
0.07161
0.0713976
0.0740249
0.073948
0.0737256
0.0733721
0.0732224
0.0729778
0.0725525
0.0720338
0.0717704
0.0742464
0.0741895
0.0739615
0.0736253
0.07343
0.0732376
0.0729301
0.0724665
0.0747139
0.0744515
0.0743998
0.0743321
0.0740097
0.0736369
0.073425
0.0754918
0.0751817
0.0747577
0.0746029
0.074496
0.0742382
0.0739048
0.0755343
0.0752339
0.0749426
0.07472
0.0745042
0.0765347
0.0761223
0.0755659
0.075592
0.0752644
0.07501
0.0789004
0.0786633
0.077437
0.0769459
0.0756771
0.0789561
0.0786344
0.0783665
0.0780761
0.0778791
0.0760778
0.0793533
0.0782353
0.0778237
0.0776785
0.0772143
0.0795763
0.0788779
0.0782825
0.00587034
0.00563951
0.00548808
0.00772811
0.00733038
0.00697455
0.0066816
0.00633343
0.00599658
0.00568847
0.00551979
0.00407014
0.00927738
0.00894041
0.00849753
0.008193
0.00781816
0.00744663
0.00711561
0.00677439
0.00642175
0.00608184
0.00570558
0.00544977
0.0051093
0.004642
0.00431281
0.0104635
0.0101025
0.00978741
0.00939056
0.00906611
0.00862617
0.00827212
0.0079424
0.00757805
0.00721799
0.00686403
0.00645339
0.00610584
0.00575688
0.00542031
0.00512087
0.00473641
0.00431224
0.00405403
0.00350004
0.00292739
0.00261509
0.011732
0.0114463
0.0110171
0.010639
0.0102161
0.00986929
0.00951795
0.00912229
0.00874013
0.00836662
0.00802852
0.00768998
0.00733852
0.00698925
0.00657737
0.00621274
0.00572528
0.00545281
0.00515645
0.00478159
0.00442274
0.00401927
0.00355107
0.0132421
0.0127807
0.012449
0.0119662
0.0116027
0.0111125
0.0107203
0.0103382
0.0100016
0.00963281
0.009219
0.00881034
0.00842044
0.0080974
0.00771819
0.0074721
0.00717784
0.00684876
0.00615886
0.00576925
0.00547561
0.00520377
0.00484367
0.00450985
0.00412913
0.014105
0.0136421
0.0134015
0.0130078
0.0126106
0.0120394
0.0117088
0.0112058
0.0108035
0.0104462
0.010139
0.00977954
0.00937636
0.00883505
0.00842785
0.00814554
0.00783456
0.00757536
0.0072999
0.00688766
0.00621802
0.00584734
0.00556391
0.00527148
0.00491883
0.015302
0.0147478
0.0142243
0.013923
0.0135331
0.0130928
0.0127824
0.0125183
0.012033
0.0114098
0.0108881
0.010554
0.0102945
0.00995701
0.00970176
0.00895928
0.00844695
0.0082004
0.00791199
0.00762721
0.00731848
0.00698529
0.00637315
0.00598143
0.00566912
0.0164934
0.0160363
0.0154764
0.0148594
0.0144075
0.0141105
0.0137361
0.013338
0.0129131
0.0127071
0.0123221
0.0117322
0.01113
0.0106519
0.0104383
0.0102014
0.00992544
0.00921104
0.00852186
0.008247
0.00797669
0.00764937
0.00733361
0.00694734
0.00651736
0.0184207
0.0179577
0.0172413
0.0167479
0.016164
0.0155462
0.0150515
0.0146084
0.0142803
0.0139515
0.0134636
0.0130888
0.0128713
0.012597
0.0120811
0.0115358
0.0109507
0.0105227
0.0102497
0.0100316
0.00937711
0.00869984
0.00834168
0.00806169
0.00772017
0.00733169
0.0195577
0.0192261
0.0188939
0.018559
0.0181249
0.0175206
0.0169497
0.0163188
0.0156913
0.0153283
0.0148675
0.0144513
0.0140118
0.0135495
0.0132148
0.0129638
0.0126799
0.0123016
0.011857
0.0112169
0.0107269
0.0103623
0.00989625
0.00935739
0.00896562
0.00847629
0.00817705
0.0199934
0.0197075
0.0193806
0.0190688
0.0186609
0.0182234
0.0177069
0.017177
0.0166461
0.0160809
0.0155734
0.0150601
0.0145923
0.014114
0.0136105
0.0133576
0.0130867
0.0127865
0.0124465
0.0121012
0.0116391
0.0109827
0.0105912
0.0100564
0.00943111
0.021842
0.0214265
0.020868
0.0203576
0.0199572
0.0195016
0.0192437
0.018885
0.0183024
0.0178534
0.0173746
0.0168583
0.0163526
0.0157651
0.015281
0.0148163
0.0142333
0.0137362
0.0134848
0.0132198
0.0129164
0.012642
0.0123473
0.0119391
0.011375
0.0223761
0.0219757
0.0216579
0.021214
0.0206788
0.020098
0.0197387
0.0194734
0.0189985
0.0185412
0.0180021
0.017593
0.0171015
0.0165926
0.0159741
0.0154864
0.0149416
0.0144025
0.0139202
0.0136072
0.0133451
0.0130889
0.0128203
0.0125292
0.0235592
0.0233856
0.0230285
0.0225853
0.0221353
0.0218664
0.0215241
0.0210207
0.020578
0.0200437
0.0197096
0.0192818
0.0188015
0.0184425
0.0178976
0.0173486
0.0168257
0.0162399
0.015691
0.0151466
0.0145895
0.0141136
0.0137913
0.0134983
0.0131971
0.0242764
0.0239469
0.0236871
0.0235029
0.0232943
0.022756
0.0224509
0.0221882
0.0218561
0.0214687
0.020883
0.0203819
0.0200167
0.0195764
0.0191314
0.018679
0.0181913
0.0176579
0.0171061
0.0165626
0.015921
0.0152163
0.0146294
0.0142892
0.0138822
0.0249164
0.0246474
0.024385
0.0240897
0.0238018
0.0235612
0.0233457
0.0230008
0.0227362
0.0225018
0.0222139
0.0217836
0.0212019
0.0207854
0.0202261
0.0198487
0.0194182
0.019038
0.0185236
0.0180045
0.0175114
0.0169206
0.0163196
0.0155684
0.0148256
0.0258025
0.0255397
0.025307
0.0250603
0.0248076
0.0245613
0.0242122
0.0239628
0.0236121
0.023417
0.0231605
0.022926
0.0226941
0.0223515
0.0220415
0.0215552
0.0210155
0.0205166
0.0201873
0.0197022
0.01931
0.0188302
0.0183047
0.0178028
0.0172806
0.0167184
0.0265268
0.0263253
0.0259747
0.0256975
0.0254518
0.0251845
0.0249521
0.0247026
0.0244134
0.0240995
0.0237913
0.0235056
0.023287
0.0230569
0.022857
0.0224913
0.0220223
0.021765
0.0213485
0.0209326
0.0205659
0.0200161
0.0195678
0.0190808
0.0186318
0.0181231
0.0274612
0.0270506
0.0266669
0.0263933
0.0261165
0.0257944
0.0255197
0.0252989
0.0250812
0.0248595
0.0245058
0.0241905
0.0240071
0.0236543
0.0234184
0.0231827
0.0229022
0.0225123
0.0220324
0.0218145
0.0216006
0.02108
0.0208156
0.0204931
0.0198855
0.0193874
0.01893
0.0281126
0.0278726
0.0275391
0.0271824
0.026813
0.0264677
0.0261617
0.0258901
0.0256359
0.0254089
0.0251873
0.0249699
0.0247462
0.0243761
0.024055
0.0238362
0.0235844
0.0233535
0.0230271
0.0225441
0.0220744
0.0218114
0.021538
0.0212106
0.0209448
0.0207099
0.0203727
0.0286803
0.0283167
0.0279994
0.0276768
0.0273051
0.0269086
0.0265662
0.0262506
0.0259519
0.0257028
0.0254837
0.02527
0.0250554
0.0248309
0.0245688
0.0242769
0.02402
0.0237944
0.0235884
0.0233294
0.0227599
0.0222046
0.0218716
0.0216263
0.0213216
0.0210272
0.029626
0.0291802
0.0288308
0.0284789
0.0281272
0.0278086
0.0273701
0.0271141
0.0268065
0.0264336
0.0261288
0.0258149
0.025544
0.0253506
0.0251431
0.0249171
0.0246731
0.0244137
0.024168
0.0239494
0.0237983
0.0234527
0.0228362
0.0223606
0.0220261
0.0217363
0.0304382
0.0300897
0.029767
0.0294145
0.0290387
0.0286727
0.0283377
0.0279084
0.027587
0.0272873
0.0268949
0.0265204
0.0261197
0.0259295
0.0256476
0.0254452
0.0252413
0.0250187
0.0247785
0.024532
0.024299
0.0240538
0.0237683
0.0234241
0.0230793
0.0226163
0.0309389
0.0306471
0.0303075
0.0299176
0.0295786
0.0291116
0.0288786
0.0285131
0.0280741
0.0277523
0.0274429
0.0270339
0.0266766
0.0262762
0.0259727
0.0257837
0.0255766
0.0253599
0.0251324
0.0248941
0.0246269
0.024389
0.0241374
0.0238552
0.0235618
0.0318014
0.0315083
0.0311911
0.0308858
0.0305488
0.0301455
0.0298918
0.029419
0.029003
0.0285837
0.0282851
0.0279749
0.0275946
0.0272294
0.0268656
0.0265018
0.0261925
0.0259395
0.0257295
0.0255013
0.0252668
0.0250138
0.0247479
0.0244854
0.0242561
0.023999
0.032628
0.0323292
0.0320296
0.0317161
0.0313971
0.0310871
0.0307727
0.030254
0.0300422
0.0297041
0.029277
0.0288834
0.0284882
0.0281139
0.0278
0.0274364
0.0270206
0.0266687
0.0264738
0.026096
0.0259011
0.0256557
0.0253872
0.0251253
0.0248901
0.0246408
0.0334341
0.0330954
0.0327934
0.03251
0.032209
0.0319279
0.0316266
0.0313193
0.0309726
0.0305496
0.0302176
0.0299312
0.0294922
0.0290968
0.0287078
0.0283216
0.0279709
0.0277031
0.0273548
0.0268429
0.0265179
0.026267
0.0260823
0.0258108
0.0255434
0.0252889
0.0250258
0.0338654
0.0335527
0.0332623
0.0329474
0.0326831
0.0323949
0.0321191
0.0318386
0.0315544
0.031255
0.0308691
0.0304873
0.0301835
0.0297157
0.0293182
0.0289123
0.0285102
0.0282293
0.0278351
0.0276447
0.0271821
0.0268421
0.0265133
0.0262483
0.0259816
0.0257274
0.0346377
0.0343762
0.0340922
0.0337311
0.0333998
0.0330987
0.0328494
0.0326339
0.0323723
0.0320761
0.0317565
0.0314339
0.0311034
0.0308118
0.0304129
0.0299685
0.0295365
0.0290839
0.0285923
0.0286206
0.0280979
0.0276983
0.0274005
0.0270417
0.0266659
0.0264153
0.0350404
0.0348142
0.0345844
0.0343189
0.0339403
0.0337387
0.0334244
0.0331079
0.0328017
0.0325165
0.0322648
0.0319523
0.0316147
0.0312012
0.0309579
0.0306385
0.0301326
0.0297073
0.0295057
0.0291172
0.0286665
0.0282411
0.0279012
0.0276028
0.0272442
0.0357052
0.0354686
0.0352252
0.0349539
0.034747
0.0345384
0.0341636
0.0337546
0.0336115
0.0334123
0.0330553
0.0326621
0.0324324
0.0321879
0.0318545
0.0315194
0.0311601
0.0308665
0.0305015
0.0299551
0.0295558
0.0292476
0.0288647
0.028498
0.0280856
0.0361469
0.0358713
0.0356273
0.0353659
0.0351133
0.0349044
0.0346924
0.0343558
0.0339292
0.0337813
0.0336442
0.0333256
0.0329369
0.032637
0.0323502
0.0320304
0.0317435
0.0313822
0.0310763
0.0306038
0.030138
0.0297432
0.0293873
0.0290494
0.028755
0.0368957
0.0366047
0.0363132
0.0360022
0.0357497
0.035488
0.035241
0.0350149
0.0348213
0.0345548
0.0341342
0.033822
0.0336422
0.033588
0.0332194
0.0328695
0.0325375
0.0321811
0.0319481
0.031789
0.0311965
0.0307455
0.0303365
0.0299964
0.0295898
0.037444
0.0371388
0.0368053
0.0364772
0.0361571
0.0359163
0.035661
0.0354122
0.035178
0.034794
0.0347655
0.0344176
0.0341128
0.0338118
0.0335214
0.0333369
0.0330945
0.032692
0.0323407
0.0321706
0.0318274
0.0313066
0.0309822
0.0305982
0.0302027
0.0380826
0.0378873
0.0376406
0.0373644
0.0370011
0.0368198
0.0366244
0.0362223
0.0358826
0.0356247
0.0353661
0.0349874
0.0348161
0.0346225
0.0343155
0.034102
0.0338711
0.0335353
0.0332509
0.0329342
0.0325551
0.032294
0.0319672
0.0315576
0.0311988
0.0385052
0.0382882
0.0380741
0.0378542
0.0376382
0.0372315
0.0368308
0.0367099
0.0364247
0.0361464
0.0357818
0.0354589
0.0351713
0.0349079
0.0347116
0.0344749
0.0342565
0.0340893
0.0338479
0.0335258
0.0331875
0.032818
0.0324951
0.0320628
0.0391072
0.0388667
0.0386537
0.0384264
0.0382137
0.038025
0.0378114
0.0374926
0.0370363
0.0368904
0.0366501
0.036352
0.0360523
0.0357098
0.0354108
0.0351446
0.0348976
0.0346682
0.0344313
0.0342257
0.033961
0.0336804
0.0333766
0.033053
0.0327456
0.0394558
0.0392323
0.0390369
0.0388292
0.0386074
0.0383843
0.0382037
0.0379729
0.0376406
0.0373562
0.0371438
0.0369314
0.0366244
0.0362997
0.0359573
0.0356533
0.0353651
0.0350148
0.0347915
0.0345978
0.0343541
0.0340921
0.0338546
0.0335552
0.040034
0.0398139
0.0396115
0.0393803
0.0391814
0.0389946
0.0387776
0.0385632
0.0383759
0.0381742
0.0378635
0.0375408
0.0373311
0.0370878
0.0366901
0.0363841
0.0361227
0.0358981
0.0355266
0.0352483
0.0350121
0.0347633
0.0344959
0.0342714
0.0340182
0.0404016
0.0401792
0.0399784
0.0397686
0.0395456
0.0393456
0.0391424
0.0389472
0.038693
0.0383862
0.0382789
0.0380382
0.0377404
0.0375524
0.0372736
0.0370226
0.0367063
0.0363304
0.0360407
0.0357303
0.0354518
0.035192
0.0349554
0.0346956
0.0409911
0.0407733
0.0405529
0.0403111
0.0401143
0.0399316
0.0397181
0.0395331
0.0393191
0.0391166
0.0389072
0.0385236
0.0383525
0.0381195
0.0379233
0.037697
0.037402
0.0371759
0.0369364
0.03661
0.0362517
0.0359518
0.03564
0.0354199
0.0351889
0.0413386
0.0411242
0.0409169
0.0407008
0.0404737
0.0402734
0.0400702
0.0398922
0.0396976
0.039506
0.0392349
0.0391296
0.0388505
0.0385448
0.0382311
0.0380864
0.0378437
0.0375541
0.0373116
0.0370808
0.0367557
0.0364089
0.0361577
0.0358688
0.0417015
0.0415062
0.0412763
0.0410439
0.040847
0.0406239
0.0404307
0.0402221
0.0400406
0.0398602
0.0396782
0.0393697
0.0391902
0.0389624
0.0387434
0.0384763
0.0381325
0.0379043
0.0376518
0.0374636
0.0372242
0.0369103
0.0366316
0.0363705
0.042262
0.0420702
0.0418678
0.0416283
0.0414046
0.0411995
0.0409752
0.0407664
0.0405568
0.0403692
0.0401829
0.0400097
0.0398432