/*--------------------------------*- C++ -*----------------------------------*\
| =========                 |                                                 |
| \\      /  F ield         | OpenFOAM: The Open Source CFD Toolbox           |
|  \\    /   O peration     | Version:  2312                                  |
|   \\  /    A nd           | Website:  www.openfoam.com                      |
|    \\/     M anipulation  |                                                 |
\*---------------------------------------------------------------------------*/
FoamFile
{
    version     2.0;
    format      ascii;
    arch        "LSB;label=64;scalar=64";
    class       volScalarField;
    location    "190";
    object      p;
}
// * * * * * * * * * * * * * * * * * * * * * * * * * * * * * * * * * * * * * //

dimensions      [0 2 -2 0 0 0 0];

internalField   nonuniform List<scalar> 
404911
(
0.0495629
0.0495637
0.0495986
0.0495688
0.0495296
0.0495474
0.0495683
0.0495727
0.0495701
0.0495694
0.050075
0.0497687
0.0496427
0.0496241
0.0495932
0.0495814
0.0502214
0.0500502
0.0498577
0.0497735
0.0504825
0.0503323
0.0500912
0.0508785
0.0506739
0.0503197
0.0512349
0.051081
0.0509731
0.0516899
0.051563
0.0514092
0.0512065
0.051145
0.0517715
0.0516847
0.051504
0.0523027
0.0521253
0.0519474
0.0517634
0.0524659
0.0523928
0.0522787
0.0521412
0.0519079
0.0525715
0.0524935
0.0523803
0.0522952
0.0528176
0.0527234
0.0525653
0.0524998
0.0528355
0.052828
0.0549009
0.049339
0.0493465
0.0493465
0.0498797
0.0496659
0.0502196
0.0500441
0.0498877
0.0505264
0.0503192
0.0501049
0.0509235
0.0506199
0.0512402
0.0509642
0.0509709
0.0515481
0.0513802
0.0510999
0.0510173
0.0517291
0.051637
0.0521852
0.0519637
0.052407
0.0522177
0.05221
0.0526055
0.052526
0.052883
0.052668
0.0525363
0.0528794
0.0528941
0.0547725
0.0548694
0.0547547
0.0553335
0.0551288
0.0550215
0.0555896
0.0554068
0.0551877
0.0558307
0.0557812
0.0556287
0.0557987
0.0203089
0.0201018
0.0199122
0.0214284
0.0212325
0.0207812
0.0207271
0.0204479
0.0202508
0.0200952
0.019796
0.0220696
0.021829
0.0212905
0.0209824
0.0207248
0.0205708
0.0203499
0.0201752
0.01925
0.0228097
0.0225711
0.0223946
0.0221811
0.0219959
0.0218505
0.0215062
0.0211436
0.0208487
0.0206816
0.0204979
0.020261
0.0198483
0.0193924
0.0192884
0.0192177
0.0233971
0.0231346
0.0228993
0.0226608
0.0224531
0.0222611
0.0220787
0.0218991
0.02166
0.021365
0.0211029
0.0208262
0.020646
0.0203989
0.019259
0.0241393
0.0237977
0.0235132
0.0232055
0.0229291
0.0227241
0.0225171
0.0223215
0.0221332
0.021958
0.0217007
0.0214545
0.0212489
0.0210014
0.0208586
0.024565
0.024344
0.0239707
0.0236643
0.0233744
0.0230391
0.0228163
0.0225762
0.0223928
0.0222365
0.0220339
0.0218395
0.0215841
0.021357
0.0211403
0.0210038
0.0254134
0.0250526
0.0247021
0.0244556
0.0240501
0.0238414
0.0235453
0.0231265
0.022883
0.0226556
0.0224966
0.0223152
0.0221181
0.0219116
0.021687
0.0214649
0.0212693
0.0264606
0.0261693
0.0259007
0.0255593
0.0252074
0.0248922
0.0246284
0.024303
0.0240146
0.023687
0.0232432
0.023016
0.0227923
0.0226193
0.0224352
0.0222105
0.0220148
0.0218066
0.0270055
0.0267341
0.0263388
0.0260452
0.0257218
0.0253789
0.0251034
0.02477
0.0244632
0.0241357
0.0238281
0.0234379
0.0231172
0.0229245
0.0227516
0.0225275
0.0223414
0.0221259
0.0277304
0.0274796
0.0272205
0.0269294
0.0265722
0.0262403
0.0259209
0.0255737
0.0252587
0.0249292
0.0246238
0.0243102
0.0239973
0.0236248
0.0232779
0.0230462
0.022881
0.0226866
0.0281967
0.0279359
0.0276583
0.0274085
0.0271116
0.0267696
0.0264585
0.0261202
0.0257779
0.0254716
0.0251368
0.0248194
0.0244672
0.0241505
0.0238968
0.0235056
0.0231372
0.028845
0.0286056
0.0282966
0.0280941
0.027856
0.0275843
0.0272794
0.0269668
0.026653
0.0263084
0.0259794
0.0256452
0.0253199
0.0250066
0.0246457
0.0243125
0.0240782
0.029464
0.0292018
0.0289487
0.0288327
0.0285809
0.0283209
0.0280395
0.027788
0.0275
0.0272054
0.0268843
0.026498
0.0261432
0.0257997
0.0255273
0.0251683
0.0248128
0.0245196
0.0303231
0.0300592
0.0296505
0.0293433
0.0290937
0.0290006
0.0287416
0.0284912
0.0282151
0.0279729
0.0277518
0.0274198
0.0270554
0.0266803
0.026294
0.0259205
0.0257045
0.0254572
0.0308537
0.0306908
0.0305146
0.0303532
0.0299486
0.0295527
0.0292859
0.0291589
0.028971
0.0286991
0.0283782
0.0281465
0.0279912
0.0276491
0.0272082
0.0268202
0.0264873
0.0261178
0.0311875
0.0309848
0.0308065
0.0306364
0.0304678
0.0302083
0.0298225
0.0295354
0.029295
0.0291175
0.0288025
0.0284775
0.0282897
0.0281622
0.0278389
0.0273514
0.0269465
0.0266277
0.0317486
0.0315327
0.0312516
0.0310902
0.0309166
0.0306985
0.0305263
0.0302968
0.0300491
0.0297619
0.0294943
0.0293013
0.0289754
0.0286248
0.0283905
0.0282676
0.0279833
0.0275348
0.0321368
0.0318782
0.0316646
0.0314328
0.0312052
0.0310072
0.0307998
0.0305746
0.0303554
0.0301975
0.0300171
0.0297301
0.0294635
0.0291638
0.0288079
0.0285489
0.0283849
0.0281766
0.0330244
0.0327725
0.0323428
0.0320223
0.0318418
0.0315988
0.0313651
0.0311288
0.0309301
0.0306627
0.0304234
0.0302965
0.0301588
0.0299952
0.0297461
0.0294266
0.0290397
0.0287156
0.0334349
0.0332436
0.0330531
0.0326796
0.0323212
0.0320719
0.0318458
0.0316229
0.0313274
0.031107
0.0307647
0.0305588
0.0304073
0.0302564
0.0300828
0.0298815
0.0295842
0.0339123
0.0337238
0.0335395
0.0333834
0.0332365
0.0328864
0.0325904
0.0322881
0.0320558
0.0317576
0.0314807
0.031272
0.0309591
0.0307152
0.0305587
0.0303824
0.0302023
0.0299884
0.0342565
0.0340495
0.0338672
0.0336675
0.0335061
0.0333385
0.0330823
0.0328087
0.0325553
0.0323292
0.0320498
0.0317231
0.0314163
0.0311142
0.0308637
0.0306832
0.0305067
0.0303181
0.0345671
0.0343917
0.0342057
0.0340198
0.0337939
0.0335787
0.0334197
0.0332
0.0329607
0.0327612
0.032565
0.0323041
0.0319166
0.0316098
0.0313007
0.0311336
0.0308519
0.0306738
0.0350893
0.034883
0.0347046
0.0345335
0.0343612
0.0342068
0.033948
0.033717
0.0334989
0.0332538
0.0330282
0.0328781
0.0327032
0.0325151
0.0321636
0.0318075
0.0315063
0.03124
0.035568
0.0353926
0.035218
0.0350323
0.0348624
0.0346811
0.0344989
0.0343237
0.0341309
0.0338809
0.0336227
0.0333774
0.0331117
0.0329662
0.0327893
0.0325877
0.0322712
0.0320097
0.035901
0.0356989
0.0355248
0.0353508
0.0351714
0.0350126
0.0348616
0.0346648
0.0344752
0.0342497
0.0340092
0.0337591
0.0335412
0.0332726
0.0330857
0.0329087
0.0327182
0.0324409
0.0363877
0.0361996
0.0360194
0.0358362
0.0356402
0.0354759
0.0353147
0.0351626
0.0350335
0.0348855
0.0346487
0.0343988
0.0341518
0.0339437
0.0337106
0.0334309
0.0331316
0.0330617
0.0366928
0.0365115
0.036328
0.0361472
0.0359519
0.0357669
0.0356014
0.0354417
0.0352937
0.0351665
0.0350554
0.0348311
0.0345879
0.0343195
0.0340601
0.0339008
0.0336425
0.0333996
0.0370302
0.0368233
0.0366151
0.036436
0.0362602
0.0360584
0.0358704
0.0357152
0.0355631
0.035413
0.0352685
0.0351169
0.0349295
0.034701
0.0344547
0.0342307
0.0340212
0.0337732
0.0374308
0.0371995
0.0369568
0.03672
0.0365826
0.036404
0.036186
0.0359472
0.0358138
0.035675
0.0355268
0.0353719
0.0352034
0.03501
0.0347972
0.0345832
0.0343542
0.0341783
0.0378827
0.0377511
0.0376182
0.0374138
0.0371613
0.0369316
0.0367651
0.0365895
0.0363589
0.0360737
0.0359302
0.0357961
0.0356484
0.0354845
0.035309
0.0351192
0.0349248
0.0346787
0.0382545
0.0380466
0.0378683
0.0377198
0.0375279
0.0372976
0.0371013
0.0369526
0.0368273
0.0366061
0.0362844
0.0360784
0.0359393
0.0357877
0.0356084
0.0354368
0.0352584
0.035068
0.0385972
0.0384049
0.0382027
0.0380168
0.0377924
0.0375728
0.037376
0.0372166
0.037072
0.0369433
0.0367603
0.0365126
0.0362771
0.0360982
0.0359273
0.0357629
0.0356005
0.0354296
0.0388934
0.0387285
0.0385523
0.0383425
0.03818
0.0379437
0.0377019
0.0374291
0.0373079
0.0371703
0.0370283
0.0368634
0.0366551
0.0364569
0.0362554
0.0360678
0.035896
0.0394819
0.0392512
0.0390612
0.03888
0.0386801
0.03849
0.0383452
0.0381036
0.0378303
0.037555
0.0374111
0.0372796
0.0371383
0.0369738
0.0367857
0.0365942
0.0364013
0.0362026
0.0398261
0.0396274
0.039428
0.039233
0.0390157
0.0387972
0.0385905
0.0384354
0.0382604
0.038029
0.0377681
0.0374991
0.0374
0.0372599
0.0371008
0.0369264
0.0367374
0.0365686
0.0401213
0.0399575
0.0397806
0.0395951
0.0394192
0.0392059
0.0390011
0.0387125
0.0385532
0.0384168
0.0382121
0.0379025
0.0376801
0.0375438
0.0373989
0.0372482
0.0370929
0.0369172
0.0405994
0.0404129
0.0402595
0.0401033
0.0399432
0.0397912
0.039656
0.0393928
0.0391861
0.0389142
0.0386792
0.0385388
0.0383891
0.0381496
0.0378979
0.0377119
0.03755
0.0373874
0.0408777
0.0407105
0.0405644
0.0404072
0.0402549
0.0401047
0.0399656
0.0398516
0.0396438
0.039393
0.0391028
0.0388664
0.0386278
0.0385369
0.0383604
0.0381048
0.0378914
0.0376837
0.0412074
0.0410219
0.0408561
0.0407026
0.0405443
0.0403975
0.0402518
0.040114
0.0399958
0.0398559
0.0395373
0.0393271
0.0390075
0.0387852
0.0386544
0.0384896
0.0382838
0.0380898
0.0414784
0.0413471
0.0411727
0.0410062
0.040846
0.0406866
0.0405399
0.0403941
0.0402338
0.0400814
0.0399463
0.0397722
0.0395062
0.0392096
0.0389826
0.0388036
0.0386456
0.0384456
0.041847
0.0416818
0.0414858
0.041318
0.0411394
0.0409803
0.040829
0.0406933
0.0405562
0.040377
0.0401913
0.040012
0.0398547
0.0396723
0.0393946
0.0391814
0.0389773
0.0423272
0.0421421
0.0419839
0.0418014
0.0416069
0.0414435
0.0412643
0.0411051
0.0409647
0.0408417
0.0407367
0.0405664
0.0403901
0.0401296
0.0399711
0.039804
0.0395881
0.0393818
0.0426067
0.0424447
0.0422918
0.0421298
0.0419557
0.0417758
0.0415808
0.0413725
0.0412037
0.0410853
0.0409786
0.0408896
0.0408312
0.0405688
0.0403291
0.0401032
0.039941
0.0397571
0.0429291
0.0427567
0.042593
0.0424413
0.0422688
0.0421156
0.0419673
0.0417725
0.0415794
0.0413211
0.0411935
0.0411017
0.0410009
0.0408947
0.0407266
0.0404931
0.0402821
0.0400993
0.0432297
0.0430617
0.0429038
0.0427332
0.0425743
0.0424064
0.042263
0.042139
0.0420232
0.0418648
0.0415361
0.0413485
0.0412377
0.0411181
0.0409856
0.0408133
0.0406323
0.0404442
0.0435824
0.0433767
0.0432042
0.0430398
0.042864
0.0426927
0.0425275
0.0423841
0.0422547
0.0421378
0.0419656
0.041748
0.0415425
0.0413929
0.0412489
0.0410933
0.040933
0.0407488
0.0439305
0.043727
0.0435299
0.0433466
0.0431653
0.0429821
0.0428023
0.0426314
0.0424814
0.0423488
0.0422173
0.0420658
0.0418888
0.0417057
0.0415432
0.0413841
0.0412283
0.0410539
0.04431
0.0440846
0.0438529
0.0436551
0.043463
0.0432808
0.0430972
0.0429022
0.04272
0.0425638
0.0424425
0.0423147
0.0421783
0.0420175
0.041851
0.0416932
0.041529
0.0413456
0.0446486
0.0444707
0.0442758
0.0440066
0.0437445
0.0435638
0.0433904
0.043232
0.0430464
0.042804
0.0426188
0.0425308
0.0424303
0.0423049
0.0421548
0.0419934
0.0418319
0.0416923
0.0451503
0.04499
0.0448192
0.044675
0.0445139
0.0441848
0.0439104
0.0437448
0.043505
0.0433788
0.0431518
0.0430147
0.0427769
0.042659
0.0425635
0.0424432
0.0422945
0.0421466
0.0419811
0.0454522
0.0453166
0.0451667
0.0450042
0.0448603
0.0447538
0.0445335
0.0442866
0.0439664
0.043701
0.0435696
0.0434014
0.0432219
0.0429979
0.0428435
0.0427265
0.04259
0.0424456
0.0456091
0.0454574
0.0453087
0.0451505
0.0450189
0.0449067
0.0447684
0.0445398
0.0442507
0.044022
0.0437421
0.0435671
0.0434564
0.0432635
0.0430493
0.0428872
0.0427394
0.0460809
0.0459258
0.0457755
0.0456115
0.0454518
0.0452924
0.0451514
0.0450373
0.0449241
0.0446785
0.044471
0.044197
0.0439592
0.0437532
0.0435905
0.0434267
0.0432439
0.0430608
0.0464185
0.0462258
0.046086
0.0459282
0.0457623
0.0455965
0.0454253
0.045263
0.045142
0.0450509
0.0448643
0.044637
0.0443673
0.0441109
0.0439396
0.0437648
0.043592
0.0433894
0.0466364
0.0465378
0.0463916
0.0462335
0.0460786
0.0459248
0.0457686
0.0455738
0.0453655
0.0452104
0.0451522
0.0450152
0.0448138
0.0445528
0.0443032
0.0441125
0.0439419
0.0437802
0.04681
0.0466667
0.0465238
0.0463751
0.0462275
0.0460848
0.0459574
0.0457862
0.045544
0.0453214
0.0452403
0.0451528
0.0449628
0.0447099
0.0444999
0.0442997
0.0441247
0.0471983
0.0469496
0.046772
0.0466615
0.0465221
0.0463694
0.0462264
0.046114
0.0459734
0.0457619
0.0454933
0.0453446
0.04524
0.0450695
0.0448685
0.0446758
0.0444844
0.0480778
0.0477754
0.0474637
0.0471676
0.046984
0.0468311
0.0466793
0.0464999
0.0463383
0.0462242
0.0461342
0.0459237
0.0456525
0.0454924
0.0453577
0.0452007
0.04501
0.0448213
0.0484241
0.048233
0.0479817
0.047678
0.0473497
0.0471683
0.0470166
0.0468659
0.0466786
0.046514
0.0463161
0.0462509
0.0460619
0.0458258
0.0456474
0.0454823
0.0453488
0.0487044
0.0485557
0.0483375
0.0481016
0.0478334
0.0475221
0.0472985
0.0471764
0.0470525
0.0468299
0.0466807
0.0464924
0.0463493
0.0462261
0.0460073
0.0458042
0.0456302
0.0492324
0.0490402
0.0488742
0.0487043
0.0484695
0.0482602
0.0480008
0.0476892
0.0474908
0.0473297
0.0471767
0.0470647
0.0468625
0.046663
0.0464987
0.0463481
0.0461618
0.045973
0.0495657
0.0493706
0.0491672
0.0490258
0.0488662
0.048699
0.0485059
0.048234
0.0479478
0.0477926
0.0475052
0.0473637
0.0471749
0.0469828
0.0468282
0.046667
0.0465096
0.0463369
0.0499333
0.0496979
0.0495577
0.0493161
0.0492206
0.0490845
0.0490704
0.0489456
0.0486785
0.0482441
0.0479866
0.0477921
0.0475894
0.0473444
0.0470907
0.046946
0.0468172
0.0466644
0.0503956
0.0501666
0.0499124
0.0497074
0.0495501
0.0494164
0.0493481
0.0491789
0.0490398
0.0489474
0.0485834
0.0482978
0.0480885
0.0478519
0.0475987
0.0473275
0.0471425
0.0469964
0.0509544
0.0507702
0.0505675
0.0503406
0.0501286
0.049931
0.0497871
0.0496993
0.0497174
0.0494344
0.0492142
0.0490162
0.0487919
0.0485464
0.048339
0.0481535
0.0478629
0.0475671
0.0473553
0.051244
0.0510887
0.0509273
0.0507535
0.0505474
0.0503285
0.0501525
0.0500028
0.0499424
0.049663
0.0494715
0.0492879
0.0491118
0.0489371
0.0487191
0.0484981
0.0483221
0.0480688
0.0478265
0.0513673
0.0512338
0.0510556
0.0508949
0.0507058
0.0505269
0.0502612
0.0500859
0.0499422
0.049724
0.0495556
0.0493878
0.0492251
0.049046
0.048839
0.0486471
0.0484521
0.0482603
0.0517963
0.0516029
0.0514109
0.0512219
0.0510595
0.0509569
0.0507565
0.0504819
0.0502068
0.0500246
0.0498227
0.0496613
0.0495181
0.0493505
0.0491651
0.0489758
0.0487778
0.05219
0.0519892
0.051799
0.0515948
0.0513972
0.0512176
0.0509184
0.0509444
0.0506417
0.0503962
0.0501558
0.0499747
0.0498153
0.0496649
0.0494924
0.0493148
0.0490938
0.0526155
0.0523811
0.0521747
0.0519684
0.0517485
0.0514904
0.0513057
0.0510782
0.0509928
0.0508364
0.0505549
0.0503351
0.0501542
0.049988
0.0498213
0.0496474
0.0494583
0.0531552
0.0529732
0.0527892
0.0525497
0.0523378
0.0521034
0.0518393
0.051654
0.0515203
0.0513563
0.0511766
0.050979
0.0507163
0.0505049
0.0503268
0.0501551
0.0499795
0.0498269
0.0535758
0.0533727
0.0531399
0.0529461
0.0527087
0.0524635
0.0523201
0.052266
0.0518694
0.0517046
0.0515284
0.051362
0.0511648
0.0508919
0.0506852
0.0504988
0.0503194
0.0539653
0.0537631
0.0535385
0.0533127
0.0530512
0.0527861
0.0524735
0.0523121
0.0522184
0.0520615
0.0518792
0.0516965
0.051533
0.0513401
0.05111
0.0508824
0.0506891
0.0543322
0.0541441
0.0539627
0.0537227
0.0534238
0.0530713
0.052873
0.0527544
0.0525205
0.0523957
0.0522397
0.0520604
0.0518543
0.0516746
0.051486
0.0512784
0.0510762
0.0547747
0.0545439
0.0543224
0.0541133
0.053833
0.053506
0.0531925
0.0530519
0.0528005
0.0526897
0.0525754
0.0524143
0.0522353
0.0520487
0.0518421
0.0516622
0.0514522
0.0551344
0.0549739
0.0547501
0.054515
0.0542889
0.0540199
0.0536453
0.0530029
0.0531097
0.0530514
0.0529493
0.0527746
0.0525847
0.0524033
0.0522106
0.0520097
0.0518216
0.0554909
0.0553041
0.0551381
0.05498
0.0547411
0.054608
0.0543648
0.0539367
0.0536338
0.0534259
0.0532826
0.0531541
0.0529844
0.0527645
0.0525811
0.0523906
0.0521817
0.0556461
0.0554587
0.0552911
0.0550847
0.0549145
0.0547316
0.0546051
0.0542845
0.0539252
0.0536694
0.0534879
0.0533199
0.0531356
0.0529374
0.0527738
0.0525599
0.0562803
0.0559462
0.0556607
0.0554915
0.0553095
0.0551323
0.0550184
0.0546792
0.0544097
0.0541347
0.0538654
0.0536488
0.0534889
0.0532931
0.0531029
0.0571043
0.056906
0.0565887
0.0562464
0.0558839
0.0557261
0.055499
0.0552331
0.055099
0.0548172
0.0545387
0.0542813
0.0540867
0.0538585
0.0536609
0.0534756
0.057494
0.0573129
0.0571282
0.0568348
0.0565036
0.0560907
0.0557441
0.0558085
0.0554622
0.0552726
0.0550141
0.0547167
0.0543658
0.0542129
0.0540321
0.0538402
0.0579431
0.0577417
0.057537
0.0572661
0.0569801
0.056676
0.0563242
0.0561711
0.0558956
0.0556822
0.055489
0.0552532
0.0549267
0.0546117
0.0543876
0.0542128
0.0585908
0.0583667
0.0581471
0.0579421
0.0577893
0.0575011
0.0572209
0.0569802
0.0567452
0.0565046
0.0562348
0.0559145
0.0556473
0.0554383
0.0551907
0.0549042
0.0589518
0.0587284
0.0585621
0.0583865
0.0581659
0.0579806
0.0576858
0.0574044
0.0571582
0.0569903
0.0567388
0.0564744
0.0561611
0.055887
0.055694
0.0554679
0.0594128
0.0591383
0.0588894
0.0587145
0.0585559
0.0583342
0.0581503
0.0579176
0.0576162
0.0574305
0.057262
0.0570742
0.056816
0.0564655
0.0561578
0.0558759
0.0599325
0.0596074
0.0592537
0.0590216
0.0588583
0.0587043
0.0585094
0.0582395
0.0580325
0.0578119
0.057643
0.0575037
0.0573352
0.0571211
0.0567555
0.05643
0.0604719
0.0600959
0.059819
0.0595319
0.0592298
0.0590644
0.0588639
0.0586764
0.0583781
0.0581816
0.0579754
0.0577807
0.0576918
0.0575517
0.0573141
0.0570654
0.0609533
0.0607006
0.0603979
0.0601214
0.0598467
0.0596091
0.059334
0.0590927
0.0589068
0.0585827
0.0583246
0.0581602
0.0580237
0.0578332
0.0576751
0.0614265
0.0612301
0.060958
0.0606662
0.0603457
0.0600778
0.059848
0.0596232
0.059372
0.059124
0.0588628
0.0585221
0.0583121
0.0581801
0.0580333
0.0578311
0.0618235
0.0616277
0.0614441
0.0612475
0.060919
0.060582
0.0603223
0.0600537
0.0598793
0.0596252
0.0593884
0.0591557
0.0588144
0.0585593
0.0583965
0.0582307
0.0621783
0.0620216
0.061815
0.0616127
0.0613863
0.0610973
0.0608369
0.0605943
0.0603303
0.0601057
0.0598792
0.0596595
0.0594571
0.0591488
0.0588382
0.0624321
0.0621854
0.0620182
0.0618448
0.0616016
0.0613025
0.061033
0.0608208
0.0605959
0.0603697
0.0600896
0.0598925
0.0596403
0.0593908
0.063229
0.0628126
0.0625017
0.0622976
0.0620497
0.0617925
0.0615088
0.06129
0.0610433
0.0608463
0.0606148
0.0603226
0.0601026
0.0638629
0.0636798
0.0634001
0.0631248
0.0628347
0.0625475
0.062277
0.0620324
0.0617716
0.061522
0.0612574
0.0610099
0.0608
0.0605091
0.0642399
0.0640189
0.0638481
0.0636095
0.0633716
0.0630466
0.0628099
0.0624829
0.0622276
0.0619774
0.0616997
0.0614533
0.0612271
0.0610049
0.0646713
0.0644451
0.064209
0.0639578
0.0638014
0.0635572
0.063295
0.0630025
0.0627339
0.0624913
0.0621616
0.061899
0.0616721
0.0614683
0.0650343
0.064878
0.0646545
0.0644239
0.0642093
0.0639536
0.0637749
0.0635167
0.0632203
0.0629443
0.0627149
0.0623839
0.0621374
0.0619166
0.0654054
0.0652268
0.0650662
0.0648969
0.0647207
0.0645401
0.0642137
0.0639665
0.0636921
0.0633925
0.0631316
0.0629195
0.0626626
0.0623813
0.0657366
0.0655358
0.0653651
0.0652696
0.0651272
0.0648566
0.0646822
0.0644929
0.0642444
0.0639277
0.0635491
0.0633052
0.0631138
0.0654484
0.0653795
0.065181
0.0648633
0.0647217
0.0645174
0.0641668
0.0637182
0.0634635
0.0656432
0.0655859
0.0653921
0.0650973
0.0649052
0.0647358
0.0644697
0.064076
0.0660643
0.0658267
0.06577
0.0657018
0.0654207
0.0650966
0.0649037
0.0667504
0.0664676
0.066106
0.0659532
0.0658539
0.065625
0.0653358
0.0667706
0.066511
0.0662539
0.0660524
0.0658563
0.0676761
0.0673043
0.0668009
0.0668004
0.0665278
0.066303
0.0697192
0.0695232
0.0684634
0.068036
0.0668959
0.0697647
0.0694933
0.0692616
0.0690098
0.0688324
0.0672854
0.070124
0.0691388
0.0687932
0.068665
0.0682712
0.0703333
0.0697136
0.0691885
0.00528244
0.00506687
0.00492387
0.00696092
0.00660348
0.00628215
0.00601148
0.00569623
0.00539065
0.00511116
0.00495073
0.00367184
0.00835658
0.0080519
0.00766264
0.0073795
0.00704275
0.0067068
0.00640415
0.00609416
0.00577448
0.0054654
0.00512711
0.00489092
0.00458733
0.00417517
0.00387378
0.00941942
0.00909718
0.00881132
0.0084603
0.00816464
0.00777558
0.00745335
0.00715278
0.0068237
0.00649823
0.00617756
0.00580828
0.00548966
0.00517211
0.00486761
0.00459692
0.00425441
0.00387459
0.00363543
0.00314676
0.00262743
0.00231685
0.0105558
0.0102892
0.00991014
0.0095693
0.0091968
0.00888701
0.00857247
0.00822016
0.00787627
0.00753943
0.00723169
0.00692589
0.00660944
0.00629511
0.00592889
0.00559325
0.00514655
0.00489804
0.00463024
0.00429722
0.00397314
0.00360621
0.00318474
0.0118336
0.0114532
0.011166
0.010755
0.0104301
0.00999697
0.00963812
0.00929846
0.00900041
0.00867637
0.00831125
0.00794494
0.00759151
0.00729584
0.00695729
0.00673086
0.00646972
0.00617768
0.00556928
0.00518593
0.00491815
0.00467363
0.00435401
0.00405204
0.0037042
0.0126005
0.0121981
0.0119787
0.0116482
0.0113093
0.0108268
0.0105311
0.0100806
0.00970006
0.00938062
0.00911495
0.00880352
0.00845784
0.00798386
0.00760151
0.00734033
0.00706043
0.00682754
0.0065862
0.00622668
0.00563295
0.00526212
0.00500153
0.00473731
0.00442402
0.0136558
0.0131724
0.0126917
0.0124303
0.0121045
0.0117351
0.0114564
0.0112256
0.0108225
0.0102773
0.0097977
0.00945995
0.00924129
0.00895366
0.00874623
0.00812084
0.00761694
0.00738388
0.00712622
0.00687705
0.00660728
0.00631859
0.00577831
0.00539553
0.00510227
0.0146758
0.0142858
0.0138114
0.0132806
0.0128609
0.0126012
0.0122878
0.0119571
0.011571
0.0113883
0.0110697
0.010554
0.0100182
0.00958511
0.00935748
0.00914614
0.0089342
0.00833548
0.00769866
0.00742931
0.00718867
0.00690132
0.00662228
0.00628018
0.00589117
0.0163189
0.015934
0.0153361
0.0149002
0.0144068
0.0138869
0.0134353
0.0130473
0.0127579
0.0124705
0.0120707
0.0117195
0.0115271
0.0112925
0.0108537
0.0103737
0.00985674
0.00945365
0.00920346
0.00899892
0.00846846
0.00785584
0.00752457
0.00726809
0.00696604
0.00663065
0.0172958
0.0170111
0.0167307
0.0164454
0.0160785
0.0155631
0.0150833
0.0145419
0.0140091
0.0136757
0.0132788
0.0129192
0.0125219
0.0121242
0.0118257
0.0116045
0.0113597
0.0110344
0.0106403
0.0100881
0.00964464
0.00930909
0.00889431
0.00841933
0.00806752
0.00763676
0.00736495
0.0176881
0.0174348
0.0171437
0.0168767
0.0165319
0.0161655
0.0157131
0.0152664
0.0148156
0.014334
0.0138993
0.0134546
0.0130456
0.0126189
0.0121731
0.0119433
0.0117087
0.011449
0.0111537
0.0108466
0.0104482
0.00988188
0.00951137
0.00904126
0.00849459
0.0193088
0.0189565
0.0184901
0.0180224
0.0176643
0.0172644
0.0170233
0.0167203
0.0162275
0.0158434
0.015436
0.0149977
0.0145594
0.0140612
0.0136416
0.0132358
0.0127344
0.0122807
0.0120546
0.0118254
0.0115608
0.0113186
0.0110603
0.0107148
0.0102172
0.0197953
0.0194265
0.019141
0.018769
0.0183159
0.0178125
0.0174908
0.0172158
0.0168151
0.0164315
0.0159668
0.0156226
0.0152004
0.0147628
0.0142319
0.0138073
0.0133429
0.0128734
0.0124411
0.0121669
0.011938
0.0117114
0.0114732
0.0112162
0.0208198
0.0206609
0.0203704
0.0199884
0.0195758
0.0193254
0.0190384
0.0186156
0.0182129
0.0177369
0.0174244
0.0170524
0.0166516
0.0163306
0.0158674
0.0154024
0.014938
0.0144534
0.0139791
0.013499
0.013019
0.0126034
0.0123238
0.0120695
0.0118068
0.021452
0.0211653
0.0209345
0.0207644
0.0205749
0.0201305
0.0198493
0.0196062
0.0193173
0.0189925
0.0184782
0.0180333
0.0176905
0.0172906
0.0169133
0.0165367
0.0161165
0.015659
0.0151921
0.0147366
0.0142024
0.0135875
0.0130425
0.0127525
0.0124062
0.0220218
0.0217842
0.0215543
0.0212962
0.0210381
0.0208187
0.0206222
0.0203243
0.0200916
0.0198826
0.0196239
0.0192578
0.0187505
0.0183638
0.0178636
0.0175316
0.0171629
0.0168211
0.0163869
0.015944
0.0155146
0.0150172
0.0145103
0.0138801
0.0132486
0.0228148
0.0225791
0.0223702
0.0221509
0.0219291
0.0217131
0.02141
0.0211778
0.0208633
0.020681
0.0204549
0.0202505
0.020054
0.0197638
0.0194733
0.0190369
0.0185755
0.0181275
0.0178221
0.0174072
0.0170468
0.0166326
0.0161845
0.0157462
0.0152968
0.014818
0.0234611
0.0232748
0.0229671
0.0227191
0.0225001
0.0222641
0.022059
0.0218409
0.0215897
0.0213037
0.0210168
0.0207594
0.0205653
0.0203652
0.0201903
0.0198736
0.0194569
0.0192121
0.0188434
0.0184834
0.0181431
0.0176746
0.0172819
0.0168502
0.0164421
0.016003
0.0242654
0.0239187
0.0235867
0.0233413
0.0230912
0.0228079
0.0225661
0.022366
0.0221715
0.021976
0.0216719
0.0213905
0.0212055
0.0208945
0.0206869
0.0204806
0.0202309
0.0198802
0.0194559
0.0192418
0.0190362
0.0185873
0.0183487
0.0180683
0.0175626
0.0171051
0.0166985
0.0248558
0.0246379
0.0243477
0.0240389
0.0237169
0.0234127
0.023138
0.0228915
0.0226627
0.0224595
0.0222635
0.0220717
0.0218736
0.021552
0.0212639
0.0210588
0.0208365
0.0206362
0.0203483
0.0199209
0.0194821
0.0192288
0.0189828
0.0186959
0.018459
0.0182478
0.0179607
0.025355
0.0250393
0.0247591
0.0244741
0.0241512
0.0238081
0.0235016
0.0232126
0.0229411
0.0227163
0.0225218
0.0223353
0.0221471
0.0219476
0.0217143
0.0214543
0.0212206
0.0210174
0.0208383
0.0206203
0.0201258
0.0196254
0.019299
0.0190701
0.0187994
0.0185356
0.0261739
0.0257979
0.0254928
0.0251872
0.0248792
0.0245976
0.0242175
0.0239791
0.0236987
0.0233709
0.023095
0.0228106
0.0225725
0.0224058
0.0222244
0.0220239
0.0218054
0.0215732
0.021351
0.0211526
0.0210134
0.0207169
0.0202076
0.0197716
0.0194565
0.0191832
0.0268874
0.0265885
0.0263077
0.0260025
0.0256731
0.0253597
0.0250612
0.0246859
0.0243962
0.0241219
0.0237758
0.0234583
0.0231105
0.0229208
0.0226687
0.022492
0.0223134
0.0221153
0.0218998
0.0216782
0.0214673
0.0212473
0.0209966
0.0206993
0.0203973
0.0199902
0.0273338
0.0270755
0.0267834
0.0264481
0.0261507
0.0257459
0.0255372
0.0252242
0.0248275
0.0245428
0.024264
0.0239076
0.0236065
0.0232598
0.0229697
0.0227924
0.0226092
0.0224192
0.0222167
0.0220024
0.0217633
0.0215511
0.0213257
0.0210787
0.0208189
0.0280804
0.0278241
0.0275507
0.0272861
0.0269956
0.0266524
0.0264159
0.0260046
0.0256401
0.0252854
0.0250191
0.0247421
0.0244036
0.0240811
0.0237673
0.0234486
0.0231552
0.0229247
0.0227409
0.0225431
0.022336
0.0221111
0.0218746
0.0216421
0.0214364
0.0212084
0.0287934
0.0285364
0.0282776
0.0280071
0.0277314
0.0274645
0.0271919
0.0267514
0.0265488
0.0262431
0.0258754
0.0255355
0.0251913
0.0248652
0.0245804
0.0242542
0.0238949
0.0235842
0.023394
0.0230617
0.0228897
0.022679
0.0224457
0.0222157
0.0220037
0.0217812
0.0294915
0.0292064
0.0289418
0.0286948
0.028436
0.0281942
0.0279322
0.0276656
0.0273619
0.0269911
0.0267108
0.0264446
0.0260707
0.0257231
0.0253811
0.0250463
0.0247319
0.0244862
0.0241822
0.0237362
0.0234551
0.0232208
0.0230523
0.0228156
0.0225851
0.0223598
0.0221319
0.0298772
0.0296083
0.0293553
0.0290771
0.0288462
0.0286009
0.028366
0.0281214
0.0278707
0.0276
0.0272635
0.0269395
0.0266634
0.0262687
0.0259205
0.02557
0.0252195
0.0249648
0.0246072
0.0244222
0.0240252
0.0237305
0.0234409
0.0232042
0.0229682
0.0227494
0.0305464
0.0303212
0.0300775
0.0297722
0.0294819
0.0292082
0.0289869
0.0288101
0.0285934
0.0283301
0.0280489
0.0277625
0.0274671
0.0272048
0.0268567
0.0264861
0.0261149
0.0257198
0.0252902
0.0253043
0.024844
0.0244908
0.0242182
0.0239059
0.0235793
0.0233572
0.0309055
0.0307069
0.0305072
0.030281
0.0299609
0.0297656
0.0294879
0.0292118
0.0289689
0.0287492
0.0285142
0.0282257
0.0279371
0.0275713
0.0273447
0.0270625
0.0266334
0.0262704
0.0260664
0.0257243
0.0253456
0.0249769
0.0246742
0.0244027
0.0240917
0.0314891
0.0312802
0.0310689
0.0308352
0.0306548
0.0304747
0.0301599
0.0297859
0.0296613
0.0294672
0.0291834
0.0288662
0.0286592
0.028424
0.0281222
0.0278364
0.0275293
0.0272633
0.0269471
0.026464
0.0261164
0.0258438
0.0255141
0.0251991
0.0248444
0.0318855
0.0316413
0.0314245
0.0311993
0.0309779
0.0307926
0.0306097
0.0303254
0.029953
0.0298277
0.0296771
0.0294119
0.0290921
0.0288316
0.0285602
0.0282694
0.0280184
0.0277084
0.0274498
0.0270155
0.0266217
0.0262813
0.0259713
0.0256728
0.0254164
0.0325559
0.0322977
0.0320376
0.0317611
0.0315379
0.0313101
0.03109
0.0308872
0.0307167
0.0304862
0.0301211
0.0298723
0.0297122
0.0296476
0.0293258
0.0290093
0.0287259
0.028401
0.0281919
0.0280498
0.0275534
0.0271628
0.0268038
0.026505
0.0261533
0.0330331
0.0327699
0.0324827
0.0321887
0.0318999
0.0316819
0.0314638
0.0312399
0.0310242
0.0306917
0.0306653
0.0303636
0.0301114
0.0298635
0.0296179
0.0294388
0.029204
0.0288514
0.0285584
0.0283866
0.0280969
0.0276578
0.0273691
0.0270352
0.026695
0.0335918
0.0334175
0.0332073
0.0329715
0.0326657
0.0324874
0.0323159
0.0319641
0.0316685
0.0314314
0.0312034
0.0308611
0.0307106
0.0305382
0.0302794
0.0301032
0.0299054
0.0296059
0.0293532
0.0290642
0.0287401
0.0285064
0.0282204
0.0278699
0.0275612
0.0339573
0.03377
0.0335835
0.0333934
0.0332057
0.0328633
0.0324948
0.0324051
0.0321592
0.0319096
0.0315678
0.0312866
0.0310251
0.0307958
0.0306154
0.0304131
0.0302311
0.0300795
0.0298662
0.0295826
0.0292865
0.0289682
0.0286888
0.0283212
0.0344846
0.034277
0.0340919
0.0338958
0.0337112
0.033544
0.0333583
0.0330827
0.0326909
0.0325665
0.0323577
0.032096
0.0318186
0.0315068
0.03124
0.0309929
0.0307701
0.0305772
0.0303774
0.0301963
0.0299639
0.0297174
0.0294528
0.0291735
0.0289134
0.0347951
0.0345999
0.0344282
0.0342469
0.0340543
0.0338626
0.0336984
0.0334955
0.0332107
0.0329692
0.0327781
0.0325921
0.0323211
0.0320404
0.031723
0.0314453
0.0311944
0.0308802
0.0306897
0.0305233
0.0303119
0.0300807
0.0298703
0.0296118
0.035301
0.0351089
0.0349334
0.0347324
0.0345572
0.034392
0.0342038
0.0340185
0.03385
0.0336729
0.0334081
0.0331316
0.032939
0.0327231
0.0323931
0.0321286
0.0318802
0.031676
0.0313375
0.0310912
0.0308864
0.0306719
0.0304413
0.0302419
0.0300163
0.035627
0.0354325
0.0352552
0.0350732
0.0348782
0.0347009
0.0345214
0.0343496
0.0341282
0.0338606
0.0337655
0.033562
0.0333059
0.0331282
0.0328791
0.0326708
0.0324027
0.0320674
0.0318103
0.0315275
0.0312796
0.0310505
0.0308427
0.0306158
0.0361417
0.0359519
0.0357614
0.0355523
0.0353787
0.0352164
0.0350292
0.0348625
0.0346753
0.0344973
0.0343128
0.0339782
0.0338331
0.0336306
0.0334578
0.0332433
0.032982
0.0327904
0.0325848
0.0323034
0.0319912
0.031723
0.0314492
0.0312528
0.031047
0.0364459
0.0362622
0.0360799
0.0358939
0.0356965
0.0355187
0.0353392
0.0351794
0.0350078
0.0348406
0.0346054
0.0345103
0.0342644
0.0340018
0.0337308
0.0335977
0.0333709
0.033113
0.0329041
0.0327058
0.0324294
0.032131
0.0319041
0.0316512
0.0367639
0.0365921
0.036395
0.0361954
0.0360229
0.0358287
0.0356558
0.0354711
0.0353106
0.0351524
0.0349933
0.0347269
0.0345701
0.0343627
0.0341685
0.0339399
0.0336432
0.0334365
0.0332128
0.0330411
0.0328332
0.0325659
0.0323246
0.0320928
0.0372588
0.0370883
0.0369118
0.0367038
0.0365091
0.036329
0.0361358
0.0359514
0.0357659
0.035599