# vtk DataFile Version 2.0
track0
ASCII
DATASET POLYDATA
POINTS 12075 float
-0.0205 0.001 1e-05
-0.02052 0.000999985 1e-05
-0.02054 0.000999974 1e-05
-0.02056 0.000999965 1e-05
-0.02058 0.000999959 1e-05
-0.0206 0.000999956 1e-05
-0.0205 0.00367778 1e-05
-0.02052 0.00367778 1e-05
-0.02054 0.00367777 1e-05
-0.02056 0.00367777 1e-05
-0.02058 0.00367777 1e-05
-0.0206 0.00367777 1e-05
-0.0205 0.00635556 1e-05
-0.02052 0.00635555 1e-05
-0.02054 0.00635555 1e-05
-0.02056 0.00635555 1e-05
-0.02058 0.00635555 1e-05
-0.0206 0.00635555 1e-05
-0.0205 0.00903333 1e-05
-0.02052 0.00903333 1e-05
-0.02054 0.00903333 1e-05
-0.02056 0.00903333 1e-05
-0.02058 0.00903333 1e-05
-0.0206 0.00903333 1e-05
-0.0205 0.0117111 1e-05
-0.02052 0.0117111 1e-05
-0.02054 0.0117111 1e-05
-0.02056 0.0117111 1e-05
-0.02058 0.0117111 1e-05
-0.0206 0.0117111 1e-05
-0.0205 0.0143889 1e-05
-0.02052 0.0143889 1e-05
-0.02054 0.0143889 1e-05
-0.02056 0.0143889 1e-05
-0.02058 0.0143889 1e-05
-0.0206 0.0143889 1e-05
-0.0205 0.0170667 1e-05
-0.02052 0.0170667 1e-05
-0.02054 0.0170667 1e-05
-0.02056 0.0170667 1e-05
-0.02058 0.0170667 1e-05
-0.0206 0.0170667 1e-05
-0.0205 0.0197444 1e-05
-0.02052 0.0197444 1e-05
-0.02054 0.0197444 1e-05
-0.02056 0.0197444 1e-05
-0.02058 0.0197444 1e-05
-0.0206 0.0197444 1e-05
-0.0205 0.0224222 1e-05
-0.02052 0.0224222 1e-05
-0.02054 0.0224222 1e-05
-0.02056 0.0224222 1e-05
-0.02058 0.0224222 1e-05
-0.0206 0.0224222 1e-05
-0.0205 0.0251 1e-05
-0.02052 0.0250998 1e-05
-0.02054 0.0250997 1e-05
-0.02056 0.0250995 1e-05
-0.02058 0.0250995 1e-05
-0.0206 0.0250994 1e-05
-0.0205 0.001 1e-05
-0.0202034 0.00100022 1e-05
-0.0199069 0.00100067 1e-05
-0.0196103 0.00100132 1e-05
-0.0193137 0.00100219 1e-05
-0.0190172 0.00100326 1e-05
-0.0187132 0.00100467 1e-05
-0.0184093 0.00100589 1e-05
-0.0181054 0.0010071 1e-05
-0.0178015 0.00100832 1e-05
-0.0174976 0.00100954 1e-05
-0.0172058 0.00101083 1e-05
-0.016914 0.00101194 1e-05
-0.0166222 0.00101304 1e-05
-0.0163305 0.00101414 1e-05
-0.0160387 0.00101523 1e-05
-0.0157586 0.00101638 1e-05
-0.0154784 0.00101746 1e-05
-0.0151983 0.00101858 1e-05
-0.0149182 0.00101973 1e-05
-0.0146381 0.00102092 1e-05
-0.014376 0.0010221 1e-05
-0.0141139 0.00102328 1e-05
-0.0138518 0.0010245 1e-05
-0.0135897 0.00102574 1e-05
-0.0133684 0.00102682 1e-05
-0.0133534 0.00102689 1e-05
-0.0133384 0.00102697 1e-05
-0.0133234 0.00102704 1e-05
-0.0133084 0.00102712 1e-05
-0.0132934 0.00102719 1e-05
-0.0130353 0.00102848 1e-05
-0.0127771 0.00102979 1e-05
-0.0125189 0.00103111 1e-05
-0.0122607 0.00103245 1e-05
-0.0120025 0.00103381 1e-05
-0.0117547 0.00103512 1e-05
-0.0115068 0.00103644 1e-05
-0.0112589 0.00103777 1e-05
-0.0110111 0.0010391 1e-05
-0.0107632 0.00104043 1e-05
-0.0105252 0.00104172 1e-05
-0.0102873 0.001043 1e-05
-0.0100493 0.00104429 1e-05
-0.00981133 0.00104557 1e-05
-0.00957337 0.00104686 1e-05
-0.00934491 0.00104809 1e-05
-0.00911645 0.00104932 1e-05
-0.00888799 0.00105055 1e-05
-0.00865954 0.00105178 1e-05
-0.00843108 0.001053 1e-05
-0.00821175 0.00105417 1e-05
-0.00799242 0.00105534 1e-05
-0.00777309 0.00105651 1e-05
-0.00755376 0.00105767 1e-05
-0.00733443 0.00105883 1e-05
-0.00712387 0.00105994 1e-05
-0.0069133 0.00106104 1e-05
-0.00670273 0.00106215 1e-05
-0.00649216 0.00106325 1e-05
-0.0062816 0.00106435 1e-05
-0.00607944 0.00106539 1e-05
-0.00587729 0.00106644 1e-05
-0.00567514 0.00106749 1e-05
-0.00547298 0.00106853 1e-05
-0.00527083 0.00106958 1e-05
-0.00507675 0.00107057 1e-05
-0.00488267 0.00107156 1e-05
-0.0046886 0.00107256 1e-05
-0.00449452 0.00107355 1e-05
-0.00430044 0.00107455 1e-05
-0.00411412 0.0010755 1e-05
-0.0039278 0.00107645 1e-05
-0.00374147 0.00107741 1e-05
-0.00355515 0.00107836 1e-05
-0.00336883 0.00107932 1e-05
-0.00318995 0.00108023 1e-05
-0.00301107 0.00108116 1e-05
-0.00283219 0.00108209 1e-05
-0.00265331 0.00108302 1e-05
-0.00247443 0.00108396 1e-05
-0.0023027 0.00108486 1e-05
-0.00213097 0.00108578 1e-05
-0.00195924 0.00108671 1e-05
-0.00178751 0.00108765 1e-05
-0.00161577 0.0010886 1e-05
-0.0014509 0.00108951 1e-05
-0.00128603 0.00109045 1e-05
-0.00112116 0.00109141 1e-05
-0.00095629 0.00109239 1e-05
-0.000791418 0.00109339 1e-05
-0.000633135 0.00109438 1e-05
-0.000474851 0.0010954 1e-05
-0.000316568 0.00109644 1e-05
-0.000158285 0.00109752 1e-05
0 0.00109863 1e-05
0.000105677 0.00109939 1e-05
0.000211355 0.00110015 1e-05
0.000317032 0.00110093 1e-05
0.000422709 0.00110171 1e-05
0.000528387 0.0011025 1e-05
0.000634886 0.00110329 1e-05
0.000741385 0.00110407 1e-05
0.000847885 0.00110485 1e-05
0.000954384 0.00110562 1e-05
0.00106088 0.00110637 1e-05
0.00116821 0.00110713 1e-05
0.00127554 0.00110787 1e-05
0.00138286 0.00110859 1e-05
0.00149019 0.0011093 1e-05
0.00159752 0.00110999 1e-05
0.00170568 0.00111068 1e-05
0.00181384 0.00111135 1e-05
0.001922 0.001112 1e-05
0.00203016 0.00111263 1e-05
0.00213833 0.00111325 1e-05
0.00224733 0.00111385 1e-05
0.00235633 0.00111444 1e-05
0.00246533 0.00111502 1e-05
0.00257434 0.00111558 1e-05
0.00268334 0.00111613 1e-05
0.00279319 0.00111666 1e-05
0.00290304 0.00111718 1e-05
0.00301289 0.00111769 1e-05
0.00312274 0.00111818 1e-05
0.00323259 0.00111866 1e-05
0.00334329 0.00111911 1e-05
0.003454 0.00111957 1e-05
0.0035647 0.00112001 1e-05
0.0036754 0.00112043 1e-05
0.00378611 0.00112084 1e-05
0.00389767 0.00112123 1e-05
0.00400924 0.00112162 1e-05
0.0041208 0.00112199 1e-05
0.00423237 0.00112234 1e-05
0.00434393 0.00112269 1e-05
0.00445636 0.00112301 1e-05
0.00456879 0.00112333 1e-05
0.00468123 0.00112363 1e-05
0.00479366 0.00112392 1e-05
0.00490609 0.0011242 1e-05
0.0050194 0.00112446 1e-05
0.0051327 0.00112471 1e-05
0.00524601 0.00112495 1e-05
0.00535932 0.00112517 1e-05
0.00547262 0.00112538 1e-05
0.00558681 0.00112558 1e-05
0.005701 0.00112577 1e-05
0.00581518 0.00112594 1e-05
0.00592937 0.0011261 1e-05
0.00604356 0.00112625 1e-05
0.00615863 0.00112638 1e-05
0.00627371 0.00112651 1e-05
0.00638878 0.00112662 1e-05
0.00650386 0.00112672 1e-05
0.00661893 0.00112681 1e-05
0.0067349 0.00112688 1e-05
0.00685087 0.00112695 1e-05
0.00696684 0.001127 1e-05
0.00708281 0.00112704 1e-05
0.00719878 0.00112707 1e-05
0.00731565 0.00112709 1e-05
0.00743252 0.00112709 1e-05
0.00754939 0.00112709 1e-05
0.00766626 0.00112707 1e-05
0.00778313 0.00112704 1e-05
0.00790091 0.001127 1e-05
0.00801869 0.00112694 1e-05
0.00813647 0.00112688 1e-05
0.00825425 0.0011268 1e-05
0.00837203 0.00112672 1e-05
0.00843695 0.00112666 1e-05
0.00850186 0.0011266 1e-05
0.00856678 0.00112654 1e-05
0.00863169 0.00112648 1e-05
0.00869416 0.00112641 1e-05
0.00874843 0.00112635 1e-05
0.0088027 0.00112629 1e-05
0.00885697 0.00112623 1e-05
0.00891124 0.00112616 1e-05
0.00896551 0.00112609 1e-05
0.00908513 0.00112593 1e-05
0.00920475 0.00112576 1e-05
0.00932437 0.00112558 1e-05
0.00944398 0.00112539 1e-05
0.0095636 0.00112518 1e-05
0.00968415 0.00112496 1e-05
0.0098047 0.00112473 1e-05
0.00992525 0.00112449 1e-05
0.0100458 0.00112424 1e-05
0.0101663 0.00112398 1e-05
0.0102878 0.00112369 1e-05
0.0104093 0.0011234 1e-05
0.0105308 0.0011231 1e-05
0.0106523 0.00112279 1e-05
0.0107738 0.00112246 1e-05
0.0108962 0.00112212 1e-05
0.0110186 0.00112176 1e-05
0.0111411 0.0011214 1e-05
0.0112635 0.00112102 1e-05
0.0113859 0.00112064 1e-05
0.0115093 0.00112023 1e-05
0.0116327 0.00111981 1e-05
0.0117561 0.00111939 1e-05
0.0118795 0.00111895 1e-05
0.0120028 0.0011185 1e-05
0.0121272 0.00111802 1e-05
0.0122515 0.00111754 1e-05
0.0123759 0.00111705 1e-05
0.0125002 0.00111655 1e-05
0.0126245 0.00111603 1e-05
0.0127498 0.0011155 1e-05
0.0128752 0.00111495 1e-05
0.0130005 0.00111439 1e-05
0.0131258 0.00111382 1e-05
0.0132511 0.00111324 1e-05
0.0133774 0.00111264 1e-05
0.0135036 0.00111203 1e-05
0.0136299 0.0011114 1e-05
0.0137562 0.00111076 1e-05
0.0138825 0.00111011 1e-05
0.0140098 0.00110944 1e-05
0.014137 0.00110876 1e-05
0.0142643 0.00110806 1e-05
0.0143915 0.00110736 1e-05
0.0145188 0.00110663 1e-05
0.0146471 0.0011059 1e-05
0.0147753 0.00110515 1e-05
0.0149036 0.00110438 1e-05
0.0150318 0.0011036 1e-05
0.0151601 0.00110281 1e-05
0.0152893 0.001102 1e-05
0.0154186 0.00110118 1e-05
0.0155478 0.00110034 1e-05
0.0156771 0.00109948 1e-05
0.0158063 0.00109862 1e-05
0.0159366 0.00109774 1e-05
0.0160668 0.00109684 1e-05
0.0161971 0.00109593 1e-05
0.0163273 0.00109499 1e-05
0.0164576 0.00109405 1e-05
0.0165889 0.00109311 1e-05
0.0167201 0.00109213 1e-05
0.0168514 0.00109113 1e-05
0.0169827 0.00109012 1e-05
0.0171139 0.0010891 1e-05
0.0172462 0.00108808 1e-05
0.0173785 0.00108703 1e-05
0.0175108 0.00108595 1e-05
0.0176431 0.00108485 1e-05
0.0177754 0.00108376 1e-05
0.0179087 0.00108265 1e-05
0.018042 0.00108152 1e-05
0.0181753 0.00108035 1e-05
0.0183087 0.00107917 1e-05
0.018442 0.00107799 1e-05
0.0185763 0.00107681 1e-05
0.0187107 0.00107559 1e-05
0.018845 0.00107434 1e-05
0.0189794 0.00107306 1e-05
0.0191137 0.0010718 1e-05
0.0192491 0.00107053 1e-05
0.0193845 0.00106922 1e-05
0.0195199 0.00106787 1e-05
0.0196553 0.00106651 1e-05
0.0197907 0.00106516 1e-05
0.0199272 0.0010638 1e-05
0.0200636 0.0010624 1e-05
0.0202001 0.00106096 1e-05
0.0203365 0.0010595 1e-05
0.020473 0.00105805 1e-05
0.0206105 0.0010566 1e-05
0.020748 0.0010551 1e-05
0.0208855 0.00105357 1e-05
0.021023 0.00105202 1e-05
0.0211606 0.00105047 1e-05
0.0212991 0.00104892 1e-05
0.0214377 0.00104732 1e-05
0.0215763 0.00104569 1e-05
0.0217149 0.00104403 1e-05
0.0218535 0.00104239 1e-05
0.0219931 0.00104073 1e-05
0.0221328 0.00103903 1e-05
0.0222724 0.00103729 1e-05
0.0224121 0.00103553 1e-05
0.0225517 0.00103378 1e-05
0.0226925 0.00103201 1e-05
0.0228332 0.0010302 1e-05
0.022974 0.00102835 1e-05
0.0231147 0.00102648 1e-05
0.0232555 0.00102461 1e-05
0.0233973 0.00102273 1e-05
0.0235391 0.00102081 1e-05
0.023681 0.00101885 1e-05
0.0238228 0.00101686 1e-05
0.0239647 0.00101488 1e-05
0.0241076 0.00101288 1e-05
0.0242505 0.00101084 1e-05
0.0243935 0.00100876 1e-05
0.0245364 0.00100666 1e-05
0.0246794 0.00100456 1e-05
0.0248234 0.00100244 1e-05
0.0249675 0.00100027 1e-05
0.0251115 0.000998073 1e-05
0.0252556 0.000995853 1e-05
[...]
POINT_DATA 12075
 FIELD attributes 2
p 1 12075 float
-5.69637 -5.69305 -5.68974 -5.68642 -5.68311 -5.6798
-5.84934 -5.84932 -5.8493 -5.84927 -5.84925 -5.84923
-6.02473 -6.0246 -6.02448 -6.02436 -6.02424 -6.02413
-6.11971 -6.11966 -6.1196 -6.11955 -6.1195 -6.11944
-6.16653 -6.16642 -6.1663 -6.16619 -6.16608 -6.16596
-6.17464 -6.17448 -6.17432 -6.17416 -6.17399 -6.17383
-6.14904 -6.14897 -6.1489 -6.14883 -6.14875 -6.14868
-6.08044 -6.0804 -6.08036 -6.08032 -6.08028 -6.08024
-5.95973 -5.95974 -5.95975 -5.95975 -5.95976 -5.95977
-3.74733 -3.76667 -3.78587 -3.80494 -3.82387 -3.84267
-5.69637 -5.69564 -5.692 -5.68828 -5.68448 -5.67607 -5.68984 -5.70471 -5.71959 -5.73447 -5.75878 -5.7804 -5.81017 -5.83994 -5.86971 -5.90228 -5.91773 -5.93921 -5.9607 -5.98219 -6.00529 -6.0238 -6.04431 -6.06483 -6.08535 -6.10268 -6.10385 -6.10502 -6.10619 -6.10736 -6.10853 -6.12982 -6.1511 -6.17239 -6.19368 -6.2147 -6.23299 -6.25108 -6.26918 -6.28728 -6.30479 -6.31983 -6.33457 -6.34931 -6.36405 -6.37823 -6.39125 -6.404 -6.41675 -6.4295 -6.44177 -6.45353 -6.46497 -6.47642 -6.48786 -6.49884 -6.50943 -6.51962 -6.52982 -6.54002 -6.54974 -6.55913 -6.56811 -6.57709 -6.58607 -6.59464 -6.60291 -6.61068 -6.61845 -6.62621 -6.6336 -6.64074 -6.64736 -6.65398 -6.6606 -6.66707 -6.67321 -6.67844 -6.68366 -6.68889 -6.69408 -6.69946 -6.70468 -6.70991 -6.71513 -6.72169 -6.72889 -6.73478 -6.74067 -6.74656 -6.75395 -6.7652 -6.78184 -6.79848 -6.81512 -6.83714 -6.86115 -6.89258 -6.92401 -6.95544 -6.98666 -7.01647 -7.04804 -7.07962 -7.1112 -7.13826 -7.15898 -7.17885 -7.19872 -7.21859 -7.23675 -7.2503 -7.26283 -7.27536 -7.28789 -7.30016 -7.3111 -7.32051 -7.32991 -7.33932 -7.34784 -7.35708 -7.36462 -7.37216 -7.3797 -7.38582 -7.39311 -7.3988 -7.40448 -7.41017 -7.41445 -7.41956 -7.42336 -7.42717 -7.43097 -7.43381 -7.43708 -7.43935 -7.44162 -7.44389 -7.44566 -7.44766 -7.44889 -7.45013 -7.45136 -7.45238 -7.4538 -7.45462 -7.45544 -7.45626 -7.45694 -7.45821 -7.459 -7.45978 -7.46057 -7.46119 -7.46234 -7.46309 -7.46384 -7.46459 -7.46516 -7.46607 -7.46669 -7.4673 -7.46792 -7.46842 -7.46923 -7.46988 -7.47053 -7.47119 -7.4718 -7.47239 -7.47294 -7.47348 -7.47403 -7.47455 -7.475 -7.47546 -7.47591 -7.47636 -7.477 -7.47827 -7.47972 -7.48117 -7.48261 -7.48467 -7.48593 -7.48776 -7.48958 -7.4914 -7.49423 -7.49543 -7.49755 -7.49966 -7.50178 -7.50527 -7.50646 -7.50888 -7.5113 -7.51372 -7.51782 -7.51909 -7.52184 -7.52459 -7.52734 -7.53204 -7.53349 -7.53661 -7.53973 -7.54285 -7.54811 -7.54986 -7.55338 -7.55691 -7.56043 -7.56618 -7.56833 -7.57226 -7.57618 -7.58011 -7.58626 -7.58886 -7.59315 -7.59745 -7.60176 -7.60818 -7.61133 -7.61586 -7.62048 -7.62532 -7.6317 -7.63543 -7.6401 -7.64499 -7.65023 -7.65655 -7.66079 -7.66562 -7.67071 -7.67626 -7.68251 -7.68719 -7.6922 -7.69748 -7.70324 -7.70945 -7.71452 -7.71974 -7.7252 -7.73112 -7.73729 -7.74269 -7.74814 -7.75373 -7.75969 -7.76574 -7.77132 -7.77691 -7.78256 -7.78843 -7.79432 -7.79995 -7.80558 -7.81123 -7.81701 -7.82278 -7.82841 -7.83405 -7.83966 -7.84531 -7.85096 -7.85653 -7.8621 -7.86761 -7.87308 -7.87855 -7.88396 -7.88937 -7.89471 -7.89995 -7.90518 -7.91035 -7.91552 -7.92062 -7.9256 -7.93057 -7.93543 -7.94031 -7.94513 -7.9498 -7.95446 -7.95899 -7.96351 -7.96799 -7.97232 -7.97663 -7.98075 -7.98487 -7.98894 -7.99288 -7.99676 -8.00043 -8.00406 -8.00766 -8.01116 -8.01457 -8.01772 -8.02083 -8.02391 -8.02693 -8.02983 -8.03247 -8.03504 -8.0376 -8.04012 -8.04247 -8.04462 -8.04661 -8.04859 -8.05058 -8.05227 -8.0538 -8.05513 -8.05645 -8.05778 -8.05879 -8.05957 -8.06015 -8.06073 -8.06132 -8.06167 -8.0616 -8.06139 -8.06118 -8.06098 -8.06066 -8.05971 -8.05868 -8.05766 -8.05664 -8.05569 -8.05565 -8.05561 -8.05557 -8.05553 -8.05549 -8.05359 -8.0517 -8.0498 -8.04792 -8.04593 -8.04326 -8.04048 -8.0377 -8.03493 -8.03198 -8.02858 -8.02495 -8.02134 -8.01772 -8.01385 -8.00968 -8.00519 -8.0007 -7.99622 -7.99138 -7.98637 -7.98102 -7.97562 -7.97014 -7.9644 -7.95846 -7.9523 -7.94599 -7.93949 -7.93283 -7.92595 -7.91895 -7.91166 -7.90407 -7.89642 -7.8885 -7.88059 -7.87226 -7.86361 -7.85495 -7.84599 -7.83703 -7.82776 -7.81818 -7.80861 -7.79866 -7.78873 -7.77857 -7.76815 -7.75773 -7.74688 -7.73603 -7.72502 -7.71381 -7.70258 -7.69083 -7.67906 -7.66722 -7.6553 -7.64334 -7.63073 -7.61812 -7.60552 -7.59293 -7.58033 -7.56695 -7.55367 -7.54039 -7.52713 -7.51394 -7.49992 -7.48604 -7.47217 -7.45831 -7.44453 -7.43002 -7.41563 -7.40124 -7.38686 -7.37249 -7.37077 -7.36906 -7.36735 -7.36564 -7.36394 -7.35086 -7.3378 -7.32473 -7.31168 -7.29868 -7.28346 -7.26833 -7.25321 -7.23809 -7.22317 -7.20752 -7.19217 -7.17683 -7.16151 -7.14659 -7.13066 -7.11512 -7.09972 -7.0846 -7.0698 -7.05386 -7.03813 -7.02289 -7.00832 -6.99388 -6.97816 -6.96245 -6.94761 -6.93364 -6.91967 -6.9043 -6.88894 -6.87461 -6.86132 -6.84803 -6.83324 -6.81846 -6.80496 -6.79241 -6.77997 -6.76595 -6.75252 -6.73993 -6.72784 -6.71644 -6.70338 -6.69158 -6.68008 -6.66858 -6.65833 -6.64674 -6.63644 -6.62613 -6.61583 -6.60616 -6.59645 -6.58742 -6.57839 -6.56935 -6.56033 -6.56026 -6.5602 -6.56015 -6.56009 -6.56003 -6.55246 -6.54489 -6.53732 -6.52974 -6.52297 -6.51624 -6.51033 -6.50442 -6.4985 -6.49426 -6.48851 -6.48446 -6.48041 -6.47679 -6.47484 -6.47091 -6.46803 -6.46593 -6.46509 -6.4651 -6.46317 -6.46144 -6.46136 -6.46331 -6.46528 -6.46538 -6.46548 -6.46751 -6.47144 -6.47535 -6.47747 -6.47959 -6.4835 -6.48933 -6.49514 -6.49928 -6.50353 -6.50939 -6.51676 -6.52441 -6.53051 -6.53726 -6.54493 -6.5534 -6.56282 -6.57088 -6.57992 -6.58931 -6.59884 -6.60985 -6.61969 -6.63068 -6.64165 -6.65261 -6.66474 -6.6765 -6.6889 -6.70129 -6.71367 -6.72668 -6.74007 -6.75373 -6.76738 -6.78102 -6.79483 -6.80148 -6.80819 -6.8149 -6.82161 -6.82866 -6.83656 -6.84445 -6.85235 -6.86024 -6.86818 -6.88351 -6.89901 -6.91449 -6.92997 -6.94551 -6.96119 -6.97724 -6.99329 -7.00933 -7.02533 -7.04113 -7.05741 -7.07368 -7.08995 -7.10597 -7.12165 -7.13779 -7.15392 -7.17005 -7.18559 -7.20089 -7.21648 -7.23209 -7.24757 -7.26236 -7.27704 -7.29177 -7.30652 -7.32089 -7.33459 -7.3483 -7.36194 -7.37553 -7.38844 -7.4008 -7.41329 -7.42566 -7.43781 -7.44889 -7.45959 -7.47052 -7.48139 -7.49182 -7.50068 -7.50947 -7.51856 -7.52766 -7.53581 -7.54227 -7.54874 -7.55561 -7.56249 -7.56795 -7.57176 -7.57559 -7.57989 -7.5842 -7.58659 -7.58733 -7.58807 -7.58938 -7.59069 -7.5896 -7.58692 -7.58424 -7.58219 -7.57952 -7.57464 -7.56864 -7.56207 -7.55622 -7.54867 -7.53977 -7.53035 -7.51954 -7.50951 -7.49644 -7.48309 -7.46975 -7.45465 -7.43888 -7.4207 -7.40251 -7.38432 -7.36543 -7.35405 -7.34174 -7.32944 -7.31713 -7.30624 -7.2951 -7.28396 -7.27282 -7.26169 -7.24968 -7.222 -7.19357 -7.16514 -7.13672 -7.10538 -7.07366 -7.03931 -7.00497 -6.96945 -6.93091 -6.89324 -6.85463 -6.81401 -6.76955 -6.72451 -6.68036 -6.63621 -6.58825 -6.53646 -6.4846 -6.43364 -6.38164 -6.32595 -6.26872 -6.20978 -6.15174 -6.089 -6.02608 -5.96314 -5.89893 -5.87974 -5.85934 -5.83895 -5.81855 -5.79924 -5.75007 -5.70091 -5.65176 -5.60262 -5.5503 -5.47694 -5.40059 -5.32426 -5.24547 -5.16368 -5.08307 -5.00246 -4.91762 -4.82848 -4.73909 -4.65084 -4.56057 -4.46705 -4.37352 -4.27657 -4.2246 -4.16999 -4.11519 -4.0604 -4.01031 -3.96395 -3.91759 -3.87125 -3.82472 -3.77574 -3.67199 -3.56558 -3.4592 -3.3496 -3.23748 -3.1268 -3.01613 -2.9015 -2.78321 -2.66421 -2.57035 -2.47362 -2.37597 -2.27834 -2.19168 -2.1651 -2.13852 -2.11194 -2.08508 -2.05739 -1.93212 -1.80557 -1.67907 -1.55006 -1.41835 -1.28816 -1.15801 -1.02421 -0.888972 -0.752029 -0.686328 -0.619659 -0.55229 -0.484932 -0.421729 -0.350056 -0.278402 -0.206767 -0.134375 -0.0606294 0.079488 0.219877 0.361848 0.506099 0.651426 0.773969 0.89737 1.02171 1.146 1.25812 1.28217 1.30622 1.33027 1.35451 1.37895 1.52585 1.67321 1.82047 1.96883 2.11872 2.26409 2.40961 2.55545 2.7012 2.8323 2.83857 2.84485 2.85112 2.85742 2.86372 3.01308 3.16238 3.31159 3.46063 3.61099 3.75048 3.88962 4.02808 4.16645 4.29324 4.30533 4.31741 4.32949 4.34153 4.35356 4.50109 4.64844 4.79569 4.94152 5.08848 5.20176 5.31456 5.42597 5.53732 5.64228 5.676 5.7097 5.7434 5.77675 5.81005 5.95258 6.09471 6.23607 6.37521 6.51553 6.592 6.66814 6.74281 6.81745 6.88984 6.95253 7.01521 7.07788 7.13939 7.20079 7.33541 7.46996 7.60211 7.73208 7.86286 7.90117 7.93928 7.97636 8.01343 8.05015 8.1413 8.23243 8.32355 8.41189 8.50012 8.61598 8.73138 8.84276 8.95413 9.06395 9.07312 9.08229 9.09145 9.10031 9.10914 9.22754 9.34541 9.46298 9.57604 9.68905 9.74841 9.80758 9.86432 9.92108 9.97825 10.0311 10.0839 10.1367 10.1875 10.2379 10.3444 10.4509 10.5534 10.6549 10.7552 10.7691 10.783 10.7963 10.8096 10.8229 10.9082 10.9936 11.079 11.1607 11.2415 11.316 11.3901 11.461 11.5319 11.6067 11.6249 11.6431 11.6612 11.6787 11.6959 11.7835 11.8705 11.9563 12.0387 12.1202 12.1664 12.2122 12.2561 12.3001 12.3466 12.3808 12.4149 12.449 12.4819 12.5142 12.5897 12.6652 12.7385 12.8094 12.8794 12.9158 12.9516 12.9862 13.0208 13.0579 13.0902 13.1225 13.1548 13.1861 13.2167 13.281 13.3453 13.4077 13.468 13.5276 13.5728 13.6169 13.6599 13.7028 13.7514 13.7638 13.7762 13.7886 13.8007 13.8125 13.8663 13.9196 13.9728 14.0242 14.0744 14.1238 14.173 14.2201 14.2668 14.3127 14.3372 14.3608 14.3841 14.4075 14.4333 14.4528 14.4723 14.4918 14.5112 14.5298 14.5705 14.6105 14.6506 14.6894 14.7275 14.7644 14.8012 14.8368 14.8715 14.906 14.9393 14.9715 15.0034 15.0353 15.0668 15.0751 15.0831 15.091 15.099 15.1074 15.1286 15.1498 15.1709 15.1921 15.2125 15.2393 15.2658 15.2922 15.3182 15.3436 15.3676 15.3916 15.4152 15.4381 15.4609 15.4824 15.5039 15.5246 15.5452 15.5657 15.5849 15.6037 15.6222 15.6407 15.659 15.676 15.6926 15.7091 15.7256 15.7421 15.7431 15.7442 15.7452 15.7462 15.7472 15.7611 15.7751 15.789 15.8029 15.8166 15.8298 15.8431 15.8564 15.8696 15.8826 15.8942 15.906 15.9178 15.9294 15.941 15.9513 15.9615 15.972 15.9823 15.9925 16.0016 16.0106 16.0197 16.0289 16.038 16.046 16.0539 16.0619 16.07 16.0781 16.0851 16.0922 16.0992 16.1063 16.1135 16.1197 16.126 16.1322 16.1384 16.1449 16.1504 16.156 16.1615 16.1671 16.1729 16.1778 16.1829 16.1879 16.1929 16.1981 16.2027 16.2074 16.2121 16.2167 16.2215 16.2259 16.2304 16.2349 16.2394 16.244 16.247 16.2502 16.2533 16.2564 16.2601 16.2615 16.2628 16.2641 16.2655 16.2668 16.2717 16.2767 16.2816 16.2866 16.2916 16.2973 16.303 16.3088 16.3145 16.3206 16.3274 16.3342 16.3411 16.3479 16.3552 16.3638 16.3726 16.3814 16.3902 16.4006 16.4109 16.419 16.4271 16.4351 16.4434 16.4523 16.462 16.4716 16.4811 16.4932 16.4966 16.4915 16.4862 16.4805 16.4513 16.4139 16.3759 16.3377 16.2971 16.2522 16.2048 16.1599 16.1194 16.0824 16.0464 16.0085 15.9706 15.9331 15.8958 15.8585 15.8189 15.7793 15.7374 15.6933 15.6492 15.6024 15.5556 15.5075 15.4585 15.4094 15.3576 15.3056 15.2529 15.1998 15.1466 15.0905 15.0339 14.9766 14.9189 14.8605 14.7992 14.7367 14.6738 14.6106 14.5462 14.4786 14.4092 14.3398 14.2704 14.1996 14.1247 14.0481 13.9715 13.895 13.8172 13.7339 13.6494 13.5649 13.4804 13.3951 13.3025 13.209 13.1156 13.0221 12.9284 12.8959 12.8632 12.8304 12.7976 12.7627 12.6925 12.6223 12.5522 12.482 12.4112 12.2972 12.1825 12.0678 11.9531 11.8367 11.711 11.5834 11.4557 11.3281 11.1977 11.0587 10.9162 10.7737 10.6312 10.4841 10.33 10.1709 10.0117 9.85253 9.6875 9.51692 9.33799 9.15869 8.9781 8.78989 8.59562 8.39701 8.19703 7.99518 7.78942 7.57695 7.35386 7.12276 6.8821 6.63195 6.37349 6.11809 5.86754 5.6223 5.3797 5.1289 4.86343 4.54313 4.16145 3.76898 3.36268 2.96046 2.6727 2.49816 2.32529 2.1461 1.96705 1.49778 0.748358 0