# vtk DataFile Version 2.0
track0
ASCII
DATASET POLYDATA
POINTS 12075 float
-0.0205 0.001 1e-05
-0.02052 0.000999985 1e-05
-0.02054 0.000999974 1e-05
-0.02056 0.000999965 1e-05
-0.02058 0.000999959 1e-05
-0.0206 0.000999956 1e-05
-0.0205 0.00367778 1e-05
-0.02052 0.00367778 1e-05
-0.02054 0.00367777 1e-05
-0.02056 0.00367777 1e-05
-0.02058 0.00367777 1e-05
-0.0206 0.00367777 1e-05
-0.0205 0.00635556 1e-05
-0.02052 0.00635555 1e-05
-0.02054 0.00635555 1e-05
-0.02056 0.00635555 1e-05
-0.02058 0.00635555 1e-05
-0.0206 0.00635555 1e-05
-0.0205 0.00903333 1e-05
-0.02052 0.00903333 1e-05
-0.02054 0.00903333 1e-05
-0.02056 0.00903333 1e-05
-0.02058 0.00903333 1e-05
-0.0206 0.00903333 1e-05
-0.0205 0.0117111 1e-05
-0.02052 0.0117111 1e-05
-0.02054 0.0117111 1e-05
-0.02056 0.0117111 1e-05
-0.02058 0.0117111 1e-05
-0.0206 0.0117111 1e-05
-0.0205 0.0143889 1e-05
-0.02052 0.0143889 1e-05
-0.02054 0.0143889 1e-05
-0.02056 0.0143889 1e-05
-0.02058 0.0143889 1e-05
-0.0206 0.0143889 1e-05
-0.0205 0.0170667 1e-05
-0.02052 0.0170667 1e-05
-0.02054 0.0170667 1e-05
-0.02056 0.0170667 1e-05
-0.02058 0.0170667 1e-05
-0.0206 0.0170667 1e-05
-0.0205 0.0197444 1e-05
-0.02052 0.0197444 1e-05
-0.02054 0.0197444 1e-05
-0.02056 0.0197444 1e-05
-0.02058 0.0197444 1e-05
-0.0206 0.0197444 1e-05
-0.0205 0.0224222 1e-05
-0.02052 0.0224222 1e-05
-0.02054 0.0224222 1e-05
-0.02056 0.0224222 1e-05
-0.02058 0.0224222 1e-05
-0.0206 0.0224222 1e-05
-0.0205 0.0251 1e-05
-0.02052 0.0250998 1e-05
-0.02054 0.0250997 1e-05
-0.02056 0.0250995 1e-05
-0.02058 0.0250995 1e-05
-0.0206 0.0250994 1e-05
-0.0205 0.001 1e-05
-0.0202034 0.00100022 1e-05
-0.0199069 0.00100067 1e-05
-0.0196103 0.00100132 1e-05
-0.0193137 0.00100219 1e-05
-0.0190172 0.00100326 1e-05
-0.0187132 0.00100467 1e-05
-0.0184093 0.00100589 1e-05
-0.0181054 0.0010071 1e-05
-0.0178015 0.00100832 1e-05
-0.0174976 0.00100954 1e-05
-0.0172058 0.00101083 1e-05
-0.016914 0.00101194 1e-05
-0.0166222 0.00101304 1e-05
-0.0163305 0.00101414 1e-05
-0.0160387 0.00101523 1e-05
-0.0157586 0.00101638 1e-05
-0.0154784 0.00101746 1e-05
-0.0151983 0.00101858 1e-05
-0.0149182 0.00101973 1e-05
-0.0146381 0.00102092 1e-05
-0.014376 0.0010221 1e-05
-0.0141139 0.00102328 1e-05
-0.0138518 0.0010245 1e-05
-0.0135897 0.00102574 1e-05
-0.0133684 0.00102682 1e-05
-0.0133534 0.00102689 1e-05
-0.0133384 0.00102697 1e-05
-0.0133234 0.00102704 1e-05
-0.0133084 0.00102712 1e-05
-0.0132934 0.00102719 1e-05
-0.0130353 0.00102848 1e-05
-0.0127771 0.00102979 1e-05
-0.0125189 0.00103111 1e-05
-0.0122607 0.00103245 1e-05
-0.0120025 0.00103381 1e-05
-0.0117547 0.00103512 1e-05
-0.0115068 0.00103644 1e-05
-0.0112589 0.00103777 1e-05
-0.0110111 0.0010391 1e-05
-0.0107632 0.00104043 1e-05
-0.0105252 0.00104172 1e-05
-0.0102873 0.001043 1e-05
-0.0100493 0.00104429 1e-05
-0.00981133 0.00104557 1e-05
-0.00957337 0.00104686 1e-05
-0.00934491 0.00104809 1e-05
-0.00911645 0.00104932 1e-05
-0.00888799 0.00105055 1e-05
-0.00865954 0.00105178 1e-05
-0.00843108 0.001053 1e-05
-0.00821175 0.00105417 1e-05
-0.00799242 0.00105534 1e-05
-0.00777309 0.00105651 1e-05
-0.00755376 0.00105767 1e-05
-0.00733443 0.00105883 1e-05
-0.00712387 0.00105994 1e-05
-0.0069133 0.00106104 1e-05
-0.00670273 0.00106215 1e-05
-0.00649216 0.00106325 1e-05
-0.0062816 0.00106435 1e-05
-0.00607944 0.00106539 1e-05
-0.00587729 0.00106644 1e-05
-0.00567514 0.00106749 1e-05
-0.00547298 0.00106853 1e-05
-0.00527083 0.00106958 1e-05
-0.00507675 0.00107057 1e-05
-0.00488267 0.00107156 1e-05
-0.0046886 0.00107256 1e-05
-0.00449452 0.00107355 1e-05
-0.00430044 0.00107455 1e-05
-0.00411412 0.0010755 1e-05
-0.0039278 0.00107645 1e-05
-0.00374147 0.00107741 1e-05
-0.00355515 0.00107836 1e-05
-0.00336883 0.00107932 1e-05
-0.00318995 0.00108023 1e-05
-0.00301107 0.00108116 1e-05
-0.00283219 0.00108209 1e-05
-0.00265331 0.00108302 1e-05
-0.00247443 0.00108396 1e-05
-0.0023027 0.00108486 1e-05
-0.00213097 0.00108578 1e-05
-0.00195924 0.00108671 1e-05
-0.00178751 0.00108765 1e-05
-0.00161577 0.0010886 1e-05
-0.0014509 0.00108951 1e-05
-0.00128603 0.00109045 1e-05
-0.00112116 0.00109141 1e-05
-0.00095629 0.00109239 1e-05
-0.000791418 0.00109339 1e-05
-0.000633135 0.00109438 1e-05
-0.000474851 0.0010954 1e-05
-0.000316568 0.00109644 1e-05
-0.000158285 0.00109752 1e-05
0 0.00109863 1e-05
0.000105677 0.00109939 1e-05
0.000211355 0.00110015 1e-05
0.000317032 0.00110093 1e-05
0.000422709 0.00110171 1e-05
0.000528387 0.0011025 1e-05
0.000634886 0.00110329 1e-05
0.000741385 0.00110407 1e-05
0.000847885 0.00110485 1e-05
0.000954384 0.00110562 1e-05
0.00106088 0.00110637 1e-05
0.00116821 0.00110713 1e-05
0.00127554 0.00110787 1e-05
0.00138286 0.00110859 1e-05
0.00149019 0.0011093 1e-05
0.00159752 0.00110999 1e-05
0.00170568 0.00111068 1e-05
0.00181384 0.00111135 1e-05
0.001922 0.001112 1e-05
0.00203016 0.00111263 1e-05
0.00213833 0.00111325 1e-05
0.00224733 0.00111385 1e-05
0.00235633 0.00111444 1e-05
0.00246533 0.00111502 1e-05
0.00257434 0.00111558 1e-05
0.00268334 0.00111613 1e-05
0.00279319 0.00111666 1e-05
0.00290304 0.00111718 1e-05
0.00301289 0.00111769 1e-05
0.00312274 0.00111818 1e-05
0.00323259 0.00111866 1e-05
0.00334329 0.00111911 1e-05
0.003454 0.00111957 1e-05
0.0035647 0.00112001 1e-05
0.0036754 0.00112043 1e-05
0.00378611 0.00112084 1e-05
0.00389767 0.00112123 1e-05
0.00400924 0.00112162 1e-05
0.0041208 0.00112199 1e-05
0.00423237 0.00112234 1e-05
0.00434393 0.00112269 1e-05
0.00445636 0.00112301 1e-05
0.00456879 0.00112333 1e-05
0.00468123 0.00112363 1e-05
0.00479366 0.00112392 1e-05
0.00490609 0.0011242 1e-05
0.0050194 0.00112446 1e-05
0.0051327 0.00112471 1e-05
0.00524601 0.00112495 1e-05
0.00535932 0.00112517 1e-05
0.00547262 0.00112538 1e-05
0.00558681 0.00112558 1e-05
0.005701 0.00112577 1e-05
0.00581518 0.00112594 1e-05
0.00592937 0.0011261 1e-05
0.00604356 0.00112625 1e-05
0.00615863 0.00112638 1e-05
0.00627371 0.00112651 1e-05
0.00638878 0.00112662 1e-05
0.00650386 0.00112672 1e-05
0.00661893 0.00112681 1e-05
0.0067349 0.00112688 1e-05
0.00685087 0.00112695 1e-05
0.00696684 0.001127 1e-05
0.00708281 0.00112704 1e-05
0.00719878 0.00112707 1e-05
0.00731565 0.00112709 1e-05
0.00743252 0.00112709 1e-05
0.00754939 0.00112709 1e-05
0.00766626 0.00112707 1e-05
0.00778313 0.00112704 1e-05
0.00790091 0.001127 1e-05
0.00801869 0.00112694 1e-05
0.00813647 0.00112688 1e-05
0.00825425 0.0011268 1e-05
0.00837203 0.00112672 1e-05
0.00843695 0.00112666 1e-05
0.00850186 0.0011266 1e-05
0.00856678 0.00112654 1e-05
0.00863169 0.00112648 1e-05
0.00869416 0.00112641 1e-05
0.00874843 0.00112635 1e-05
0.0088027 0.00112629 1e-05
0.00885697 0.00112623 1e-05
0.00891124 0.00112616 1e-05
0.00896551 0.00112609 1e-05
0.00908513 0.00112593 1e-05
0.00920475 0.00112576 1e-05
0.00932437 0.00112558 1e-05
0.00944398 0.00112539 1e-05
0.0095636 0.00112518 1e-05
0.00968415 0.00112496 1e-05
0.0098047 0.00112473 1e-05
0.00992525 0.00112449 1e-05
0.0100458 0.00112424 1e-05
0.0101663 0.00112398 1e-05
0.0102878 0.00112369 1e-05
0.0104093 0.0011234 1e-05
0.0105308 0.0011231 1e-05
0.0106523 0.00112279 1e-05
0.0107738 0.00112246 1e-05
0.0108962 0.00112212 1e-05
0.0110186 0.00112176 1e-05
0.0111411 0.0011214 1e-05
0.0112635 0.00112102 1e-05
0.0113859 0.00112064 1e-05
0.0115093 0.00112023 1e-05
0.0116327 0.00111981 1e-05
0.0117561 0.00111939 1e-05
0.0118795 0.00111895 1e-05
0.0120028 0.0011185 1e-05
0.0121272 0.00111802 1e-05
0.0122515 0.00111754 1e-05
0.0123759 0.00111705 1e-05
0.0125002 0.00111655 1e-05
0.0126245 0.00111603 1e-05
0.0127498 0.0011155 1e-05
0.0128752 0.00111495 1e-05
0.0130005 0.00111439 1e-05
0.0131258 0.00111382 1e-05
0.0132511 0.00111324 1e-05
0.0133774 0.00111264 1e-05
0.0135036 0.00111203 1e-05
0.0136299 0.0011114 1e-05
0.0137562 0.00111076 1e-05
0.0138825 0.00111011 1e-05
0.0140098 0.00110944 1e-05
0.014137 0.00110876 1e-05
0.0142643 0.00110806 1e-05
0.0143915 0.00110736 1e-05
0.0145188 0.00110663 1e-05
0.0146471 0.0011059 1e-05
0.0147753 0.00110515 1e-05
0.0149036 0.00110438 1e-05
0.0150318 0.0011036 1e-05
0.0151601 0.00110281 1e-05
0.0152893 0.001102 1e-05
0.0154186 0.00110118 1e-05
0.0155478 0.00110034 1e-05
0.0156771 0.00109948 1e-05
0.0158063 0.00109862 1e-05
0.0159366 0.00109774 1e-05
0.0160668 0.00109684 1e-05
0.0161971 0.00109593 1e-05
0.0163273 0.00109499 1e-05
0.0164576 0.00109405 1e-05
0.0165889 0.00109311 1e-05
0.0167201 0.00109213 1e-05
0.0168514 0.00109113 1e-05
0.0169827 0.00109012 1e-05
0.0171139 0.0010891 1e-05
0.0172462 0.00108808 1e-05
0.0173785 0.00108703 1e-05
0.0175108 0.00108595 1e-05
0.0176431 0.00108485 1e-05
0.0177754 0.00108376 1e-05
0.0179087 0.00108265 1e-05
0.018042 0.00108152 1e-05
0.0181753 0.00108035 1e-05
0.0183087 0.00107917 1e-05
0.018442 0.00107799 1e-05
0.0185763 0.00107681 1e-05
0.0187107 0.00107559 1e-05
0.018845 0.00107434 1e-05
0.0189794 0.00107306 1e-05
0.0191137 0.0010718 1e-05
0.0192491 0.00107053 1e-05
0.0193845 0.00106922 1e-05
0.0195199 0.00106787 1e-05
0.0196553 0.00106651 1e-05
0.0197907 0.00106516 1e-05
0.0199272 0.0010638 1e-05
0.0200636 0.0010624 1e-05
0.0202001 0.00106096 1e-05
0.0203365 0.0010595 1e-05
0.020473 0.00105805 1e-05
0.0206105 0.0010566 1e-05
0.020748 0.0010551 1e-05
0.0208855 0.00105357 1e-05
0.021023 0.00105202 1e-05
0.0211606 0.00105047 1e-05
0.0212991 0.00104892 1e-05
0.0214377 0.00104732 1e-05
0.0215763 0.00104569 1e-05
0.0217149 0.00104403 1e-05
0.0218535 0.00104239 1e-05
0.0219931 0.00104073 1e-05
0.0221328 0.00103903 1e-05
0.0222724 0.00103729 1e-05
0.0224121 0.00103553 1e-05
0.0225517 0.00103378 1e-05
0.0226925 0.00103201 1e-05
0.0228332 0.0010302 1e-05
0.022974 0.00102835 1e-05
0.0231147 0.00102648 1e-05
0.0232555 0.00102461 1e-05
0.0233973 0.00102273 1e-05
0.0235391 0.00102081 1e-05
0.023681 0.00101885 1e-05
0.0238228 0.00101686 1e-05
0.0239647 0.00101488 1e-05
0.0241076 0.00101288 1e-05
0.0242505 0.00101084 1e-05
0.0243935 0.00100876 1e-05
0.0245364 0.00100666 1e-05
0.0246794 0.00100456 1e-05
0.0248234 0.00100244 1e-05
0.0249675 0.00100027 1e-05
0.0251115 0.000998073 1e-05
0.0252556 0.000995853 1e-05
[...]
POINT_DATA 12075
 FIELD attributes 1
U 3 12075 float
10.0004 	0.00731912 	0 10.0004 	0.00585529 	0 10.0003 	0.00439147 	0 10.0002 	0.00292765 	0 10.0001 	0.00146382 	0 10 	0 	0
10.0001 	0.000883827 	0 10 	0.000707061 	0 10 	0.000530296 	0 10 	0.000353531 	0 10 	0.000176765 	0 10 	0 	0
10.0001 	0.000472153 	0 10.0001 	0.000377543 	0 10.0001 	0.000282932 	0 10 	0.000188322 	0 10 	9.3711e-05 	0 10 	0 	0
10 	0.000274867 	0 10 	0.000219894 	0 10 	0.00016492 	0 10 	0.000109947 	0 10 	5.49734e-05 	0 10 	0 	0
10 	8.90257e-05 	0 10 	7.12205e-05 	0 10 	5.34154e-05 	0 10 	3.56103e-05 	0 10 	1.78051e-05 	0 10 	0 	0
10 	-1.85132e-05 	0 10 	-1.48106e-05 	0 10 	-1.11079e-05 	0 10 	-7.40529e-06 	0 10 	-3.70264e-06 	0 10 	0 	0
10 	-0.000210732 	0 10 	-0.000168586 	0 10 	-0.000126439 	0 10 	-8.42929e-05 	0 10 	-4.21465e-05 	0 10 	0 	0
10 	-0.000374275 	0 10 	-0.00029942 	0 10 	-0.000224565 	0 10 	-0.00014971 	0 10 	-7.48549e-05 	0 10 	0 	0
9.99999 	-0.000425436 	0 9.99999 	-0.000340349 	0 9.99999 	-0.000255261 	0 10 	-0.000170174 	0 10 	-8.50871e-05 	0 10 	0 	0
9.17387 	0.0870994 	0 9.1308 	0.0696795 	0 9.08741 	0.0522594 	0 9.04368 	0.034839 	0 8.99962 	0.0174185 	0 8.95524 	0 	0
10.0004 	0.00731912 	0 10.0024 	0.0151722 	0 10.0045 	0.0221939 	0 10.0065 	0.0291713 	0 10.0085 	0.0361048 	0 10.0135 	0.0463224 	0 10.0163 	0.040225 	0 10.0207 	0.0401871 	0 10.0251 	0.0401493 	0 10.0296 	0.0401118 	0 10.0355 	0.0445751 	0 10.0384 	0.0379411 	0 10.0424 	0.0379021 	0 10.0463 	0.037863 	0 10.0503 	0.0378239 	0 10.0544 	0.0409272 	0 10.0566 	0.0388587 	0 10.059 	0.0401746 	0 10.0614 	0.0414922 	0 10.0638 	0.0428114 	0 10.066 	0.0452724 	0 10.0675 	0.0453894 	0 10.0688 	0.0465938 	0 10.0701 	0.0477994 	0 10.0714 	0.0490062 	0 10.0725 	0.0500258 	0 10.0725 	0.0500954 	0 10.0726 	0.050165 	0 10.0727 	0.0502346 	0 10.0728 	0.0503042 	0 10.0729 	0.0503634 	0 10.0733 	0.0510022 	0 10.0738 	0.0516343 	0 10.0743 	0.0522669 	0 10.0748 	0.0529001 	0 10.0753 	0.0533683 	0 10.0751 	0.05368 	0 10.0747 	0.0538856 	0 10.0743 	0.0540913 	0 10.0739 	0.0542971 	0 10.0734 	0.0542639 	0 10.0729 	0.0544307 	0 10.0717 	0.0544284 	0 10.0706 	0.0544261 	0 10.0694 	0.0544237 	0 10.0678 	0.0541524 	0 10.0674 	0.054263 	0 10.0657 	0.054159 	0 10.064 	0.054055 	0 10.0623 	0.0539509 	0 10.0597 	0.0535618 	0 10.0596 	0.0536586 	0 10.0575 	0.0535062 	0 10.0554 	0.0533538 	0 10.0532 	0.0532013 	0 10.0496 	0.0527531 	0 10.0501 	0.0528681 	0 10.0477 	0.0527092 	0 10.0452 	0.0525504 	0 10.0428 	0.0523915 	0 10.038 	0.0519321 	0 10.0394 	0.0520968 	0 10.0367 	0.0519639 	0 10.034 	0.0518311 	0 10.0313 	0.0516981 	0 10.0254 	0.0512563 	0 10.0277 	0.0514968 	0 10.0249 	0.0514316 	0 10.022 	0.0513664 	0 10.0191 	0.0513011 	0 10.012 	0.0509313 	0 10.0154 	0.0512931 	0 10.0124 	0.0513279 	0 10.0094 	0.0513628 	0 10.0064 	0.0513976 	0 9.99794 	0.051119 	0 10.0026 	0.0516614 	0 9.99955 	0.0519456 	0 9.99649 	0.0522298 	0 9.99343 	0.0525142 	0 9.98375 	0.0525395 	0 9.98984 	0.0534328 	0 9.98676 	0.0539894 	0 9.98368 	0.0545462 	0 9.98061 	0.0551031 	0 9.96962 	0.0553037 	0 9.97733 	0.056576 	0 9.97461 	0.0579755 	0 9.9719 	0.0593751 	0 9.96921 	0.0607749 	0 9.95737 	0.0619872 	0 9.96739 	0.0641156 	8.62496e-22 9.96633 	0.0660398 	6.96768e-21 9.96527 	0.0679643 	1.30704e-20 9.96423 	0.0698891 	1.91708e-20 9.95281 	0.0709356 	1.57115e-20 9.96517 	0.0723365 	1.19011e-19 9.96512 	0.0729533 	1.1121e-19 9.96507 	0.0735703 	1.03419e-19 9.96502 	0.0741872 	9.5636e-20 9.95356 	0.0738008 	-1.93113e-20 9.9665 	0.0735126 	-5.29103e-20 9.96647 	0.0726838 	-5.86311e-20 9.96644 	0.0718549 	-6.43466e-20 9.9664 	0.0710261 	-7.00567e-20 9.95449 	0.0699129 	-2.47881e-20 9.96701 	0.0688803 	-2.21275e-20 9.966 	0.0673308 	-1.51645e-20 9.96498 	0.0657812 	-8.20294e-21 9.96396 	0.0642315 	-1.24282e-21 9.95102 	0.0626669 	9.87285e-21 9.96305 	0.0617016 	-4.33154e-21 9.96108 	0.0600563 	-2.6844e-20 9.9591 	0.0584109 	-4.93615e-20 9.95711 	0.0567652 	-7.1884e-20 9.94314 	0.0548915 	-1.05479e-19 9.95483 	0.054212 	-1.61213e-19 9.95207 	0.0527293 	-1.46414e-19 9.9493 	0.0512462 	-1.31598e-19 9.94652 	0.0497627 	-1.16765e-19 9.93162 	0.0477577 	-3.51021e-20 9.94299 	0.0472407 	5.76147e-20 9.93948 	0.0458744 	7.41551e-20 9.93597 	0.0445077 	9.06747e-20 9.93245 	0.0431405 	1.07173e-19 9.91669 	0.0411089 	4.3731e-20 9.92767 	0.0406196 	-8.38085e-20 9.92342 	0.0393063 	-9.14056e-20 9.91915 	0.0379926 	-9.89702e-20 9.91488 	0.0366784 	-1.06502e-19 9.89832 	0.0347013 	-2.58745e-22 9.90877 	0.0342146 	1.01899e-19 9.90375 	0.0329381 	9.07801e-20 9.89871 	0.0316611 	7.96296e-20 9.89366 	0.0303836 	6.84473e-20 9.87639 	0.0284868 	-2.98096e-20 9.88612 	0.0279972 	-1.1206e-19 9.88032 	0.0267466 	-1.39082e-19 9.87451 	0.0254954 	-1.66092e-19 9.86869 	0.0242436 	-1.93091e-19 9.85087 	0.022425 	-1.56188e-19 9.85961 	0.0219585 	-1.98248e-19 9.85307 	0.0207547 	-1.83186e-19 9.84651 	0.0195503 	-1.68114e-19 9.83995 	0.0183454 	-1.53032e-19 9.82187 	0.0166132 	-9.36098e-20 9.82924 	0.0161897 	-8.12443e-20 9.82201 	0.0150515 	-5.88555e-20 9.81476 	0.0139127 	-3.64703e-20 9.80751 	0.0127733 	-1.40887e-20 9.78958 	0.0111361 	4.56817e-21 9.79512 	0.0107352 	0 9.78725 	0.00965855 	0 9.77937 	0.00858128 	0 9.77148 	0.00750335 	0 9.75422 	0.00596975 	0 9.75737 	0.00554602 	-1.63421e-20 9.74891 	0.00451852 	-3.92182e-20 9.74043 	0.00349031 	-6.20976e-20 9.73194 	0.00246138 	-8.49803e-20 9.71594 	0.00105101 	-1.10979e-19 9.7161 	0.000553687 	-1.28011e-19 9.70709 	-0.000433251 	-1.28616e-19 9.69805 	-0.00142096 	-1.29211e-19 9.689 	-0.00240943 	-1.29797e-19 9.67491 	-0.00366357 	-1.19666e-19 9.67145 	-0.00428116 	-6.94359e-20 9.66192 	-0.00522987 	-3.44281e-20 9.65238 	-0.0061794 	5.62042e-22 9.64282 	-0.00712975 	3.55346e-20 9.63129 	-0.00818628 	6.40127e-20 9.62814 	-0.00855889 	6.8662e-20 9.62268 	-0.00905995 	6.8704e-20 9.61721 	-0.00956126 	6.87425e-20 9.61174 	-0.0100628 	6.87773e-20 9.60647 	-0.0105457 	6.88074e-20 9.60183 	-0.0109687 	6.93092e-20 9.59719 	-0.0113919 	6.98101e-20 9.59254 	-0.0118153 	7.03102e-20 9.58789 	-0.0122389 	7.08095e-20 9.58024 	-0.0127828 	7.18667e-20 9.5724 	-0.0135807 	5.70929e-20 9.56186 	-0.0144817 	4.2317e-20 9.55131 	-0.0153837 	2.75391e-20 9.54073 	-0.0162867 	1.2759e-20 9.52109 	-0.0175124 	-6.04898e-22 9.51829 	-0.0181214 	-1.20402e-20 9.50738 	-0.019005 	-2.60693e-20 9.49645 	-0.0198897 	-4.00964e-20 9.4855 	-0.0207754 	-5.41215e-20 9.46023 	-0.0221025 	-6.81571e-20 9.4618 	-0.0225996 	-7.09789e-20 9.45055 	-0.0234714 	-7.93942e-20 9.43929 	-0.0243443 	-8.78041e-20 9.42801 	-0.0252182 	-9.62086e-20 9.39801 	-0.0265695 	-1.14609e-19 9.40325 	-0.0270349 	-1.5889e-19 9.39172 	-0.0278995 	-1.47681e-19 9.38017 	-0.0287653 	-1.36494e-19 9.3686 	-0.0296322 	-1.25329e-19 9.3348 	-0.0309303 	-4.76151e-20 9.34302 	-0.0314376 	-3.17436e-20 9.33124 	-0.0322975 	-2.25536e-20 9.31944 	-0.0331586 	-1.33624e-20 9.30762 	-0.0340209 	-4.16983e-21 9.27091 	-0.0351926 	0 9.28144 	-0.0358079 	0 9.26945 	-0.0366654 	0 9.25744 	-0.0375241 	0 9.2454 	-0.038384 	0 9.20662 	-0.0393659 	0 9.21884 	-0.040146 	2.65133e-21 9.20667 	-0.0410048 	1.10907e-20 9.19448 	-0.0418648 	1.95288e-20 9.18226 	-0.042726 	2.79656e-20 9.14216 	-0.0434689 	4.78515e-20 9.15554 	-0.044463 	1.75975e-19 9.14323 	-0.0453258 	1.79917e-19 9.13089 	-0.04619 	1.83884e-19 9.11852 	-0.0470554 	1.87876e-19 9.07776 	-0.0475169 	4.81864e-20 9.09184 	-0.0487589 	2.62611e-20 9.07941 	-0.0496304 	1.84184e-20 9.06695 	-0.0505032 	1.05741e-20 9.0543 	-0.0513734 	2.86194e-21 9.01359 	-0.0515354 	1.88979e-20 9.02658 	-0.0530268 	1.22296e-19 9.01547 	-0.0539439 	1.30045e-19 9.00292 	-0.0548286 	1.32192e-19 8.98717 	-0.0555943 	1.19357e-19 8.94984 	-0.0555424 	4.52027e-21 8.96003 	-0.0572146 	-1.17266e-19 8.95167 	-0.0582566 	-1.49596e-19 8.93904 	-0.0591555 	-1.61481e-19 8.92091 	-0.0597716 	-1.50113e-19 8.88663 	-0.0595541 	-7.03954e-20 8.89433 	-0.0613874 	-2.08716e-19 8.88819 	-0.0626018 	-2.55496e-19 8.87552 	-0.0635246 	-2.59105e-19 8.85562 	-0.0639642 	-2.04121e-19 8.82411 	-0.0636236 	-5.46908e-20 8.8296 	-0.0656067 	-2.8746e-20 8.82525 	-0.067028 	-1.23436e-20 8.81256 	-0.0679728 	-4.03066e-21 8.79142 	-0.0681968 	0 8.76237 	-0.0677416 	0 8.76593 	-0.0698137 	0 8.76298 	-0.0714459 	0 8.75026 	-0.0724133 	0 8.72834 	-0.0724241 	2.49882e-21 8.70148 	-0.0719208 	6.33881e-21 8.70334 	-0.0740967 	2.71122e-21 8.70148 	-0.0759765 	0 8.68877 	-0.0769741 	0 8.66644 	-0.0767505 	3.03726e-21 8.64155 	-0.0762014 	6.8834e-21 8.64195 	-0.0784567 	3.25665e-21 8.64096 	-0.0805888 	7.51614e-22 8.62827 	-0.0816127 	8.1412e-21 8.6058 	-0.0811451 	2.86518e-20 8.58263 	-0.0805684 	5.01183e-20 8.58177 	-0.0828848 	1.97048e-19 8.58083 	-0.0852037 	3.43981e-19 8.56809 	-0.0861964 	3.4464e-19 8.54641 	-0.0856179 	1.97801e-19 8.52474 	-0.085039 	5.09581e-20 8.52281 	-0.0874117 	2.98932e-20 8.5208 	-0.089787 	8.83117e-21 8.50867 	-0.0907666 	8.38181e-22 8.48828 	-0.0901925 	4.51912e-21 8.4679 	-0.089618 	8.19992e-21 8.46504 	-0.0920093 	4.74931e-21 8.46209 	-0.094403 	1.30031e-21 8.45059 	-0.0953729 	-1.4481e-22 8.43134 	-0.0948441 	-4.44227e-21 8.4121 	-0.094315 	-8.73889e-21 8.40843 	-0.0967245 	-5.95168e-20 8.40467 	-0.0991365 	-1.10302e-19 8.39382 	-0.100107 	-1.12971e-19 8.37556 	-0.0996401 	-6.66678e-20 8.35732 	-0.0991732 	-2.03621e-20 8.35292 	-0.101599 	9.41652e-20 8.34845 	-0.104027 	2.08682e-19 8.33824 	-0.105 	2.20155e-19 8.32087 	-0.104596 	1.24365e-19 8.30349 	-0.104191 	2.85721e-20 8.29847 	-0.106615 	1.50689e-20 8.29335 	-0.109041 	1.55941e-21 8.2838 	-0.110013 	-4.78249e-21 8.26718 	-0.109676 	7.22181e-22 8.25057 	-0.109339 	6.22745e-21 8.24497 	-0.111749 	-6.78741e-22 8.23915 	-0.114106 	-7.84426e-21 8.22985 	-0.11504 	-2.13643e-20 8.21444 	-0.114874 	-7.54108e-20 8.1985 	-0.114614 	-1.32955e-19 8.19238 	-0.117012 	-2.82775e-19 8.18554 	-0.119105 	-3.95146e-19 8.17629 	-0.120069 	-3.69117e-19 8.16257 	-0.120183 	-2.363e-19 8.14722 	-0.119985 	-6.43622e-20 8.14062 	-0.122326 	7.83575e-20 8.13297 	-0.124147 	1.63736e-19 8.12376 	-0.12516 	1.60298e-19 8.11151 	-0.125598 	1.03492e-19 8.09667 	-0.125541 	7.75126e-22 8.08962 	-0.127925 	-1.00754e-19 8.08131 	-0.12956 	-1.49309e-19 8.07207 	-0.130645 	-1.58921e-19 8.06109 	-0.131376 	-1.35546e-19 8.0467 	-0.131407 	-4.73362e-20 8.03929 	-0.133843 	-3.50304e-20 8.03045 	-0.135278 	-2.28053e-20 8.02115 	-0.136406 	-1.06071e-20 8.01119 	-0.137395 	3.0336e-21 7.99713 	-0.137454 	2.63261e-20 7.9893 	-0.139857 	1.03045e-21 7.98005 	-0.141059 	-6.2352e-21 7.9707 	-0.142212 	-1.27367e-20 7.96131 	-0.143364 	-1.92399e-20 7.94795 	-0.143575 	-4.27049e-21 7.93963 	-0.14578 	-2.18625e-20 7.93028 	-0.146968 	-2.89448e-20 7.92089 	-0.148156 	-3.60323e-20 7.91145 	-0.149345 	-4.31248e-20 7.89919 	-0.149842 	-6.20558e-20 7.89045 	-0.151822 	1.55907e-20 7.88103 	-0.153057 	1.6824e-20 7.87156 	-0.154294 	1.80243e-20 7.86205 	-0.155531 	1.91913e-20 7.85072 	-0.156317 	-2.87735e-20 7.8416 	-0.158082 	1.56381e-20 7.83209 	-0.159357 	1.74116e-20 7.82252 	-0.160634 	1.91547e-20 7.81291 	-0.161911 	2.08672e-20 7.80242 	-0.162965 	2.43612e-21 7.79325 	-0.164468 	-1.88709e-22 7.78388 	-0.165735 	-1.43206e-22 7.77447 	-0.167002 	-9.77179e-23 7.76501 	-0.168269 	-5.22439e-23 7.75615 	-0.169452 	-9.8739e-24 7.75575 	-0.169504 	-7.802e-24 7.75534 	-0.169557 	-5.73008e-24 7.75493 	-0.16961 	-3.65814e-24 7.75452 	-0.169663 	-1.58616e-24 7.75416 	-0.169706 	0 7.74412 	-0.171053 	0 7.73405 	-0.172392 	0 7.72392 	-0.173731 	0 7.71374 	-0.175072 	0 7.7047 	-0.17617 	0 7.6941 	-0.177789 	0 7.68382 	-0.179169 	0 7.67349 	-0.180549 	0 7.6631 	-0.181931 	0 7.65497 	-0.182836 	0 7.64381 	-0.184714 	0 7.63332 	-0.186118 	0 7.62277 	-0.187523 	0 7.61216 	-0.188929 	0 7.60489 	-0.189629 	0 7.59317 	-0.191744 	0 7.58245 	-0.193161 	0 7.57168 	-0.19458 	0 7.56086 	-0.195999 	0 7.55442 	-0.196503 	0 7.54225 	-0.198768 	0 7.53114 	-0.200292 	0 7.52011 	-0.201724 	0 7.51017 	-0.202924 	0 7.50339 	-0.203463 	0 7.49098 	-0.205724 	0 7.47923 	-0.207499 	-5.63694e-21 7.46792 	-0.208935 	-1.5209e-20 7.45883 	-0.209906 	-2.48014e-20 7.4517 	-0.210465 	-3.44134e-20 7.43904 	-0.212713 	-2.36611e-20 7.42663 	-0.214735 	-1.55859e-20 7.41503 	-0.216173 	-1.44034e-20 7.40675 	-0.21692 	-2.19719e-20 7.39926 	-0.217503 	-3.16348e-20 7.38633 	-0.219752 	-2.0782e-20 7.37332 	-0.222002 	-9.9233e-21 7.36171 	-0.223395 	0 7.35382 	-0.223985 	0 7.34591 	-0.224576 	0 7.3327 	-0.226826 	0 7.3194 	-0.229077 	0 7.30825 	-0.230486 	-2.84671e-21 7.29994 	-0.231066 	-7.38155e-21 7.29161 	-0.231646 	-1.19159e-20 7.27817 	-0.233881 	-4.48907e-20 7.26464 	-0.236117 	-7.78621e-20 7.25393 	-0.237536 	-8.27767e-20 7.24513 	-0.238095 	-6.63712e-20 7.2363 	-0.238655 	-4.99596e-20 7.22254 	-0.240856 	-2.52183e-20 7.2087 	-0.243058 	-4.62955e-22 7.19849 	-0.244435 	-9.18457e-21 7.18921 	-0.24502 	-3.08583e-20 7.17995 	-0.24556 	-5.32428e-20 7.16594 	-0.247714 	-6.53618e-20 7.15292 	-0.249626 	-7.35538e-20 7.14238 	-0.250961 	-7.24377e-20 7.1323 	-0.251825 	-5.42616e-20 7.12252 	-0.252358 	-2.4112e-20 7.10813 	-0.254464 	-2.09232e-20 7.09587 	-0.25607 	-1.46361e-20 7.08492 	-0.257365 	-6.41942e-21 7.07412 	-0.258488 	0 7.06395 	-0.25899 	0 7.0492 	-0.261033 	0 7.03772 	-0.262315 	0 7.02639 	-0.263551 	0 7.01501 	-0.264787 	0 7.00429 	-0.265357 	0 6.99014 	-0.26711 	0 6.9785 	-0.268277 	0 6.9668 	-0.269444 	0 6.95506 	-0.270612 	0 6.94366 	-0.271424 	-6.47317e-21 6.93038 	-0.272829 	6.24429e-23 6.91836 	-0.273922 	1.64094e-22 6.9063 	-0.275016 	2.65781e-22 6.89419 	-0.276111 	3.67504e-22 6.88207 	-0.277169 	6.01166e-22 6.88051 	-0.277318 	1.50557e-21 6.87908 	-0.277434 	1.24919e-21 6.87766 	-0.27755 	9.9267e-22 6.87624 	-0.277666 	7.36002e-22 6.87483 	-0.277782 	4.80775e-22 6.86364 	-0.278685 	-1.52755e-21 6.85242 	-0.27959 	-3.54486e-21 6.84116 	-0.280495 	-5.57119e-21 6.82986 	-0.281401 	-7.60659e-21 6.82 	-0.282076 	1.68681e-21 6.80638 	-0.283278 	4.24266e-21 6.79338 	-0.284213 	1.03178e-20 6.78033 	-0.285148 	1.63902e-20 6.76723 	-0.286085 	2.246e-20 6.75726 	-0.286526 	2.87627e-20 6.74251 	-0.287955 	2.25381e-20 6.72915 	-0.2888 	2.14687e-20 6.71575 	-0.289646 	2.03942e-20 6.70262 	-0.290443 	1.93428e-20 6.69374 	-0.290553 	1.86702e-20 6.67833 	-0.292016 	1.72333e-20 6.66418 	-0.29294 	1.55629e-20 6.65045 	-0.293678 	1.38089e-20 6.63877 	-0.294077 	1.38426e-20 6.62963 	-0.294057 	1.6081e-20 6.61391 	-0.295394 	1.23375e-20 6.59866 	-0.296522 	9.37964e-21 6.58464 	-0.297135 	8.35928e-21 6.57452 	-0.2971 	1.03686e-20 6.56516 	-0.296936 	1.29877e-20 6.54917 	-0.298128 	8.88296e-21 6.53313 	-0.299321 	4.77365e-21 6.51962 	-0.299746 	-6.7169e-22 6.51013 	-0.299429 	-3.71879e-21 6.50063 	-0.299113 	-6.76631e-21 6.48442 	-0.300155 	-4.20232e-21 6.46815 	-0.301197 	-1.63975e-21 6.45548 	-0.301493 	0 6.4459 	-0.301022 	0 6.43631 	-0.300551 	0 6.41993 	-0.30144 	0 6.40355 	-0.302322 	-2.35964e-23 6.39195 	-0.302396 	-2.56055e-21 6.38213 	-0.301834 	-5.10676e-21 6.37252 	-0.301195 	-7.65422e-21 6.35603 	-0.301919 	-5.52125e-21 6.34152 	-0.302303 	-4.43299e-21 6.32991 	-0.302191 	-4.86191e-21 6.31917 	-0.30178 	-4.38737e-21 6.30961 	-0.300958 	-2.66786e-21 6.29309 	-0.301503 	-2.34326e-20 6.28058 	-0.301357 	-2.63091e-20 6.26903 	-0.301045 	-2.48994e-20 6.25747 	-0.300734 	-2.34888e-20 6.24791 	-0.29975 	-7.48387e-22 6.23244 	-0.299925 	-2.0201e-20 6.22102 	-0.299417 	-1.91205e-20 6.2096 	-0.29891 	-1.80398e-20 6.19818 	-0.298402 	-1.6959e-20 6.18779 	-0.297567 	-7.61028e-21 6.17451 	-0.297226 	-6.45737e-21 6.16329 	-0.29654 	-2.59267e-21 6.15207 	-0.295854 	1.27205e-21 6.14086 	-0.295168 	5.13679e-21 6.12966 	-0.294479 	9.00722e-21 6.12955 	-0.294475 	8.99971e-21 6.12947 	-0.294468 	9.01647e-21 6.12938 	-0.294461 	9.03324e-21 6.1293 	-0.294454 	9.05e-21 6.12921 	-0.294448 	9.06676e-21 6.11804 	-0.293602 	1.15542e-20 6.10688 	-0.292756 	1.40408e-20 6.09572 	-0.29191 	1.65265e-20 6.08458 	-0.291064 	1.90115e-20 6.07489 	-0.289891 	1.30776e-20 6.06347 	-0.289122 	1.29639e-20 6.05255 	-0.288068 	1.07046e-20 6.04165 	-0.287014 	8.4462e-21 6.03076 	-0.285959 	6.1886e-21 6.02282 	-0.284244 	4.17156e-21 6.01129 	-0.283545 	5.16437e-21 6.00077 	-0.282294 	3.31665e-21 5.99028 	-0.281042 	1.46932e-21 5.98056 	-0.279623 	6.22848e-22 5.97379 	-0.277556 	3.66819e-21 5.96266 	-0.276674 	1.09965e-21 5.95217 	-0.275472 	7.13966e-22 5.94216 	-0.274032 	1.96261e-21 5.93437 	-0.272109 	6.78911e-21 5.92812 	-0.269859 	1.40407e-20 5.91751 	-0.268772 	1.84068e-20 5.90705 	-0.267625 	2.24887e-20 5.89759 	-0.266007 	2.43583e-20 5.89177 	-0.263616 	1.90491e-20 5.88608 	-0.261208 	1.35862e-20 5.87606 	-0.259937 	1.83613e-20 5.86606 	-0.258665 	2.31363e-20 5.85814 	-0.256793 	2.29314e-20 5.85299 	-0.254264 	1.76475e-20 5.8479 	-0.251735 	1.2364e-20 5.83853 	-0.250309 	1.69976e-20 5.82918 	-0.248884 	2.16312e-20 5.82271 	-0.246826 	2.07996e-20 5.81819 	-0.244211 	1.28222e-20 5.81373 	-0.241596 	4.84283e-21 5.80505 	-0.240046 	3.75268e-21 5.79664 	-0.238449 	2.58252e-21 5.79153 	-0.236212 	3.59337e-22 5.78746 	-0.233613 	-3.40224e-21 5.78365 	-0.230945 	-7.46294e-21 5.77569 	-0.229299 	-2.77122e-21 5.76916 	-0.22739 	-8.25073e-22 5.76469 	-0.2251 	-2.84087e-21 5.76082 	-0.222631 	-6.17438e-21 5.75766 	-0.219945 	-1.10979e-20 5.75044 	-0.218237 	2.02899e-21 5.74569 	-0.216092 	4.92839e-21 5.74188 	-0.213791 	4.13613e-21 5.73822 	-0.211458 	2.43237e-21 5.7357 	-0.208803 	-8.58155e-21 5.72938 	-0.207051 	-5.79309e-21 5.72614 	-0.204784 	-4.01305e-21 5.72296 	-0.202518 	-2.23163e-21 5.71984 	-0.200253 	-4.48834e-22 5.71765 	-0.197754 	0 5.71297 	-0.195888 	0 5.71036 	-0.193702 	0 5.7078 	-0.191517 	0 5.70529 	-0.189333 	0 5.70334 	-0.187033 	0 5.70016 	-0.185135 	3.21922e-23 5.69815 	-0.183074 	8.41617e-23 5.69619 	-0.181015 	1.36099e-22 5.69427 	-0.178956 	1.88004e-22 5.69256 	-0.176868 	1.38239e-22 5.69155 	-0.17605 	3.28871e-22 5.69088 	-0.175189 	-6.04846e-22 5.69022 	-0.174328 	-1.5375e-21 5.68956 	-0.173468 	-2.4691e-21 5.68889 	-0.172563 	-3.44799e-21 5.68822 	-0.171539 	-4.44778e-21 5.68756 	-0.170516 	-5.44672e-21 5.68692 	-0.169493 	-6.44482e-21 5.68629 	-0.168471 	-7.44206e-21 5.68578 	-0.167403 	-7.2652e-21 5.68502 	-0.165748 	-8.31799e-21 5.68423 	-0.164068 	-7.34929e-21 5.68348 	-0.162388 	-6.37457e-21 5.68277 	-0.16071 	-5.39383e-21 5.68234 	-0.158928 	9.84924e-22 5.68218 	-0.15757 	6.01695e-21 5.68185 	-0.156158 	8.18753e-21 5.68154 	-0.154746 	1.03531e-20 5.68127 	-0.153336 	1.25138e-20 5.68134 	-0.151792 	4.90657e-21 5.68173 	-0.150766 	1.10009e-21 5.68179 	-0.14968 	-2.2389e-21 5.68186 	-0.148595 	-5.57572e-21 5.68197 	-0.14751 	-8.91038e-21 5.68241 	-0.146295 	-1.22916e-20 5.68329 	-0.145643 	-2.02647e-20 5.68366 	-0.14495 	-2.09628e-20 5.68405 	-0.144258 	-2.16573e-20 5.68445 	-0.143566 	-2.23484e-20 5.68514 	-0.14277 	-9.90305e-21 5.68642 	-0.142539 	-4.61559e-21 5.68708 	-0.142298 	-1.47772e-21 5.68771 	-0.142056 	1.54783e-21 5.68837 	-0.141804 	4.33002e-21 5.68918 	-0.141498 	5.85341e-21 5.69069 	-0.141724 	1.65025e-20 5.69169 	-0.141954 	1.95239e-20 5.6925 	-0.142184 	1.99114e-20 5.69334 	-0.142398 	1.63645e-20 5.6942 	-0.142581 	5.58575e-21 5.6959 	-0.143262 	3.94853e-21 5.69718 	-0.143959 	2.33081e-21 5.69812 	-0.14467 	7.29895e-22 5.69902 	-0.145373 	-1.74551e-21 5.69989 	-0.146068 	-4.9539e-21 5.7017 	-0.14723 	-1.99609e-21 5.70324 	-0.148412 	0 5.70423 	-0.149636 	0 5.70509 	-0.150882 	-2.39844e-21 5.70588 	-0.152136 	-5.63813e-21 5.70773 	-0.153827 	-2.66322e-21 5.70946 	-0.155526 	1.58172e-22 5.71042 	-0.157295 	1.67435e-21 5.71111 	-0.159116 	6.35815e-21 5.71175 	-0.160939 	1.12265e-20 5.71356 	-0.163178 	1.92885e-20 5.71531 	-0.165415 	2.73516e-20 5.71622 	-0.167738 	2.7571e-20 5.71668 	-0.170135 	2.04778e-20 5.71709 	-0.17253 	1.33858e-20 5.71876 	-0.175321 	1.43439e-20 5.72037 	-0.178109 	1.53042e-20 5.7212 	-0.180991 	1.21907e-20 5.72136 	-0.183965 	4.96282e-21 5.72145 	-0.186937 	-2.26364e-21 5.72291 	-0.190287 	-1.44644e-20 5.72429 	-0.193634 	-2.66623e-20 5.72495 	-0.197083 	-2.88201e-20 5.72473 	-0.200636 	-1.90379e-20 5.72442 	-0.204186 	-9.25791e-21 5.72558 	-0.208101 	7.39077e-21 5.72665 	-0.212012 	2.4034