/*--------------------------------*- C++ -*----------------------------------*\
  =========                 |
  \\      /  F ield         | OpenFOAM: The Open Source CFD Toolbox
   \\    /   O peration     | Website:  https://openfoam.org
    \\  /    A nd           | Version:  8
     \\/     M anipulation  |
\*---------------------------------------------------------------------------*/
FoamFile
{
    version     2.0;
    format      ascii;
    class       volScalarField;
    location    "10000";
    object      p;
}
// * * * * * * * * * * * * * * * * * * * * * * * * * * * * * * * * * * * * * //

dimensions      [0 2 -2 0 0 0 0];

internalField   nonuniform List<scalar> 
14751
(
2.0474e-11
2.69673e-06
6.14713e-06
9.6327e-06
1.34898e-05
1.75358e-05
2.17243e-05
2.6048e-05
3.04313e-05
3.48409e-05
3.92269e-05
4.3559e-05
4.77931e-05
5.19003e-05
5.58577e-05
5.96336e-05
6.32234e-05
6.66005e-05
6.9766e-05
7.27042e-05
7.54187e-05
7.7905e-05
8.01669e-05
8.2204e-05
8.40241e-05
8.56314e-05
8.70324e-05
8.82352e-05
8.92459e-05
9.00729e-05
9.0724e-05
9.12067e-05
9.15291e-05
9.1698e-05
9.17205e-05
9.16048e-05
9.13555e-05
9.09799e-05
9.04827e-05
8.98715e-05
8.91493e-05
8.83215e-05
8.73932e-05
8.63666e-05
8.52479e-05
8.40394e-05
8.27445e-05
8.13668e-05
7.99085e-05
7.83729e-05
7.67627e-05
7.50793e-05
7.33264e-05
7.15055e-05
6.9619e-05
6.76693e-05
6.56579e-05
6.35875e-05
6.14598e-05
5.92742e-05
5.70345e-05
5.47391e-05
5.23889e-05
4.99849e-05
4.7524e-05
4.50067e-05
4.24314e-05
3.98001e-05
3.71127e-05
3.43743e-05
3.15923e-05
2.8777e-05
2.59432e-05
2.31069e-05
2.02858e-05
1.74974e-05
1.47586e-05
1.20821e-05
9.48437e-06
6.97054e-06
4.56248e-06
2.26079e-06
8.80005e-08
-1.94762e-06
-3.82784e-06
-5.53676e-06
-7.05323e-06
-8.36008e-06
-9.43246e-06
-1.02532e-05
-1.07875e-05
-1.10269e-05
-1.09447e-05
-1.05036e-05
-9.7333e-06
-8.55415e-06
-7.00325e-06
-5.06894e-06
-3.00174e-06
1.48713e-09
2.6982e-06
6.14832e-06
9.63373e-06
1.34906e-05
1.75365e-05
2.17248e-05
2.60484e-05
3.04316e-05
3.48412e-05
3.92271e-05
4.35592e-05
4.77932e-05
5.19003e-05
5.58577e-05
5.96335e-05
6.32232e-05
6.66002e-05
6.97656e-05
7.27037e-05
7.54181e-05
7.79043e-05
8.01661e-05
8.22032e-05
8.40233e-05
8.56306e-05
8.70316e-05
8.82344e-05
8.92452e-05
9.00722e-05
9.07233e-05
9.12061e-05
9.15285e-05
9.16975e-05
9.172e-05
9.16044e-05
9.13551e-05
9.09796e-05
9.04825e-05
8.98713e-05
8.91492e-05
8.83214e-05
8.73932e-05
8.63666e-05
8.52479e-05
8.40395e-05
8.27446e-05
8.13669e-05
7.99086e-05
7.83731e-05
7.67629e-05
7.50795e-05
7.33266e-05
7.15058e-05
6.96192e-05
6.76695e-05
6.56581e-05
6.35877e-05
6.14599e-05
5.92743e-05
5.70345e-05
5.47391e-05
5.23887e-05
4.99845e-05
4.75235e-05
4.5006e-05
4.24306e-05
3.97991e-05
3.71116e-05
3.43731e-05
3.15911e-05
2.87759e-05
2.59423e-05
2.31063e-05
2.02855e-05
1.74975e-05
1.4759e-05
1.2083e-05
9.48566e-06
6.97221e-06
4.56448e-06
2.2631e-06
9.05572e-08
-1.94486e-06
-3.82493e-06
-5.53373e-06
-7.05013e-06
-8.35692e-06
-9.42929e-06
-1.025e-05
-1.07844e-05
-1.10239e-05
-1.09417e-05
-1.05008e-05
-9.73061e-06
-8.55169e-06
-7.001e-06
-5.06679e-06
-2.9998e-06
3.15411e-09
2.69889e-06
6.1488e-06
9.63357e-06
1.34901e-05
1.75359e-05
2.17244e-05
2.60482e-05
3.04317e-05
3.48415e-05
3.92277e-05
4.356e-05
4.77942e-05
5.19015e-05
5.5859e-05
5.96349e-05
6.32245e-05
6.66014e-05
6.97666e-05
7.27044e-05
7.54186e-05
7.79046e-05
8.01662e-05
8.22031e-05
8.4023e-05
8.56303e-05
8.70312e-05
8.8234e-05
8.92447e-05
9.00717e-05
9.07229e-05
9.12057e-05
9.15281e-05
9.16971e-05
9.17197e-05
9.16041e-05
9.13549e-05
9.09794e-05
9.04823e-05
8.98712e-05
8.91491e-05
8.83214e-05
8.73932e-05
8.63667e-05
8.52481e-05
8.40397e-05
8.27449e-05
8.13672e-05
7.99089e-05
7.83734e-05
7.67633e-05
7.50799e-05
7.33271e-05
7.15063e-05
6.96197e-05
6.767e-05
6.56586e-05
6.35882e-05
6.14604e-05
5.92746e-05
5.70348e-05
5.47392e-05
5.23887e-05
4.99844e-05
4.75231e-05
4.50054e-05
4.24298e-05
3.97981e-05
3.71105e-05
3.43719e-05
3.159e-05
2.87749e-05
2.59416e-05
2.31059e-05
2.02856e-05
1.7498e-05
1.47602e-05
1.20846e-05
9.48786e-06
6.97488e-06
4.56757e-06
2.2665e-06
9.41804e-08
-1.94112e-06
-3.82115e-06
-5.53e-06
-7.04647e-06
-8.35337e-06
-9.42585e-06
-1.02467e-05
-1.07812e-05
-1.10208e-05
-1.09388e-05
-1.0498e-05
-9.72794e-06
-8.54919e-06
-6.99878e-06
-5.0645e-06
-2.99887e-06
4.30003e-09
2.69827e-06
6.14802e-06
9.63202e-06
1.34881e-05
1.75342e-05
2.1723e-05
2.60474e-05
3.04315e-05
3.48419e-05
3.92286e-05
4.35614e-05
4.7796e-05
5.19038e-05
5.58615e-05
5.96375e-05
6.32271e-05
6.66037e-05
6.97685e-05
7.2706e-05
7.54196e-05
7.79052e-05
8.01664e-05
8.2203e-05
8.40227e-05
8.56297e-05
8.70304e-05
8.8233e-05
8.92436e-05
9.00706e-05
9.07217e-05
9.12045e-05
9.15269e-05
9.16959e-05
9.17185e-05
9.1603e-05
9.13538e-05
9.09784e-05
9.04814e-05
8.98704e-05
8.91484e-05
8.83207e-05
8.73927e-05
8.63663e-05
8.52478e-05
8.40395e-05
8.27448e-05
8.13672e-05
7.99091e-05
7.83738e-05
7.67637e-05
7.50805e-05
7.33278e-05
7.1507e-05
6.96206e-05
6.7671e-05
6.56597e-05
6.35893e-05
6.14615e-05
5.92759e-05
5.70361e-05
5.47405e-05
5.239e-05
4.99856e-05
4.75244e-05
4.50067e-05
4.2431e-05
3.97994e-05
3.71118e-05
3.43733e-05
3.15915e-05
2.87765e-05
2.59433e-05
2.31079e-05
2.02878e-05
1.75007e-05
1.47632e-05
1.2088e-05
9.49169e-06
6.97905e-06
4.57204e-06
2.27113e-06
9.88563e-08
-1.93653e-06
-3.81676e-06
-5.5259e-06
-7.04269e-06
-8.34994e-06
-9.42273e-06
-1.0244e-05
-1.07788e-05
-1.10186e-05
-1.09369e-05
-1.0496e-05
-9.72628e-06
-8.5477e-06
-6.99758e-06
-5.06286e-06
-2.99998e-06
4.22378e-09
2.69586e-06
6.14533e-06
9.62849e-06
1.34839e-05
1.75303e-05
2.17195e-05
2.60446e-05
3.04296e-05
3.48407e-05
3.92279e-05
4.35613e-05
4.77964e-05
5.19046e-05
5.58627e-05
5.96387e-05
6.32282e-05
6.66043e-05
6.97687e-05
7.27054e-05
7.54185e-05
7.79034e-05
8.01641e-05
8.22003e-05
8.40196e-05
8.56263e-05
8.70268e-05
8.82292e-05
8.92397e-05
9.00666e-05
9.07177e-05
9.12006e-05
9.1523e-05
9.16922e-05
9.17149e-05
9.15995e-05
9.13506e-05
9.09754e-05
9.04786e-05
8.98678e-05
8.9146e-05
8.83187e-05
8.73908e-05
8.63648e-05
8.52465e-05
8.40385e-05
8.27441e-05
8.13668e-05
7.9909e-05
7.83739e-05
7.67641e-05
7.50812e-05
7.33287e-05
7.15083e-05
6.96222e-05
6.76728e-05
6.56617e-05
6.35916e-05
6.14641e-05
5.92787e-05
5.70391e-05
5.47438e-05
5.23937e-05
4.99897e-05
4.75289e-05
4.50117e-05
4.24368e-05
3.98059e-05
3.71191e-05
3.43814e-05
3.16004e-05
2.8786e-05
2.59534e-05
2.31182e-05
2.02982e-05
1.75108e-05
1.4773e-05
1.20975e-05
9.50089e-06
6.98787e-06
4.58055e-06
2.2792e-06
1.06442e-07
-1.92954e-06
-3.81045e-06
-5.52034e-06
-7.03785e-06
-8.34585e-06
-9.4193e-06
-1.02412e-05
-1.07766e-05
-1.1017e-05
-1.09357e-05
-1.0495e-05
-9.7258e-06
-8.54748e-06
-6.99774e-06
-5.06213e-06
-3.0036e-06
1.80722e-09
2.6907e-06
6.13944e-06
9.62159e-06
1.34759e-05
1.75225e-05
2.17119e-05
2.60378e-05
3.04235e-05
3.48353e-05
3.92232e-05
4.35571e-05
4.77929e-05
5.19015e-05
5.586e-05
5.9636e-05
6.32254e-05
6.66011e-05
6.97649e-05
7.2701e-05
7.54134e-05
7.78977e-05
8.01579e-05
8.21937e-05
8.40127e-05
8.56192e-05
8.70196e-05
8.8222e-05
8.92325e-05
9.00596e-05
9.07108e-05
9.11939e-05
9.15166e-05
9.16861e-05
9.17091e-05
9.15941e-05
9.13455e-05
9.09707e-05
9.04744e-05
8.9864e-05
8.91426e-05
8.83157e-05
8.73884e-05
8.63628e-05
8.52449e-05
8.40374e-05
8.27434e-05
8.13666e-05
7.99093e-05
7.83746e-05
7.67653e-05
7.50828e-05
7.33309e-05
7.15109e-05
6.96252e-05
6.76762e-05
6.56656e-05
6.35958e-05
6.14687e-05
5.92837e-05
5.70446e-05
5.47498e-05
5.24002e-05
4.99968e-05
4.75368e-05
4.50207e-05
4.24469e-05
3.98174e-05
3.71322e-05
3.43963e-05
3.16171e-05
2.88045e-05
2.59733e-05
2.31392e-05
2.03197e-05
1.75324e-05
1.47942e-05
1.21179e-05
9.52034e-06
7.00611e-06
4.59761e-06
2.29491e-06
1.20737e-07
-1.91676e-06
-3.79924e-06
-5.51074e-06
-7.02976e-06
-8.33925e-06
-9.41403e-06
-1.02373e-05
-1.07739e-05
-1.10151e-05
-1.0935e-05
-1.04947e-05
-9.72643e-06
-8.54873e-06
-6.99969e-06
-5.06287e-06
-3.01032e-06
-4.01862e-09
2.68196e-06
6.1293e-06
9.61033e-06
1.34631e-05
1.75097e-05
2.16993e-05
2.60258e-05
3.04123e-05
3.48249e-05
3.92136e-05
4.35482e-05
4.77847e-05
5.1894e-05
5.5853e-05
5.96294e-05
6.32187e-05
6.65942e-05
6.97575e-05
7.26931e-05
7.54049e-05
7.78888e-05
8.01486e-05
8.21842e-05
8.40031e-05
8.56095e-05
8.70101e-05
8.82126e-05
8.92234e-05
9.00507e-05
9.07024e-05
9.11858e-05
9.1509e-05
9.1679e-05
9.17026e-05
9.1588e-05
9.13401e-05
9.09658e-05
9.04701e-05
8.98603e-05
8.91395e-05
8.83133e-05
8.73865e-05
8.63615e-05
8.52443e-05
8.40374e-05
8.2744e-05
8.13679e-05
7.99111e-05
7.83771e-05
7.67684e-05
7.50865e-05
7.33351e-05
7.15157e-05
6.96306e-05
6.76822e-05
6.56721e-05
6.36029e-05
6.14763e-05
5.92919e-05
5.70533e-05
5.47592e-05
5.24103e-05
5.00077e-05
4.75487e-05
4.50337e-05
4.24613e-05
3.98334e-05
3.71501e-05
3.44163e-05
3.16393e-05
2.88289e-05
2.59997e-05
2.31673e-05
2.0349e-05
1.75624e-05
1.48243e-05
1.21476e-05
9.5492e-06
7.03369e-06
4.62371e-06
2.31918e-06
1.42965e-07
-1.89679e-06
-3.78166e-06
-5.49565e-06
-7.01708e-06
-8.32895e-06
-9.4059e-06
-1.02314e-05
-1.07699e-05
-1.10128e-05
-1.09343e-05
-1.0495e-05
-9.72825e-06
-8.55171e-06
-7.00385e-06
-5.06577e-06
-3.02058e-06
-1.42127e-08
2.66902e-06
6.11421e-06
9.59407e-06
1.34451e-05
1.74912e-05
2.16812e-05
2.60082e-05
3.03957e-05
3.48092e-05
3.91989e-05
4.35344e-05
4.77719e-05
5.18821e-05
5.5842e-05
5.96189e-05
6.32086e-05
6.65841e-05
6.97472e-05
7.26826e-05
7.5394e-05
7.78777e-05
8.01374e-05
8.21729e-05
8.3992e-05
8.55986e-05
8.69995e-05
8.82024e-05
8.92137e-05
9.00415e-05
9.06937e-05
9.11778e-05
9.15017e-05
9.16723e-05
9.16966e-05
9.15828e-05
9.13355e-05
9.0962e-05
9.0467e-05
8.9858e-05
8.9138e-05
8.83124e-05
8.73864e-05
8.63622e-05
8.52457e-05
8.40395e-05
8.27469e-05
8.13714e-05
7.99154e-05
7.83821e-05
7.67741e-05
7.50929e-05
7.33422e-05
7.15235e-05
6.96391e-05
6.76914e-05
6.5682e-05
6.36135e-05
6.14875e-05
5.93038e-05
5.70659e-05
5.47725e-05
5.24244e-05
5.00227e-05
4.75647e-05
4.50509e-05
4.248e-05
3.98537e-05
3.71723e-05
3.44405e-05
3.16657e-05
2.88575e-05
2.60304e-05
2.31998e-05
2.0383e-05
1.75971e-05
1.48594e-05
1.21824e-05
9.58342e-06
7.06672e-06
4.65525e-06
2.34876e-06
1.70246e-07
-1.87214e-06
-3.7599e-06
-5.47695e-06
-7.00141e-06
-8.31632e-06
-9.39615e-06
-1.02245e-05
-1.07656e-05
-1.10108e-05
-1.09346e-05
-1.04969e-05
-9.73203e-06
-8.55716e-06
-7.01097e-06
-5.07175e-06
-3.03472e-06
-2.99976e-08
2.65088e-06
6.09315e-06
9.57188e-06
1.34209e-05
1.74663e-05
2.16566e-05
2.59843e-05
3.0373e-05
3.47876e-05
3.91786e-05
4.35153e-05
4.77543e-05
5.18659e-05
5.58272e-05
5.96051e-05
6.31955e-05
6.65715e-05
6.97348e-05
7.26703e-05
7.53818e-05
7.78655e-05
8.01254e-05
8.21614e-05
8.39808e-05
8.5588e-05
8.69895e-05
8.81929e-05
8.92049e-05
9.00335e-05
9.06865e-05
9.11713e-05
9.1496e-05
9.16674e-05
9.16926e-05
9.15795e-05
9.13331e-05
9.09604e-05
9.04663e-05
8.98581e-05
8.91389e-05
8.83142e-05
8.73889e-05
8.63656e-05
8.52499e-05
8.40445e-05
8.27527e-05
8.1378e-05
7.99228e-05
7.83903e-05
7.6783e-05
7.51026e-05
7.33527e-05
7.15347e-05
6.9651e-05
6.77041e-05
6.56954e-05
6.36277e-05
6.15024e-05
5.93195e-05
5.70822e-05
5.47896e-05
5.24423e-05
5.00414e-05
4.75844e-05
4.50716e-05
4.2502e-05
3.98771e-05
3.71974e-05
3.44676e-05
3.16949e-05
2.88888e-05
2.60637e-05
2.32349e-05
2.04195e-05
1.76345e-05
1.48972e-05
1.22201e-05
9.62046e-06
7.10255e-06
4.68945e-06
2.38084e-06
1.99747e-07
-1.84561e-06
-3.73667e-06
-5.45723e-06
-6.98523e-06
-8.30371e-06
-9.38695e-06
-1.02187e-05
-1.0763e-05
-1.1011e-05
-1.09375e-05
-1.05019e-05
-9.73917e-06
-8.56643e-06
-7.02232e-06
-5.08207e-06
-3.05344e-06
-5.26548e-08
2.6265e-06
6.06511e-06
9.54274e-06
1.33896e-05
1.74341e-05
2.1625e-05
2.59536e-05
3.03437e-05
3.47599e-05
3.91527e-05
4.34913e-05
4.77323e-05
5.1846e-05
5.58092e-05
5.95889e-05
6.31806e-05
6.65576e-05
6.97216e-05
7.26577e-05
7.53697e-05
7.78539e-05
8.01144e-05
8.2151e-05
8.39712e-05
8.5579e-05
8.69814e-05
8.81856e-05
8.91985e-05
9.00279e-05
9.06818e-05
9.11676e-05
9.14931e-05
9.16654e-05
9.16915e-05
9.15794e-05
9.13338e-05
9.0962e-05
9.04688e-05
8.98614e-05
8.9143e-05
8.83192e-05
8.73948e-05
8.63723e-05
8.52574e-05
8.40529e-05
8.27619e-05
8.1388e-05
7.99336e-05
7.84019e-05
7.67954e-05
7.51158e-05
7.33667e-05
7.15495e-05
6.96666e-05
6.77204e-05
6.57125e-05
6.36455e-05
6.15209e-05
5.93387e-05
5.71021e-05
5.48101e-05
5.24634e-05
5.00631e-05
4.76068e-05
4.5095e-05
4.25263e-05
3.99026e-05
3.72244e-05
3.44962e-05
3.17253e-05
2.89212e-05
2.60981e-05
2.32711e-05
2.04571e-05
1.76731e-05
1.49363e-05
1.2259e-05
9.65872e-06
7.13956e-06
4.72468e-06
2.41374e-06
2.2979e-07
-1.81889e-06
-3.71364e-06
-5.43814e-06
-6.97016e-06
-8.2927e-06
-9.37986e-06
-1.02155e-05
-1.07635e-05
-1.10147e-05
-1.09443e-05
-1.05113e-05
-9.75095e-06
-8.58078e-06
-7.03918e-06
-5.09807e-06
-3.07761e-06
-8.31674e-08
2.59505e-06
6.02931e-06
9.50602e-06
1.33507e-05
1.73943e-05
2.15863e-05
2.59161e-05
3.03083e-05
3.47267e-05
3.9122e-05
4.34631e-05
4.7707e-05
5.18236e-05
5.57895e-05
5.95716e-05
6.31653e-05
6.65439e-05
6.97091e-05
7.26463e-05
7.53592e-05
7.78443e-05
8.01056e-05
8.21432e-05
8.39643e-05
8.55731e-05
8.69765e-05
8.81817e-05
8.91955e-05
9.00259e-05
9.06808e-05
9.11675e-05
9.14939e-05
9.16672e-05
9.16942e-05
9.15829e-05
9.13382e-05
9.09673e-05
9.0475e-05
8.98684e-05
8.91509e-05
8.83279e-05
8.74043e-05
8.63827e-05
8.52686e-05
8.40649e-05
8.27747e-05
8.14017e-05
7.9948e-05
7.84171e-05
7.68114e-05
7.51327e-05
7.33843e-05
7.15679e-05
6.96857e-05
6.77403e-05
6.57331e-05
6.36667e-05
6.15427e-05
5.93611e-05
5.7125e-05
5.48335e-05
5.24873e-05
5.00873e-05
4.76315e-05
4.51201e-05
4.25521e-05
3.99292e-05
3.72521e-05
3.45252e-05
3.1756e-05
2.89538e-05
2.61326e-05
2.33073e-05
2.04948e-05
1.77119e-05
1.49756e-05
1.22982e-05
9.69726e-06
7.17679e-06
4.75996e-06
2.44651e-06
2.59417e-07
-1.79291e-06
-3.69175e-06
-5.42063e-06
-6.95715e-06
-8.28422e-06
-9.37581e-06
-1.02157e-05
-1.0768e-05
-1.10229e-05
-1.09561e-05
-1.05261e-05
-9.76837e-06
-8.60125e-06
-7.0626e-06
-5.12082e-06
-3.10807e-06
-1.21994e-07
2.5562e-06
5.9856e-06
9.46164e-06
1.33044e-05
1.73473e-05
2.15409e-05
2.58726e-05
3.02676e-05
3.4689e-05
3.90877e-05
4.34322e-05
4.76797e-05
5.18e-05
5.57694e-05
5.95546e-05
6.31509e-05
6.65317e-05
6.96986e-05
7.26373e-05
7.53515e-05
7.78377e-05
8.01002e-05
8.21389e-05
8.39612e-05
8.55711e-05
8.69756e-05
8.81818e-05
8.91967e-05
9.00281e-05
9.06839e-05
9.11715e-05
9.1499e-05
9.16731e-05
9.1701e-05
9.15906e-05
9.13468e-05
9.09767e-05
9.04852e-05
8.98795e-05
8.91627e-05
8.83406e-05
8.74177e-05
8.63969e-05
8.52836e-05
8.40807e-05
8.27913e-05
8.1419e-05
7.99662e-05
7.8436e-05
7.68311e-05
7.51531e-05
7.34054e-05
7.15898e-05
6.97083e-05
6.77636e-05
6.5757e-05
6.36912e-05
6.15676e-05
5.93865e-05
5.71506e-05
5.48593e-05
5.25133e-05
5.01134e-05
4.76576e-05
4.51463e-05
4.25786e-05
3.99562e-05
3.72798e-05
3.45541e-05
3.17864e-05
2.89859e-05
2.61666e-05
2.33432e-05
2.05323e-05
1.77505e-05
1.50147e-05
1.23373e-05
9.73566e-06
7.21386e-06
4.79489e-06
2.47874e-06
2.88202e-07
-1.76813e-06
-3.67146e-06
-5.40516e-06
-6.94668e-06
-8.27878e-06
-9.37534e-06
-1.02201e-05
-1.07772e-05
-1.10363e-05
-1.09735e-05
-1.05471e-05
-9.79212e-06
-8.62849e-06
-7.09322e-06
-5.15101e-06
-3.14532e-06
-1.69063e-07
2.51006e-06
5.93429e-06
9.41002e-06
1.32513e-05
1.72938e-05
2.14897e-05
2.58239e-05
3.02225e-05
3.46478e-05
3.90507e-05
4.33995e-05
4.76516e-05
5.17764e-05
5.57499e-05
5.9539e-05
6.31385e-05
6.6522e-05
6.9691e-05
7.26316e-05
7.53473e-05
7.7835e-05
8.00988e-05
8.21389e-05
8.39624e-05
8.55736e-05
8.69792e-05
8.81865e-05
8.92025e-05
9.00349e-05
9.06917e-05
9.11802e-05
9.15086e-05
9.16836e-05
9.17124e-05
9.16027e-05
9.13597e-05
9.09904e-05
9.04998e-05
8.98947e-05
8.91787e-05
8.83574e-05
8.74352e-05
8.64152e-05
8.53027e-05
8.41005e-05
8.28118e-05
8.14403e-05
7.99881e-05
7.84587e-05
7.68545e-05
7.51772e-05
7.34302e-05
7.16152e-05
6.97343e-05
6.77901e-05
6.57841e-05
6.37187e-05
6.15953e-05
5.94145e-05
5.71786e-05
5.48873e-05
5.25411e-05
5.01409e-05
4.76848e-05
4.51733e-05
4.26055e-05
3.99832e-05
3.73074e-05
3.45826e-05
3.18163e-05
2.90175e-05
2.62001e-05
2.33787e-05
2.05695e-05
1.7789e-05
1.50539e-05
1.23764e-05
9.77403e-06
7.25082e-06
4.82953e-06
2.51045e-06
3.16153e-07
-1.74456e-06
-3.65282e-06
-5.39182e-06
-6.93888e-06
-8.27657e-06
-9.37867e-06
-1.02288e-05
-1.07913e-05
-1.10552e-05
-1.09967e-05
-1.05745e-05
-9.82251e-06
-8.66276e-06
-7.13124e-06
-5.18884e-06
-3.18942e-06
-2.23925e-07
2.45705e-06
5.87597e-06
9.3518e-06
1.3192e-05
1.72346e-05
2.14335e-05
2.57711e-05
3.01741e-05
3.4604e-05
3.9012e-05
4.33658e-05
4.76233e-05
5.17533e-05
5.57318e-05
5.95254e-05
6.31286e-05
6.65153e-05
6.96868e-05
7.26296e-05
7.53472e-05
7.78366e-05
8.01019e-05
8.21435e-05
8.39684e-05
8.55808e-05
8.69877e-05
8.81961e-05
8.92132e-05
9.00466e-05
9.07043e-05
9.11938e-05
9.1523e-05
9.16988e-05
9.17284e-05
9.16195e-05
9.13773e-05
9.10087e-05
9.05188e-05
8.99144e-05
8.91991e-05
8.83785e-05
8.74569e-05
8.64377e-05
8.53258e-05
8.41243e-05
8.28363e-05
8.14654e-05
8.0014e-05
7.84852e-05
7.68816e-05
7.52049e-05
7.34585e-05
7.1644e-05
6.97637e-05
6.78199e-05
6.58142e-05
6.3749e-05
6.16257e-05
5.94449e-05
5.72088e-05
5.49171e-05
5.25705e-05
5.01696e-05
4.77129e-05
4.52007e-05
4.26326e-05
4.00102e-05
3.73348e-05
3.46109e-05
3.18459e-05
2.9049e-05
2.62337e-05
2.34143e-05
2.0607e-05
1.78279e-05
1.50935e-05
1.2416e-05
9.81278e-06
7.28807e-06
4.86422e-06
2.54195e-06
3.43541e-07
-1.72197e-06
-3.63564e-06
-5.38046e-06
-6.93364e-06
-8.27747e-06
-9.38573e-06
-1.02418e-05
-1.08102e-05
-1.10794e-05
-1.10258e-05
-1.06082e-05
-9.85946e-06
-8.70394e-06
-7.17647e-06
-5.2341e-06
-3.24008e-06
-2.86035e-07
2.39762e-06
5.81118e-06
9.28751e-06
1.31272e-05
1.71702e-05
2.13729e-05
2.57145e-05
3.01227e-05
3.45581e-05
3.89721e-05
4.33317e-05
4.75953e-05
5.17314e-05
5.57154e-05
5.95141e-05
6.31216e-05
6.65119e-05
6.96864e-05
7.26318e-05
7.53514e-05
7.78427e-05
8.01097e-05
8.2153e-05
8.39794e-05
8.55932e-05
8.70014e-05
8.82109e-05
8.9229e-05
9.00635e-05
9.07221e-05
9.12125e-05
9.15425e-05
9.1719e-05
9.17494e-05
9.16411e-05
9.13996e-05
9.10316e-05
9.05424e-05
8.99386e-05
8.9224e-05
8.8404e-05
8.7483e-05
8.64644e-05
8.53531e-05
8.41522e-05
8.28649e-05
8.14946e-05
8.00438e-05
7.85156e-05
7.69125e-05
7.52364e-05
7.34904e-05
7.16764e-05
6.97964e-05
6.78529e-05
6.58473e-05
6.37822e-05
6.16587e-05
5.94776e-05
5.7241e-05
5.49487e-05
5.26013e-05
5.01995e-05
4.77419e-05
4.52289e-05
4.26602e-05
4.00376e-05
3.73625e-05
3.46395e-05
3.1876e-05
2.9081e-05
2.62679e-05
2.34508e-05
2.06454e-05
1.78677e-05
1.51341e-05
1.24566e-05
9.85241e-06
7.32606e-06
4.89938e-06
2.57362e-06
3.70694e-07
-1.70006e-06
-3.61966e-06
-5.37085e-06
-6.93073e-06
-8.28131e-06
-9.39632e-06
-1.02589e-05
-1.08339e-05
-1.11089e-05
-1.10606e-05
-1.0648e-05
-9.90271e-06
-8.75171e-06
-7.22854e-06
-5.28642e-06
-3.29695e-06
-3.55014e-07
2.33202e-06
5.74022e-06
9.21744e-06
1.30569e-05
1.7101e-05
2.13081e-05
2.56545e-05
3.00687e-05
3.45103e-05
3.8931e-05
4.32973e-05
4.75678e-05
5.17106e-05
5.57008e-05
5.95054e-05
6.31176e-05
6.65121e-05
6.96899e-05
7.26381e-05
7.53602e-05
7.78536e-05
8.01225e-05
8.21676e-05
8.39956e-05
8.56108e-05
8.70203e-05
8.82311e-05
8.92503e-05
9.00857e-05
9.07452e-05
9.12364e-05
9.15671e-05
9.17444e-05
9.17755e-05
9.16678e-05
9.14268e-05
9.10594e-05
9.05708e-05
8.99676e-05
8.92535e-05
8.8434e-05
8.75135e-05
8.64956e-05
8.53848e-05
8.41844e-05
8.28976e-05
8.15279e-05
8.00775e-05
7.85498e-05
7.69472e-05
7.52715e-05
7.35259e-05
7.17122e-05
6.98324e-05
6.7889e-05
6.58834e-05
6.38181e-05
6.16942e-05
5.95126e-05
5.72753e-05
5.49821e-05
5.26337e-05
5.02308e-05
4.77722e-05
4.52583e-05
4.26889e-05
4.00661e-05
3.73913e-05
3.46693e-05
3.19073e-05
2.91143e-05
2.63035e-05
2.34887e-05
2.06854e-05
1.79092e-05
1.51762e-05
1.24986e-05
9.89331e-06
7.3651e-06
4.93531e-06
2.60571e-06
3.97856e-07
-1.67862e-06
-3.60467e-06
-5.36278e-06
-6.92996e-06
-8.28789e-06
-9.41026e-06
-1.02799e-05
-1.0862e-05
-1.11434e-05
-1.11008e-05
-1.06937e-05
-9.95199e-06
-8.80578e-06
-7.28713e-06
-5.3455e-06
-3.35976e-06
-4.30755e-07
2.26029e-06
5.66318e-06
9.14158e-06
1.29814e-05
1.70269e-05
2.12391e-05
2.55909e-05
3.00119e-05
3.44606e-05
3.88888e-05
4.32626e-05
4.75407e-05
5.1691e-05
5.56882e-05
5.94992e-05
6.31167e-05
6.65159e-05
6.96973e-05
7.26489e-05
7.53736e-05
7.78694e-05
8.01403e-05
8.21874e-05
8.40171e-05
8.56339e-05
8.70448e-05
8.82567e-05
8.9277e-05
9.01134e-05
9.07738e-05
9.12657e-05
9.15971e-05
9.17751e-05
9.18067e-05
9.16995e-05
9.14591e-05
9.10922e-05
9.06041e-05
9.00013e-05
8.92877e-05
8.84687e-05
8.75487e-05
8.65312e-05
8.54209e-05
8.4221e-05
8.29346e-05
8.15653e-05
8.01154e-05
7.85881e-05
7.69858e-05
7.53104e-05
7.35651e-05
7.17515e-05
6.98718e-05
6.79284e-05
6.59226e-05
6.38569e-05
6.17324e-05
5.95501e-05
5.73119e-05
5.50177e-05
5.26681e-05
5.02639e-05
4.78041e-05
4.52892e-05
4.27193e-05
4.00962e-05
3.74218e-05
3.47008e-05
3.19404e-05
2.91495e-05
2.6341e-05
2.35285e-05
2.07272e-05
1.79525e-05
1.52201e-05
1.25423e-05
9.93566e-06
7.40538e-06
4.97215e-06
2.63837e-06
4.25155e-07
-1.65752e-06
-3.59054e-06
-5.35614e-06
-6.93122e-06
-8.29708e-06
-9.42742e-06
-1.03047e-05
-1.08945e-05
-1.11827e-05
-1.11462e-05
-1.0745e-05
-1.00072e-05
-8.86602e-06
-7.35211e-06
-5.41123e-06
-3.4285e-06
-5.13339e-07
2.1822e-06
5.57986e-06
9.05975e-06
1.29002e-05
1.69478e-05
2.11656e-05
2.55236e-05
2.99521e-05
3.44087e-05
3.88453e-05
4.32273e-05
4.7514e-05
5.16726e-05
5.56774e-05
5.94955e-05
6.31189e-05
6.65233e-05
6.97089e-05
7.2664e-05
7.53917e-05
7.78901e-05
8.01634e-05
8.22126e-05
8.40441e-05
8.56625e-05
8.70749e-05
8.8288e-05
8.93094e-05
9.01467e-05
9.0808e-05
9.13006e-05
9.16327e-05
9.18112e-05
9.18434e-05
9.17366e-05
9.14966e-05
9.11302e-05
9.06425e-05
9.004e-05
8.93267e-05
8.85081e-05
8.75885e-05
8.65714e-05
8.54615e-05
8.42619e-05
8.29759e-05
8.1607e-05
8.01574e-05
7.86304e-05
7.70283e-05
7.53532e-05
7.3608e-05
7.17944e-05
6.99147e-05
6.79711e-05
6.5965e-05
6.38987e-05
6.17736e-05
5.95904e-05
5.73511e-05
5.50557e-05
5.27049e-05
5.02994e-05
4.78383e-05
4.53224e-05
4.27517e-05
4.01284e-05
3.74544e-05
3.47344e-05
3.19756e-05
2.91868e-05
2.63807e-05
2.35705e-05
2.07711e-05
1.79977e-05
1.52659e-05
1.25877e-05
9.97954e-06
7.44694e-06
5.00997e-06
2.67164e-06
4.52638e-07
-1.63671e-06
-3.57724e-06
-5.3509e-06
-6.93448e-06
-8.30888e-06
-9.4478e-06
-1.03333e-05
-1.09313e-05
-1.1227e-05
-1.1197e-05
-1.08021e-05
-1.00684e-05
-8.93252e-06
-7.42353e-06
-5.48372e-06
-3.5034e-06
-6.03037e-07
2.09738e-06
5.48994e-06
8.97154e-06
1.28131e-05
1.68631e-05
2.10873e-05
2.54522e-05
2.98891e-05
3.43543e-05
3.88002e-05
4.31914e-05
4.74874e-05
5.16552e-05
5.56684e-05
5.94944e-05
6.31243e-05
6.65343e-05
6.97245e-05
7.26836e-05
7.54146e-05
7.7916e-05
8.01918e-05
8.22432e-05
8.40768e-05
8.56969e-05
8.71107e-05
8.83251e-05
8.93476e-05
9.01859e-05
9.08479e-05
9.13413e-05
9.16739e-05
9.18528e-05
9.18855e-05
9.17791e-05
9.15395e-05
9.11733e-05
9.0686e-05
9.00837e-05
8.93708e-05
8.85525e-05
8.76331e-05
8.66163e-05
8.55067e-05
8.43074e-05
8.30217e-05
8.1653e-05
8.02037e-05
7.86769e-05
7.7075e-05
7.54e-05
7.36548e-05
7.18412e-05
6.99613e-05
6.80173e-05
6.60108e-05
6.39439e-05
6.18179e-05
5.96338e-05
5.73933e-05
5.50966e-05
5.27444e-05
5.03374e-05
4.7875e-05
4.5358e-05
4.27866e-05
4.0163e-05
3.74894e-05
3.47704e-05
3.20132e-05
2.92265e-05
2.64226e-05
2.36147e-05
2.08172e-05
1.80451e-05
1.53136e-05
1.26349e-05
1.0025e-05
7.48979e-06
5.04876e-06
2.70551e-06
4.80289e-07
-1.61623e-06
-3.5648e-06
-5.34711e-06
-6.9398e-06
-8.32337e-06
-9.47149e-06
-1.03659e-05
-1.09727e-05
-1.12763e-05
-1.12533e-05
-1.08652e-05
-1.01358e-05
-9.00553e-06
-7.50168e-06
-5.56328e-06
-3.58485e-06
-7.00249e-07
2.00531e-06
5.39293e-06
8.87648e-06
1.27195e-05
1.67725e-05
2.10037e-05
2.53763e-05
2.98223e-05
3.42972e-05
3.87531e-05
4.31545e-05
4.74608e-05
5.16386e-05
5.56611e-05
5.94956e-05
6.31326e-05
6.6549e-05
6.97443e-05
7.27078e-05
7.54425e-05
7.7947e-05
8.02256e-05
8.22795e-05
8.41152e-05
8.57371e-05
8.71525e-05
8.83682e-05
8.93918e-05
9.0231e-05
9.08938e-05
9.13878e-05
9.17209e-05
9.19003e-05
9.19333e-05
9.18271e-05
9.15878e-05
9.12218e-05
9.07347e-05
9.01327e-05
8.94199e-05
8.86018e-05
8.76826e-05
8.66661e-05
8.55566e-05
8.43576e-05
8.30721e-05
8.17035e-05
8.02544e-05
7.87277e-05
7.71258e-05
7.54509e-05
7.37056e-05
7.18918e-05
7.00117e-05
6.80673e-05
6.60602e-05
6.39926e-05
6.18657e-05
5.96805e-05
5.74387e-05
5.51405e-05
5.27868e-05
5.03783e-05
4.79146e-05
4.53964e-05
4.28242e-05
4.02003e-05
3.75269e-05
3.48089e-05
3.20532e-05
2.92685e-05
2.64669e-05
2.36611e-05
2.08655e-05
1.80945e-05
1.53631e-05
1.26838e-05
1.00719e-05
7.53388e-06
5.08848e-06
2.73993e-06
5.08046e-07
-1.59614e-06
-3.55332e-06
-5.34488e-06
-6.94732e-06
-8.34071e-06
-9.49871e-06
-1.04026e-05
-1.10188e-05
-1.13309e-05
-1.13155e-05
-1.09346e-05
-1.02099e-05
-9.08548e-06
-7.58697e-06
-5.65038e-06
-3.67338e-06
-8.05499e-07
1.9054e-06
5.28825e-06
8.77397e-06
1.26188e-05
1.66753e-05
2.09143e-05
2.52953e-05
2.97514e-05
3.42369e-05
3.87039e-05
4.31164e-05
4.74338e-05
5.16227e-05
5.56552e-05
5.94992e-05
6.31441e-05
6.65673e-05
6.97682e-05
7.27366e-05
7.54753e-05
7.79834e-05
8.02649e-05
8.23216e-05
8.41595e-05
8.57834e-05
8.72005e-05
8.84175e-05
8.94422e-05
9.02823e-05
9.09458e-05
9.14403e-05
9.17739e-05
9.19536e-05
9.19869e-05
9.18809e-05
9.16418e-05
9.12759e-05
9.07889e-05
9.0187e-05
8.94743e-05
8.86563e-05
8.77372e-05
8.67208e-05
8.56115e-05
8.44126e-05
8.31272e-05
8.17587e-05
8.03096e-05
7.8783e-05
7.71811e-05
7.55061e-05
7.37607e-05
7.19466e-05
7.00661e-05
6.81212e-05
6.61135e-05
6.4045e-05
6.1917e-05
5.97306e-05
5.74873e-05
5.51877e-05
5.28324e-05
5.04223e-05
4.7957e-05
4.54376e-05
4.28646e-05
4.02403e-05
3.75672e-05
3.485e-05
3.20958e-05
2.93131e-05
2.65136e-05
2.37098e-05
2.09159e-05
1.81459e-05
1.54146e-05
1.27343e-05
1.01203e-05
7.57915e-06
5.12904e-06
2.77481e-06
5.35802e-07
-1.57657e-06
-3.54295e-06
-5.34438e-06
-6.95724e-06
-8.36114e-06
-9.5297e-06
-1.04437e-05
-1.107e-05
-1.13914e-05
-1.1384e-05
-1.10108e-05
-1.02911e-05
-9.17287e-06
-7.67991e-06
-5.74557e-06
-3.76962e-06
-9.1941e-07
1.79697e-06
5.17523e-06
8.66336e-06
1.25104e-05
1.65711e-05
2.08184e-05
2.52088e-05
2.96759e-05
3.41729e-05
3.86521e-05
4.30767e-05
4.74064e-05
5.16073e-05
5.56509e-05
5.95051e-05
6.31586e-05
6.65894e-05
6.97965e-05
7.27703e-05
7.55134e-05
7.80253e-05
8.03101e-05
8.23697e-05
8.42101e-05
8.5836e-05
8.72548e-05
8.84732e-05
8.94991e-05
9.034e-05
9.10042e-05
9.14992e-05
9.18331e-05
9.20131e-05
9.20466e-05
9.19407e-05
9.17016e-05
9.13358e-05
9.08488e-05
9.02468e-05
8.95342e-05
8.87162e-05
8.7797e-05
8.67807e-05
8.56714e-05
8.44725e-05
8.31871e-05
8.18187e-05
8.03696e-05
7.88429e-05
7.72409e-05
7.55657e-05
7.382e-05
7.20057e-05
7.01247e-05
6.81791e-05
6.61706e-05
6.41011e-05
6.19719e-05
5.97842e-05
5.75395e-05
5.52382e-05
5.28812e-05
5.04693e-05
4.80025e-05
4.54818e-05
4.29079e-05
4.02831e-05
3.76102e-05
3.48938e-05
3.2141e-05
2.93601e-05
2.65626e-05
2.37608e-05
2.09684e-05
1.81992e-05
1.54678e-05
1.27864e-05
1.017e-05
7.62547e-06
5.17032e-06
2.81e-06
5.63405e-07
-1.5577e-06
-3.53387e-06
-5.34584e-06
-6.96983e-06
-8.38495e-06
-9.56482e-06
-1.04897e-05
-1.11268e-05
-1.1458e-05
-1.14592e-05
-1.10943e-05
-1.03801e-05
-9.26829e-06
-7.78113e-06
-5.8495e-06
-3.87422e-06
-1.04271e-06
1.6793e-06
5.05317e-06
8.54395e-06
1.23935e-05
1.6459e-05
2.07155e-05
2.51162e-05
2.95952e-05
3.41049e-05
3.85973e-05
4.30352e-05
4.73784e-05
5.15922e-05
5.56479e-05
5.95133e-05
6.31762e-05
6.66154e-05
6.98292e-05
7.28089e-05
7.55569e-05
7.8073e-05
8.03614e-05
8.24241e-05
8.42671e-05
8.58953e-05
8.73158e-05
8.85357e-05
8.95626e-05
9.04045e-05
9.10693e-05
9.15647e-05
9.18989e-05
9.20791e-05
9.21126e-05
9.20067e-05
9.17675e-05
9.14016e-05
9.09146e-05
9.03124e-05
8.95997e-05
8.87816e-05
8.78623e-05
8.6846e-05
8.57366e-05
8.45376e-05
8.32522e-05
8.18836e-05
8.04344e-05
7.89075e-05
7.73053e-05
7.56299e-05
7.38839e-05
7.2069e-05
7.01874e-05
6.82411e-05
6.62317e-05
6.41611e-05
6.20307e-05
5.98415e-05
5.75951e-05
5.52921e-05
5.29333e-05
5.05196e-05
4.80511e-05
4.5529e-05
4.29541e-05
4.03288e-05
3.76559e-05
3.49402e-05
3.21886e-05
2.94095e-05
2.66139e-05
2.38139e-05
2.10228e-05
1.82544e-05
1.55227e-05
1.284e-05
1.02209e-05
7.67269e-06
5.21217e-06
2.84534e-06
5.90662e-07
-1.53973e-06
-3.52633e-06
-5.34953e-06
-6.98537e-06
-8.41249e-06
-9.60444e-06
-1.05409e-05
-1.11897e-05
-1.15313e-05
-1.15418e-05
-1.11857e-05
-1.04774e-05
-9.37241e-06
-7.89128e-06
-5.96289e-06
-3.98792e-06
-1.17619e-06
1.55166e-06
4.92128e-06
8.415e-06
1.22676e-05
1.63385e-05
2.06049e-05
2.50169e-05
2.9509e-05
3.40325e-05
3.85394e-05
4.29918e-05
4.73495e-05
5.15776e-05
5.56464e-05
5.9524e-05
6.31971e-05
6.66454e-05
6.98667e-05
7.28528e-05
7.56061e-05
7.81269e-05
8.04192e-05
8.24852e-05
8.4331e-05
8.59615e-05
8.7384e-05
8.86053e-05
8.96334e-05
9.0476e-05
9.11414e-05
9.16372e-05
9.19716e-05
9.21518e-05
9.21853e-05
9.20792e-05
9.18399e-05
9.14737e-05
9.09865e-05
9.0384e-05
8.96711e-05
8.88527e-05
8.79333e-05
8.69167e-05
8.58071e-05
8.4608e-05
8.33224e-05
8.19536e-05
8.05042e-05
7.8977e-05
7.73745e-05
7.56987e-05
7.39522e-05
7.21368e-05
7.02545e-05
6.83073e-05
6.62968e-05
6.4225e-05
6.20931e-05
5.99024e-05
5.76542e-05
5.53493e-05
5.29886e-05
5.0573e-05
4.81028e-05
4.55791e-05
4.30031e-05
4.03772e-05
3.77043e-05
3.49892e-05
3.22388e-05
2.94612e-05
2.66674e-05
2.3869e-05
2.10792e-05
1.83112e-05
1.55791e-05
1.28948e-05
1.02728e-05
7.72064e-06
5.25437e-06
2.8806e-06
6.17339e-07
-1.52293e-06
-3.52062e-06
-5.35577e-06
-7.00424e-06
-8.44415e-06
-9.649e-06
-1.0598e-05
-1.1259e-05
-1.1612e-05
-1.16324e-05
-1.12857e-05
-1.05837e-05
-9.48594e-06
-8.01111e-06
-6.08651e-06
-4.11145e-06
-1.32073e-06
1.41324e-06
4.77877e-06
8.27575e-06
1.21317e-05
1.62089e-05
2.04861e-05
2.49103e-05
2.94168e-05
3.39553e-05
3.84779e-05
4.29461e-05
4.73197e-05
5.15633e-05
5.56464e-05
5.95372e-05
6.32216e-05
6.66798e-05
6.99092e-05
7.29023e-05
7.56615e-05
7.81873e-05
8.04838e-05
8.25535e-05
8.44023e-05
8.60353e-05
8.74597e-05
8.86825e-05
8.97117e-05
9.05551e-05
9.1221e-05
9.17171e-05
9.20515e-05
9.22317e-05
9.2265e-05
9.21586e-05
9.19189e-05
9.15524e-05
9.10648e-05
9.0462e-05
8.97486e-05
8.89299e-05
8.80101e-05
8.69932e-05
8.58833e-05
8.46838e-05
8.33979e-05
8.20288e-05
8.0579e-05
7.90515e-05
7.74485e-05
7.57722e-05
7.40251e-05
7.22089e-05
7.03258e-05