/*--------------------------------*- C++ -*----------------------------------*\
  =========                 |
  \\      /  F ield         | OpenFOAM: The Open Source CFD Toolbox
   \\    /   O peration     | Website:  https://openfoam.org
    \\  /    A nd           | Version:  8
     \\/     M anipulation  |
\*---------------------------------------------------------------------------*/
FoamFile
{
    version     2.0;
    format      ascii;
    class       volVectorField;
    location    "10000";
    object      U;
}
// * * * * * * * * * * * * * * * * * * * * * * * * * * * * * * * * * * * * * //

dimensions      [0 1 -1 0 0 0 0];

internalField   nonuniform List<vector> 
14751
(
(0.00161703 -6.44001e-08 0)
(0.00163312 -2.0487e-07 0)
(0.0016541 -2.90485e-08 2.06657e-27)
(0.00166514 -1.46763e-08 -2.06734e-27)
(0.0016764 6.73604e-08 8.13412e-27)
(0.00168113 1.27958e-07 -1.55362e-25)
(0.00168247 1.79547e-07 0)
(0.00168025 2.39262e-07 3.71014e-27)
(0.00167414 2.86197e-07 5.78089e-28)
(0.00166493 3.27297e-07 5.45256e-27)
(0.00165289 3.59073e-07 1.14838e-27)
(0.00163837 3.86496e-07 -7.45995e-25)
(0.00162163 4.05016e-07 0)
(0.00160336 4.15386e-07 2.84637e-26)
(0.0015838 4.20513e-07 9.1665e-25)
(0.0015634 4.14733e-07 5.04973e-25)
(0.00154252 4.05859e-07 -3.43854e-26)
(0.00152131 3.87467e-07 3.44159e-26)
(0.00150018 3.67512e-07 5.92341e-25)
(0.00147928 3.42264e-07 6.17817e-25)
(0.00145892 3.16929e-07 0)
(0.00143914 2.90953e-07 7.0516e-25)
(0.00142007 2.66114e-07 -4.20793e-26)
(0.00140185 2.41634e-07 4.42846e-26)
(0.00138462 2.19124e-07 -4.43183e-26)
(0.00136831 1.97849e-07 -1.46217e-24)
(0.00135296 1.78589e-07 0)
(0.00133859 1.60205e-07 -3.77129e-25)
(0.00132516 1.43621e-07 0)
(0.00131274 1.28138e-07 0)
(0.0013013 1.14123e-07 0)
(0.0012908 1.01295e-07 0)
(0.00128122 8.9866e-08 0)
(0.00127252 7.95171e-08 -2.45642e-26)
(0.00126466 7.02488e-08 2.45723e-26)
(0.00125758 6.17385e-08 -8.10154e-25)
(0.0012512 5.4494e-08 8.08206e-25)
(0.00124553 4.80674e-08 7.80622e-25)
(0.00124054 4.23564e-08 0)
(0.00123613 3.67469e-08 0)
(0.00123222 3.1971e-08 -5.95045e-27)
(0.00122888 2.90076e-08 5.95083e-27)
(0.00122604 2.55516e-08 5.82675e-27)
(0.00122369 2.36446e-08 -5.82715e-27)
(0.00122181 2.12325e-08 -2.83879e-27)
(0.0012203 1.95861e-08 2.83896e-27)
(0.00121913 1.81591e-08 1.37614e-27)
(0.00121828 1.74565e-08 3.47966e-25)
(0.00121769 1.68382e-08 0)
(0.00121735 1.67768e-08 -3.25229e-28)
(0.0012172 1.71739e-08 3.25224e-28)
(0.00121722 1.80769e-08 6.22217e-28)
(0.00121739 1.92308e-08 -6.222e-28)
(0.00121763 2.08077e-08 -1.1833e-27)
(0.0012179 2.27244e-08 -2.9998e-25)
(0.00121814 2.5405e-08 4.53761e-27)
(0.00121828 2.83048e-08 -2.23544e-27)
(0.00121825 3.23299e-08 0)
(0.00121786 3.734e-08 0)
(0.00121703 4.46323e-08 0)
(0.00121559 5.19437e-08 9.78917e-25)
(0.00121329 6.23797e-08 1.87177e-24)
(0.00120995 7.21792e-08 7.18181e-27)
(0.00120523 8.32066e-08 6.53646e-27)
(0.00119891 9.72844e-08 5.86846e-27)
(0.00119088 1.12455e-07 -4.10222e-25)
(0.00118106 1.28072e-07 3.7569e-25)
(0.00116944 1.42981e-07 0)
(0.0011562 1.57367e-07 -9.57922e-27)
(0.00114181 1.69e-07 9.57798e-27)
(0.00112681 1.77294e-07 0)
(0.00111193 1.80773e-07 0)
(0.00109799 1.79974e-07 0)
(0.00108573 1.74637e-07 0)
(0.00107587 1.65449e-07 -2.17204e-26)
(0.00106891 1.53344e-07 8.63123e-27)
(0.00106518 1.40038e-07 1.43417e-26)
(0.00106487 1.24124e-07 -1.29408e-26)
(0.00106799 1.09649e-07 1.1502e-26)
(0.00107455 8.94791e-08 4.39325e-27)
(0.00108444 7.27551e-08 -4.86985e-27)
(0.00109746 4.86518e-08 0)
(0.00111362 2.49907e-08 0)
(0.00113261 -3.58352e-09 -1.53677e-27)
(0.00115437 -3.37072e-08 1.53523e-27)
(0.0011787 -6.63906e-08 0)
(0.00120539 -9.82993e-08 0)
(0.0012342 -1.32598e-07 0)
(0.00126489 -1.63534e-07 0)
(0.00129723 -1.98087e-07 -1.74805e-25)
(0.00133079 -2.24019e-07 1.38858e-27)
(0.00136515 -2.49795e-07 0)
(0.00140031 -2.75921e-07 1.41212e-27)
(0.00143512 -2.81061e-07 6.97851e-27)
(0.00146966 -3.03822e-07 -3.65711e-27)
(0.00150343 -2.94351e-07 1.20018e-27)
(0.00153438 -2.79779e-07 2.97819e-26)
(0.0015617 -2.15311e-07 -3.96585e-28)
(0.00159344 -3.42007e-07 -2.51575e-26)
(0.00479433 -1.46949e-06 8.94615e-28)
(0.00483598 -1.85922e-06 0)
(0.00488863 -1.11446e-06 4.58588e-24)
(0.0049197 -8.19473e-07 1.91885e-25)
(0.00495049 -3.66847e-07 -2.02931e-23)
(0.00496606 9.39688e-08 -3.04239e-25)
(0.00497273 4.27697e-07 -2.4079e-25)
(0.00497029 7.9658e-07 0)
(0.00495795 1.11307e-06 5.13589e-23)
(0.00493762 1.39145e-06 -3.23802e-24)
(0.00490994 1.62712e-06 0)
(0.00487585 1.82994e-06 1.08886e-24)
(0.00483609 1.9876e-06 0)
(0.00479226 2.10188e-06 0)
(0.0047451 2.18584e-06 -8.0163e-23)
(0.00469567 2.22206e-06 -1.24901e-23)
(0.00464491 2.24468e-06 1.03173e-22)
(0.00459325 2.22666e-06 2.79231e-23)
(0.00454172 2.1959e-06 -2.8924e-23)
(0.00449071 2.13901e-06 -9.3737e-25)
(0.00444103 2.06811e-06 -1.58699e-23)
(0.00439277 1.98492e-06 1.49122e-23)
(0.00434634 1.89271e-06 0)
(0.00430206 1.79193e-06 0)
(0.00426026 1.68683e-06 0)
(0.00422082 1.57761e-06 2.25007e-24)
(0.00418387 1.47042e-06 -1.28266e-22)
(0.00414942 1.36086e-06 -1.67046e-22)
(0.00411745 1.25557e-06 0)
(0.00408808 1.15114e-06 6.68446e-23)
(0.00406124 1.05072e-06 8.67361e-23)
(0.00403686 9.53768e-07 -7.76723e-23)
(0.00401486 8.61977e-07 0)
(0.00399515 7.74395e-07 9.79143e-24)
(0.00397766 6.91771e-07 -9.80422e-23)
(0.00396217 6.13695e-07 1.59302e-23)
(0.00394853 5.42123e-07 -6.12316e-24)
(0.00393677 4.74656e-07 -4.02371e-23)
(0.00392674 4.12104e-07 0)
(0.00391825 3.52704e-07 0)
(0.0039111 2.98989e-07 4.76578e-24)
(0.0039054 2.52819e-07 -4.76777e-24)
(0.003901 2.07728e-07 1.6454e-23)
(0.00389785 1.69696e-07 2.33541e-24)
(0.00389591 1.32203e-07 0)
(0.00389489 1.00412e-07 0)
(0.00389475 7.12722e-08 0)
(0.00389537 4.7084e-08 -4.9227e-24)
(0.00389664 2.54017e-08 0)
(0.00389848 8.33157e-09 0)
(0.00390074 -4.63847e-09 -5.10133e-25)
(0.00390336 -1.36813e-08 5.10009e-25)
(0.00390623 -1.8562e-08 0)
(0.00390914 -1.84587e-08 -7.68101e-24)
(0.00391197 -1.36028e-08 1.54187e-23)
(0.00391451 -1.76344e-09 1.78891e-24)
(0.00391658 1.65638e-08 -1.41445e-23)
(0.00391787 4.81002e-08 -1.73265e-24)
(0.0039179 9.41485e-08 2.31177e-23)
(0.00391633 1.58741e-07 3.23408e-24)
(0.00391266 2.38639e-07 -4.51983e-24)
(0.00390612 3.44545e-07 6.14248e-26)
(0.00389611 4.66839e-07 0)
(0.0038817 6.12308e-07 -5.21572e-24)
(0.00386216 7.81439e-07 5.21437e-24)
(0.00383712 9.62531e-07 6.01595e-25)
(0.00380626 1.14639e-06 -5.67124e-25)
(0.00376958 1.31845e-06 0)
(0.00372759 1.46342e-06 0)
(0.00368157 1.55928e-06 -2.94048e-23)
(0.00363316 1.59215e-06 0)
(0.00358453 1.54853e-06 5.8506e-24)
(0.00353811 1.42917e-06 -5.84896e-24)
(0.00349621 1.23799e-06 0)
(0.003461 9.87455e-07 3.38356e-26)
(0.00343412 6.95182e-07 0)
(0.00341663 3.80397e-07 -2.45499e-26)
(0.00340914 5.11422e-08 0)
(0.00341173 -2.70681e-07 -1.61042e-23)
(0.00342437 -6.0135e-07 0)
(0.00344671 -9.01549e-07 7.50934e-27)
(0.00347813 -1.20836e-06 3.80196e-24)
(0.00351848 -1.48989e-06 -1.54312e-25)
(0.00356683 -1.76297e-06 -3.23494e-24)
(0.00362285 -2.01902e-06 0)
(0.00368585 -2.25973e-06 0)
(0.0037551 -2.47626e-06 0)
(0.00382984 -2.68037e-06 -1.36438e-23)
(0.00390928 -2.85361e-06 -1.53151e-23)
(0.00399261 -3.01388e-06 2.58843e-25)
(0.00407864 -3.11616e-06 5.47725e-25)
(0.00416619 -3.19942e-06 -5.44837e-25)
(0.00425492 -3.25412e-06 6.66157e-26)
(0.00434239 -3.21487e-06 -8.25191e-26)
(0.00442839 -3.21591e-06 -1.57697e-23)
(0.00451167 -3.03142e-06 4.48105e-25)
(0.00458779 -2.78767e-06 -1.09837e-23)
(0.00465792 -2.55599e-06 0)
(0.00473462 -2.82624e-06 3.64617e-26)
(0.00796417 -4.178e-06 -3.61615e-27)
(0.00802405 -4.69263e-06 -1.04371e-25)
(0.00810046 -3.16705e-06 -4.91244e-24)
(0.00815132 -2.36991e-06 -2.98808e-23)
(0.00820208 -1.32171e-06 2.30555e-23)
(0.00823312 -1.74159e-07 -1.47815e-24)
(0.00825113 7.06587e-07 0)
(0.00825626 1.65583e-06 0)
(0.00824724 2.5032e-06 1.47552e-22)
(0.00822657 3.25587e-06 -6.34332e-24)
(0.0081952 3.90923e-06 -2.29109e-22)
(0.00815454 4.47084e-06 -2.72097e-22)
(0.00810569 4.92887e-06 1.6466e-24)
(0.00805078 5.27985e-06 -3.49272e-22)
(0.00799096 5.54526e-06 4.6851e-22)
(0.0079277 5.69576e-06 -2.31397e-23)
(0.00786237 5.79601e-06 2.53224e-22)
(0.0077956 5.79516e-06 5.25171e-23)
(0.00772889 5.74861e-06 0)
(0.0076628 5.63719e-06 4.445e-22)
(0.00759847 5.47827e-06 -4.64095e-22)
(0.00753607 5.28328e-06 0)
(0.0074762 5.0581e-06 0)
(0.00741927 4.80935e-06 0)
(0.00736574 4.53972e-06 -2.79197e-22)
(0.00731553 4.25432e-06 0)
(0.00726883 3.96979e-06 -1.81927e-22)
(0.00722565 3.67453e-06 1.84334e-22)
(0.00718598 3.38825e-06 -2.99283e-22)
(0.00714995 3.10134e-06 -7.56379e-23)
(0.00711748 2.82199e-06 -9.54122e-23)
(0.00708849 2.54985e-06 9.59262e-23)
(0.00706286 2.28905e-06 3.27782e-22)
(0.00704047 2.03865e-06 -3.86423e-23)
(0.00702118 1.80076e-06 9.67101e-23)
(0.00700473 1.57352e-06 1.92966e-23)
(0.00699091 1.3637e-06 -9.68201e-24)
(0.00697973 1.16469e-06 2.87665e-23)
(0.00697098 9.79457e-07 0)
(0.00696442 8.02791e-07 -7.57797e-23)
(0.00695976 6.43421e-07 -9.34805e-24)
(0.00695711 5.00731e-07 9.34225e-24)
(0.00695626 3.63617e-07 -1.83879e-23)
(0.00695712 2.45036e-07 0)
(0.00695962 1.29547e-07 3.58101e-23)
(0.00696338 3.02285e-08 -2.1873e-24)
(0.00696831 -6.01554e-08 2.18509e-24)
(0.00697424 -1.36951e-07 3.20422e-24)
(0.006981 -2.04639e-07 -7.30333e-24)
(0.00698844 -2.58954e-07 -5.09134e-25)
(0.00699634 -3.0073e-07 8.26447e-24)
(0.00700458 -3.29567e-07 0)
(0.00701298 -3.44948e-07 -1.8856e-24)
(0.00702119 -3.43668e-07 1.29955e-23)
(0.00702899 -3.25633e-07 -1.81435e-23)
(0.00703605 -2.85267e-07 -5.96987e-23)
(0.00704201 -2.20423e-07 1.03829e-23)
(0.00704638 -1.1368e-07 6.7033e-24)
(0.0070484 4.14826e-08 -3.17447e-23)
(0.00704742 2.55531e-07 2.29321e-25)
(0.00704261 5.25044e-07 -9.43258e-23)
(0.00703272 8.75159e-07 9.10122e-23)
(0.00701669 1.29172e-06 1.61702e-23)
(0.00699308 1.78521e-06 7.23896e-23)
(0.00696062 2.35252e-06 7.90499e-23)
(0.00691854 2.96086e-06 8.41299e-23)
(0.00686614 3.58002e-06 -1.77237e-23)
(0.00680332 4.16156e-06 8.61812e-24)
(0.00673069 4.65138e-06 -1.24938e-22)
(0.00665008 4.9797e-06 1.51127e-23)
(0.00656407 5.09784e-06 2.68018e-23)
(0.00647614 4.96466e-06 -1.2859e-23)
(0.00639029 4.5776e-06 1.04857e-23)
(0.00631052 3.95188e-06 -1.982e-23)
(0.00624062 3.12928e-06 9.32283e-24)
(0.0061836 2.16815e-06 0)
(0.00614149 1.13112e-06 -5.0808e-23)
(0.00611547 5.76945e-08 8.31234e-23)
(0.00610589 -9.93171e-07 -4.88619e-23)
(0.00611258 -2.03771e-06 -4.77479e-23)
(0.00613501 -2.99509e-06 2.91003e-24)
(0.00617204 -3.93125e-06 -6.73431e-24)
(0.00622326 -4.78335e-06 1.55558e-25)
(0.00628712 -5.58094e-06 1.62459e-23)
(0.00636284 -6.30769e-06 2.73635e-23)
(0.00644915 -6.96392e-06 -3.84661e-23)
(0.00654475 -7.53344e-06 0)
(0.00664824 -8.03725e-06 9.98256e-24)
(0.00675832 -8.43927e-06 1.88176e-23)
(0.00687348 -8.76862e-06 -6.35693e-23)
(0.00699188 -8.94373e-06 -7.06503e-23)
(0.00711167 -9.03538e-06 5.41278e-25)
(0.00723209 -9.02737e-06 -6.90276e-23)
(0.00735028 -8.80877e-06 0)
(0.00746558 -8.61555e-06 1.58954e-23)
(0.00757664 -8.03039e-06 -8.7587e-25)
(0.00767861 -7.36342e-06 1.05324e-23)
(0.0077759 -6.8044e-06 1.43084e-25)
(0.00787955 -7.00988e-06 7.09173e-26)
(0.0110884 -8.02291e-06 2.68943e-27)
(0.0111565 -8.21954e-06 0)
(0.0112466 -5.74282e-06 3.54748e-23)
(0.0113118 -4.09826e-06 2.8852e-23)
(0.0113777 -2.21116e-06 3.57093e-25)
(0.0114224 -1.25872e-07 -2.04814e-22)
(0.0114511 1.57848e-06 0)
(0.0114647 3.34397e-06 0)
(0.0114614 4.95175e-06 -5.34916e-22)
(0.0114441 6.38278e-06 -1.36103e-23)
(0.0114139 7.63688e-06 -2.02576e-22)
(0.0113726 8.71009e-06 2.59507e-22)
(0.0113214 9.59932e-06 -5.84644e-22)
(0.0112629 1.02888e-05 3.09103e-22)
(0.0111984 1.08105e-05 -3.33515e-22)
(0.0111297 1.1129e-05 7.13637e-22)
(0.0110583 1.13298e-05 -3.78974e-22)
(0.0109851 1.13523e-05 8.50899e-22)
(0.0109117 1.12726e-05 -5.12353e-23)
(0.010839 1.10755e-05 -4.93217e-22)
(0.0107681 1.07803e-05 5.67601e-22)
(0.0106993 1.04132e-05 -5.77241e-23)
(0.0106333 9.98365e-06 6.11317e-23)
(0.0105705 9.50798e-06 -6.11158e-23)
(0.0105115 8.98603e-06 1.89045e-22)
(0.0104562 8.43324e-06 6.37634e-23)
(0.0104048 7.87525e-06 2.94277e-22)
(0.0103574 7.29513e-06 -5.28788e-22)
(0.0103139 6.72819e-06 2.67533e-22)
(0.0102746 6.15841e-06 5.04792e-22)
(0.0102392 5.60015e-06 -5.74917e-22)
(0.0102078 5.05407e-06 3.38246e-23)
(0.0101802 4.52718e-06 -2.71589e-22)
(0.0101563 4.01966e-06 0)
(0.0101359 3.53508e-06 -2.7065e-22)
(0.0101188 3.06947e-06 -1.68217e-23)
(0.0101048 2.63694e-06 5.7245e-26)
(0.0100938 2.22462e-06 -2.32759e-22)
(0.0100856 1.83776e-06 -2.8021e-22)
(0.0100801 1.46727e-06 1.95783e-22)
(0.0100769 1.13099e-06 8.02809e-24)
(0.0100761 8.22788e-07 -8.00161e-24)
(0.0100774 5.28285e-07 0)
(0.0100809 2.68014e-07 0)
(0.0100864 1.52032e-08 -3.04481e-23)
(0.0100935 -2.07199e-07 0)
(0.0101021 -4.10833e-07 5.87428e-23)
(0.0101121 -5.89083e-07 0)
(0.0101232 -7.47706e-07 7.05066e-24)
(0.0101354 -8.80663e-07 2.15527e-25)
(0.0101483 -9.88421e-07 -8.4046e-24)
(0.0101618 -1.06895e-06 4.91177e-24)
(0.0101758 -1.12216e-06 -3.24271e-24)
(0.0101897 -1.14035e-06 0)
(0.0102034 -1.122e-06 -5.97938e-24)
(0.0102164 -1.05649e-06 5.88683e-23)
(0.0102283 -9.36927e-07 -5.79412e-24)
(0.0102386 -7.36166e-07 0)
(0.0102464 -4.38965e-07 -7.4897e-23)
(0.010251 -2.26868e-08 -8.27471e-23)
(0.0102516 5.08705e-07 6.92071e-23)
(0.0102466 1.19993e-06 -6.69229e-23)
(0.010235 2.034e-06 1.45921e-22)
(0.0102151 3.02589e-06 -7.9034e-23)
(0.0101854 4.17335e-06 -6.69506e-23)
(0.0101448 5.42053e-06 -4.83193e-23)
(0.0100922 6.71414e-06 -1.56237e-23)
(0.0100267 7.96379e-06 1.38772e-23)
(0.00994848 9.06696e-06 -1.35467e-22)
(0.00985854 9.885e-06 2.16546e-22)
(0.00975893 1.03074e-05 1.13126e-23)
(0.0096529 1.02336e-05 -1.14757e-23)
(0.00954474 9.62616e-06 1.89158e-23)
(0.00943936 8.49038e-06 -1.91732e-23)
(0.00934196 6.89308e-06 1.49522e-23)
(0.00925723 4.94784e-06 -1.51095e-23)
(0.00918885 2.78955e-06 1.53729e-22)
(0.00913933 5.24502e-07 -1.59115e-22)
(0.00911 -1.72092e-06 1.76873e-22)
(0.00910113 -3.93365e-06 4.55731e-23)
(0.00911244 -5.98071e-06 5.97773e-23)
(0.00914259 -7.93944e-06 2.96619e-23)
(0.00919102 -9.71773e-06 -1.33156e-24)
(0.00925578 -1.13507e-05 -1.25266e-23)
(0.00933569 -1.28121e-05 2.44581e-23)
(0.00942893 -1.40987e-05 3.52665e-23)
(0.00953364 -1.51888e-05 -8.91847e-23)
(0.00964783 -1.61104e-05 -1.04944e-22)
(0.00976967 -1.68106e-05 -3.83267e-24)
(0.00989702 -1.73273e-05 7.12298e-23)
(0.0100275 -1.75514e-05 6.20906e-23)
(0.0101588 -1.75762e-05 0)
(0.0102897 -1.73898e-05 1.9779e-22)
(0.0104175 -1.68456e-05 -8.20141e-25)
(0.0105411 -1.6252e-05 9.38154e-25)
(0.0106598 -1.50683e-05 7.1617e-25)
(0.0107695 -1.37721e-05 -7.11563e-25)
(0.0108772 -1.26394e-05 4.48005e-29)
(0.010991 -1.24054e-05 -3.39858e-26)
(0.0140835 -1.24088e-05 1.11096e-28)
(0.0141465 -1.17372e-05 -1.85218e-25)
(0.0142358 -8.17513e-06 1.61824e-25)
(0.0143028 -5.35585e-06 0)
(0.0143709 -2.41158e-06 1.43425e-22)
(0.0144175 8.0894e-07 1.86357e-22)
(0.014446 3.58951e-06 0)
(0.0144578 6.36509e-06 0)
(0.0144508 8.92353e-06 3.22578e-22)
(0.014428 1.12018e-05 3.8117e-22)
(0.0143907 1.32055e-05 4.02621e-22)
(0.0143408 1.49122e-05 0)
(0.0142801 1.63342e-05 1.00738e-21)
(0.0142108 1.74386e-05 0)
(0.0141348 1.82679e-05 5.85787e-22)
(0.0140538 1.87892e-05 -6.23379e-22)
(0.0139696 1.90973e-05 -5.74045e-22)
(0.0138832 1.91394e-05 -7.75254e-22)
(0.0137964 1.90009e-05 -7.20841e-22)
(0.01371 1.86793e-05 0)
(0.0136255 1.81934e-05 -7.71749e-22)
(0.0135431 1.75878e-05 0)
(0.0134636 1.68777e-05 8.11642e-22)
(0.0133876 1.6091e-05 8.27626e-22)
(0.0133154 1.52267e-05 -5.30719e-23)
(0.0132473 1.43131e-05 -9.35353e-25)
(0.0131835 1.33828e-05 5.33733e-23)
(0.0131241 1.24183e-05 -4.337e-22)
(0.0130692 1.14689e-05 -5.47546e-23)
(0.0130187 1.05152e-05 -3.82931e-22)
(0.0129728 9.57757e-06 4.65204e-22)
(0.0129313 8.65894e-06 -2.72622e-23)
(0.0128941 7.769e-06 -2.72853e-23)
(0.0128611 6.90924e-06 2.71144e-23)
(0.0128323 6.08449e-06 2.15824e-22)
(0.0128073 5.28957e-06 4.28434e-22)
(0.012786 4.54515e-06 0)
(0.0127684 3.8333e-06 2.23311e-22)
(0.0127542 3.16145e-06 1.94807e-22)
(0.0127433 2.51711e-06 -8.98468e-23)
(0.0127355 1.9255e-06 -1.2705e-23)
(0.0127307 1.37491e-06 1.2403e-23)
(0.0127287 8.49956e-07 -1.23381e-23)
(0.0127295 3.75776e-07 0)
(0.012733 -8.33431e-08 0)
(0.0127388 -4.9675e-07 0)
(0.0127468 -8.79263e-07 -4.56102e-23)
(0.012757 -1.22334e-06 0)
(0.012769 -1.53499e-06 2.25247e-23)
(0.0127828 -1.80747e-06 -6.73799e-25)
(0.0127981 -2.04025e-06 1.28859e-24)
(0.0128148 -2.22933e-06 1.2267e-24)
(0.0128326 -2.37524e-06 2.38451e-24)
(0.0128513 -2.46532e-06 -4.87908e-24)
(0.0128705 -2.49598e-06 -7.49228e-23)
(0.0128899 -2.45186e-06 0)
(0.0129091 -2.32189e-06 -8.67584e-24)
(0.0129275 -2.07386e-06 2.81646e-25)
(0.0129447 -1.68401e-06 7.43857e-23)
(0.0129601 -1.11654e-06 6.37082e-23)
(0.0129728 -3.75499e-07 -7.52245e-24)
(0.0129819 5.99983e-07 -6.91729e-24)
(0.0129865 1.79269e-06 -9.91046e-23)
(0.0129854 3.22017e-06 1.32938e-23)
(0.0129775 4.88275e-06 -1.33934e-23)
(0.0129619 6.70753e-06 -1.21248e-23)
(0.0129375 8.62302e-06 2.14338e-22)
(0.0129038 1.05045e-05 -1.1702e-23)
(0.0128601 1.22103e-05 1.71836e-22)
(0.0128069 1.35414e-05 -1.4277e-22)
(0.0127448 1.43288e-05 -1.68591e-24)
(0.0126753 1.44122e-05 -1.86175e-23)
(0.0126009 1.37086e-05 0)
(0.0125247 1.21974e-05 -2.53595e-22)
(0.0124505 9.94719e-06 1.43901e-23)
(0.0123823 7.10108e-06 0)
(0.0123239 3.84511e-06 -8.17299e-23)
(0.0122786 3.43953e-07 6.81101e-23)
(0.0122489 -3.21033e-06 -1.08547e-22)
(0.0122364 -6.7544e-06 0)
(0.0122422 -1.00984e-05 -5.83888e-23)
(0.0122659 -1.32955e-05 -2.34249e-23)
(0.0123075 -1.62201e-05 2.96099e-24)
(0.0123657 -1.88887e-05 0)
(0.0124395 -2.12593e-05 -4.83422e-23)
(0.0125272 -2.33177e-05 -6.13428e-23)
(0.0126267 -2.50314e-05 8.79745e-23)
(0.0127357 -2.64264e-05 1.88692e-22)
(0.0128523 -2.74373e-05 -1.05451e-22)
(0.0129739 -2.81048e-05 -3.53436e-24)
(0.0130978 -2.83082e-05 1.23147e-22)
(0.0132213 -2.81485e-05 -1.25994e-22)
(0.0133433 -2.76318e-05 -1.22261e-22)
(0.0134611 -2.65927e-05 0)
(0.0135736 -2.53772e-05 -1.0645e-22)
(0.0136813 -2.34246e-05 -9.05055e-25)
(0.013781 -2.12891e-05 -6.65275e-25)
(0.0138813 -1.92943e-05 -4.18549e-29)
(0.0139884 -1.82468e-05 -3.16436e-26)
(0.016798 -1.64269e-05 -9.9483e-29)
(0.0168405 -1.43845e-05 9.85904e-29)
(0.0169111 -9.62545e-06 -2.98774e-23)
(0.0169613 -5.36414e-06 -9.04596e-23)
(0.017012 -1.18455e-06 1.26595e-22)
(0.017041 3.31669e-06 -3.27565e-22)
(0.0170504 7.36333e-06 0)
(0.017042 1.12814e-05 4.80832e-22)
(0.0170138 1.49135e-05 5.67702e-22)
(0.0169687 1.81406e-05 -3.26943e-22)
(0.0169085 2.09748e-05 -7.10234e-22)
(0.0168353 2.33732e-05 -8.08701e-22)
(0.0167509 2.5366e-05 -1.25364e-21)
(0.016658 2.69055e-05 0)
(0.0165584 2.8045e-05 4.90376e-22)
(0.016454 2.87603e-05 6.68532e-23)
(0.0163468 2.91468e-05 4.79525e-22)
(0.0162378 2.91734e-05 -7.2926e-23)
(0.016129 2.89264e-05 7.39416e-22)
(0.0160212 2.84237e-05 -1.29636e-21)
(0.0159159 2.76845e-05 6.27683e-22)
(0.0158135 2.67714e-05 -8.14397e-23)
(0.0157148 2.57069e-05 -5.73953e-22)
(0.0156203 2.45306e-05 -1.24574e-21)
(0.0155305 2.32444e-05 -8.32407e-23)
(0.0154455 2.18887e-05 6.79674e-22)
(0.0153658 2.05014e-05 -4.30749e-23)
(0.0152913 1.90693e-05 7.30351e-22)
(0.0152221 1.76517e-05 -6.89277e-22)
(0.0151583 1.62294e-05 -4.32561e-23)
(0.0150998 1.48279e-05 -6.45716e-22)
(0.0150466 1.34527e-05 0)
(0.0149985 1.21158e-05 0)
(0.0149555 1.08209e-05 2.12222e-23)
(0.0149174 9.57398e-06 -1.0551e-26)
(0.014884 8.36924e-06 -6.67997e-22)
(0.0148551 7.23237e-06 -2.06927e-23)
(0.0148306 6.14176e-06 3.26942e-22)
(0.0148104 5.10591e-06 -3.22947e-22)
(0.0147943 4.11058e-06 0)
(0.014782 3.18534e-06 1.47301e-22)
(0.0147735 2.31429e-06 9.71341e-24)
(0.0147686 1.48274e-06 9.45655e-24)
(0.0147672 7.1767e-07 -9.40564e-24)
(0.0147692 -2.24842e-08 -4.55861e-24)
(0.0147743 -7.02682e-07 9.00683e-24)
(0.0147824 -1.33951e-06 6.61996e-23)
(0.0147934 -1.9253e-06 2.14285e-24)
(0.014807 -2.4658e-06 -2.13466e-24)
(0.0148231 -2.95432e-06 -5.11698e-25)
(0.0148416 -3.38925e-06 5.10191e-25)
(0.0148623 -3.76489e-06 0)
(0.014885 -4.08232e-06 6.14525e-23)
(0.0149094 -4.32504e-06 0)
(0.0149353 -4.48758e-06 5.81866e-23)
(0.0149623 -4.55149e-06 -1.13064e-22)
(0.0149902 -4.50359e-06 0)
(0.0150186 -4.31096e-06 -1.06327e-22)
(0.015047 -3.94529e-06 6.31631e-24)
(0.0150753 -3.3616e-06 -6.32938e-24)
(0.0151028 -2.56409e-06 -1.91961e-22)
(0.0151289 -1.48289e-06 -1.85013e-22)
(0.0151531 -1.35328e-07 0)
(0.0151747 1.49525e-06 1.04298e-23)
(0.015193 3.41161e-06 -1.84659e-22)
(0.0152077 5.53164e-06 1.00969e-23)
(0.0152182 7.77482e-06 -4.68694e-22)
(0.0152242 9.99907e-06 3.57599e-23)
(0.0152254 1.20458e-05 2.54294e-22)
(0.0152222 1.36835e-05 1.54215e-23)
(0.0152147 1.47074e-05 -1.57871e-23)
(0.0152036 1.49144e-05 0)
(0.0151901 1.41774e-05 1.97287e-22)
(0.0151754 1.24382e-05 2.15973e-22)
(0.0151611 9.74226e-06 -1.15975e-23)
(0.0151493 6.23129e-06 0)
(0.0151418 2.11333e-06 -2.82314e-22)
(0.0151407 -2.40728e-06 2.80504e-23)
(0.0151478 -7.08943e-06 1.5773e-22)
(0.0151648 -1.18152e-05 1.69465e-23)
(0.015193 -1.63505e-05 -7.10798e-24)
(0.0152325 -2.06988e-05 -1.49885e-24)
(0.0152843 -2.47102e-05 4.16188e-24)
(0.0153477 -2.83667e-05 0)
(0.0154222 -3.16017e-05 7.14386e-23)
(0.0155068 -3.43783e-05 6.64956e-23)
(0.0155999 -3.66493e-05 -8.95711e-24)
(0.0156995 -3.84291e-05 -8.07575e-23)
(0.0158039 -3.96442e-05 9.03108e-23)
(0.0159106 -4.03291e-05 6.28657e-24)
(0.0160174 -4.03633e-05 -1.09949e-22)
(0.0161212 -3.98403e-05 3.35824e-22)
(0.0162214 -3.87948e-05 0)
(0.0163158 -3.70619e-05 0)
(0.0164034 -3.49949e-05 9.73405e-23)
(0.0164859 -3.21045e-05 -8.44774e-23)
(0.0165609 -2.89129e-05 -6.00178e-25)
(0.0166379 -2.57823e-05 3.77533e-29)
(0.0167223 -2.36004e-05 -2.86603e-26)
(0.0190984 -1.92014e-05 0)
(0.0191109 -1.54245e-05 -2.25348e-23)
(0.0191504 -9.38264e-06 1.42566e-25)
(0.0191708 -3.50715e-06 -7.85727e-23)
(0.0191903 2.03536e-06 -4.3447e-22)
(0.0191882 7.91e-06 2.79041e-22)
(0.0191662 1.33359e-05 3.45625e-22)
(0.0191263 1.84724e-05 -4.10045e-22)
(0.019067 2.32406e-05 -4.7221e-22)
(0.0189913 2.74634e-05 -1.77551e-23)
(0.018901 3.11586e-05 6.12595e-22)
(0.0187987 3.42634e-05 6.53039e-22)
(0.0186862 3.6827e-05 7.54116e-22)
(0.0185662 3.87895e-05 -4.55851e-23)
(0.0184407 4.02139e-05 -8.07606e-22)
(0.0183117 4.10905e-05 -8.51621e-22)
(0.018181 4.15107e-05 -8.92025e-22)
(0.0180499 4.14721e-05 5.94006e-23)
(0.0179201 4.10578e-05 -5.8689e-23)
(0.0177927 4.0309e-05 1.05238e-21)
(0.0176689 3.9246e-05 9.51804e-22)
(0.0175492 3.79493e-05 0)
(0.0174343 3.64499e-05 0)
(0.0173247 3.47993e-05 5.33842e-22)
(0.0172208 3.3005e-05 -6.80958e-23)
(0.0171229 3.1119e-05 -5.45253e-22)
(0.0170311 2.91841e-05 1.02276e-22)
(0.0169454 2.71943e-05 1.06404e-21)
(0.0168661 2.52162e-05 5.15433e-22)
(0.016793 2.32338e-05 6.18421e-22)
(0.016726 2.12772e-05 1.02877e-21)
(0.0166652 1.93549e-05 5.46535e-22)
(0.0166103 1.74814e-05 5.77899e-22)
(0.0165612 1.56624e-05 -5.7431e-22)
(0.0165177 1.39053e-05 3.35237e-23)
(0.0164797 1.22042e-05 7.81059e-22)
(0.0164469 1.05882e-05 1.64771e-23)
(0.0164192 9.03411e-06 -2.60424e-22)
(0.0163965 7.55113e-06 4.9863e-22)
(0.0163785 6.12382e-06 -2.38103e-22)
(0.016365 4.78349e-06 -1.2528e-22)
(0.016356 3.51148e-06 2.3922e-22)
(0.0163511 2.29458e-06 1.51881e-23)
(0.0163505 1.15933e-06 -7.51637e-24)
(0.0163538 6.12557e-08 1.17499e-22)
(0.0163609 -9.631e-07 -1.15381e-22)
(0.0163716 -1.93116e-06 -5.66004e-23)
(0.0163859 -2.83578e-06 0)
(0.0164034 -3.68225e-06 -4.11778e-23)
(0.0164243 -4.4645e-06 4.19507e-25)
(0.0164481 -5.18013e-06 2.59952e-23)
(0.0164749 -5.82232e-06 0)
(0.0165044 -6.39271e-06 3.81784e-27)
(0.0165365 -6.87255e-06 0)
(0.0165708 -7.25543e-06 0)
(0.0166074 -7.52186e-06 1.83054e-22)
(0.0166458 -7.6573e-06 8.89522e-23)
(0.0166858 -7.63002e-06 8.63358e-23)
(0.0167273 -7.41031e-06 1.67406e-22)
(0.01677 -6.95012e-06 1.52119e-22)
(0.0168136 -6.25457e-06 3.2329e-22)
(0.0168578 -5.25068e-06 1.41969e-22)
(0.0169023 -3.95653e-06 2.9202e-22)
(0.0169468 -2.35978e-06 2.89646e-22)
(0.016991 -4.59456e-07 4.04444e-22)
(0.0170348 1.65504e-06 2.58556e-22)
(0.017078 3.89593e-06 2.47222e-22)
(0.0171203 6.11058e-06 -1.42427e-23)
(0.0171619 8.13371e-06 -4.33748e-22)
(0.0172028 9.72116e-06 -2.12128e-22)
(0.017243 1.06574e-05 0)
(0.0172828 1.07285e-05 -3.8408e-22)
(0.0173225 9.79522e-06 -5.27054e-22)
(0.0173626 7.78819e-06 2.0973e-23)
(0.0174035 4.74105e-06 1.66302e-23)
(0.017446 7.83679e-07 -2.49214e-24)
(0.0174909 -3.88259e-06 2.04611e-22)
(0.017539 -9.04962e-06 0)
(0.0175912 -1.44678e-05 -1.48635e-22)
(0.0176483 -1.99872e-05 -5.80435e-24)
(0.017711 -2.53577e-05 2.39528e-24)
(0.0177793 -3.05274e-05 4.85961e-24)
(0.0178538 -3.53296e-05 -3.50161e-24)
(0.0179339 -3.96993e-05 3.51114e-23)
(0.0180194 -4.35476e-05 -1.33211e-22)
(0.0181093 -4.68101e-05 -6.79211e-24)
(0.0182023 -4.94186e-05 1.29403e-22)
(0.018297 -5.13652e-05 -1.46253e-22)
(0.0183918 -5.25702e-05 0)
(0.0184846 -5.30548e-05 -2.89686e-24)
(0.0185737 -5.27101e-05 -1.07711e-25)
(0.0186564 -5.16104e-05 -1.91295e-22)
(0.0187322 -4.98225e-05 0)
(0.0187999 -4.71998e-05 1.84312e-22)
(0.0188588 -4.40747e-05 -1.24974e-24)
(0.018911 -4.00879e-05 7.57776e-23)
(0.0189551 -3.56495e-05 0)
(0.0190008 -3.11685e-05 0)
(0.0190533 -2.76113e-05 2.50539e-26)
(0.0209685 -2.02045e-05 -4.01434e-26)
(0.0209492 -1.44754e-05 1.11749e-25)
(0.0209543 -7.07646e-06 -8.69635e-23)
(0.020941 5.0991e-07 2.69324e-22)
(0.0209252 7.50185e-06 1.86059e-22)
(0.0208887 1.47997e-05 -4.75918e-22)
(0.020833 2.16511e-05 -2.91701e-22)
(0.0207602 2.80312e-05 6.87664e-22)
(0.0206694 3.39425e-05 -8.05105e-22)
(0.0205635 3.91543e-05 9.06363e-22)
(0.0204447 4.3689e-05 1.63393e-23)
(0.0203154 4.74672e-05 -5.16129e-23)
(0.0201777 5.05546e-05 3.4985e-23)
(0.0200342 5.28852e-05 0)
(0.0198868 5.45304e-05 -1.37224e-21)
(0.0197376 5.54986e-05 7.41942e-22)
(0.0195883 5.5876e-05 7.31422e-22)
(0.0194401 5.56921e-05 4.86214e-23)
(0.0192947 5.50262e-05 1.47267e-21)
(0.0191531 5.39447e-05 4.94715e-23)
(0.0190163 5.24719e-05 -8.27489e-22)
(0.0188848 5.07039e-05 8.44096e-22)
(0.0187592 4.86812e-05 0)
(0.01864 4.64672e-05 0)
(0.0185275 4.40771e-05 0)
(0.0184219 4.15734e-05 0)
(0.0183233 3.9004e-05 0)
(0.0182317 3.63717e-05 -9.51944e-22)
(0.0181472 3.37482e-05 5.57713e-23)
(0.0180696 3.11226e-05 -4.48879e-22)
(0.0179989 2.85286e-05 -4.76394e-22)
(0.0179349 2.59781e-05 -1.31325e-21)
(0.0178776 2.34882e-05 -4.45219e-22)
(0.0178266 2.10669e-05 8.85607e-22)
(0.0177819 1.87226e-05 0)
(0.0177431 1.64501e-05 -4.36525e-22)
(0.0177101 1.42801e-05 4.32694e-22)
(0.0176829 1.21891e-05 4.28486e-22)
(0.017661 1.01864e-05 -2.25161e-22)
(0.0176444 8.25606e-06 2.22639e-22)
(0.0176329 6.42929e-06 1.28704e-23)
(0.0176264 4.68568e-06 -1.28165e-23)
(0.0176246 3.01359e-06 -2.01235e-22)
(0.0176274 1.43758e-06 6.15401e-24)
(0.0176347 -8.76728e-08 -1.09723e-22)
(0.0176463 -1.5262e-06 1.01947e-22)
(0.0176621 -2.8957e-06 0)
(0.017682 -4.19009e-06 -1.43257e-24)
(0.0177058 -5.4142e-06 2.41158e-23)
(0.0177333 -6.56313e-06 -6.94806e-25)
(0.0177646 -7.63399e-06 2.06731e-27)
(0.0177994 -8.61962e-06 -2.63106e-24)
(0.0178376 -9.52249e-06 -4.15649e-23)
(0.0178791 -1.0323e-05 2.57293e-24)
(0.0179237 -1.10149e-05 4.88745e-24)
(0.0179713 -1.15791e-05 -8.21834e-23)
(0.0180218 -1.20005e-05 -8.44947e-23)
(0.018075 -1.22488e-05 9.29569e-24)
(0.0181308 -1.22946e-05 -1.50877e-22)
(0.018189 -1.2091e-05 -1.29103e-22)
(0.0182496 -1.16451e-05 -4.00708e-22)
(0.0183124 -1.08851e-05 0)
(0.0183773 -9.82868e-06 -2.49466e-22)
(0.0184443 -8.46754e-06 -2.40502e-22)
(0.0185132 -6.80315e-06 -4.62909e-22)
(0.0185839 -4.92871e-06 -2.22165e-22)
(0.0186564 -2.93561e-06 2.12818e-22)
(0.0187307 -9.80398e-07 0)
(0.0188066 7.7191e-07 1.92981e-22)
(0.018884 2.07572e-06 -1.8282e-22)
(0.0189627 2.71505e-06 -3.23066e-22)
(0.0190426 2.47687e-06 6.20038e-22)
(0.0191235 1.21945e-06 5.92828e-22)
(0.0192052 -1.12805e-06 0)
(0.0192876 -4.53649e-06 2.58802e-22)
(0.0193708 -8.88202e-06 -1.45975e-23)
(0.0194549 -1.39678e-05 0)
(0.01954 -1.95821e-05 -1.5764e-22)
(0.0196266 -2.54762e-05 -6.87608e-24)
(0.0197147 -3.14757e-05 2.07954e-24)
(0.0198047 -3.73361e-05 5.04193e-24)
(0.0198963 -4.29574e-05 -6.62781e-23)
(0.0199896 -4.81744e-05 -6.01772e-24)
(0.020084 -5.28831e-05 -2.39035e-23)
(0.020179 -5.69778e-05 5.25462e-23)
(0.0202738 -6.03704e-05 5.76058e-24)
(0.020367 -6.29787e-05 -1.10219e-22)
(0.0204573 -6.47715e-05 1.24831e-22)
(0.0205435 -6.56689e-05 0)
(0.0206236 -6.5675e-05 3.09306e-22)
(0.0206962 -6.46983e-05 0)
(0.0207593 -6.27871e-05 0)
(0.0208124 -6.0039e-05 0)
(0.0208549 -5.6336e-05 -1.57745e-22)
(0.0208866 -5.19704e-05 -1.19473e-24)
(0.0209098 -4.67402e-05 9.16865e-25)
(0.0209238 -4.09009e-05 -5.59199e-25)
(0.0209376 -3.4908e-05 -3.82193e-23)
(0.0209568 -2.97975e-05 -5.69477e-29)
(0.0224652 -1.92586e-05 3.45444e-26)
(0.0224158 -1.14723e-05 1.64737e-23)
(0.0223877 -2.66396e-06 7.43961e-23)
(0.0223419 6.66109e-06 -2.29064e-22)
(0.0222922 1.51425e-05 1.41645e-24)
(0.0222232 2.38697e-05 4.00775e-22)
(0.0221365 3.21336e-05 -4.88901e-22)
(0.0220341 3.97343e-05 -5.82566e-22)
(0.0219156 4.67472e-05 6.67975e-22)
(0.021784 5.28963e-05 -5.26747e-25)
(0.0216415 5.82085e-05 0)
(0.0214906 6.25919e-05 8.71365e-22)
(0.0213332 6.61275e-05 2.90373e-23)
(0.021172 6.87475e-05 1.00529e-21)
(0.0210087 7.05322e-05 1.13468e-21)
(0.0208453 7.1509e-05 7.45832e-23)
(0.0206834 7.17603e-05 -1.28443e-21)
(0.0205241 7.13477e-05 1.25836e-21)
(0.0203691 7.03478e-05 -1.30136e-21)
(0.020219 6.88516e-05 1.33905e-21)
(0.0200749 6.68889e-05 -1.37244e-21)
(0.0199372 6.45705e-05 -7.00817e-22)
(0.0198063 6.19466e-05 1.47148e-21)
(0.0196827 5.90919e-05 1.06143e-24)
(0.0195667 5.60306e-05 -4.52832e-23)
(0.0194582 5.28348e-05 0)
(0.0193574 4.95574e-05 0)
(0.0192643 4.6211e-05 -7.48973e-22)
(0.0191788 4.28705e-05 -7.04419e-22)
(0.0191008 3.95314e-05 -9.40792e-23)
(0.0190303 3.62307e-05 4.69046e-23)
(0.0189669 3.29837e-05 7.52302e-22)
(0.0189106 2.98097e-05 -2.34704e-23)
(0.0188612 2.67193e-05 -3.50415e-22)
(0.0188184 2.37216e-05 0)
(0.018782 2.08127e-05 0)
(0.0187519 1.80235e-05 -7.5682e-22)
(0.0187278 1.53311e-05 -3.18496e-22)
(0.0187095 1.27445e-05 3.49295e-22)
(0.0186969 1.02475e-05 -1.11957e-23)
(0.0186898 7.87027e-06 1.09854e-23)
(0.018688 5.59118e-06 -1.85464e-22)
(0.0186914 3.4e-06 1.83017e-22)