/*--------------------------------*- C++ -*----------------------------------*\
| =========                 |                                                 |
| \\      /  F ield         | OpenFOAM: The Open Source CFD Toolbox           |
|  \\    /   O peration     | Version:  2312                                  |
|   \\  /    A nd           | Website:  www.openfoam.com                      |
|    \\/     M anipulation  |                                                 |
\*---------------------------------------------------------------------------*/
FoamFile
{
    version     2.0;
    format      ascii;
    arch        "LSB;label=64;scalar=64";
    class       volScalarField;
    location    "20";
    object      p;
}
// * * * * * * * * * * * * * * * * * * * * * * * * * * * * * * * * * * * * * //

dimensions      [0 2 -2 0 0 0 0];

internalField   nonuniform List<scalar> 
404911
(
0.344175
0.343724
0.343695
0.343903
0.34463
0.344102
0.34384
0.343912
0.34391
0.343907
0.349245
0.34784
0.346225
0.34535
0.344597
0.344166
0.351328
0.349952
0.34837
0.346994
0.353947
0.352592
0.350949
0.356804
0.355457
0.354136
0.359503
0.358206
0.357016
0.363232
0.362123
0.360783
0.359374
0.357978
0.364396
0.363248
0.361898
0.368145
0.366928
0.36563
0.364531
0.369804
0.368998
0.367955
0.366837
0.365939
0.370882
0.369868
0.368855
0.367781
0.373086
0.371955
0.370764
0.369829
0.373451
0.372791
0.384061
0.342562
0.344215
0.34366
0.347496
0.346111
0.351427
0.349791
0.348349
0.354011
0.352671
0.351031
0.356783
0.354947
0.35947
0.358389
0.356647
0.362184
0.360922
0.359303
0.357863
0.364519
0.36323
0.367043
0.365222
0.369175
0.368446
0.366689
0.3714
0.369877
0.373741
0.372128
0.370847
0.374476
0.373202
0.383893
0.384916
0.383548
0.388855
0.387351
0.38602
0.391695
0.390172
0.38865
0.394315
0.393194
0.391542
0.394249
0.134071
0.132581
0.131131
0.141149
0.139376
0.137418
0.136207
0.134875
0.13354
0.132354
0.130617
0.145183
0.143844
0.140325
0.138316
0.136604
0.135627
0.134332
0.132981
0.127468
0.150094
0.148582
0.147204
0.145873
0.144684
0.143681
0.141714
0.139432
0.137543
0.136428
0.135169
0.133627
0.131577
0.129217
0.127725
0.126641
0.154262
0.152412
0.150653
0.149098
0.147723
0.146452
0.145264
0.144153
0.142873
0.140771
0.138943
0.137493
0.136173
0.134584
0.127912
0.159473
0.157108
0.154916
0.152863
0.150952
0.149419
0.148126
0.146922
0.145729
0.144525
0.143125
0.14153
0.139931
0.138473
0.137399
0.162677
0.160796
0.158318
0.156035
0.153869
0.151642
0.149837
0.148443
0.147389
0.14626
0.145008
0.14367
0.142186
0.140694
0.139256
0.138065
0.168243
0.16602
0.163902
0.161808
0.159296
0.157115
0.154954
0.152519
0.15049
0.148894
0.147956
0.146816
0.145569
0.144229
0.14281
0.141365
0.140028
0.176135
0.173809
0.171946
0.169525
0.167188
0.165025
0.162963
0.160568
0.15835
0.155951
0.153325
0.151272
0.149768
0.148665
0.147492
0.146204
0.144873
0.143459
0.17989
0.177815
0.175282
0.173092
0.170793
0.168396
0.166295
0.163947
0.161733
0.159371
0.157131
0.154357
0.151789
0.150608
0.149487
0.148232
0.146927
0.145604
0.18504
0.183234
0.18149
0.179428
0.176862
0.174441
0.172101
0.169654
0.167412
0.165096
0.162792
0.160585
0.158331
0.155816
0.153182
0.151435
0.150356
0.149148
0.188111
0.186275
0.184475
0.182812
0.180647
0.178202
0.175889
0.173437
0.171033
0.168759
0.166407
0.164119
0.161732
0.159596
0.157537
0.154948
0.152632
0.192599
0.190997
0.189209
0.187604
0.185867
0.184043
0.181945
0.179617
0.177201
0.174805
0.172373
0.169951
0.167689
0.165422
0.163028
0.160737
0.15894
0.19693
0.194955
0.193453
0.192321
0.19079
0.189036
0.187241
0.185487
0.183503
0.181191
0.178693
0.176045
0.173501
0.171034
0.169115
0.166654
0.164065
0.162047
0.203043
0.201216
0.19859
0.196254
0.194281
0.193644
0.19209
0.190347
0.188603
0.186979
0.185368
0.18282
0.180067
0.177308
0.174644
0.171947
0.170112
0.168155
0.206954
0.205615
0.204369
0.203074
0.200636
0.197954
0.195651
0.194677
0.193463
0.191689
0.189768
0.188213
0.187154
0.184549
0.181274
0.178357
0.176015
0.173196
0.209427
0.207876
0.206547
0.205329
0.204301
0.202369
0.19996
0.197557
0.195666
0.194567
0.192507
0.19039
0.189138
0.188206
0.185861
0.182443
0.179148
0.177017
0.213624
0.211989
0.210265
0.208691
0.207425
0.20599
0.20471
0.203518
0.201787
0.199781
0.197191
0.195712
0.193902
0.191665
0.189857
0.18894
0.187027
0.183721
0.216592
0.214506
0.212931
0.211384
0.209596
0.208099
0.207061
0.205254
0.203793
0.202929
0.20185
0.199997
0.1977
0.195545
0.193258
0.19113
0.189723
0.18799
0.223134
0.221205
0.218482
0.216024
0.214099
0.212737
0.211057
0.209381
0.207956
0.206201
0.204261
0.20354
0.202663
0.201533
0.199886
0.197549
0.194946
0.192686
0.225933
0.224574
0.223292
0.220795
0.218226
0.216189
0.214341
0.212725
0.211015
0.209248
0.207363
0.205379
0.204383
0.203362
0.202184
0.20073
0.198784
0.229785
0.2284
0.226968
0.225763
0.224665
0.222677
0.220156
0.218098
0.216281
0.2143
0.21237
0.210634
0.208601
0.206559
0.205502
0.204331
0.20303
0.201569
0.232435
0.230958
0.229533
0.227987
0.226659
0.225646
0.223734
0.22173
0.219918
0.218009
0.216176
0.21413
0.212035
0.209777
0.207972
0.206604
0.205391
0.204044
0.234801
0.233495
0.232177
0.230819
0.229038
0.227284
0.226028
0.224616
0.222843
0.221641
0.220307
0.218215
0.215829
0.213623
0.211361
0.20963
0.207996
0.206571
0.238574
0.237208
0.235918
0.234652
0.233386
0.23228
0.230805
0.228643
0.226577
0.224955
0.22327
0.222278
0.221151
0.219966
0.217637
0.215146
0.212995
0.211061
0.242114
0.240803
0.239516
0.238268
0.237049
0.235834
0.234508
0.233147
0.232033
0.230015
0.228017
0.226103
0.223973
0.222928
0.221767
0.220411
0.218543
0.216506
0.244435
0.243068
0.241747
0.240518
0.239309
0.238169
0.237113
0.235999
0.23414
0.232394
0.230859
0.2293
0.227228
0.225001
0.223802
0.222601
0.221215
0.219567
0.248039
0.246667
0.245303
0.243986
0.242664
0.241447
0.240291
0.239209
0.238276
0.237468
0.2357
0.233947
0.232109
0.230236
0.228712
0.226649
0.224911
0.223611
0.250299
0.248935
0.247565
0.246237
0.244854
0.243518
0.242316
0.241191
0.240124
0.239163
0.238341
0.237031
0.235405
0.233562
0.231446
0.229933
0.228072
0.226318
0.252925
0.251227
0.249711
0.248462
0.247144
0.245651
0.244237
0.243088
0.242025
0.240962
0.239906
0.238822
0.237556
0.236036
0.234329
0.23262
0.230925
0.229145
0.255931
0.254305
0.252231
0.250383
0.249459
0.248237
0.246529
0.244739
0.243742
0.242827
0.241786
0.240674
0.239488
0.238177
0.236744
0.235208
0.233525
0.231965
0.259777
0.258454
0.257236
0.255971
0.25389
0.25187
0.250806
0.249793
0.248025
0.245969
0.244567
0.243721
0.242674
0.24152
0.240284
0.238998
0.23759
0.235991
0.262348
0.260903
0.259454
0.258074
0.256637
0.254955
0.253331
0.252152
0.251379
0.249732
0.247607
0.245868
0.244807
0.243673
0.242448
0.241217
0.239923
0.238562
0.264946
0.263542
0.262025
0.260574
0.258816
0.256967
0.255366
0.254142
0.253045
0.25208
0.250875
0.24915
0.247407
0.246019
0.244732
0.243483
0.242178
0.240972
0.267498
0.266052
0.264616
0.263155
0.261895
0.260158
0.257836
0.255644
0.254747
0.253782
0.252726
0.25153
0.250096
0.248606
0.247175
0.24582
0.244508
0.271659
0.270254
0.26873
0.267225
0.265651
0.264146
0.263056
0.261578
0.259136
0.256396
0.255413
0.254548
0.253527
0.252356
0.251042
0.249682
0.248236
0.246832
0.274283
0.272903
0.271495
0.270045
0.268434
0.266672
0.26487
0.263662
0.262635
0.260542
0.257504
0.256077
0.255398
0.254439
0.253298
0.252066
0.250745
0.249401
0.276571
0.275368
0.274127
0.272851
0.271561
0.269925
0.267991
0.266182
0.264441
0.263454
0.262079
0.259831
0.257411
0.256516
0.255501
0.254362
0.253122
0.251837
0.280051
0.27889
0.277672
0.27652
0.275371
0.274261
0.273295
0.271841
0.269697
0.267583
0.265601
0.264213
0.263366
0.261419
0.259264
0.257929
0.256724
0.255478
0.282294
0.281104
0.279947
0.278797
0.277661
0.276558
0.27553
0.27471
0.273456
0.27123
0.269016
0.266778
0.264788
0.264128
0.262806
0.261018
0.259417
0.2579
0.284584
0.283365
0.282173
0.281017
0.279868
0.278756
0.277668
0.276614
0.275715
0.27489
0.27339
0.270415
0.268313
0.265959
0.265
0.263814
0.26229
0.260837
0.286844
0.285632
0.284418
0.283229
0.282068
0.280931
0.279844
0.278765
0.277591
0.27638
0.275366
0.274471
0.272022
0.269702
0.267564
0.266246
0.264956
0.26354
0.289221
0.288026
0.286685
0.285455
0.284216
0.283063
0.281968
0.280936
0.279948
0.27875
0.276963
0.27565
0.274775
0.273182
0.270936
0.269228
0.267695
0.292742
0.291485
0.290267
0.289038
0.287736
0.286453
0.285134
0.283954
0.282931
0.281996
0.281176
0.280528
0.278624
0.276926
0.275225
0.274053
0.272364
0.270684
0.294924
0.293718
0.292544
0.291342
0.290156
0.28893
0.287543
0.285927
0.284605
0.283738
0.282955
0.282196
0.281615
0.280286
0.278278
0.276426
0.275048
0.273577
0.297229
0.295977
0.294748
0.293583
0.292387
0.29127
0.290228
0.289125
0.287208
0.285486
0.284542
0.283851
0.283019
0.282144
0.281021
0.279381
0.277726
0.276219
0.299552
0.298248
0.296986
0.295749
0.294544
0.29337
0.292304
0.291383
0.290702
0.289295
0.287172
0.285778
0.284877
0.28392
0.282876
0.281671
0.280327
0.27888
0.302025
0.300611
0.299245
0.297967
0.296689
0.295446
0.294263
0.293194
0.292242
0.291393
0.290306
0.288781
0.287254
0.286052
0.284923
0.283774
0.282552
0.28121
0.304675
0.303111
0.301597
0.300215
0.29888
0.297574
0.296285
0.29506
0.29396
0.292986
0.292024
0.290959
0.289709
0.288391
0.287154
0.285967
0.284764
0.283522
0.307583
0.305981
0.304167
0.302484
0.301025
0.299722
0.298442
0.29707
0.295728
0.294596
0.293693
0.292784
0.291774
0.290633
0.289422
0.288226
0.287023
0.285786
0.310198
0.308947
0.307494
0.305408
0.303097
0.301653
0.300469
0.299385
0.297974
0.296301
0.294965
0.294358
0.293631
0.292688
0.291611
0.290468
0.289279
0.288109
0.313934
0.312758
0.311521
0.31041
0.309349
0.30769
0.304938
0.302518
0.301001
0.300327
0.299552
0.297927
0.296465
0.295368
0.294645
0.293709
0.292643
0.291529
0.290371
0.316217
0.315093
0.313914
0.312772
0.31172
0.310942
0.309806
0.30741
0.305046
0.303157
0.301437
0.300809
0.299725
0.298121
0.296839
0.295873
0.29483
0.293754
0.317336
0.316197
0.315051
0.313904
0.312887
0.312054
0.311283
0.310119
0.307137
0.30506
0.303465
0.301909
0.301225
0.299904
0.298411
0.297184
0.295984
0.320838
0.319675
0.318492
0.317321
0.316141
0.31497
0.313888
0.312999
0.312289
0.311139
0.308682
0.306716
0.304961
0.303352
0.302238
0.301041
0.299746
0.29848
0.323102
0.32189
0.320728
0.319589
0.318431
0.317251
0.316
0.314727
0.31375
0.313146
0.312172
0.309992
0.308139
0.306124
0.304856
0.303563
0.302281
0.300913
0.325137
0.324008
0.3229
0.321775
0.320662
0.319561
0.318462
0.317183
0.315365
0.314156
0.31375
0.313165
0.311333
0.309569
0.307742
0.306244
0.30489
0.303583
0.325973
0.324821
0.323848
0.322782
0.321702
0.320659
0.319735
0.318926
0.316901
0.315377
0.314285
0.313663
0.312392
0.310711
0.309123
0.307607
0.306204
0.329218
0.327148
0.325554
0.324808
0.323809
0.322693
0.321628
0.320786
0.320188
0.318118
0.316424
0.315194
0.314321
0.313155
0.311785
0.310329
0.308899
0.335734
0.333427
0.331086
0.32884
0.32693
0.325972
0.324924
0.323696
0.32237
0.321483
0.321062
0.319343
0.317372
0.316333
0.31529
0.314128
0.312787
0.311445
0.338345
0.337112
0.335063
0.332665
0.330239
0.328436
0.327241
0.326191
0.324949
0.323303
0.322144
0.321699
0.320687
0.318941
0.317573
0.316375
0.315192
0.340677
0.33942
0.33793
0.335919
0.333846
0.331249
0.329336
0.328312
0.32745
0.326528
0.32496
0.323602
0.32246
0.321548
0.320204
0.318808
0.317523
0.344538
0.343128
0.341875
0.34061
0.33911
0.337158
0.335217
0.333092
0.330589
0.329345
0.32821
0.32734
0.326325
0.325067
0.323731
0.322607
0.321329
0.320044
0.347036
0.345609
0.344126
0.342965
0.341905
0.340741
0.339156
0.337235
0.335159
0.332645
0.331419
0.329997
0.32811
0.326905
0.326054
0.324956
0.323802
0.322586
0.35
0.348094
0.346737
0.345342
0.344179
0.343403
0.342601
0.341245
0.339678
0.337463
0.335504
0.333823
0.33207
0.3302
0.328206
0.327154
0.326184
0.325029
0.353184
0.351747
0.349876
0.348212
0.346955
0.345776
0.344735
0.344177
0.343158
0.341758
0.339757
0.337771
0.336089
0.334323
0.332408
0.330243
0.328789
0.327578
0.357308
0.355885
0.354485
0.352991
0.351461
0.349834
0.348399
0.347106
0.34605
0.345141
0.34409
0.34284
0.341374
0.339702
0.338401
0.336748
0.33485
0.332406
0.330506
0.359717
0.358415
0.357079
0.35579
0.354367
0.352775
0.351221
0.349531
0.348309
0.347137
0.346024
0.344818
0.343733
0.342558
0.341023
0.339418
0.337943
0.33616
0.334295
0.361005
0.359642
0.358139
0.356932
0.355505
0.353985
0.352404
0.350849
0.3494
0.34805
0.346949
0.345762
0.344585
0.343326
0.341902
0.340456
0.338902
0.337359
0.363958
0.362521
0.36105
0.359517
0.358148
0.356669
0.355121
0.353704
0.352222
0.350576
0.349155
0.347747
0.346747
0.345549
0.344254
0.342903
0.341488
0.366688
0.36527
0.363873
0.362379
0.360853
0.359366
0.357932
0.356553
0.354932
0.353355
0.35162
0.35034
0.349014
0.347847
0.346609
0.345313
0.343871
0.369565
0.367838
0.366532
0.365043
0.363652
0.362088
0.360674
0.359287
0.357855
0.356179
0.354501
0.35281
0.351542
0.350279
0.349022
0.34775
0.346439
0.373687
0.372272
0.370833
0.369183
0.367601
0.366095
0.364738
0.3632
0.361904
0.360535
0.359079
0.357609
0.355664
0.353971
0.35278
0.351495
0.350182
0.348928
0.376527
0.375058
0.373503
0.371943
0.37024
0.36867
0.367233
0.365756
0.364222
0.363008
0.361691
0.36041
0.35889
0.357185
0.355467
0.354103
0.352728
0.379347
0.377879
0.376352
0.374689
0.37283
0.371041
0.36962
0.368373
0.366845
0.365373
0.364133
0.362719
0.361421
0.36012
0.358473
0.356894
0.355442
0.382135
0.380644
0.379253
0.37768
0.375615
0.373655
0.372022
0.370335
0.369286
0.367965
0.366663
0.365388
0.364043
0.362536
0.36116
0.359673
0.358187
0.385074
0.383534
0.381954
0.380279
0.378808
0.376639
0.374649
0.3729
0.37158
0.370232
0.369163
0.367875
0.366544
0.365211
0.363775
0.362362
0.360915
0.387805
0.386398
0.384893
0.383374
0.381691
0.37989
0.377914
0.375736
0.373629
0.372683
0.371777
0.370511
0.369102
0.367749
0.366399
0.36499
0.363565
0.390533
0.388998
0.387645
0.386185
0.384771
0.383178
0.381322
0.379265
0.37741
0.375495
0.374127
0.373146
0.371909
0.370384
0.368994
0.36763
0.36623
0.392048
0.390094
0.388967
0.387437
0.38607
0.384389
0.382788
0.380962
0.378794
0.376885
0.375365
0.374234
0.37297
0.371593
0.370215
0.368833
0.396431
0.394117
0.391949
0.390459
0.388656
0.387244
0.385664
0.383838
0.381994
0.380154
0.378268
0.376603
0.37544
0.374163
0.372795
0.402014
0.400717
0.398483
0.396056
0.393757
0.391895
0.390107
0.388979
0.387213
0.385082
0.382884
0.380966
0.379632
0.378109
0.376719
0.375398
0.404898
0.403476
0.402114
0.400171
0.39791
0.395752
0.393383
0.391589
0.389916
0.388558
0.386613
0.3841
0.381614
0.380557
0.379349
0.378043
0.407721
0.40647
0.405113
0.403368
0.40148
0.39948
0.397619
0.39583
0.393754
0.39161
0.390061
0.388649
0.386123
0.383657
0.381857
0.380719
0.411926
0.410488
0.409109
0.407844
0.406786
0.40488
0.403018
0.401173
0.399449
0.397551
0.395576
0.39322
0.391006
0.389905
0.388049
0.385868
0.414542
0.413003
0.4117
0.410485
0.409234
0.407922
0.406131
0.40442
0.402791
0.401353
0.39951
0.39757
0.39523
0.393035
0.391257
0.389856
0.417515
0.415666
0.41402
0.412743
0.411654
0.410452
0.408881
0.407335
0.405768
0.404405
0.403235
0.402045
0.39992
0.397451
0.395071
0.392916
0.420941
0.418898
0.416788
0.414701
0.413657
0.412672
0.411487
0.409965
0.408433
0.406963
0.405826
0.404713
0.403634
0.402151
0.399523
0.397091
0.424543
0.422586
0.420577
0.418649
0.416633
0.414969
0.413889
0.412673
0.411102
0.409475
0.407984
0.406784
0.405749
0.404573
0.403109
0.401269
0.428039
0.426347
0.424359
0.422424
0.420569
0.418915
0.417227
0.415691
0.414229
0.412443
0.410566
0.408992
0.408032
0.4068
0.405535
0.431069
0.429798
0.428101
0.426104
0.424155
0.422237
0.420632
0.419097
0.417536
0.415894
0.414217
0.412129
0.410279
0.409267
0.408079
0.40681
0.433684
0.43237
0.431124
0.429648
0.427816
0.425773
0.424095
0.422284
0.420879
0.419273
0.417737
0.416201
0.414194
0.412146
0.410799
0.409391
0.4361
0.434894
0.433582
0.432311
0.430842
0.429074
0.427404
0.42573
0.424109
0.422527
0.421013
0.419576
0.418236
0.416299
0.414178
0.438218
0.43638
0.435056
0.433816
0.432271
0.430551
0.428845
0.427323
0.425842
0.424353
0.422625
0.421093
0.419487
0.417802
0.443801
0.441196
0.438663
0.436953
0.435321
0.433729
0.432003
0.430449
0.428866
0.427435
0.426038
0.42421
0.422544
0.448234
0.447001
0.44533
0.443466
0.440961
0.438857
0.437063
0.435304
0.433602
0.431977
0.430297
0.428746
0.427229
0.425508
0.450968
0.449487
0.448155
0.446652
0.444776
0.442697
0.440682
0.438636
0.436841
0.435049
0.433271
0.431696
0.430146
0.428593
0.453881
0.452453
0.450911
0.449209
0.447931
0.446209
0.444257
0.442217
0.440341
0.438605
0.436562
0.434631
0.433152
0.431619
0.456439
0.455355
0.454069
0.452547
0.450897
0.449237
0.447661
0.445764
0.44371
0.441885
0.440299
0.438229
0.436369
0.434643
0.458647
0.457687
0.456783
0.455713
0.454252
0.452815
0.450937
0.449237
0.447147
0.444964
0.44312
0.441584
0.439793
0.438041
0.460744
0.45963
0.458712
0.458274
0.457305
0.455876
0.454374
0.452954
0.451235
0.448973
0.446189
0.444405
0.442867
0.459722
0.459296
0.457836
0.456002
0.454756
0.45354
0.450967
0.447935
0.445802
0.461137
0.460794
0.459586
0.457676
0.45595
0.454779
0.452894
0.450131
0.464065
0.46253
0.462051
0.461432
0.459755
0.457702
0.456071
0.469149
0.46721
0.465027
0.463486
0.462759
0.461357
0.459535
0.469306
0.467732
0.465983
0.464452
0.463068
0.476269
0.473409
0.470463
0.469473
0.467899
0.466289
0.490031
0.488734
0.481718
0.479039
0.471008
0.49052
0.48879
0.487137
0.485625
0.484037
0.475277
0.493066
0.486225
0.484669
0.483103
0.480659
0.494564
0.490483
0.486822
0.0299305
0.0284296
0.0271296
0.0400691
0.0382239
0.036182
0.034326
0.0323816
0.0305025
0.0288203
0.0274134
0.0212721
0.0487785
0.0468499
0.0446631
0.0426917
0.0406942
0.0387337
0.0367856
0.0348333
0.0328266
0.0308732
0.0290712
0.0274782
0.0258345
0.0239126
0.0221072
0.0557442
0.0536837
0.0515884
0.0494648
0.0473805
0.0452286
0.0431741
0.0412116
0.0393034
0.0373965
0.0354256
0.0332161
0.0310749
0.0292225
0.0275767
0.0259431
0.0242006
0.0224081
0.0206838
0.0184534
0.0159314
0.013663
0.0634849
0.0612163
0.0587701
0.0564589
0.0542639
0.0521712
0.0500888
0.0479201
0.0457232
0.0436057
0.0416464
0.0398094
0.0380287
0.0362066
0.0340819
0.0314773
0.0291625
0.0276957
0.0261224
0.0244479
0.0226941
0.0208368
0.0187874
0.0713325
0.0690532
0.066965
0.0645875
0.0620833
0.059388
0.0569099
0.05475
0.0527825
0.0507461
0.0485201
0.0461306
0.0438928
0.0419557
0.040174
0.0385877
0.0371491
0.0350107
0.0317921
0.0291584
0.0278654
0.0263703
0.0247173
0.0230116
0.021333
0.0773762
0.0746907
0.0724497
0.0701698
0.0680488
0.0656487
0.0633183
0.0603012
0.0574783
0.055065
0.0533765
0.051524
0.0493301
0.0464662
0.0438941
0.0421119
0.0404693
0.0389415
0.0376197
0.0355753
0.0323304
0.0295541
0.028206
0.0266922
0.0250633
0.0856911
0.0817432
0.0777929
0.075804
0.0735287
0.0709787
0.0690124
0.0675476
0.065002
0.0618518
0.058489
0.0553366
0.0539962
0.0524336
0.0507149
0.0474858
0.0440432
0.0422037
0.0406738
0.0391152
0.0375781
0.0358757
0.0329723
0.030389
0.0287293
0.093911
0.0902609
0.0864889
0.0824232
0.0787077
0.0769036
0.0750573
0.072069
0.0695294
0.0686101
0.0666634
0.0636419
0.0602999
0.056903
0.0545264
0.0533484
0.0518943
0.0483949
0.0445094
0.0424364
0.0408814
0.0392188
0.0375163
0.0355761
0.0333548
0.105333
0.10307
0.0991503
0.0953562
0.091252
0.0870341
0.0829748
0.0801089
0.07777
0.0761338
0.0732438
0.0703355
0.0693681
0.0680759
0.0656731
0.0626201
0.0591088
0.0557182
0.0539347
0.0521347
0.0490512
0.0451274
0.0429956
0.041193
0.0394105
0.0376338
0.112639
0.110685
0.108592
0.106684
0.103996
0.100275
0.0967333
0.0919533
0.0878054
0.0846021
0.0818944
0.0786821
0.0760844
0.0734355
0.071388
0.0700091
0.0686142
0.066853
0.0644394
0.0612777
0.0576682
0.0549175
0.051999
0.0487188
0.0459932
0.0435856
0.0416767
0.115652
0.113705
0.111704
0.109795
0.107721
0.105011
0.100858
0.0979735
0.0938797
0.0898989
0.0864527
0.0832714
0.0800528
0.0769382
0.0735273
0.0721532
0.0707891
0.0692961
0.0676059
0.0656031
0.0630255
0.059692
0.056416
0.0532447
0.0495095
0.126791
0.125004
0.121511
0.11777
0.115206
0.112587
0.111044
0.108736
0.105852
0.10268
0.0993513
0.0957743
0.0921441
0.0882165
0.0847183
0.0813256
0.0779005
0.0742498
0.072918
0.0715952
0.0701311
0.0686264
0.0669817
0.0649201
0.0615427
0.130228
0.127673
0.126114
0.12385
0.120762
0.118164
0.114822
0.112532
0.110252
0.107321
0.104022
0.101223
0.0974878
0.0939203
0.0898306
0.0861928
0.0825762
0.0789314
0.0754022
0.0738636
0.0724542
0.0710482
0.0696083
0.068133
0.136993
0.135676
0.134255
0.131804
0.129152
0.127346
0.125523
0.122905
0.120062
0.117228
0.114602
0.11202
0.109224
0.105474
0.10319
0.0993936
0.0958513
0.0918585
0.0877849
0.0837561
0.0798828
0.0766269
0.074909
0.0732917
0.0718093
0.140948
0.139327
0.137774
0.136473
0.135295
0.13319
0.130917
0.129183
0.127932
0.124855
0.122077
0.119336
0.116682
0.114024
0.111368
0.108708
0.105139
0.102021
0.0979552
0.0941434
0.0900421
0.0852159
0.0800742
0.0778157
0.0757034
0.144905
0.143339
0.141808
0.140172
0.13851
0.137034
0.135648
0.134063
0.132412
0.130973
0.129355
0.126571
0.124007
0.121373
0.118489
0.116121
0.113111
0.11069
0.107717
0.104213
0.100617
0.0967022
0.0926588
0.0878181
0.0828712
0.150449
0.148834
0.147206
0.145726
0.144261
0.142775
0.141072
0.139201
0.137545
0.1361
0.13482
0.133493
0.132318
0.130656
0.127958
0.12567
0.123301
0.120473
0.118611
0.115778
0.112186
0.109791
0.106594
0.103133
0.0995968
0.0955338
0.154834
0.153073
0.151205
0.149545
0.147993
0.146477
0.145118
0.143777
0.142309
0.140061
0.138011
0.136545
0.135561
0.134326
0.133048
0.131409
0.128905
0.127367
0.125671
0.122893
0.121466
0.119242
0.115351
0.112189
0.109171
0.105836
0.159755
0.157778
0.155661
0.153748
0.151946
0.150187
0.148601
0.14716
0.145857
0.14467
0.14366
0.141657
0.139168
0.137457
0.136416
0.135147
0.133606
0.131579
0.129265
0.127598
0.12609
0.124226
0.122623
0.121043
0.117848
0.114641
0.111591
0.164724
0.162735
0.16069
0.158625
0.156478
0.1544
0.152477
0.150721
0.149116
0.147714
0.146443
0.145267
0.144183
0.142813
0.14063
0.138792
0.137459
0.136197
0.134587
0.132479
0.129156
0.127689
0.126405
0.124832
0.123354
0.121971
0.120134
0.168066
0.165855
0.163809
0.161755
0.159591
0.157179
0.154967
0.152888
0.150973
0.149394
0.148115
0.146929
0.145746
0.144524
0.143142
0.14151
0.139876
0.138473
0.137419
0.135863
0.133251
0.130588
0.128414
0.127064
0.125496
0.123922
0.17365
0.171435
0.169179
0.167004
0.164816
0.162798
0.160794
0.158205
0.155785
0.153559
0.15136
0.14952
0.148396
0.147389
0.146243
0.144991
0.143627
0.142157
0.140671
0.139267
0.138048
0.136583
0.134155
0.131492
0.129495
0.127826
0.178926
0.176951
0.174786
0.172686
0.170443
0.168171
0.165744
0.163764
0.161648
0.159344
0.15703
0.154708
0.152446
0.150237
0.148844
0.147935
0.146811
0.145555
0.144197
0.142767
0.141346
0.13989
0.138364
0.136742
0.134845
0.132622
0.182297
0.180282
0.178319
0.176122
0.17375
0.171789
0.169318
0.166928
0.164826
0.1627
0.160467
0.15816
0.155691
0.153229
0.151055
0.149741
0.148658
0.147484
0.146209
0.144817
0.143355
0.141967
0.140463
0.13896
0.137323
0.187383
0.185488
0.183624
0.181781
0.179873
0.177765
0.175034
0.172871
0.170609
0.168261
0.166022
0.163853
0.161605
0.159267
0.15687
0.154165
0.151678
0.15057
0.149481
0.148244
0.146958
0.145549
0.14408
0.142625
0.141174
0.139684
0.192116
0.190338
0.188539
0.186761
0.184935
0.183116
0.181466
0.179403
0.176662
0.174259
0.171908
0.169492
0.167214
0.165025
0.162775
0.160462
0.158237
0.155731
0.152966
0.151433
0.150438
0.149129
0.147712
0.146314
0.144877
0.143354
0.196817
0.19502
0.193175
0.191454
0.189706
0.18802
0.186246
0.184415
0.182674
0.180529
0.178006
0.17571
0.173283
0.170885
0.168546
0.166283
0.164012
0.161596
0.15949
0.157554
0.155036
0.1529
0.151543
0.150064
0.148618
0.147143
0.145702
0.199885
0.197918
0.196038
0.194153
0.192523
0.190887
0.18926
0.187634
0.185736
0.183786
0.181709
0.179406
0.177036
0.174602
0.172144
0.169787
0.167578
0.165222
0.162866
0.160602
0.158753
0.156528
0.154395
0.152667
0.151037
0.149567
0.204645
0.202961
0.201224
0.199221
0.197014
0.194957
0.193423
0.19215
0.190579
0.188946
0.18709
0.185254
0.183325
0.181067
0.178558
0.175841
0.173232
0.170865
0.169119
0.16622
0.164123
0.161969
0.15986
0.157739
0.155549
0.153756
0.207356
0.205805
0.204308
0.202758
0.201005
0.198358
0.195869
0.19429
0.193493
0.192054
0.190265
0.188447
0.186829
0.185432
0.182794
0.179841
0.177037
0.174304
0.171592
0.17014
0.167845
0.165341
0.16326
0.161132
0.158937
0.211546
0.209987
0.208431
0.206888
0.205455
0.20421
0.203091
0.200546
0.197605
0.195612
0.194698
0.193591
0.191682
0.18974
0.188165
0.186974
0.184425
0.180935
0.177996
0.17582
0.173065
0.171
0.168827
0.166694
0.1645
0.214495
0.212697
0.211043
0.209475
0.207909
0.206517
0.205282
0.204247
0.202239
0.199489
0.19738
0.19579
0.194601
0.192681
0.190436
0.189109
0.188151
0.185707
0.182061
0.179128
0.17692
0.174391
0.172108
0.169793
0.167851
0.21962
0.217606
0.215611
0.213714
0.212009
0.210387
0.208755
0.207399
0.206059
0.204736
0.203493
0.201655
0.199603
0.197397
0.19571
0.193886
0.191405
0.189829
0.188996
0.186214
0.183306
0.180798
0.178302
0.17587
0.173359
0.223032
0.221106
0.21905
0.21675
0.214573
0.212944
0.211389
0.209554
0.208096
0.206955
0.205165
0.203849
0.202845
0.201625
0.199932
0.197844
0.195718
0.193226
0.191139
0.189791
0.187555
0.184612
0.1823
0.17984
0.177284
0.227341
0.225873
0.224369
0.222794
0.220993
0.218279
0.215602
0.213892
0.212661
0.211046
0.209234
0.207823
0.206038
0.20442
0.203535
0.202602
0.201447
0.199935
0.197667
0.195075
0.1928
0.190865
0.188662
0.186061
0.183733
0.230003
0.228593
0.227126
0.225732
0.224422
0.223373
0.22096
0.218148
0.216047
0.214371
0.212779
0.210932
0.209122
0.207094
0.205469
0.204425
0.203394
0.202125
0.200608
0.198671
0.196604
0.194463
0.192361
0.189801
0.233917
0.232549
0.231146
0.229719
0.228286
0.2269
0.22573
0.224611
0.222696
0.220268
0.218222
0.216296
0.214338
0.212427
0.210387
0.208322
0.206626
0.205505
0.204335
0.202986
0.201432
0.199768
0.197963
0.195966
0.194083
0.236347
0.234971
0.233673
0.232335
0.230906
0.22951
0.22793
0.226629
0.22548
0.223719
0.221808
0.220111
0.218343
0.216193
0.21423
0.211875
0.209496
0.208072
0.206755
0.205438
0.204036
0.202465
0.200938
0.199205
0.240013
0.238708
0.237394
0.236045
0.234768
0.233479
0.232121
0.230728
0.229053
0.227361
0.226028
0.224537
0.222906
0.221583
0.220299
0.218293
0.215941
0.213538
0.211198
0.209635
0.208196
0.206678
0.205172
0.20367
0.20212
0.242436
0.241058
0.239748
0.238467
0.237125
0.235872
0.234619
0.233337
0.232114
0.230542
0.228509
0.226693
0.225074
0.223417
0.222301
0.221145
0.219763
0.217678
0.215193
0.213072
0.211206
0.209474
0.207924
0.206384
0.246151
0.244804
0.243427
0.242054
0.240726
0.239479
0.238231
0.236979
0.235776
0.23447
0.233091
0.231738
0.229837
0.227946
0.225984
0.224128
0.222982
0.22178
0.220331
0.218454
0.216387
0.214452
0.212566
0.210846
0.209255
0.248492
0.247116
0.245748
0.244414
0.243053
0.241714
0.240466
0.239246
0.2381
0.237016
0.235793
0.234054
0.232432
0.230813
0.229145
0.227171
0.225169
0.223875
0.222594
0.221166
0.219398
0.217475
0.215693
0.213888
0.250903
0.249478
0.248061
0.246658
0.245331
0.243974
0.242644
0.241423
0.240251
0.239156
0.238181
0.237168
0.235502
0.233738
0.231956
0.230221
0.228615
0.226679
0.225081
0.223612
0.222104
0.220425
0.218713
0.216952
0.254884
0.253466
0.251987
0.250426
0.248978
0.247575
0.246246
0.244872
0.243533
0.24231
0.24117
0.240087
0.239097
0.238148
0.236758
0.235147
0.233363
0.231394
0.229787
0.227962
0.22627
0.224726
0.223139
0.221426
0.219859
0.25747
0.256064
0.254624
0.253005
0.251357
0.249788
0.248478
0.247173
0.245709
0.244293
0.243106
0.242017
0.240935
0.239858
0.238746
0.237455
0.23593
0.234284
0.23254
0.230821
0.229065
0.227422
0.225896
0.224328
0.260228
0.258668
0.257281
0.255887
0.254269
0.25227
0.250609
0.249485
0.248259
0.246671
0.244966
0.243809
0.242843
0.241778
0.240648
0.239444
0.238118
0.236655
0.235136
0.233535
0.231874
0.230207
0.228564
0.226976
0.262697
0.261288
0.259821
0.25843
0.257151
0.255877
0.25388
0.25201
0.250814
0.249695
0.248048
0.246077
0.244689
0.243752
0.242683
0.241516
0.240255
0.23894
0.237496
0.235941
0.234452
0.232871
0.231285
0.266649
0.265282
0.263884
0.262387
0.260937
0.259518
0.258124
0.256656
0.254963
0.253344
0.252134
0.251178
0.249679
0.247672
0.245982
0.24484
0.243685
0.24246
0.241196
0.239851
0.238407
0.236912
0.235454
0.233895
0.269324
0.267824
0.266395
0.264965
0.263525
0.262041
0.260613
0.258933
0.257109
0.255472
0.254177
0.253057
0.252042
0.250783
0.249103
0.247423
0.246036
0.244748
0.24347
0.242195
0.240834
0.239386
0.237922
0.236477
0.2718
0.270422
0.268992
0.267558
0.266087
0.264612
0.263137
0.261825
0.260105
0.257905
0.255961
0.254822
0.253813
0.252735
0.251501
0.250081
0.248593
0.247178
0.245819
0.244488
0.243159
0.241814
0.24037
0.275591
0.274288
0.272958
0.271565
0.270157
0.268731
0.267251
0.265687
0.264171
0.262957
0.261438
0.259146
0.256846
0.255557
0.254603
0.253548
0.252354
0.251027
0.249671
0.248228
0.24684
0.245523
0.244198
0.242743
0.277964
0.276666
0.275428
0.274161
0.272815
0.271429
0.269987
0.268448
0.266744
0.265025
0.263699
0.262539
0.260589
0.25814
0.256394
0.255486
0.254482
0.253313
0.252064
0.250734
0.249353
0.247967
0.246615
0.245274
0.28013
0.27895
0.277752
0.276533
0.275321
0.274055
0.272732
0.271438
0.269864
0.268006
0.266177
0.264503
0.263415
0.262001
0.259863
0.257768
0.256621
0.255566
0.254381
0.253173
0.251821
0.250454
0.24906
0.24769
0.28247
0.281241
0.280025
0.27882
0.277652
0.276477
0.275304
0.27416
0.27308
0.271571
0.26953
0.267537
0.265618
0.264294
0.263229
0.261474
0.25945
0.258031
0.256774
0.255525
0.254264
0.252902
0.251575
0.285911
0.284773
0.283538
0.282304
0.281111
0.279919
0.278753
0.277605
0.276488
0.275436
0.274498
0.273122
0.271027
0.268907
0.26684
0.265109
0.264125
0.26277
0.261029
0.259468
0.258042
0.256719
0.25541
0.25395
0.288298
0.287017
0.285812
0.284591
0.283375
0.282183
0.281012
0.279849
0.27872
0.277613
0.276537
0.275567
0.274489
0.272667
0.270336
0.268193
0.266224
0.265052
0.263822
0.262294
0.260829
0.259371
0.257964
0.256604
0.290548
0.289345
0.288167
0.286887
0.285653
0.284427
0.283235
0.282062
0.280919
0.279814
0.278713
0.277534
0.276315
0.275212
0.273894