/*--------------------------------*- C++ -*----------------------------------*\
| =========                 |                                                 |
| \\      /  F ield         | OpenFOAM: The Open Source CFD Toolbox           |
|  \\    /   O peration     | Version:  2312                                  |
|   \\  /    A nd           | Website:  www.openfoam.com                      |
|    \\/     M anipulation  |                                                 |
\*---------------------------------------------------------------------------*/
FoamFile
{
    version     2.0;
    format      ascii;
    arch        "LSB;label=64;scalar=64";
    class       volScalarField;
    location    "20";
    object      Ndy;
}
// * * * * * * * * * * * * * * * * * * * * * * * * * * * * * * * * * * * * * //

dimensions      [0 0 0 0 0 0 0];

internalField   nonuniform List<scalar> 
404911
(
0.431082
0.945962
0.0614037
0.0840734
1.09046
1.00722
0.732901
0.144339
0.19614
0.210516
0.450407
0.342333
1.12984
0.492484
0.2847
0.128141
0.478981
1.10819
1.27393
0.480454
0.468013
1.14851
0.469983
0.475236
1.10814
0.20465
0.46618
1.12587
1.12593
0.162194
0.456953
1.12634
1.00612
0.523573
0.462921
1.10662
0.818998
0.269095
0.439021
1.02501
0.584093
0.160531
0.409645
1.01642
1.17881
0.297649
0.318217
0.943191
1.11865
0.331694
0.258974
0.348516
0.619095
0.146071
0.249673
0.217973
0.0338802
1.35397
0.312938
0.381115
1.56382
1.75349
0.459101
2.22914
1.28893
0.640506
2.28921
0.421713
1.2554
2.34326
1.29069
2.77776
1.26479
1.82253
2.01543
0.223389
0.0934773
0.39286
1.57832
1.18933
1.58908
0.90916
2.3787
1.34641
1.77372
1.47111
0.476449
1.53361
0.148002
1.56318
0.77219
0.0882243
1.93134
1.37244
1.17801
1.86366
1.30335
1.67892
2.30853
0.418069
0.227768
1.89033
1.89017
0.283873
0.178875
0.345145
0.543661
0.303045
0.427746
0.520081
0.675015
0.637136
0.672594
0.593802
0.126036
0.32421
0.603603
0.0765812
0.286546
0.681672
0.685644
0.711022
0.665675
0.539669
0.172644
0.456075
0.631102
0.658741
0.690755
0.302307
0.335753
0.319474
0.714868
0.713938
0.728999
0.778877
0.620765
0.601761
0.69909
0.494455
0.190314
0.482097
0.666268
0.693448
0.686141
0.691209
0.675302
0.724357
0.314848
0.350235
0.756196
0.72877
0.682731
0.153633
0.432981
0.220292
0.541507
0.746631
0.771996
0.71439
0.693817
0.672052
0.665971
0.673937
0.709172
0.728418
0.737064
0.763918
0.685987
0.506682
0.381923
0.307533
0.343066
0.34213
0.333841
0.339061
0.308716
0.647921
0.657851
0.709722
0.722269
0.752456
0.712679
0.692386
0.671332
0.62672
0.488679
0.270867
0.326032
0.336363
0.344159
0.508308
0.366354
0.289744
0.31889
0.709419
0.700532
0.720363
0.699381
0.693402
0.686934
0.602588
0.191197
0.219891
0.524926
0.303797
0.432145
0.403458
0.413001
0.471963
0.324858
0.385286
0.356191
0.324724
0.319798
0.725345
0.702268
0.701565
0.702039
0.637803
0.34487
0.241353
0.305015
0.442134
0.916606
1.16487
0.73068
0.465451
0.439652
0.559179
0.496845
0.521714
0.644011
0.793393
0.672622
0.698854
0.653355
0.467515
0.181676
0.189093
0.49786
0.890658
1.02256
1.26986
1.25045
1.23027
1.13488
0.641133
0.6128
0.439207
1.07813
1.09641
0.403164
0.333612
0.710146
0.61081
0.195164
0.353778
0.756123
0.944106
0.792586
1.25907
1.29624
1.37596
1.29979
1.22724
1.10308
1.23908
1.22137
0.525325
0.34095
0.334586
0.321018
0.353609
0.340388
0.632943
0.756804
0.584392
1.17789
1.30371
1.20021
1.33898
1.329
1.14961
1.33475
1.27718
0.837754
0.360024
0.332104
0.3237
0.152685
0.397884
0.673987
0.75117
1.52611
1.42034
1.23461
1.22637
1.22686
1.30893
1.29548
1.32173
1.4218
1.35279
0.696583
0.355245
0.340702
0.547112
0.211691
0.209131
0.242196
0.429631
1.07969
2.14574
2.3509
1.27951
1.26873
1.21402
1.2945
1.30936
1.38299
1.37127
1.30803
1.07403
0.374953
0.682616
0.329981
0.188289
0.515998
0.770292
0.581617
1.33173
1.40656
1.36341
2.26036
1.31793
1.32583
1.289
1.84675
2.42302
1.40673
1.29838
1.13046
0.48274
0.522591
0.338663
0.733833
1.01549
1.82223
2.31746
1.56921
1.5416
1.49081
2.36957
1.97609
2.44538
2.61918
2.06225
1.40499
1.24857
1.15814
0.65507
0.210112
0.188362
0.508054
0.764733
1.11134
2.44826
2.53163
1.90145
1.51758
1.66525
1.66883
2.30925
1.71985
1.57259
1.63198
0.877416
0.846224
0.402405
0.228688
0.411381
0.79936
0.870385
1.59041
1.56958
1.88088
1.37384
1.69332
2.42775
2.66316
2.59886
1.68866
1.69591
1.38513
1.22425
0.837826
0.486327
0.253731
0.193341
0.241124
0.434641
1.28844
1.65173
1.61532
1.58448
1.80873
1.68018
1.71693
2.26912
2.69529
2.75419
2.19549
1.36219
1.02265
0.820031
0.395932
0.348348
0.700739
0.614617
1.50985
1.69476
1.82018
1.69887
1.56852
1.62566
1.45372
1.54194
2.37468
2.75766
2.52878
1.53374
0.832653
0.490364
0.206012
0.645131
0.872914
1.29202
2.65239
1.68525
1.57902
1.75228
1.46945
1.49058
1.45829
1.6547
1.73237
2.17951
2.43421
1.0681
0.760521
0.442782
0.349319
0.807164
1.29375
1.84732
2.73292
2.32988
1.57626
1.89455
1.57123
1.55917
1.50701
1.58762
1.68351
1.3939
2.13567
0.941705
0.70788
0.209319
0.513985
0.930085
1.89428
2.91243
2.44226
2.25807
2.08224
1.42864
2.17928
2.2344
1.79212
1.70925
1.51779
1.31679
1.1183
0.756964
0.490591
0.185271
0.333587
0.682632
1.05578
2.40211
2.91732
2.78906
1.71639
1.74953
2.1144
2.18055
2.60266
2.7253
2.72632
2.58988
1.31266
1.00157
0.742802
0.21797
0.181993
0.533489
0.90827
1.35174
2.62042
2.92816
2.96836
2.59868
2.17896
1.71318
2.15977
1.75903
2.12596
2.54045
2.47007
1.59228
0.800578
0.475991
0.342337
0.74561
1.09633
2.46965
2.87255
2.93543
2.85883
2.36233
1.78771
2.16844
2.18905
2.24945
1.64376
2.38794
1.88245
0.963462
0.703048
0.212235
0.178982
0.532146
0.895419
1.74816
2.82262
2.92128
2.94116
2.90593
2.79484
2.31158
1.70769
1.77595
1.75789
2.12938
2.35182
2.11666
0.703163
0.476375
0.211715
0.734598
1.08319
2.58554
2.91819
2.93619
2.91831
2.85129
2.87315
2.83956
2.66158
2.29344
2.3153
2.27885
2.81407
0.976129
0.642228
0.429431
0.481148
0.851157
1.65846
2.6978
2.90565
2.94073
2.8428
2.82473
2.86808
2.87449
2.9524
2.93945
2.91204
2.83061
1.95739
0.954097
0.713828
0.334989
0.516808
0.73469
1.60123
2.23717
2.82513
2.90522
2.40767
2.34378
2.64017
2.89815
2.98961
2.98369
2.90766
2.62932
1.46181
0.865853
0.518205
0.185886
0.184625
0.662866
1.19195
1.91518
1.6425
2.2963
2.81939
2.41818
1.7441
1.77143
2.72587
2.97587
2.9217
2.87513
2.6371
1.09463
0.708466
0.349761
0.210763
0.717191
1.08239
2.53829
2.76142
2.74782
2.86359
2.82391
2.32864
1.88907
2.00748
2.88557
2.88386
2.87986
2.48603
1.04369
0.693365
0.193051
0.452903
0.797933
1.07437
2.60409
2.84234
2.77078
2.70844
2.79049
2.81082
2.80987
2.81281
2.91561
2.9019
2.92806
1.84404
0.959296
0.683114
0.187872
0.471399
0.883173
1.6965
2.63618
2.90843
1.86899
1.74216
2.18303
2.64025
2.82314
2.93917
2.91535
2.88616
2.82593
1.78281
0.862613
0.469872
0.195314
0.610263
0.888139
1.81415
2.79474
2.88369
2.6562
1.78646
1.86433
2.20435
2.67339
2.91339
2.92763
2.84985
2.71591
1.11685
0.734645
0.353616
0.341258
0.754813
1.03907
1.88665
2.83743
2.80546
2.37424
2.37647
1.75788
1.75215
2.37251
2.68191
2.69602
2.81833
2.69415
1.08603
0.688542
0.197052
0.453555
0.863517
1.77192
2.64675
2.86975
2.40634
1.77287
1.80708
1.71487
2.3817
1.77507
2.13336
2.21056
2.7885
2.56072
1.03724
0.565524
0.179749
0.189993
0.637424
0.911758
1.80969
2.69155
2.89965
2.78465
1.77963
1.98425
1.70772
1.73991
2.57268
2.07735
1.80029
2.48595
1.95572
0.930892
0.500286
0.190351
0.678704
1.03548
2.42133
2.83431
2.89224
2.88555
2.71145
1.86423
1.74128
1.77068
1.8857
2.20299
2.61085
2.79821
1.87554
0.824684
0.368691
0.192837
0.689592
1.03234
2.57487
2.84699
2.92463
2.89787
2.87878
2.71279
2.22704
2.43931
2.04255
2.03815
2.25457
2.58089
1.16207
0.740511
0.214658
0.194545
0.701595
1.05413
2.62989
2.87622
2.89124
2.9041
2.89065
2.88228
2.72929
2.6936
2.52114
1.88237
1.74082
2.41047
1.08727
0.5678
0.182979
0.46191
0.772762
1.0786
2.66265
2.86128
2.8661
2.87897
2.87188
2.86523
2.72298
2.43366
2.50721
2.22145
1.72922
2.28451
1.15527
0.515925
0.175306
0.486406
0.874057
1.69885
2.6283
2.85435
2.91968
2.86381
2.82785
2.80221
2.88535
2.48006
2.15552
1.91062
2.26267
2.72179
1.15748
0.52358
0.18433
0.676226
0.970469
1.77618
2.71001
2.87005
2.94134
2.79051
2.72852
2.74033
2.75339
2.92704
2.6556
1.83232
1.75176
2.09894
0.911125
0.496343
0.197849
0.695997
1.03126
2.47044
2.7964
2.87313
2.87517
2.42142
1.90179
1.92355
2.73237
2.92857
2.92847
2.73416
2.77351
1.95858
0.880443
0.474587
0.190483
0.691954
1.03189
2.55184
2.88297
2.84924
2.89953
2.84527
2.34912
1.84306
1.93305
2.88606
2.88449
2.84401
2.82889
1.75833
0.851356
0.45355
0.191191
0.682468
1.01268
2.55165
2.90878
2.80543
2.93688
2.90817
2.81392
2.70892
2.73497
2.91298
2.87392
2.87142
2.71251
1.38908
0.785085
0.358012
0.202602
0.708352
1.02432
2.52321
2.92553
2.82861
2.92648
2.87839
2.87139
2.79296
2.88307
2.97693
2.89873
2.87765
2.68179
1.07303
0.696902
0.196982
0.451395
0.712097
1.04596
2.57813
2.88236
2.83718
2.8928
2.85513
2.74244
2.77327
2.80108
2.9705
2.9106
2.85362
2.65786
1.06352
0.688475
0.188108
0.436554
0.727096
1.09918
2.43954
2.43202
2.6723
2.77445
2.78045
2.46805
2.46879
2.47743
2.72413
2.77777
2.83478
2.60927
1.05504
0.689256
0.191075
0.177292
0.585218
0.73821
1.05041
2.71082
1.85858
1.81424
2.53067
2.51731
2.57107
2.12402
2.2275
2.18061
2.73842
2.80435
2.60307
1.05886
0.672566
0.192478
0.187611
0.676983
0.905236
1.29314
2.60338
2.83111
1.86774
2.09193
2.25277
2.23918
2.28536
2.39452
2.26799
2.00621
2.87249
2.47148
1.01046
0.529605
0.683075
1.01793
2.32945
2.86161
2.92159
2.79321
2.70794
2.64316
2.26755
2.14932
2.41178
2.56548
2.6719
2.88847
1.86625
0.937657
0.512648
0.194977
0.656952
1.05647
2.54421
2.94512
2.8687
2.89534
2.82902
2.67109
2.23208
2.31193
2.41735
2.1944
2.34847
2.88389
1.78728
0.861614
0.451134
0.188553
0.680713
1.06454
2.60308
2.91859
2.83922
2.94237
2.83623
2.71166
2.63044
2.26649
2.35114
2.16088
2.3375
2.92768
1.80761
0.816052
0.358581
0.178423
0.689604
1.05519
2.59215
2.87619
2.89655
2.94013
2.80571
2.45888
2.50012
2.65196
2.26411
2.07318
2.29824
2.94276
1.48017
0.783678
0.21697
0.715243
0.995881
2.52545
2.8644
2.91466
2.89555
2.79034
2.46563
2.18426
2.04558
2.67752
2.65156
2.75177
2.79144
1.10913
0.697919
0.201415
0.233954
0.800974
2.50987
2.85031
2.9317
2.91412
2.83702
2.77781
2.52851
2.18543
2.23458
2.71285
2.87589
2.57652
1.03474
0.682099
0.188362
0.120233
0.442694
1.47719
1.72091
2.60595
2.90513
2.89305
2.877
2.70056
2.63839
2.47035
2.12208
2.2615
2.85354
1.85843
0.933645
0.636116
0.182477
0.451872
1.35899
1.54605
1.6609
2.62366
2.86118
2.86021
2.85368
2.38934
2.15992
2.12613
2.44574
2.25134
2.91691
1.82069
0.85955
0.471491
0.468977
0.799854
2.03101
2.65197
2.68922
2.3347
2.65071
2.73767
2.69661
2.08084
2.275
1.83497
2.71096
2.78159
1.72075
0.832054
0.452905
0.174863
0.53032
1.00055
2.10832
1.79383
1.779
1.76821
1.80679
2.26955
2.31889
2.45169
2.4716
2.27413
2.38631
2.75373
1.09541
0.721809
0.219306
0.201795
0.672838
1.0979
2.70225
1.81035
1.75439
1.81923
1.82988
2.02601
2.46841
2.20478
2.07948
2.22127
2.45141
2.48723
1.08841
0.699942
0.197365
0.232912
0.825258
1.35571
1.81692
1.76371
1.72928
2.1094
3.40793
2.36435
2.20763
2.27556
2.10052
1.77985
1.73611
1.68296
1.15756
0.689802
0.195373
0.341193
0.896822
1.533
1.6743
1.74371
1.80988
1.90261
2.51515
2.59968
2.30456
2.0141
1.7619
1.74147
1.72439
1.64998
1.42079
0.662215
0.191055
0.196744
0.534547
0.954774
1.79737
1.74144
1.76579
1.87281
3.29312
2.93802
1.9622
1.75965
1.69416
1.73435
1.72881
2.26562
2.37087
1.36899
0.413748
0.192654
0.216333
0.801712
1.43458
2.21158
1.79876
1.7566
2.24153
3.7446
2.74287
1.83027
1.70246
2.16009
2.61997
2.72743
2.83926
2.56133
1.13127
0.650353
0.193785
0.580951
1.89631
2.28398
1.73855
1.81315
2.4121
3.59762
2.82833
2.20536
1.86955
2.41498
2.69379
2.90604
2.91658
1.90703
0.948363
0.527449
0.176405
0.53685
1.43867
1.81265
1.76929
1.83969
3.18306
3.62509
2.25883
2.28489
1.9336
2.02031
2.66557
2.88855
2.93735
1.8574
0.859813
0.461744
0.53348
1.31069
1.85352
1.72669
1.89594
2.60576
4.16304
2.73093
1.91405
2.18316
1.8749
2.32159
2.87995
2.92006
1.76308
0.82398
0.367971
0.595147
1.25536
1.83468
1.69215
1.75971
3.50889
3.3976
2.58588
2.61586
2.18853
2.01292
2.25777
2.84625
2.82018
1.43626
0.788754
0.217025
0.21731
0.737666
1.73905
1.80005
1.67505
1.84189
2.41839
3.09431
2.32505
2.21289
1.8887
1.75325
1.87734
2.80397
2.61872
1.06036
0.698085
0.201675
0.217933
0.734969
1.61706
1.75034
1.68253
1.89151
3.19064
2.93555
2.27462
2.05205
1.77186
1.79037
1.73528
2.42793
2.02596
0.951598
0.503567
0.229272
0.838564
1.9739
1.82008
1.69901
1.79627
2.50998
3.25395
2.68403
2.16055
1.6373
1.71765
2.62332
2.86261
1.9889
0.888823
0.457127
0.228759
0.853829
1.95887
1.79191
1.66287
1.97023
3.46206
2.40632
1.69735
1.65715
1.76142
1.72196
2.42758
2.94337
1.90716
0.855489
0.455366
0.226448
0.843378
2.00628
2.33352
1.67769
1.85794
3.19725
2.39426
1.93184
1.84792
1.83468
1.71512
2.79003
2.86289
1.54819
0.812162
0.225655
0.22654
0.845836
1.97759
1.7926
1.72917
1.72663
1.80779
2.83338
2.47936
1.74945
1.6762
1.68295
2.7941
2.84199
1.17727
0.723326
0.208538
0.480482
0.799483
0.904538
1.74905
1.71997
2.05738
2.09026
1.94765
1.71834
1.79991
1.74839
2.61241
2.85224
2.76961
1.14745
0.7117
0.200659
0.405602
0.839797
1.65121
1.64918
1.92315
3.78031
2.76568
1.92233
1.83238
1.75748
2.64444
2.85789
2.08443
0.933867
0.58649
0.183992
0.417272
1.35056
1.47856
1.62471
3.1986
3.57968
2.96727
1.78558
1.66575
1.67857
1.66337
2.76151
1.97544
0.881116
0.487942
0.501852
0.433818
1.35725
1.41883
1.62267
3.22647
3.34179
2.24574
2.01907
1.63269
1.67233
2.52167
2.71363
1.80702
0.866166
0.460135
0.48524
0.895478
1.62095
1.30593
1.55578
1.95593
3.63471
2.94047
1.85223
1.65137
1.69761
1.68433
2.41482
1.09317
0.738225
0.226841
0.477979
0.91376
0.945861
1.34239
1.31303
1.68427
1.95839
1.75326
1.68869
1.64935
1.96585
1.86981
1.53381
1.24552
0.646418
0.196183
0.197798
0.506172
0.782953
1.53767
1.47016
1.43031
1.26701
1.48512
1.91377
1.49706
1.47764
1.65986
2.12911
1.26677
1.00465
0.341586
0.197967
0.675277
0.922009
1.57802
2.75214
1.32101
1.37644
1.47858
2.25492
1.5321
1.63001
1.54316
1.45718
1.39384
0.651722
0.573755
0.229999
0.691508
0.822051
1.33957
2.89271
1.70146
1.52743
1.52551
1.62628
1.60052
1.3855
1.40773
1.43956
1.39203
0.482177
0.250273
0.512732
0.884698
0.571278
1.17643
1.86585
2.43822
1.77146
1.71766
1.6881
1.75171
1.86746
2.49625
1.55722
1.09526
0.455079
0.0868984
0.489303
0.321173
0.680064
1.37245
1.43981
1.96493
1.67927
1.45441
1.49146
1.56835
2.01921
1.60888
1.02705
0.724343
0.505198
0.248563
0.212846
0.299792
0.432306
1.2464
1.67801
1.55918
1.87526
1.64527
1.66113
1.66469
1.28065
0.921876
0.651596
0.694498
0.454272
0.191676
0.710777
0.343977
0.894083
1.47001
1.62642
1.75948
1.72971
1.33848
1.30064
1.38054
1.34612
0.88804
0.698639
0.624817
0.169759
0.191192
0.635542
0.785263
0.461459
0.768899
1.24286
1.70073
1.70876
1.36926
1.28372
1.26751
1.2709
1.25865
0.859975
0.484522
0.186129
0.288442
0.645579
0.764065
0.309764
0.386881
1.13087
1.77473
1.56284
1.29423
1.27443
1.213
0.90698
0.916559
0.861236
0.48179
0.204954
0.306477
0.321679
0.363655
0.67621
1.46615
1.31529
1.29549
1.16862
1.20838
0.853557
0.815141
0.659289
0.20731
0.264552
0.345219
0.3423
0.347538
0.681428
0.423134
1.23769
1.33584
1.20591
0.929387
0.887742
0.777967
0.471627
0.193734
0.71036
0.766154
0.319564
0.380637
1.15415
0.395671
0.409357
1.15019
1.0924
0.827111
0.790933
0.679939
0.358937
0.19393
0.666008
0.753914
0.318063
0.317263
0.450812
1.12179
0.65761
0.562906
0.391907
0.405972
0.761982
0.648411
0.19457
0.200418
0.675857
0.322818
0.328298
0.300957
0.363825
0.904341
0.460946
1.12434
0.390945
0.321723
0.794217
0.634932
0.187041
0.187852
0.652918
0.320067
0.321388
0.321009
0.310044
0.859726
1.07348
1.19466
0.692159
0.323902
0.783745
0.501245
0.180679
0.189939
0.608093
0.711363
0.311255
0.321219
0.325075
0.398183
1.15726
1.12625
0.376067
0.756415
0.72102
0.501603
0.169122
0.167797
0.207807
0.627338
0.717885
0.313714
0.318864
0.277222
0.468599
0.897358
0.393462
0.323224
0.691524
0.463077
0.651484
0.304134
0.334028
0.32059
0.744403
0.320595
0.338899
0.328274
0.368628
0.657483
0.739139
0.341343
0.30932
0.735376
0.72024
0.583537
0.21004
0.0654765
0.291796
0.721688
0.318958
0.334797
0.698402
0.435275
0.108592
0.130149
0.347682
0.256007
0.691619
0.640475
0.207391
0.328429
0.266846
0.707545
0.67173
0.330664
0.254323
0.321179
0.547582
0.721963
0.641817
0.209829
0.185745
0.513519
0.143188
0.268898
0.376059
0.437916
0.672479
0.698199
0.591841
0.614206
0.319039
0.536427
0.643654
0.424253
0.278334
0.17368
0.193108
0.0633774
0.331898
0.187328
0.374827
0.379413
0.199696
0.380975
0.522473
0.670443
0.698359
0.72656
0.76867
0.717333
0.563129
0.197329
0.374314
0.542457
0.691105
0.7189
0.755619
0.782475
0.786732
0.775929
0.770903
0.761616
0.781219
0.806824
0.799524
0.774976
0.210072
0.392256
0.670194
0.713199
0.767969
0.757455
0.769622
0.783217
0.780116
0.778618
0.790601
0.799413
0.8237
0.79243
0.760217
0.781242
0.802208
0.793048
0.798744
0.61556
0.502239
0.306975
0.252483
0.411945
0.68037
0.738944
0.749835
0.774208
0.787348
0.772609
0.773563
0.774986
0.772186
0.769898
0.759347
0.829248
0.364462
0.376314
0.728616
0.741038
0.78626
0.77646
0.835147
0.712638
0.388881
0.37139
0.554472
0.697656
0.760539
0.805968
0.829712
0.814736
0.787392
0.786453
0.788456
0.782534
0.795313
0.767955
0.768824
0.75492
0.762622
0.835639
0.393569
0.357377
0.808402
0.739693
0.773857
0.733359
0.667643
0.21984
0.427441
0.764775
0.910639
0.93298
0.77589
0.768099
0.634779
0.644388
0.578198
0.819952
0.817489
0.811949
0.87485
0.847804
0.817772
0.767203
0.762412
0.802931
0.866912
0.392591
0.376061
0.787526
0.739792
0.662562
0.358063
0.175013
0.428327
1.41993
1.66873
2.87044
2.93753
2.83507
2.12833
1.55235
1.53362
1.52959
1.12178
0.836526
0.788281
0.47976
1.3273
0.598561
0.796202
0.767234
0.748159
0.776966
0.358324
0.379034
0.668883
0.367425
0.200512
0.496713
1.31919
1.68056
2.86748
3.05886
2.6479
1.80264
2.39379
2.69412
1.6485
1.56503
1.59762
1.55343
1.31445
0.896027
0.642855
1.63475
0.839603
0.769148
0.781432
0.780663
0.784355
0.725901
0.409829
0.415939
0.189064
0.468743
1.49695
1.77452
1.75904
2.7813
3.11492
2.93001
2.43611
1.81126
2.4552
2.80034
1.44225
1.58062
1.57057
1.58337
2.6691
1.26577
1.0119
0.971127
0.935598
0.777984
0.746215
0.51198
0.357494
0.212188
0.423687
0.80415
0.996163
1.34578
2.25016
1.81804
2.19495
2.41191
2.85713
1.86401
1.92083
2.22478
2.2683
2.91685
3.0961
3.18139
3.19126
2.85408
2.0504
0.76931
0.871178
0.850899
0.845095
0.714945
0.402327
0.220612
0.609462
0.933568
1.3752
2.12194
2.7841
1.74987
2.2656
1.85076
1.8879
1.79658
1.85052
1.77139
1.77752
1.69186
2.31923
3.03641
3.16794
3.1778
3.03745
1.5755
0.87075
0.358842
0.361947
0.319775
0.0911107
0.243017
0.17605
0.463467
1.96754
2.70825
2.57239
2.52308
2.0906
1.98759
1.86549
1.80687
1.72079
1.78841
1.69527
1.7597
1.80751
1.79477
2.37692
3.01068
3.0308
2.83794
1.57071
0.936494
0.350932
0.175157
0.19527
0.464911
1.93118
2.99779
2.92777
1.98213
2.21352
2.29326
2.32767
2.17973
1.99325
1.886
1.75864
2.02772
2.03309
1.69249
1.74763
1.80711
2.64837
2.58866
1.49592
1.03367
0.750732
0.407673
0.379718
0.757115
0.472485
1.70979
1.91971
3.10808
3.05497
2.14137
2.24553
2.34911
2.38099
2.38753
2.30819
2.64598
2.16404
2.37186
2.43955
1.9237
1.90728
1.69586
1.63672
1.2908
0.997729
0.735891
0.397589
0.392042
0.749054
1.05403
1.98034
3.04494
2.43566
2.9835
2.87984
2.5975
2.25842
2.32982
2.38226
2.44752
2.74669
2.79918
2.42091
2.32271
2.08301
1.92181
1.80673
1.62884
1.8547
0.986154
0.760818
0.405225
0.420066
0.837596
1.40051
2.12163
3.26817
3.28654
3.10922
3.13305
3.16172
3.25347
2.85539
2.41252
2.50022
2.26849
2.92798
2.90325
2.4371
2.25452
1.84826
1.84395
1.70483
1.64274
1.50083
0.818782
0.272305
0.196054
0.428292
0.854804
1.48373
3.16301
3.16226
3.11041
3.36251
3.27834
3.47207
3.42749
3.4367
3.35187
3.06615
2.48268
2.33542
2.48531
2.4364
2.30575
2.19181
2.4197
1.90168
1.65562
1.83069
0.954707
0.375881
0.202325
0.436044
0.933966
1.56854
3.29316
3.41344
3.45554
3.48674
3.0833
3.08884
3.31685
3.41874
3.59013
3.60255
3.54818
3.1144
3.07516
2.96938
2.70812
2.30319
2.60962
2.45308
1.8605
1.67984
0.925384
0.365201
0.21758
0.624771
0.937817
1.57834
3.37545
3.55263
3.58026
3.54631
3.521
3.59957
3.40753
3.35777
3.34152
3.38008
3.67163
3.548
3.56806
3.37843
3.24845
3.47182
2.74221
3.141
3.17464
1.91576
1.55513
0.472753
0.185456
0.194428
0.563982
0.960822
1.95559
3.43818
3.50022
3.57446
3.65777
3.69827
3.64304
3.63355
3.60312
3.49734
3.43544
3.51712
3.60068
3.70284
3.50824
3.04914
2.46419
2.77947
2.79414
3.36766
2.03645
0.968082
0.760392
0.174646
0.417076
0.936103
1.53171
3.20641
3.48806
3.44623
3.54726
3.58796
3.52728
3.70096
3.63008
3.59791
3.63214
3.66225
3.72038
3.72205
3.74097
3.59954
3.19777
2.48851
2.41555
2.13952
2.32914
0.95676
0.73677
0.400937
0.383315
0.767419
1.23875
3.15357
3.3929
3.34148
3.45537
3.50424
3.52581
3.44695
3.56436
3.41002
3.50233
3.59641
3.68541
3.70552
3.74833
3.64857
3.54364
3.3973
3.35237
2.57559
2.30409
1.71949
0.757541
0.406164
0.222669
0.645775
1.22583
2.38539
3.24994
3.2149
3.34462
3.49883
3.55974
3.51984
3.59478
3.47186
3.39435
3.53907
3.55725
3.70549
3.73699
3.6608
3.57629
3.557
3.43995
3.26523
3.34294
1.73429
0.975867
0.459595
0.416085
0.935467
2.0885
3.52039
3.49511
3.42923
3.7364
3.72627
3.69152
3.63234
3.54594
3.58128
3.46781
3.54752
3.59311
3.72119
3.6983
3.61839
3.63008
3.43854
3.34218
3.57033
2.29835
0.944897
0.527711
0.374711
0.802025
1.52472
3.32363
3.46228
3.46977
3.69578
3.901
3.92524
3.74367
3.67369
3.70518
3.86027
3.63365
3.60122
3.7798
3.56281
3.58627
3.59423
3.43772
3.51947
3.37383
3.32827
1.5227
0.79709
0.247346
0.228114
0.649439
1.15993
2.32469
3.50534
3.70095
3.73775
3.9291
4.09139
4.08973
4.00558
3.96947
3.90947
3.6723
3.75151
3.9145
3.8029
3.48901
3.44881
3.51246
3.49331
3.28847
3.34237
1.72781
0.919231
0.432456
0.224766
0.617498
1.0806
2.16192
3.43372
3.55418
3.64153
3.85772
4.01135
4.03465
4.20847
4.21079
4.0901
4.05174
3.86904
4.03694
3.86117
3.64991
3.57826
3.48515
3.23474
3.32521
3.44443
2.0512
0.943653
0.573633
0.203626
0.389947
1.01935
2.12679
3.369
3.49121
3.70885
3.73849
3.9942
4.13978
4.12392
3.96659
4.20407
3.98089
3.94151
4.20436
4.09564
3.71297
3.59156
3.50496
3.34375
3.04514
3.55961
2.33416
0.993303
0.601338
0.226336
0.25403
0.679853
1.53001
3.25003
3.32765
3.65303
3.74741
3.87464
4.10422
4.13302
4.06536
4.21024
4.18543
4.27198
4.21717
4.23702
4.00496
3.70853
3.54917
3.43408
3.18672
3.35307
2.42499
1.02248
0.632083
0.230933
0.577527
1.15493
3.26746
3.35088
3.42008
3.64872
3.86831
4.37652
4.39744
4.13219
4.11504
4.19648
4.32146
4.28395
4.31894
4.15588
4.07144
3.7914
3.54932
3.43945
2.83478
3.4731
1.72466
0.694292
0.237857
0.257278
0.834239
2.03037
3.42649
3.46815
3.79741
4.00591
4.05964
4.30181
4.21942
4.5606
4.17239
4.28821
4.33762
4.25328
4.35661
4.05312
3.98992
3.9119
3.58397
3.43618
3.54544
2.19325
0.901952
0.469358
0.555823
1.20189
3.38254
3.58687
3.73981
4.19622
4.45383
4.46529
4.40216
4.42967
4.41601
4.48293
4.2172
4.55053
4.56272
4.38636
4.10745
3.98528
3.72418
3.30269
3.23705
2.51445
1.02311
0.604257
0.226118
0.224964
0.670073
1.96837
3.49833
3.69835
3.911
4.3158
4.48221
4.55412
4.33296
4.45348
4.54903
4.68708
4.72764
4.58648
4.53732
4.09273
3.86451
3.8407
3.45269
3.22801
3.66377
1.81574
0.868298
0.250607
0.429595
1.0892
2.50214
3.42819
3.69065
3.94715
4.25959
4.36239
4.32394
4.34296
4.69443
4.67429
4.73276
4.69362
4.6181
4.3743
4.16449
3.98925
3.75392
3.56076
2.80304
2.33151
1.01522
0.572555
0.195218
0.25613
0.848881
1.99048
3.40066
3.40482
3.72252
4.02846
4.52148
4.53469
4.29454
4.66086
4.6502
4.80435
4.75772
4.77695
4.73267
4.30226
4.01071
3.91635
3.55652
3.39246
3.52497
1.29127
0.630648
0.23419
0.601819
1.45567
3.28578
3.46959
3.66336
3.99218
4.28644
4.59264
4.93603
4.70478
4.50144
4.59618
4.22342
4.572
4.73927
4.60267
4.45414
4.28986
3.8739
3.57635
3.39321
2.10679
0.92639
0.422461
0.257706
0.832525
2.0375
3.38549
3.79877
4.00358
4.29499
4.56425
4.64599
4.62168
4.60142
4.40163
4.30129
4.23349
4.41528
4.48714
4.26077
4.4023
4.23873
3.75577
3.55222
3.45278
1.25662
0.596228
0.21622
0.550294
1.14659
3.32956
3.48563
3.81387
4.29506
4.46039
4.64519
4.69217
4.5964
4.87356
4.618
4.499
4.31666
4.35077
4.42046
4.14779
4.20494
3.9973
3.61654
3.222
2.3329
0.911534
0.426699
0.254423
0.824769
1.91968
3.31468
3.61809
3.99754
4.49887
4.68476
4.73061
4.7283
4.63602
4.45565
4.83046
4.79601
4.78366
4.55359
4.24426
4.17173
3.99218
3.72777
3.57563
3.34967
1.78531
0.767104
0.222939
0.543944
1.134
3.25297
3.47338
3.84607
4.16141
4.51542
4.72117
4.7986
4.72439
4.7504
4.6247
4.70293
4.93469
4.81805
4.61201
4.39728
4.13781
3.83392
3.69413
3.30065
2.35971
0.971629
0.527397
0.248621
0.820017
1.91788
3.35531
3.47183
3.90257
4.37159
4.57939
4.70306
4.84748
4.79381
4.74867
4.77758
4.80201
4.83568
4.46475
4.50458
4.4223
4.21553
3.69245
3.59589
3.47322
1.82179
0.842067
0.235864
0.516411
1.10512
3.22983
3.46786
3.70906
4.16789
4.58488
4.65276
4.78412
4.75996
4.7358
4.81297
4.812
4.85392
4.88299
4.55248
4.44652
4.34717
4.10629
3.68242
3.20507
3.3393
1.14383
0.552862
0.592486
1.50886
3.33011
3.57139
3.87906
4.33772
4.71639
4.77517
4.81536
4.79156
4.74803
4.74557
4.73842
4.90401
4.6727
4.58215
4.39393
4.02059
3.74732
3.56122
3.34149
2.00256
0.914938
0.269709
0.242621
0.847403
2.09992
3.32484
3.65333
4.08227
4.68009
4.75685
4.84223
4.84637
4.73404
4.74088
4.80632
4.845
4.85662
4.83012
4.64753
4.50443
4.04256
3.66077
3.5718
3.44735
1.18371
0.57625
0.208354
0.248369
1.0429
3.23485
3.54612
3.83453
4.28658
4.6932
4.80561
4.9028
4.84626
4.81258
4.80751
4.80548
4.92039
4.92056
4.80629
4.61843
4.46944
4.15968
3.64362
3.29751
3.41859
1.02421
0.269301
0.390241
1.14715
3.29705
3.55277
3.93743
4.43825
4.56935
4.84948
4.93858
4.88348
4.83848
4.83692
4.93232
4.97642
4.90826
4.72623
4.53429
4.33725
3.88681
3.56873
3.27361
1.97874
0.705544
0.235117
0.591463
1.49696
3.42792
3.78004
4.10786
4.59076
4.60655
4.81304
4.88136
4.915
4.83862
4.85646
4.971
5.01647
4.82947
4.64908
4.56812
4.18861
3.62892
3.33281
3.45328
1.12535
0.516969
0.247211
0.906439
2.1995
3.36261
3.69856
4.20196
4.661
4.75268
4.86387
4.92134
4.87861
4.84206
5.03295
5.05086
5.07677
4.81875
4.66524
4.49879
4.10329
3.57978
3.18987
2.0768
0.871795
0.25035
0.378008
1.06495
3.28377
3.58118
3.89691
4.25245
4.563
4.71531
4.8239
4.87704
4.84325
4.85074
4.95637
5.05853
5.01834
4.78565
4.69724
4.4946
4.00369
3.64784
3.24164
1.91766
0.671401
0.20407
0.603669
1.46529
3.32801
3.5957
3.93082
4.43869
4.53762
4.80691
4.85219
4.72657
4.6831
4.82419
4.84427
4.97174
4.91437
4.727
4.64953
4.31082
3.8252
3.49911
3.32456
1.24557
0.526904
0.237937
0.812269
1.9705
3.33616
3.63391
3.97939
4.48156
4.62412
4.83553
4.85492
4.9065
4.91927
4.81674
4.98293
5.00187
4.90386
4.70026
4.61948
4.1889
3.69106
3.29278
3.31448
1.02877
0.400673
0.372322
1.02189
3.23757
3.49562
3.74188
4.16547
4.45923
4.58842
4.8538
4.91179
4.85077
4.86014
4.87989
5.03929
5.06819
4.76873
4.66719
4.61067
4.05632
3.56306
3.18301
2.07789
0.856451
0.246983
0.493455
1.20763
3.22408
3.58211
3.86328
4.35023
4.56044
4.73052
4.89425
4.90665
4.95078
4.85113
4.82476
4.82741
5.10262
4.80696
4.72155
4.61545
4.02125
3.55905
3.21883
1.95123
0.644842
0.19861
0.570453
1.48275
3.36273
3.73079
4.01904
4.46724
4.53615
4.79847
4.91519
4.91452
4.90765
4.84561
4.86788
5.04577
5.04034
4.846
4.77215
4.36878
3.86376
3.49981
3.34453
1.50473
0.584158
0.207569
0.774415
1.89271
3.39731
3.69214
4.19415
4.56151
4.71752
4.8089
4.88737
4.89337
5.04711
4.89099
4.87983
5.03237
4.87145
4.77884
4.71193
4.22631
3.71747
3.26747
3.37659
1.0391
0.406506
0.243573
0.844155
2.01301
3.31782
3.66756
4.13983
4.6073
4.69806
4.88654
4.90434
4.9181
4.87661
4.82333
5.11837
5.14071
4.94003
4.80812
4.66298
4.12684
3.65052
3.16923
2.01997
0.841036
0.240398
0.250254
1.0298
3.14981
3.38452
3.6985
4.17344
4.60216
4.73542
4.81662
4.89723
4.90159
4.91065
4.89312
5.10103
5.20516
4.90491
4.85115
4.62172
4.02085
3.47815
3.22279
1.69512
0.608569
0.487092
1.09921
3.22997
3.58409
3.76419
4.19945
4.67304
4.73629
4.81724
4.86291
4.88768
4.93518
4.97745
5.07555
5.20888
4.90325
4.82718
4.63129
3.9594
3.45615
3.34778
1.15615
0.506934
0.502383
1.23165
3.3586
3.6228
3.98186
4.37903
4.56584
4.706
4.86639
4.89733
4.88221
4.80551
5.02844
5.13363
5.05792
4.89361
4.81826
4.60329
3.96274
3.41801
3.36737
1.02662
0.261765
0.564319
1.50841
3.43235
3.70058
4.12663
4.38349
4.50211
4.67109
4.85405
4.90246
4.9236
4.94588
4.79983
5.05191
5.03555
4.87895
4.75625
4.47804
3.90789
3.41152
2.43545
0.878865
0.250834
0.581017
1.91106
3.37065
3.68498
4.13779
4.53953
4.63626
4.76778
4.86892
4.91679
4.96192
4.85744
5.00505
5.02855
4.96506
4.81911
4.73421
4.38207
3.8406
3.33144
2.32707
0.847354
0.221308
0.60475
1.94308
3.47445
3.71752
4.17913
4.59852
4.74445
4.76354
4.89167
4.91452
4.88872
4.90228
4.98381
5.10927
4.90475
4.74138
4.71583
4.34839
3.79584
3.63973
2.18402
0.791251
0.204989
0.214264
0.770743
1.96547
3.39832
3.67685
4.15978
4.58241
4.77094
4.73105
4.89987
4.94206
4.86297
4.8764
4.96211
5.10787
4.88264
4.77596
4.6657
4.17185
3.72965
3.21966
2.15543
0.625514
0.245157
0.945107
2.21854
3.3615
3.72513
4.18111
4.56672
4.81848
4.79186
4.91921
4.89481
4.92735
4.82463
4.97136
5.06121
4.88273
4.76301
4.66636
4.11649
3.62083
3.14319
1.94994
0.600106
0.246071
1.04191
3.26997
3.58996
3.75784
4.20925
4.59754
4.87379
4.91045
4.96348
4.9676
4.89256
4.97562
4.96015
5.03454
4.89384
4.73084
4.64019
4.13467
3.62292
3.1411
1.65979
0.5748
0.377
1.12822
3.31381
3.65381
3.78039
4.19671
4.5379
4.88863
4.99471
5.06567
5.03281
5.10467
5.08754
5.13688
5.06849
4.81395
4.74027
4.59727
4.08806
3.62888
3.19829
1.19409
0.485572
0.505519
1.22789
3.41478
3.65342
3.8265
4.22523
4.59067
4.90203
4.96326
5.20388
5.20761
5.16322
5.17645
5.29839
5.09456
4.94218
4.76098
4.62225
4.07041
3.64094
3.21488
1.13465
0.260213
0.496763
1.19086
3.357
3.70562
4.00306
4.2969
4.61407
4.91044
5.02231
5.21202
5.29598
5.31717
5.35155
5.44716
5.20261
4.99911
4.83182
4.51861
4.03043
3.43465
3.30757
1.05475
0.250648
0.56275
1.25483
3.20675
3.74018
4.20681
4.49347
4.7099
4.88871
4.93784
5.08218
5.26199
5.32849
5.20242
5.45617
5.25802
5.03508
4.81736
4.38886
3.86734
3.4251
3.29525
0.961948
0.243538
0.601811
1.84052
3.38309
3.71794
4.12114
4.55621
4.79439
4.84043
4.93565
4.9901
5.09803
5.29035
5.35293
5.57083
5.19899
5.00551