/*--------------------------------*- C++ -*----------------------------------*\
| =========                 |                                                 |
| \\      /  F ield         | OpenFOAM: The Open Source CFD Toolbox           |
|  \\    /   O peration     | Version:  2312                                  |
|   \\  /    A nd           | Website:  www.openfoam.com                      |
|    \\/     M anipulation  |                                                 |
\*---------------------------------------------------------------------------*/
FoamFile
{
    version     2.0;
    format      ascii;
    arch        "LSB;label=64;scalar=64";
    class       volScalarField;
    location    "20";
    object      nut_ML_ND;
}
// * * * * * * * * * * * * * * * * * * * * * * * * * * * * * * * * * * * * * //

dimensions      [0 0 0 0 0 0 0];

internalField   nonuniform List<scalar> 
404911
(
0.579322
0.58126
0.51472
0.527916
0.616067
0.58993
0.581566
0.540765
0.550398
0.552344
0.605295
0.60558
0.613173
0.647809
0.591454
0.53396
0.624783
0.58606
0.595161
0.642812
0.617556
0.594334
0.651138
0.588848
0.587499
0.565459
0.636337
0.586066
0.593222
0.535044
0.613324
0.590529
0.649977
0.609791
0.717363
0.597203
0.689181
0.587322
0.658763
0.590441
0.688711
0.538685
0.632065
0.586339
0.593495
0.60894
0.60845
0.586599
0.628259
0.505189
0.571298
0.511891
0.642472
0.52708
0.561364
0.560428
0.354444
0.586531
0.588602
0.578197
0.586038
0.588561
0.587971
0.557055
0.586027
0.591403
0.562821
0.575919
0.585636
0.558097
0.586445
0.543978
0.586444
0.580494
0.567137
0.560973
0.522596
0.587142
0.586692
0.584692
0.581349
0.583973
0.550408
0.586752
0.586486
0.585775
0.575646
0.582071
0.534326
0.585064
0.587212
0.517444
0.583477
0.586015
0.585263
0.58297
0.586477
0.584048
0.565989
0.600464
0.570393
0.578252
0.586874
0.596565
0.543896
0.67535
0.714383
0.665328
0.721742
0.715938
0.686834
0.701056
0.6959
0.697328
0.504977
0.650816
0.707722
0.501015
0.625191
0.661514
0.687761
0.694293
0.695632
0.67096
0.538825
0.706397
0.701191
0.69596
0.682029
0.624735
0.641911
0.639232
0.68228
0.695455
0.701804
0.710265
0.722341
0.713271
0.696354
0.669847
0.553943
0.716495
0.711996
0.700804
0.690894
0.687844
0.684411
0.673018
0.641753
0.664068
0.704049
0.705852
0.713856
0.521461
0.638167
0.584066
0.715698
0.702728
0.696879
0.689294
0.68629
0.683041
0.68377
0.686681
0.689901
0.699527
0.706585
0.704898
0.702986
0.685848
0.677673
0.656335
0.641664
0.630601
0.628679
0.636209
0.619648
0.662174
0.680593
0.686904
0.693003
0.695485
0.701244
0.702573
0.702549
0.694644
0.683531
0.62361
0.631935
0.621406
0.634839
0.667385
0.637318
0.613482
0.622049
0.657128
0.684648
0.691464
0.693896
0.697287
0.703608
0.711564
0.553899
0.583292
0.707419
0.646718
0.639748
0.633486
0.654228
0.653695
0.620562
0.633887
0.632597
0.628821
0.628559
0.689757
0.690738
0.691962
0.698951
0.707508
0.665725
0.598746
0.663856
0.659168
0.597701
0.587708
0.597357
0.626731
0.640761
0.609369
0.642131
0.646842
0.679439
0.666675
0.679709
0.692167
0.703137
0.708516
0.546118
0.552999
0.721793
0.694127
0.604168
0.587061
0.586799
0.587308
0.587582
0.610662
0.625351
0.622787
0.591547
0.591196
0.678878
0.645362
0.671818
0.700567
0.556574
0.681067
0.713921
0.688615
0.617972
0.587964
0.587057
0.588147
0.587168
0.585184
0.587717
0.587684
0.588451
0.623013
0.623264
0.636158
0.64823
0.671483
0.660798
0.715189
0.70551
0.673754
0.589962
0.587169
0.58636
0.586458
0.585899
0.587329
0.587337
0.586808
0.601266
0.629978
0.62607
0.634987
0.522771
0.680445
0.68885
0.665728
0.632148
0.608863
0.589727
0.585999
0.58655
0.587597
0.588355
0.588894
0.587494
0.587197
0.607356
0.630376
0.637118
0.697779
0.573497
0.565658
0.619043
0.68948
0.596538
0.594129
0.594331
0.589227
0.587068
0.584493
0.587734
0.590852
0.59041
0.587803
0.587302
0.588942
0.649309
0.683812
0.647943
0.550552
0.702047
0.692693
0.667132
0.590903
0.588656
0.593448
0.591107
0.589053
0.589111
0.587766
0.589849
0.596456
0.590777
0.586489
0.589452
0.652341
0.716598
0.660638
0.706303
0.708801
0.624713
0.588427
0.583993
0.584302
0.587674
0.592198
0.591248
0.591232
0.592718
0.610317
0.625276
0.590601
0.59219
0.686591
0.567893
0.551066
0.710808
0.704355
0.683003
0.607995
0.591225
0.591434
0.587613
0.585584
0.584869
0.586397
0.587922
0.587011
0.587655
0.638023
0.661873
0.540419
0.597854
0.68689
0.697396
0.677624
0.611792
0.595396
0.591963
0.588625
0.585532
0.590913
0.592177
0.592216
0.586455
0.587449
0.587013
0.589023
0.697962
0.699561
0.600683
0.554721
0.617896
0.596639
0.590776
0.591131
0.58701
0.588257
0.585608
0.5875
0.577963
0.584497
0.592899
0.593717
0.591136
0.592807
0.606146
0.704964
0.687211
0.655868
0.696671
0.657181
0.589432
0.587127
0.581178
0.584286
0.587574
0.583865
0.587836
0.586745
0.587442
0.594699
0.601457
0.639048
0.698492
0.715544
0.562826
0.700248
0.701127
0.657584
0.594824
0.586157
0.580827
0.580362
0.588335
0.588496
0.587794
0.584288
0.587542
0.595484
0.605606
0.699415
0.700276
0.706596
0.65458
0.705897
0.674865
0.623509
0.596791
0.58642
0.581847
0.573578
0.578323
0.586434
0.586938
0.589421
0.587453
0.589397
0.625557
0.691858
0.705631
0.566616
0.698282
0.692216
0.638915
0.599046
0.588855
0.583907
0.587559
0.588069
0.578763
0.58296
0.58705
0.587062
0.584102
0.589069
0.606207
0.712957
0.718237
0.548739
0.646591
0.700183
0.706476
0.613549
0.598469
0.592511
0.584214
0.577724
0.583412
0.584586
0.589765
0.592355
0.593317
0.593984
0.595837
0.68943
0.712185
0.578752
0.546018
0.697239
0.694174
0.661954
0.607609
0.59781
0.594475
0.58976
0.581575
0.580553
0.576758
0.578956
0.588503
0.595552
0.603705
0.643132
0.706532
0.724758
0.646433
0.701387
0.688399
0.611026
0.598985
0.596308
0.594861
0.587709
0.582396
0.576928
0.576674
0.57757
0.583938
0.588766
0.618886
0.706858
0.698651
0.570019
0.543889
0.692447
0.684635
0.638157
0.60187
0.596412
0.595203
0.594692
0.59337
0.586026
0.579862
0.576557
0.578846
0.582474
0.587975
0.615849
0.689545
0.701028
0.565971
0.692396
0.680067
0.608929
0.597767
0.59524
0.594644
0.594578
0.594401
0.593407
0.590364
0.584389
0.585058
0.586996
0.597044
0.685814
0.700227
0.708744
0.689468
0.674054
0.620167
0.600835
0.596174
0.594525
0.593557
0.593714
0.594206
0.594436
0.594233
0.593959
0.594481
0.597027
0.623519
0.713363
0.704837
0.653345
0.682628
0.659502
0.590341
0.587923
0.593839
0.593723
0.587125
0.585855
0.592381
0.593853
0.59446
0.594728
0.595755
0.603211
0.654736
0.701002
0.698362
0.548752
0.548065
0.696764
0.651622
0.589123
0.581236
0.585528
0.593083
0.586539
0.578003
0.57732
0.590635
0.593908
0.5949
0.59591
0.604261
0.692205
0.700503
0.653248
0.56592
0.703758
0.69375
0.604913
0.592786
0.591624
0.59307
0.592976
0.58547
0.580069
0.558149
0.591285
0.594728
0.596845
0.606812
0.69477
0.698287
0.553736
0.690966
0.699549
0.696179
0.607542
0.593856
0.591443
0.592389
0.593152
0.593373
0.591633
0.590823
0.591958
0.594935
0.597506
0.628897
0.680823
0.693997
0.550218
0.693925
0.69401
0.644351
0.602158
0.593865
0.587369
0.582405
0.585308
0.592415
0.59339
0.593651
0.594327
0.595702
0.600907
0.634949
0.694724
0.691663
0.555241
0.699851
0.695941
0.639026
0.598351
0.593829
0.590071
0.58192
0.57938
0.582579
0.592039
0.593285
0.594172
0.595522
0.603566
0.681519
0.701424
0.650479
0.645266
0.698307
0.698587
0.631256
0.597392
0.59145
0.584414
0.586245
0.583361
0.576855
0.569318
0.588807
0.593346
0.595223
0.603219
0.683988
0.696184
0.556051
0.684457
0.689419
0.638246
0.602464
0.596283
0.586275
0.581219
0.577752
0.581632
0.585116
0.582722
0.557603
0.57902
0.594675
0.605094
0.688768
0.689111
0.544677
0.551182
0.694404
0.679969
0.631182
0.598526
0.595095
0.591937
0.582717
0.573017
0.574049
0.578394
0.584542
0.581543
0.574396
0.588902
0.620962
0.677888
0.693239
0.551329
0.691992
0.687964
0.60865
0.597232
0.594859
0.593858
0.590775
0.581783
0.576176
0.576413
0.57233
0.577092
0.589855
0.595375
0.626498
0.69989
0.652365
0.552982
0.692496
0.689428
0.606145
0.595782
0.594344
0.594052
0.593526
0.591402
0.583365
0.560964
0.562476
0.566479
0.582687
0.599451
0.671234
0.700998
0.569902
0.554633
0.691714
0.687007
0.606124
0.595749
0.594266
0.593917
0.594031
0.59347
0.591325
0.588506
0.574274
0.563138
0.576801
0.589722
0.672962
0.691396
0.546765
0.68352
0.690837
0.681322
0.606418
0.595741
0.594008
0.593593
0.593636
0.593593
0.589996
0.57066
0.575619
0.576426
0.577927
0.58851
0.666577
0.697128
0.54165
0.691255
0.689768
0.638867
0.601788
0.595932
0.594034
0.592903
0.592703
0.593679
0.592087
0.571735
0.553024
0.570372
0.58178
0.594954
0.667696
0.696281
0.54752
0.692263
0.695984
0.626788
0.598515
0.595518
0.593923
0.591047
0.590427
0.592413
0.593414
0.592027
0.587439
0.575229
0.580514
0.605838
0.688715
0.69443
0.556308
0.691403
0.688442
0.60677
0.596267
0.594576
0.593782
0.586508
0.579
0.575222
0.590206
0.592883
0.593046
0.592515
0.592931
0.613259
0.68373
0.693884
0.551491
0.690949
0.690843
0.606059
0.595602
0.594076
0.593528
0.592402
0.584575
0.571377
0.567857
0.591291
0.593573
0.594225
0.596907
0.625665
0.68522
0.689579
0.55222
0.693181
0.694403
0.606831
0.595743
0.594244
0.593642
0.593133
0.5927
0.591353
0.590403
0.5911
0.593445
0.595031
0.601958
0.648504
0.698805
0.643295
0.560892
0.696421
0.693978
0.606764
0.595774
0.594307
0.593859
0.593379
0.592892
0.592875
0.592997
0.593136
0.593911
0.595099
0.603378
0.683395
0.690458
0.5557
0.691673
0.69704
0.689461
0.604097
0.595028
0.593687
0.593603
0.592648
0.591812
0.591229
0.591987
0.592945
0.593571
0.594895
0.603168
0.683476
0.694425
0.550046
0.686201
0.689385
0.68237
0.591356
0.586561
0.590971
0.591045
0.590843
0.578515
0.573735
0.578189
0.590538
0.592944
0.594583
0.602924
0.680046
0.693299
0.551897
0.543051
0.692911
0.684063
0.683536
0.599021
0.585244
0.577217
0.569312
0.576859
0.580317
0.554684
0.549288
0.553165
0.589682
0.594126
0.602491
0.681434
0.685728
0.552757
0.549598
0.696816
0.682468
0.649632
0.603187
0.591933
0.581735
0.558325
0.548595
0.549789
0.552254
0.548646
0.548416
0.568439
0.59262
0.605364
0.688479
0.68641
0.688544
0.69316
0.610275
0.597895
0.594343
0.592164
0.588214
0.555807
0.547012
0.554582
0.546878
0.561997
0.587297
0.592826
0.623045
0.67926
0.690316
0.554325
0.691634
0.691098
0.606777
0.596041
0.594385
0.593204
0.591701
0.58701
0.556804
0.546716
0.546233
0.551466
0.577785
0.593931
0.626831
0.687741
0.689085
0.550037
0.687911
0.681258
0.606231
0.596104
0.59463
0.59365
0.591733
0.590139
0.585192
0.553385
0.54675
0.549361
0.571803
0.593727
0.626052
0.69297
0.643291
0.543742
0.682181
0.682548
0.605044
0.59561
0.594322
0.593733
0.590248
0.571712
0.578628
0.582628
0.558436
0.558964
0.575005
0.594133
0.64072
0.696581
0.569144
0.647667
0.660645
0.604656
0.595521
0.594194
0.593651
0.591944
0.570073
0.552021
0.557484
0.585669
0.587899
0.590477
0.598197
0.675754
0.689582
0.5585
0.582971
0.60328
0.593076
0.594912
0.594447
0.593999
0.592861
0.590564
0.564683
0.550826
0.55476
0.589858
0.593989
0.603171
0.68042
0.690094
0.550043
0.513813
0.629248
0.586545
0.587475
0.591359
0.594481
0.594393
0.592546
0.589298
0.58682
0.568374
0.55652
0.579886
0.594487
0.621558
0.669586
0.689544
0.54634
0.677663
0.604308
0.585496
0.58512
0.590719
0.594335
0.594297
0.592514
0.571493
0.556651
0.559906
0.582745
0.583155
0.592935
0.624496
0.685267
0.68297
0.686686
0.715163
0.605064
0.591391
0.590485
0.585876
0.590803
0.591899
0.587542
0.561078
0.552341
0.569267
0.590506
0.597455
0.630792
0.693218
0.689236
0.541165
0.689038
0.687521
0.604814
0.588343
0.582192
0.58189
0.576756
0.581333
0.581128
0.567881
0.559729
0.575977
0.586308
0.599184
0.671615
0.696848
0.570899
0.558435
0.684951
0.635208
0.593603
0.586436
0.574102
0.57363
0.574476
0.568634
0.558874
0.560527
0.56092
0.573714
0.589404
0.598237
0.671882
0.689764
0.555683
0.586259
0.670616
0.602618
0.589014
0.582797
0.573655
0.553144
0.540283
0.545655
0.550017
0.549884
0.56162
0.574354
0.576425
0.585482
0.624532
0.683806
0.554619
0.648149
0.663582
0.587558
0.583523
0.57547
0.569706
0.562853
0.544235
0.544504
0.549824
0.562342
0.571509
0.576192
0.576084
0.583512
0.589402
0.675788
0.55175
0.556206
0.697057
0.653549
0.585247
0.58308
0.574127
0.558367
0.53963
0.540952
0.556916
0.571836
0.575451
0.578128
0.579322
0.585478
0.587432
0.592484
0.672803
0.553309
0.569227
0.69946
0.637447
0.588439
0.577265
0.574149
0.544991
0.539159
0.543068
0.560675
0.576012
0.576927
0.589232
0.591599
0.593968
0.602755
0.660898
0.685319
0.554411
0.702726
0.616476
0.585552
0.578501
0.569705
0.544029
0.53942
0.541828
0.551562
0.571933
0.580859
0.590525
0.593888
0.596847
0.626445
0.682109
0.69669
0.542575
0.704918
0.628232
0.588951
0.574116
0.564014
0.539729
0.539335
0.547221
0.549053
0.561607
0.567787
0.589678
0.593863
0.597061
0.629885
0.694836
0.695046
0.70801
0.642804
0.591381
0.575684
0.560178
0.540331
0.539097
0.540598
0.560762
0.554865
0.570611
0.58475
0.593581
0.597833
0.6325
0.697813
0.652035
0.72522
0.645055
0.591182
0.578017
0.564342
0.539205
0.539644
0.543649
0.547025
0.553981
0.566641
0.579911
0.593691
0.602506
0.652984
0.703026
0.569586
0.574734
0.718672
0.616876
0.587979
0.578603
0.56997
0.543169
0.540421
0.545684
0.551664
0.566715
0.572712
0.574683
0.592727
0.606442
0.691985
0.69043
0.55941
0.572286
0.699772
0.606593
0.587913
0.577479
0.565311
0.539883
0.539488
0.547457
0.567412
0.570394
0.575777
0.580044
0.588913
0.622258
0.689072
0.701684
0.582102
0.698051
0.61103
0.587946
0.578051
0.570084
0.541646
0.53972
0.542456
0.559926
0.578481
0.580144
0.589946
0.594681
0.62642
0.697753
0.700849
0.58296
0.698642
0.616719
0.588023
0.579353
0.562872
0.539478
0.54247
0.564376
0.575256
0.576101
0.580233
0.58793
0.596972
0.633451
0.699251
0.702297
0.580115
0.696883
0.613428
0.586489
0.58228
0.570415
0.540447
0.541792
0.55405
0.570879
0.576637
0.580473
0.59274
0.602627
0.656486
0.706958
0.578138
0.580902
0.704407
0.608078
0.588106
0.579265
0.578741
0.571414
0.542845
0.547295
0.577615
0.577186
0.581644
0.593088
0.605098
0.693343
0.70557
0.56568
0.697538
0.707925
0.704245
0.587886
0.577009
0.556616
0.553933
0.566658
0.573363
0.573741
0.577846
0.590561
0.594915
0.605875
0.695776
0.707873
0.560326
0.67966
0.630304
0.587307
0.576588
0.562046
0.539345
0.543023
0.564965
0.575108
0.576663
0.590368
0.59666
0.626127
0.712066
0.702529
0.547721
0.677686
0.589138
0.587849
0.583388
0.540136
0.539119
0.540193
0.563145
0.57615
0.578032
0.58174
0.594409
0.629076
0.694393
0.701592
0.717472
0.610319
0.590541
0.589064
0.585966
0.539888
0.540092
0.548137
0.555257
0.576971
0.578558
0.5899
0.596225
0.633274
0.697602
0.70214
0.72809
0.709356
0.619767
0.590993
0.589606
0.552765
0.53922
0.540617
0.56798
0.580496
0.581781
0.587974
0.592305
0.634373
0.697463
0.578666
0.727801
0.706267
0.699196
0.590598
0.587414
0.587827
0.565708
0.564951
0.571072
0.578461
0.590817
0.588604
0.589172
0.589697
0.672218
0.555996
0.561651
0.728894
0.712341
0.659949
0.599964
0.586413
0.587202
0.588039
0.585322
0.589498
0.590625
0.586597
0.592284
0.588515
0.594332
0.658031
0.562772
0.721075
0.707402
0.66025
0.599355
0.591686
0.587246
0.588035
0.568284
0.583412
0.586565
0.591011
0.589091
0.588579
0.604368
0.671601
0.596014
0.720631
0.707312
0.687036
0.602427
0.587855
0.586767
0.586029
0.587355
0.584016
0.590458
0.594344
0.590294
0.58949
0.637353
0.612748
0.729031
0.706182
0.684432
0.633114
0.617153
0.588984
0.586456
0.585313
0.580079
0.581448
0.585958
0.604425
0.620903
0.608483
0.674008
0.500048
0.726264
0.675474
0.63477
0.589017
0.588606
0.588668
0.585537
0.589143
0.586995
0.586485
0.594518
0.623997
0.692114
0.699891
0.69978
0.60341
0.573386
0.663201
0.641375
0.586647
0.58352
0.588635
0.58312
0.58594
0.584947
0.588833
0.587388
0.655403
0.704396
0.70628
0.717638
0.554526
0.703642
0.637168
0.599703
0.587576
0.587384
0.587807
0.586458
0.587401
0.586938
0.589621
0.589236
0.67911
0.70644
0.714937
0.536618
0.554181
0.711778
0.671985
0.656519
0.601827
0.58634
0.585134
0.586616
0.587409
0.58689
0.587848
0.588463
0.591155
0.70714
0.71765
0.550033
0.619002
0.70617
0.677005
0.612231
0.61352
0.585444
0.585046
0.588485
0.586073
0.586394
0.58659
0.602508
0.687312
0.705513
0.732775
0.57146
0.643534
0.622134
0.624269
0.616
0.586389
0.585248
0.585194
0.585488
0.587516
0.606361
0.706471
0.714666
0.570071
0.610716
0.670847
0.637135
0.622066
0.62986
0.630234
0.586597
0.587497
0.58631
0.597506
0.681336
0.711278
0.724412
0.556354
0.700727
0.682665
0.641862
0.599608
0.587891
0.653757
0.556533
0.587618
0.586364
0.605557
0.704042
0.715666
0.674612
0.55809
0.71815
0.682195
0.625621
0.614486
0.629517
0.588197
0.604005
0.623924
0.5524
0.637709
0.704872
0.719329
0.557991
0.563332
0.718664
0.671101
0.625092
0.604315
0.626695
0.596031
0.618712
0.589633
0.641947
0.626824
0.694843
0.718189
0.551544
0.55119
0.714719
0.671955
0.627174
0.626895
0.609253
0.602551
0.592222
0.587731
0.620893
0.63007
0.69918
0.725713
0.545807
0.552392
0.706766
0.699295
0.633812
0.618612
0.620395
0.559896
0.588489
0.587551
0.630397
0.674475
0.706896
0.720289
0.536526
0.537299
0.57996
0.66758
0.662946
0.619078
0.626971
0.60294
0.6098
0.603428
0.653458
0.636702
0.705601
0.721358
0.653388
0.62224
0.635027
0.625544
0.640388
0.638611
0.647111
0.66833
0.676608
0.656117
0.65735
0.641644
0.62588
0.678841
0.690431
0.701782
0.576054
0.495302
0.621715
0.663188
0.632391
0.66222
0.71599
0.71763
0.498047
0.510815
0.66903
0.616233
0.704313
0.719636
0.570057
0.632045
0.632023
0.717456
0.719914
0.67466
0.616327
0.661167
0.680719
0.706141
0.719873
0.572914
0.54878
0.663605
0.51385
0.635731
0.691752
0.719379
0.685837
0.683565
0.688829
0.69476
0.694173
0.711506
0.68305
0.668413
0.628387
0.5399
0.564513
0.492068
0.650021
0.554176
0.706523
0.696071
0.567729
0.718398
0.735059
0.717958
0.715104
0.712723
0.711598
0.716817
0.723365
0.565545
0.716358
0.733081
0.715048
0.712307
0.709069
0.706465
0.707036
0.708457
0.710171
0.712562
0.711757
0.706401
0.703128
0.710852
0.58187
0.725591
0.714528
0.711093
0.706653
0.708563
0.709718
0.709792
0.710168
0.709651
0.70696
0.702305
0.701853
0.708537
0.713023
0.710495
0.70577
0.702978
0.69163
0.709815
0.729811
0.711287
0.632021
0.736266
0.702745
0.700842
0.706388
0.706847
0.706956
0.708455
0.708642
0.710147
0.711999
0.712465
0.713074
0.704721
0.730894
0.710011
0.715281
0.714438
0.711426
0.709462
0.698332
0.70093
0.737691
0.70492
0.732889
0.711184
0.693944
0.685705
0.692151
0.701583
0.708748
0.71017
0.709155
0.706719
0.704678
0.710875
0.713124
0.71443
0.713245
0.706452
0.701033
0.69515
0.691399
0.713955
0.711645
0.712844
0.715197
0.595031
0.712908
0.709142
0.693305
0.700114
0.714392
0.708507
0.748167
0.731514
0.740166
0.710894
0.709709
0.709213
0.697998
0.705731
0.710594
0.713316
0.713269
0.710404
0.701905
0.707458
0.706436
0.702789
0.714363
0.720402
0.711481
0.541143
0.70843
0.652854
0.675702
0.624602
0.608415
0.610164
0.612999
0.598772
0.592561
0.596144
0.681979
0.705708
0.712692
0.652113
0.600747
0.722159
0.70635
0.71239
0.713361
0.710206
0.705126
0.719422
0.715813
0.712791
0.565143
0.691156
0.597604
0.590867
0.599783
0.603929
0.591636
0.589299
0.590069
0.598787
0.591983
0.592913
0.593116
0.596547
0.673629
0.741512
0.706804
0.594288
0.674387
0.710463
0.711036
0.711759
0.708794
0.7079
0.734822
0.712853
0.555666
0.698644
0.592139
0.586408
0.589572
0.59572
0.598616
0.597203
0.588675
0.582602
0.588884
0.597474
0.597044
0.59674
0.597779
0.600717
0.636889
0.716278
0.697627
0.647116
0.697306
0.707798
0.711805
0.736333
0.708488
0.575542
0.715321
0.71116
0.72612
0.610139
0.587213
0.589569
0.585906
0.589342
0.59528
0.590321
0.586525
0.585597
0.587857
0.595754
0.599133
0.60165
0.605931
0.613333
0.66128
0.703162
0.695534
0.707043
0.702604
0.706611
0.72624
0.587409
0.711469
0.705872
0.702117
0.633376
0.591546
0.587856
0.58116
0.587529
0.586542
0.587268
0.58588
0.584247
0.583487
0.583796
0.588771
0.599171
0.60181
0.603532
0.611004
0.70378
0.689345
0.737846
0.694048
0.684982
0.491126
0.584182
0.541982
0.672171
0.62762
0.593529
0.589962
0.584986
0.580459
0.582181
0.580924
0.583796
0.585022
0.584188
0.584059
0.583166
0.583017
0.584128
0.588203
0.59995
0.605616
0.618433
0.694918
0.696149
0.716374
0.542375
0.559793
0.683892
0.63071
0.599218
0.595837
0.586174
0.560439
0.556538
0.548035
0.552074
0.580381
0.583569
0.582686
0.5801
0.582222
0.583968
0.585327
0.583785
0.59103
0.615407
0.69373
0.698071
0.715349
0.701443
0.690719
0.711984
0.675734
0.591305
0.590001
0.601404
0.595113
0.581367
0.554791
0.548198
0.548411
0.547651
0.548487
0.551839
0.565657
0.554015
0.552837
0.57724
0.584367
0.586374
0.585891
0.705611
0.699821
0.717423
0.703949
0.689455
0.716452
0.718092
0.640989
0.595594
0.588907
0.598093
0.600211
0.57763
0.549427
0.548446
0.548126
0.547117
0.547997
0.549291
0.551995
0.550492
0.562954
0.571113
0.584717
0.587304
0.589999
0.693457
0.714793
0.705517
0.694848
0.710395
0.690175
0.641305
0.606394
0.599102
0.595526
0.591882
0.592125
0.586901
0.558268
0.550072
0.548558
0.548416
0.547838
0.548587
0.551939
0.562991
0.574559
0.582056
0.585106
0.58487
0.592552
0.658647
0.662064
0.558368
0.698897
0.708199
0.673637
0.610528
0.601966
0.595494
0.593096
0.589743
0.581802
0.580941
0.57922
0.571412
0.552753
0.546914
0.548707
0.547235
0.552087
0.554713
0.551621
0.575219
0.586486
0.587267
0.589277
0.623038
0.693911
0.56503
0.705653
0.704157
0.659509
0.607644
0.598762
0.592617
0.588058
0.581725
0.561177
0.553953
0.570779
0.574487
0.575165
0.569288
0.561442
0.557829
0.565275
0.555014
0.550255
0.569531
0.581466
0.584318
0.585573
0.61541
0.697889
0.579057
0.722404
0.704887
0.667485
0.608311
0.594326
0.591374
0.584065
0.578749
0.574772
0.560584
0.544285
0.545378
0.568166
0.574985
0.572425
0.572669
0.573295
0.571943
0.5754
0.59029
0.594383
0.599763
0.596543
0.594114
0.690575
0.550601
0.559109
0.725246
0.704438
0.65398
0.605994
0.595426
0.592183
0.583488
0.577559
0.574536
0.573309
0.572559
0.56649
0.558927
0.558308
0.573023
0.575479
0.572976
0.559171
0.554729
0.553986
0.589371
0.601976
0.643337
0.733924
0.703261
0.540979
0.710914
0.703992
0.682239
0.609692
0.594742
0.588027
0.577294
0.571019
0.569005
0.572203
0.57254
0.573147
0.57312
0.572591
0.572784
0.573706
0.575544
0.57672
0.571598
0.554493
0.548302
0.562514
0.609713
0.724072
0.718693
0.701497
0.694519
0.715573
0.705701
0.615621
0.600462
0.590831
0.570511
0.54857
0.545237
0.544882
0.545888
0.556422
0.570123
0.572603
0.572517
0.573374
0.574424
0.576105
0.578174
0.578805
0.586603
0.585868
0.58619
0.622881
0.715754
0.704439
0.583238
0.719554
0.700636
0.631949
0.601887
0.587386
0.571077
0.551761
0.544115
0.54204
0.54172
0.542001
0.542262
0.544516
0.564802
0.571596
0.572829
0.574284
0.576165
0.579163
0.585551
0.591617
0.60274
0.654505
0.698742
0.709042
0.706113
0.704953
0.642818
0.597085
0.588866
0.568289
0.546806
0.542231
0.541492
0.541592
0.541336
0.541068
0.541667
0.54269
0.553193
0.569232
0.573044
0.574631
0.576826
0.58068
0.590588
0.597624
0.62632
0.728963
0.726253
0.689531
0.713938
0.678482
0.610588
0.594236
0.569308
0.546695
0.542742
0.539615
0.539911
0.540778
0.540982
0.540271
0.540768
0.540551
0.542839
0.557401
0.571596
0.574985
0.578466
0.589419
0.592084
0.602839
0.663598
0.713533
0.604584
0.586238
0.716761
0.705515
0.627518
0.596221
0.591097
0.569635
0.543271
0.539385
0.539198
0.539162
0.539481
0.540009
0.540282
0.540089
0.539842
0.540702
0.5422
0.546959
0.572408
0.584321
0.590987
0.601351
0.642874
0.701916
0.690083
0.582665
0.714954
0.709034
0.631406
0.603523
0.593471
0.582352
0.562098
0.545544
0.539642
0.539113
0.539078
0.539152
0.539172
0.539359
0.53942
0.539808
0.541092
0.547986
0.546705
0.564277
0.590589
0.599163
0.627084
0.722215
0.713694
0.563869
0.692571
0.720215
0.632579
0.601312
0.592767
0.586344
0.573888
0.553813
0.541566
0.53943
0.539231
0.539075
0.539148
0.539297
0.539053
0.539359
0.540672
0.541592
0.545384
0.564494
0.588236
0.590904
0.631018
0.719638
0.719087
0.583127
0.602539
0.709293
0.665025
0.605245
0.590922
0.580331
0.572137
0.562236
0.548892
0.540598
0.539277
0.539109
0.539167
0.540128
0.5391
0.539074
0.539319
0.542087
0.545017
0.551735
0.580946
0.592446
0.62693
0.724674
0.723889
0.590371
0.706987
0.681978
0.607364
0.594402
0.577547
0.549461
0.543194
0.548651
0.546077
0.540216
0.539216
0.539147
0.540911
0.542074
0.540263
0.539117
0.539312
0.540736
0.554811
0.575724
0.582266
0.602656
0.65775
0.71843
0.598718
0.609898
0.700777
0.631254
0.595077
0.588684
0.576274
0.5511
0.539808
0.540505
0.54291
0.543437
0.541392
0.54078
0.541583
0.546131
0.545837
0.539685
0.539424
0.545302
0.559884
0.58747
0.599787
0.634836
0.736406
0.700062
0.715845
0.686067
0.607239
0.592953
0.580854
0.570919
0.559498
0.546551
0.53949
0.539815
0.540708
0.544174
0.546992
0.543289
0.54386
0.55225
0.550302
0.540617
0.54534
0.573227
0.592175
0.624478
0.722149
0.725517
0.585968
0.583942
0.71228
0.642722
0.596079
0.589776
0.576295
0.56654
0.556142
0.547941
0.545058
0.542038
0.540404
0.540659
0.541956
0.541658
0.539985
0.540242
0.555014
0.560145
0.559031
0.588219
0.599248
0.655274
0.708229
0.611747
0.699808
0.703705
0.619172
0.591633
0.577387
0.569711
0.554669
0.546336
0.545568
0.54217
0.540655
0.544161
0.544757
0.543864
0.54067
0.539348
0.539426
0.542708
0.568755
0.587083
0.588556
0.63585
0.731408
0.726529
0.558502
0.601031
0.693127
0.632584
0.596355
0.580416
0.549289
0.543091
0.545546
0.541118
0.539461
0.539997
0.539689
0.539364
0.542021
0.54585
0.546441
0.546007
0.54757
0.552179
0.570866
0.591805
0.60457
0.685061
0.721004
0.594338
0.704083
0.652458
0.602762
0.59199
0.579112
0.552591
0.539701
0.539492
0.539379
0.539516
0.539642
0.539551
0.539041
0.539506
0.542801
0.548132
0.553191
0.559625
0.571843
0.588417
0.599643
0.635755
0.704811
0.706564
0.600113
0.689254
0.62259
0.593506
0.584629
0.573611
0.566374
0.548254
0.540108
0.539128
0.539275
0.538954
0.539059
0.539098
0.539766
0.540497
0.547758
0.555404
0.567503
0.572831
0.590218
0.602333
0.685499
0.72097
0.575159
0.699966
0.674925
0.603341
0.591401
0.578666
0.568783
0.558816
0.550726
0.543122
0.539578
0.539127
0.539136
0.538858
0.539923
0.540119
0.53915
0.543195
0.56082
0.570218
0.578467
0.590829
0.617706
0.717462
0.685948
0.597752
0.689447
0.628321
0.597356
0.587612
0.572978
0.561693
0.551557
0.544631
0.542273
0.54239
0.54093
0.540556
0.541245
0.540853
0.540189
0.539402
0.54244
0.553742
0.577686
0.589722
0.592739
0.63277
0.705289
0.579538
0.694696
0.666384
0.602605
0.591683
0.581629
0.571095
0.559303
0.550774
0.545597
0.540415
0.539449
0.541007
0.541608
0.543229
0.545366
0.546479
0.545091
0.54816
0.558422
0.582086
0.5925
0.620253
0.705223
0.709988
0.592744
0.686038
0.622575
0.59347
0.586373
0.573895
0.566485
0.556082
0.549896
0.54674
0.54377
0.540852
0.53958
0.53995
0.539718
0.543703
0.548545
0.553555
0.560542
0.573678
0.590643
0.601109
0.645754
0.707423
0.593381
0.68637
0.670952
0.602033
0.591037
0.579174
0.567861
0.558053
0.551638
0.548619
0.546882
0.542978
0.540056
0.540151
0.540132
0.540191
0.540107
0.5468
0.557468
0.569453
0.579483
0.591098
0.605365
0.701991
0.718148
0.691258
0.633354
0.594181
0.586204
0.57227
0.562024
0.553297
0.548914
0.547502
0.547221
0.546084
0.542137
0.539455
0.539219
0.539488
0.541355
0.546406
0.559926
0.574273
0.587441
0.596861
0.629364
0.698768
0.62165
0.589528
0.67942
0.618141
0.591799
0.579516
0.567058
0.556863
0.550156
0.547602
0.546884
0.547059
0.547106
0.546216
0.54381
0.541684
0.541792
0.542794
0.550332
0.567921
0.577601
0.589977
0.59956
0.675907
0.711479
0.566852
0.593957
0.686398
0.602177
0.589714
0.574145
0.560493
0.552429
0.54837
0.546567
0.546174
0.546405
0.546657
0.546681
0.546378
0.546329
0.546694
0.549076
0.556127
0.568571
0.576879
0.590345
0.601178
0.692116
0.611448
0.663833
0.672025
0.600391
0.586565
0.561812
0.547601
0.544962
0.546542
0.545425
0.542684
0.542528
0.54529
0.546129
0.546272
0.546876
0.548105
0.552881
0.561626
0.572443
0.585169
0.59199
0.620872
0.687208
0.586328
0.692212
0.639148
0.595102
0.584529
0.566315
0.546362
0.540736
0.542168
0.545226
0.542436
0.539569
0.539705
0.543653
0.545907
0.547086
0.54857
0.553454
0.566074
0.574202
0.589329
0.599759
0.66895
0.706428
0.593316
0.703349
0.616331
0.592469
0.580518
0.568094
0.554353
0.546328
0.544118
0.544888
0.54546
0.542184
0.539554
0.539658
0.54362
0.546826
0.549044
0.554398
0.56652
0.576037
0.590072
0.616424
0.686393
0.599501
0.664302
0.684579
0.602118
0.590022
0.576161
0.567675
0.55624
0.547565
0.544995
0.545323
0.545945
0.546062
0.544702
0.543182
0.543651
0.546652
0.549448
0.557319
0.567933
0.580085
0.591222
0.621344
0.694399
0.561644
0.693009
0.643398
0.599816
0.588557
0.572937
0.56219
0.553816
0.547206
0.541296
0.540048
0.542107
0.545382
0.546093
0.54594
0.546286
0.547524
0.551328
0.559798
0.571807
0.586311
0.596506
0.64948
0.701478
0.583794
0.679794
0.619533
0.592808
0.584698
0.572039
0.561014
0.551146
0.547086
0.544113
0.53989
0.539182
0.54098
0.544687
0.545795
0.546637
0.547912
0.552592
0.563846
0.573046
0.588698
0.599395
0.677541
0.65866
0.651646
0.679354
0.602297
0.590834
0.578036
0.569093
0.560097
0.550482
0.544787
0.542152
0.542146
0.540233
0.539283
0.53971
0.542824
0.546338
0.548087
0.553005
0.565346
0.57552
0.589585
0.614378
0.68122
0.592859
0.680968
0.656003
0.599352
0.587688
0.572596
0.562106
0.553667
0.548528
0.542644
0.539866
0.539298
0.540028
0.541579
0.539633
0.538944
0.541213
0.547492
0.553452
0.567284
0.581496
0.590694
0.618121
0.687488
0.556976
0.690612
0.631657
0.593866
0.583794
0.57042
0.559857
0.551438
0.547802
0.544651
0.540017
0.538939
0.539024
0.539595
0.54154
0.54009
0.540101
0.543995
0.556115
0.568535
0.58558
0.596186
0.63642
0.699487
0.562904
0.687306
0.621406
0.591982
0.57986
0.567664
0.557346
0.550063
0.547449
0.54633
0.544114
0.539833
0.53902
0.53896
0.539053
0.540812
0.544186
0.547466
0.557609
0.572732
0.588331
0.599365
0.681912
0.660882
0.588656
0.682359
0.61606
0.591294
0.578575
0.567235
0.55561
0.549111
0.546895
0.546251
0.545935
0.54479
0.541353
0.539294
0.538708
0.538946
0.5417
0.551011
0.562786
0.575415
0.590247
0.616663
0.683236
0.58963
0.5913
0.68396
0.602111
0.590506
0.577459
0.566583
0.555504
0.548775
0.546902
0.546225
0.546049
0.545683
0.544723
0.543133
0.54024
0.538981
0.539771
0.546205
0.565602
0.582214
0.591804
0.630438
0.70434
0.679459
0.66356
0.600356
0.58848
0.574669
0.565591
0.555124
0.548782
0.546699
0.546105
0.545938
0.545564
0.543046
0.540534
0.540475
0.540385
0.540421
0.545117
0.564325
0.585265
0.597528