/*--------------------------------*- C++ -*----------------------------------*\
| =========                 |                                                 |
| \\      /  F ield         | OpenFOAM: The Open Source CFD Toolbox           |
|  \\    /   O peration     | Version:  2312                                  |
|   \\  /    A nd           | Website:  www.openfoam.com                      |
|    \\/     M anipulation  |                                                 |
\*---------------------------------------------------------------------------*/
FoamFile
{
    version     2.0;
    format      ascii;
    arch        "LSB;label=64;scalar=64";
    class       volScalarField;
    location    "20";
    object      omega;
}
// * * * * * * * * * * * * * * * * * * * * * * * * * * * * * * * * * * * * * //

dimensions      [0 0 -1 0 0 0 0];

internalField   nonuniform List<scalar> 
404911
(
382.229
153.041
3561.88
1663.86
178.973
199.805
204.667
723.558
455.163
392.978
473.081
377.05
188.673
255.752
495.702
1223.89
427.67
145.38
175.401
292.075
594.917
198.948
371.983
611.1
189.38
1009.94
496.057
143.715
150.327
1092.3
466.764
157.393
253.52
333.035
277.78
188.212
308.409
515.751
290.374
227.109
404.066
1126.71
289.492
162.855
158.254
466.909
418.164
175.184
198.516
1023.01
492.4
847.162
317.25
1447.22
438.736
686.321
9530.91
112.862
405.998
301.094
83.8216
71.52
240.762
6.53138
79.1659
253.602
9.14687
421.612
93.0751
6.97042
70.542
2.02488
65.5227
24.4961
11.4804
688.998
2388.47
307.187
43.4956
122.407
25.2263
123.992
4.05515
63.162
63.7282
39.686
424.955
26.9019
1245.67
259.698
270.3
3077.83
31.5357
111.072
124.546
30.1961
53.8895
140.964
10.9256
300.826
705.792
21.2869
51.4059
550.343
1253.44
504.111
252.983
680.586
338.162
262.324
205.912
210.736
202.745
219.216
2316.05
517.785
220.583
4576.17
613.985
179.037
184.346
183.727
189.238
268.051
1317.5
318.849
212.936
200.919
183.411
534.776
493.019
532.952
179.407
172.771
184.744
177.391
230.43
227.892
176
292.187
1190.21
313.496
200.564
184.055
185.435
183.507
186.301
175.808
531.945
476.383
181.496
171.338
192.465
1810.62
292.248
997.947
261.684
176.942
164.321
174.189
176.748
184.389
187.958
187.02
181.49
175.997
176.358
175.921
189.308
264.944
406.575
597.631
466.491
443.453
464.447
459.731
537.82
182.286
188.93
181.184
180.91
179.424
187.856
199.601
205.039
204.73
295.16
718.003
483.925
433.848
437.685
355.941
386.667
562.812
473.946
168.561
178.139
176.489
185.956
193.201
199.328
229.66
1176.9
1000.54
260.369
591.816
516.844
304.395
296.412
322.674
467.292
355.971
411.131
471.979
480.57
165.159
181.813
187.819
186.943
212.699
502.939
870.606
607.213
288.602
285.442
209.291
316.409
341.889
297.821
383.41
371.336
278.254
355.162
149.786
183.927
188.106
208.58
303.368
1215.72
1231.69
290.159
135.087
330.872
206.654
201.287
183.901
213.212
357.899
293.402
268.767
232.799
250.232
330.378
500.589
175.782
219.665
1122.02
474.148
175.496
122.436
333.902
183.549
196.706
172.675
197.952
238.71
221.205
209.304
237.831
364.274
413.482
483.931
549.209
440.451
481.779
216.879
167.793
410.435
215.68
185.454
225.708
198.859
187.558
236.38
170.432
187.352
320.62
395.785
459.306
490.424
1703.47
368.906
182.746
159.765
186.756
180.465
174.3
221.58
164.745
185.966
181.948
167.521
202.948
198.611
338.418
419.472
458.623
254.988
1043.13
993.64
897.36
312.601
345.935
96.7836
83.7303
180.544
174.472
219.227
161.211
173.7
189.613
195.35
190.489
266.952
384.26
195.677
557.854
1122.65
259.804
153.464
326.186
192.048
202.324
170.643
56.7479
173.589
144.971
169.937
225.406
140.503
203.046
244.942
231.891
467.405
273.122
479.524
169.279
163.112
150.733
143.015
173.152
127.989
135.57
81.9818
209.746
100.71
86.4032
138.019
109.765
211.18
310.624
199.671
1016.07
1150.04
272.641
159.098
194.327
144.618
100.323
106.766
155.723
37.0524
33.2681
39.9403
121.277
64.8664
146.101
125.141
138.016
867.864
900.462
359.279
151.062
128.445
147.43
228.06
121.067
141.923
37.3409
73.7835
68.2171
69.0894
41.3376
84.2441
180.633
230.069
145.192
287.189
724.343
1111.04
901.531
715.741
254.539
209.112
47.387
131.945
131.406
55.7318
20.5379
35.052
72.8528
75.0949
136.836
245.872
255.137
154.455
449.455
440.132
173.053
309.994
153.655
86.235
25.0941
32.2358
71.9019
31.0256
124.707
56.5684
49.544
101.428
140.031
134.089
144.318
284.042
981.629
193.167
128.558
198.043
105.578
40.0737
24.6329
23.9104
89.8568
150.929
150.009
142.388
94.8278
146.64
154.352
170.807
158.878
318.415
437.91
144.046
183.312
169.086
109.742
43.8912
26.4889
16.0914
20.9917
46.6371
175.327
153.327
74.7328
166.452
231.863
266.973
176.035
990.333
253.659
121.688
149.312
120.051
56.9034
32.9321
60.5534
82.0901
22.1821
30.2852
42.7689
43.3945
148.442
194.665
245.222
170.838
288.242
1185.69
469.469
178.498
169.975
151.883
115.28
76.7334
32.4962
20.3595
31.4008
35.2277
61.8823
70.7559
84.3688
88.6686
227.243
122.128
190.814
1017.32
1140.2
240.598
124.026
206.946
146.221
114.28
97.0524
57.1115
26.8713
24.1369
19.3397
21.8596
82.6413
106.492
136.604
140.122
161.047
303.169
443.784
158.671
152.819
144.212
118.345
101.744
92.8384
50.169
27.4672
19.6531
19.4387
20.507
31.3249
130.7
182.189
224.43
184.325
1010.91
1151.08
241.174
126.317
149.538
127.916
103.564
96.4688
95.0415
83.7528
41.3502
23.1295
19.0043
21.7799
29.0384
125.124
222.9
181.848
277.195
912.803
163.315
147.949
139.075
110.371
96.2147
91.2492
96.907
96.9243
84.619
59.4967
34.0039
36.7532
46.9014
157.591
199.77
204.805
332.613
271.229
130.978
169.677
114.125
100.245
93.0289
86.8925
84.4056
89.4858
92.9672
88.4607
85.4666
94.1202
115.672
165.639
206.603
171.301
517.076
245.112
198.751
178.453
52.0868
82.0102
83.7167
44.7786
40.4869
73.7504
84.2526
88.7726
93.27
105.214
146.367
153.445
131.852
254.988
1131.24
1165.79
183.446
134.776
141.485
25.2819
36.7712
81.9067
42.3117
20.7726
20.002
67.3939
83.2394
96.6116
111.305
144.33
159.119
169.987
467.722
942.019
168.605
162.698
123.254
78.5041
69.2793
80.4975
79.2388
39.2744
23.353
6.99484
71.1666
95.0689
115.181
146.025
161.505
176.585
1075.95
296.812
146.181
159.271
148.188
104.346
80.0805
77.3866
78.9568
83.9972
68.2465
59.82
74.1064
101.663
119.681
155.817
119.626
184.194
1116.17
282.393
128.816
143.282
130.083
94.46
43.1948
27.8618
38.2302
69.9711
83.1573
85.5047
86.5595
105.371
135.534
183.313
131.543
277.604
1048.9
207.288
127.415
148.291
118.254
88.4443
59.697
26.9199
22.54
29.2127
67.1822
76.5965
87.1922
102.306
139.655
167.701
155.935
456.385
443.496
155.573
158.126
173.341
129.282
77.8603
34.7049
39.1899
30.2191
19.4532
12.9531
56.7569
80.7739
101.145
140.204
152.83
175.848
1023.59
288.841
130.645
141.857
123.273
103.377
41.0578
25.6594
20.3828
26.17
35.9563
28.5436
6.76898
22.8225
98.6493
133.903
160.376
226.499
1155.75
1066.46
188.867
121.331
143.861
116.916
94.109
71.0582
28.7249
15.7341
16.6489
21.173
34.1405
26.2609
17.0501
61.4592
165.281
123.762
255.133
1058.44
176.48
162.558
139.769
104.734
92.4809
84.9296
65.1087
26.698
18.6639
18.958
15.2179
20.2019
61.4762
109.177
188.226
141.332
432.052
1042.32
174.865
164.569
135.762
103.561
89.4633
86.6855
82.4789
66.2999
31.6316
8.31276
8.99531
11.0915
29.7787
125.556
144.561
157.816
923.372
1037.23
171.309
147.095
135.23
100.64
93.4367
88.1168
87.0791
84.5313
69.4568
48.0873
17.161
9.32507
19.3501
85.2368
211.007
224.965
1153.14
284.88
151.152
149.238
132.904
103.299
89.6465
87.4242
85.6961
80.5672
57.9149
14.129
18.5313
19.4997
20.6167
66.4956
163.576
250.072
1168.53
261.267
128.775
146.588
130.855
105.077
91.7028
80.4122
78.5544
89.1252
71.647
14.9784
4.97873
13.562
28.0875
125.748
156.985
244.24
1116.41
176.497
155.216
159.935
121.431
106.113
96.4317
75.8936
71.0157
70.6606
82.9234
72.4773
46.0918
17.9556
24.3579
153.937
287.725
259.131
994.392
172.436
159.056
129.474
104.109
93.4499
84.9465
42.1491
22.326
17.9231
65.6272
76.6118
83.735
76.2915
86.5307
142.87
128.317
271.25
1060.69
173.051
152.037
136.718
97.4859
92.5154
85.0481
76.0266
35.821
14.4994
11.9589
75.076
87.4629
96.157
111.786
162.58
132.045
287.667
1062.96
177.647
156.013
137.666
99.6047
92.5352
88.9788
81.6246
79.767
66.8292
60.7815
66.9225
87.1309
97.9948
136.007
150.028
142.751
433.326
994.924
169.581
154.647
138.036
97.7807
90.3985
86.9308
85.2757
81.0458
82.8748
82.8809
80.104
88.7346
100.313
135.905
154.678
170.662
1003.8
299.022
165.817
177.589
135.508
89.6482
79.8275
82.0471
76.6211
72.2103
67.1466
70.5215
80.8668
86.562
99.5809
136.419
152.984
173.748
1088.78
304.161
161.287
147.423
104.975
43.2284
62.8236
61.1538
60.7001
21.9231
16.5924
21.5416
61.8665
81.5455
94.6879
135.077
150.486
171.576
1057.06
1193.83
213.833
155.794
150.516
125.434
36.238
19.9035
13.0892
19.7678
24.5705
5.60389
3.68124
5.03326
65.7268
93.0713
134.14
153.832
184.769
1042.9
1081
175.335
121.102
197.754
135.93
73.9463
26.8057
7.07163
3.45677
3.84893
4.70418
3.47194
3.39537
12.2858
97.8534
138.031
166.282
233.523
181.122
162.91
140.649
109.163
88.3156
72.3969
45.0811
6.07217
2.94768
5.55518
2.90622
8.80848
44.5404
95.0325
155.894
121.514
245.709
1019.07
183.924
156.337
139.557
102.017
91.1141
83.7392
70.2249
41.6736
6.45873
2.85516
2.70609
4.42412
21.3987
101.8
150.211
132.427
291.959
1061.61
175.642
150.17
129.755
101.408
96.0577
86.067
70.6729
59.1692
36.0416
5.11959
2.86609
3.70588
14.9745
97.1557
160.777
139.81
440.786
1159.35
174.685
147.856
128.848
97.3972
89.8428
82.8131
62.0755
14.9214
22.1088
29.633
7.12834
7.33368
17.9759
125.26
151.579
146.987
867.474
160.961
156.544
136.253
100.463
88.5904
86.1145
70.5126
13.6903
4.61867
6.71607
38.3908
48.2236
65.7437
138.754
153.478
169.905
970.844
777.176
285.282
95.2204
92.7886
90.3965
88.7565
80.589
63.1187
10.2845
4.20192
5.62907
67.4392
89.2248
127.783
176.718
175.025
1070.97
2197.92
405.697
172.312
84.6747
68.3047
87.9476
89.4521
79.9438
58.5833
43.1534
12.4547
6.31448
24.2899
102.79
143.043
121.814
193.581
1120.82
291.051
119.645
132.592
34.7303
61.5615
86.8641
83.6988
75.2843
14.6994
6.38459
7.7794
30.1453
31.3424
107.364
165.688
129.791
269.883
273.856
227.561
141.945
77.1066
60.6374
38.7213
68.5412
67.4694
44.5254
8.31007
4.73357
12.939
75.5217
117.7
188.118
136.806
289.119
1204.34
238.596
162.193
151.561
53.368
27.4602
26.6939
19.3298
26.3728
25.8772
12.0919
7.71822
18.9042
42.5369
133.552
173.465
158.164
872.414
971.496
180.582
253.007
121.158
41.6047
16.6141
16.3072
17.1197
12.4554
7.32985
8.09118
8.22524
16.4575
60.5248
113.477
146.704
169.659
1003.6
840.25
135.824
202.63
78.2135
29.0309
16.2067
5.02335
0.974408
2.52976
3.92787
3.88005
8.5534
16.9102
18.8621
36.897
209.696
172.043
1013.07
445.416
127.249
177.446
30.7809
17.8824
13.1956
9.20576
2.10291
2.18109
3.86268
8.90706
14.5589
18.6685
18.5197
30.5376
181.591
177.781
1048.93
1023.22
235.601
125.844
76.5017
29.5649
16.6541
7.08006
0.796591
1.16118
6.47065
14.7437
17.918
20.8941
22.4372
39.3755
121.082
192.015
321.747
1056.61
907.364
143.671
184.621
65.9924
19.989
16.6818
2.32828
0.669466
1.75836
8.10412
18.3847
19.8838
55.9087
70.9793
100.959
139.9
161.787
191.398
1086.22
210.634
164.29
40.0163
21.5327
13.1909
2.04148
0.738838
1.40614
4.45804
14.8356
25.211
67.8863
89.1982
109.761
159.601
121.8
244.38
1210.37
244.064
153.011
63.7152
16.598
9.77612
0.821783
0.715613
3.01496
3.60303
8.56407
11.9196
62.7224
86.7068
113.343
159.661
132.01
286.093
250.973
169.092
96.7002
18.0853
7.89439
0.989709
0.650682
1.0628
8.18443
5.67314
13.842
35.7424
93.6005
117.804
170.839
139.354
437.848
226.704
331.359
105.025
20.6857
9.97033
0.680689
0.799229
1.92893
2.95385
5.33575
11.1607
24.0783
94.8832
138.308
147.473
145.479
883.709
961.57
159.499
261.96
82.7661
21.4522
13.4238
1.78895
1.01137
2.53679
4.49311
11.3567
15.5209
17.2553
98.1456
145.265
188.162
177.37
987.807
912.231
166.353
305.654
76.3035
20.0534
10.5096
0.863509
0.759735
3.08936
11.621
13.6682
18.2164
23.4694
66.5662
171.565
121.897
257.488
848.613
140.306
143.597
53.573
20.7648
13.4491
1.35433
0.819553
1.58504
7.78772
21.3197
23.548
62.9201
107.972
156.414
129.73
295.465
859.546
137.379
141.723
51.5575
22.4815
9.19358
0.754929
1.58651
9.95485
17.7193
18.5408
23.6945
52.6899
124.169
172.11
136.686
296.298
872.05
140.862
145.992
43.4598
27.703
13.8141
1.01837
1.39484
5.36207
14.0554
19.0608
23.9746
91.1725
146.322
154.776
144.134
871.244
880.203
142.143
172.671
50.3136
22.2968
21.7114
14.6086
1.69594
3.0407
20.2004
19.673
25.9998
99.3911
151.148
154.652
170.19
977.063
278.181
143.637
292.872
65.9914
19.5078
6.36911
5.32002
11.3007
16.0014
16.3553
20.4674
69.0398
103.407
160.258
154.213
176.79
1054.2
341.792
317.703
88.7998
19.1115
8.76356
0.718355
1.74762
10.3312
17.5979
19.1091
72.0912
112.029
147.575
245.15
223.24
1187.31
326.724
263.355
159.965
30.3326
0.932427
0.657527
0.950977
9.31459
18.5359
20.6456
26.3016
113.204
148.542
130.735
269.679
275.392
698.345
230.619
172.949
42.087
0.864143
0.918753
3.30812
5.82759
19.4619
21.2984
60.8467
118.526
188.27
134.547
293.329
295.587
129.837
168.151
175.287
141.834
4.89823
0.684215
1.06787
12.1083
24.1407
26.1107
54.512
90.737
190.34
159.73
860.656
304.147
135.205
228.486
179.935
221.394
190.108
10.7706
10.2701
14.0888
21.137
110.491
156.384
155.049
284.655
188.351
1052.32
1171.92
280.641
160.997
163.614
212.097
253.698
178.371
128.574
35.4872
156.845
174.29
154.122
103.369
160.524
280.509
483.266
1219.28
201.936
129.705
187.317
158.065
147.874
180.588
128.914
12.4122
29.8807
118.035
187.151
220.058
216.349
430.056
238.874
986.007
193.27
147.892
145.39
141.716
171.916
72.224
98.4794
93.3517
31.4446
130.838
221.77
211.594
253.696
502.138
812.948
289.035
142.872
488.55
262.954
220.729
55.477
41.7863
36.4381
23.4724
25.6665
212.339
176.861
138.674
272.373
298.158
4093.31
300.215
539.949
449.074
245.067
234.862
157.16
36.7512
145.783
193.722
87.3649
187.325
171.975
153.082
177.716
282.453
782.791
1065.08
628.106
314.748
218.789
183.937
177.509
28.9004
39.0742
156.888
187.699
232.059
259.362
199.748
188.879
313.303
1183.11
194.031
445.045
299.456
138.516
130.011
60.0306
94.7453
183.395
194.989
188.408
237.968
130.302
186.372
224.181
1402.55
1171.94
211.831
155.883
437.704
224.736
219.531
35.5944
46.2728
160.683
210.011
196.37
213.26
279.381
150.46
309.458
1233.46
566.499
202.728
160.426
484.459
331.944
229.863
142.695
113.97
203.678
193.576
195.722
272.769
131.199
162.783
317.926
1132.27
537.161
472.237
370.764
271.453
167.479
183.893
174.342
205.328
188.478
325.076
156.146
218.959
1136.24
711.232
514.574
452.987
398.098
288.371
312.054
193.652
148.774
198.276
248.147
131.89
165.379
307.892
1158.02
194.721
158.027
494.946
599.593
215.13
319.281
725.35
188.755
207.062
300.956
153.751
196.388
506.099
1217.31
206.978
164.567
501.845
475.494
285.59
216.315
355.138
382.912
728.451
337.34
161.858
209.345
1184.75
1141.9
206.815
539.394
490.277
501.311
376.631
244.427
255.665
236.44
347.832
494.338
166.182
215.852
1266.95
1206.14
207.83
554.032
492.658
501.452
472.732
221.402
243.655
194.365
293.966
492.769
170.208
295.455
1311.28
1156.77
218.024
177.494
515.037
476.597
511.94
712.92
185.838
215.502
336.342
161.266
181.693
297.741
1414.41
1438.08
1149.44
182.385
169.986
492.404
488.936
609.223
559.506
286.329
356.264
505.82
184.585
312.298
175.673
519.721
474.966
482.701
151.376
495.279
506.297
522.827
481.576
178.154
159.695
474.215
550.336
167.655
184.761
255.244
1126.77
6293.13
589.004
159.505
486.316
514.55
197.437
343.156
2824.62
2103.79
492.336
777.741
193.187
215.962
1126.33
471.288
768.231
198.714
208.519
541.28
828.933
599.671
240.018
194.002
230.786
1123.12
1151.86
273.879
1949.64
817.18
482.979
327.226
184.513
178.86
213.135
214.197
606.556
268.005
194.761
355.352
667.097
1457.19
1309.07
6439.12
475.205
1366.03
493.478
472.417
1261.83
497.13
318.425
234.375
223.599
207.962
193.676
189.677
272.962
1290.44
508.859
306.136
219.243
207.054
191.709
183.834
184.502
191.243
190.895
188.085
178.872
182.418
187.567
181.25
1205.94
477.166
235.239
206.842
187.828
185.339
182.41
179.596
184.391
186.491
189.209
179.648
171.943
175.848
184.847
183.699
185.5
180.917
189.985
271.091
328.493
758.343
913.053
456.738
227.263
197.651
190.688
179.992
177.012
180.193
181.478
181.598
182.796
185.834
189.869
169.959
511.976
511.74
184.431
193.021
179.984
188.639
186.675
211.55
527.756
510.466
281.23
211.68
189.395
169.955
160.711
165.814
171.957
177.505
178.522
179.881
176.64
184.074
182.093
184.689
184.27
165.465
477.508
519.686
165.611
186.329
190.2
203.534
235.557
1187.25
387.177
172.547
134.931
129.731
165.166
172.762
360.396
308.778
367.443
150.689
169.608
175.743
161.375
153.469
160.693
178.716
181.775
170.969
156.198
457.74
513.513
172.654
196.353
233.565
545.697
1470.51
367.781
263.759
219.021
240.089
249.705
191.932
305.422
279.489
343.176
331.053
212.516
146.989
161.33
766.451
360.079
360.086
159.856
177.687
185.337
183.387
513.689
521.329
215.987
530.484
1228.65
415.898
397.505
218.043
164.544
153.064
96.7241
64.2777
63.2536
128.234
273.617
361.744
376.798
312.212
216.326
190.463
365.999
284.767
479.527
172.534
183.006
183.631
189.048
214.761
480.418
396.973
1319.54
295.755
355.957
169.91
74.3829
100.077
154.042
114.116
53.5846
27.5235
90.953
98.3586
248.036
270.786
309.501
306.516
268.976
175.386
115.774
410.744
139.128
179.008
199.689
302.882
540.35
1066.81
374.935
161.053
428.241
270.359
109.801
74.4283
35.0516
54.4527
96.2616
57.6239
36.147
35.3493
47.8403
108.425
133.222
139.252
162.35
304.439
337.672
195.718
156.571
157.681
163.476
196.34
476.63
1080.61
218.865
131.805
229.411
199.616
149.742
45.7857
24.4857
43.608
40.7849
45.1725
36.9566
31.697
29.6822
31.0215
52.8144
110.153
133.444
160.732
193.409
231.306
149.446
542.374
504.292
622.286
4480.87
755.313
1366.79
298.707
207.245
148.995
74.8523
34.399
24.8992
27.9149
25.4262
30.8408
33.7295
31.311
32.6738
29.9077
29.575
31.3079
47.3279
127.804
163.805
200.021
186.139
128.825
537.328
1614.65
1251.46
419.758
218.488
149.496
118.559
37.6057
8.01217
6.34747
3.2714
4.63576
24.1975
30.8444
28.3086
24.1321
28.0125
31.5232
34.657
31.1737
139.562
209.765
189.818
121.121
181.741
414.228
421.281
166.524
443.023
251.416
147.856
134.627
95.0992
25.8366
5.652
3.32308
3.3984
3.14956
3.41674
4.56013
10.7142
5.34475
4.9145
19.8465
32.1262
40.6596
145.912
296.413
123.246
179.355
443.404
401.224
171.413
174.474
194.05
113.091
46.617
98.7447
112.716
21.1308
3.72332
3.40465
3.30313
2.97968
3.25471
3.66219
4.61462
4.08466
9.21058
14.3018
33.0722
59.5339
265.379
528.716
171.134
440.7
359.521
144.78
194.247
210.427
168.912
111.72
70.5785
62.8586
56.3287
33.8379
7.03699
3.95129
3.44436
3.39469
3.20271
3.42795
4.59249
9.28235
17.1209
26.9971
34.9453
162.431
318.469
502.788
827.529
1118.03
348.109
140.924
204.75
158.982
130.307
105.728
85.4097
45.7922
25.8755
24.8609
23.3393
14.5798
4.86728
2.91537
3.49074
3.01297
4.64709
5.63517
4.47318
17.6816
36.9201
63.418
256.903
360.416
407.994
1096.48
343.137
132.479
182.704
156.096
97.1548
69.4854
38.8118
25.1316
8.22388
5.24722
14.4652
18.0601
18.8478
13.0205
8.44345
6.80112
10.4956
5.76578
4.0044
13.3712
26.484
32.1289
131.19
391.333
431.565
989.279
230.977
130.178
194.917
161.062
98.8344
55.0389
29.4862
22.3902
18.3037
8.10637
2.06018
2.38751
12.5522
18.6693
15.3802
15.4571
16.2477
15.176
17.8772
47.8845
103.045
164.995
212.674
370.726
313.541
1324.97
1190.82
247.913
126.452
170.13
149.224
99.4899
56.4159
28.8638
21.3594
18.2152
17.0304
16.3863
11.3062
7.341
7.03236
16.3903
19.0891
15.7988
7.38477
5.62656
5.36317
52.7424
189.652
245.424
220.25
177.033
1508.72
379.189
135.661
211.149
167.178
93.7297
39.0063
19.9152
14.3989
13.0174
16.0262
16.3917
17.0089
16.9548
16.3458
16.3514
17.1018
18.9911
20.5927
14.8523
5.53553
3.35793
9.02945
223.61
327.955
170.729
417.675
428.396
167.589
168.829
175.969
107.279
55.6699
13.822
3.39416
2.35851
2.25208
2.55461
6.30764
14.2165
16.4628
16.3538
17.0932
17.9967
19.7564
22.2742
21.6409
35.3197
36.6349
55.2906
197.229
168.741
430.55
969.195
214.44
166.189
172.596
115.295
37.5744
14.4008
4.49859
2.02914
1.43572
1.3477
1.42532
1.49757
2.14688
10.5157
15.5209
16.5903
17.9797
19.8668
23.2673
32.2282
64.9552
150.902
200.312
141.499
378.372
374.26
134.249
166.197
119.398
43.5277
12.3928
2.85915
1.49811
1.28966
1.31537
1.24398
1.17219
1.33443
1.61996
5.01857
13.5172
16.7895
18.2922
20.5618
23.7704
51.0901
117.441
183.989
266.79
261.515
433.362
154.151
230.097
174.361
73.8811
12.8895
2.82211
1.6436
0.781019
0.860602
1.09379
1.14997
0.956581
1.09028
1.03013
1.66792
6.68295
15.3561
18.5275
21.2395
47.553
83.6551
158.803
201.296
154.242
801.38
920.577
206.418
167.695
173.386
116.679
50.8736
13.2699
1.795
0.71939
0.670731
0.661415
0.746125
0.887052
0.961021
0.908312
0.84111
1.07211
1.47439
2.87674
15.819
30.1725
63.6593
145.934
173.711
133.007
376.883
926.246
220.703
181.519
179.336
122.78
76.3347
25.7969
8.84555
2.46573
0.788216
0.647938
0.638504
0.658759
0.664108
0.713819
0.729488
0.831945
1.17721
3.21783
2.78736
9.90856
62.5303
144.341
208.438
252.22
231.403
1060.32
387.168
187.678
180.853
121.727
73.4361
33.6226
16.3554
5.23812
1.31139
0.732404
0.679999
0.637863
0.657213
0.697163
0.632649
0.713616
1.06422
1.31302
2.41002
10.0796
44.7331
208.923
245.445
289.189
212.071
894.511
762.497
182.379
219.237
152.074
61.8006
24.3353
15.4729
8.83266
3.49231
1.04147
0.691866
0.647902
0.66134
0.915617
0.64266
0.637358
0.702564
1.45701
2.29956
4.48746
24.7387
95.3072
193.837
288.694
209.265
883.158
230.328
168.979
150.283
81.7119
19.8864
3.71156
1.76688
3.43604
2.60738
0.938543
0.675102
0.657231
1.12946
1.44567
0.948749
0.647743
0.700124
1.08282
5.64708
18.3077
27.0509
180.938
208.643
193.966
878.773
761.777
145.628
157.722
104.553
41.7793
19.0864
4.24638
0.828014
1.01564
1.68386
1.82939
1.25806
1.09039
1.31123
2.63199
2.53142
0.79498
0.728918
2.39516
7.82087
41.816
147.777
220.527
304.115
360.912
248.182
172.259
150.274
79.3634
24.1112
14.5779
7.67826
2.76988
0.745816
0.8306
1.0703
2.04983
2.89943
1.78644
1.9531
4.66863
3.95726
1.0444
2.41262
15.9636
75.3214
185.933
290.057
218.037
919.651
935.357
191.006
166.901
114.189
44.5049
19.0815
11.4628
6.19949
3.22531
2.31392
1.44126
0.986962
1.05554
1.41188
1.32795
0.874729
0.949907
5.75151
7.88887
7.36781
52.9736
207.501
198.698
147.702
827.562
325.07
186.922
164.844
68.3122
19.9101
13.5083
5.53607
2.68525
2.46204
1.47875
1.06091
2.05478
2.2258
1.95972
1.05751
0.706806
0.729808
1.65136
13.0689
38.185
59.1789
225.946
267.217
242.694
1198.51
724.217
140.832
156.228
110.74
23.5938
3.66067
1.73392
2.45174
1.17768
0.737066
0.879775
0.797657
0.713121
1.44127
2.56026
2.73846
2.59711
3.09122
4.65903
14.2035
66.142
182.009
231.625
210.571
886.831
204.68
200.269
127.601
65.5882
21.7939
4.78397
0.798842
0.740402
0.709654
0.749369
0.78534
0.760311
0.62771
0.749947
1.66047
3.28404
5.05142
7.72801
15.3605
41.1378
116.446
212.902
133.632
396.395
706.843
142.25
141.954
75.5453
31.2783
16.5962
11.4022
3.31933
0.909601
0.647221
0.685106
0.603126
0.6325
0.642745
0.819605
1.01037
3.15235
5.90647
12.2712
15.7619
55.4501
155.328
171.739
214.81
995.069
235.909
159.857
126.595
62.1184
21.3129
12.935
7.34781
4.15498
1.75354
0.769902
0.649937
0.651342
0.579026
0.860405
0.911376
0.652494
1.75697
8.32044
14.1588
21.4873
61.2215
161.988
250.995
381.25
716.303
141.755
150.69
97.2847
37.9209
16.006
8.69835
4.43923
2.19102
1.51053
1.54692
1.13832
1.03576
1.22364
1.1095
0.925007
0.718985
1.54919
5.21739
20.4736
51.6471
125.633
168.997
158.344
884
235.646
159.688
126.8
68.6827
25.7476
14.6553
7.5847
4.16463
2.48125
0.994059
0.735465
1.15994
1.32681
1.78588
2.41416
2.75113
2.3071
3.26681
7.12129
26.3056
83.7854
171.46
278.716
248.92
733.365
142.624
144.25
91.4842
35.3234
16.9509
11.4531
6.17317
3.86315
2.83567
1.93876
1.11528
0.770877
0.870637
0.806491
1.92271
3.41325
5.18137
8.15088
16.2656
55.8602
140.663
183.426
148.241
843.582
244.403
155.053
124.484
62.4974
22.373
12.3704
7.02949
4.47639
3.43799
2.87964
1.70978
0.897355
0.924749
0.92057
0.93603
0.909585
2.86151
6.77313
13.6239
22.6641
64.4982
167.878
180.925
243.703
203.44
183.712
101.965
35.2167
15.56
8.9187
5.0877
3.53868
3.07973
2.99127
2.63312
1.47241
0.736711
0.674542
0.745435
1.25331
2.73678
7.93908
17.7812
39.8544
106.357
200.203
134.663
710.05
760.176
138.756
132.566
62.7232
22.7602
11.8408
6.51658
3.95791
3.1125
2.88483
2.9421
2.95742
2.67593
1.9518
1.34505
1.37496
1.65669
4.03249
12.5202
21.4563
55.7798
143.826
164.249
220.367
1010.07
722.069
166.047
120.815
48.0709
17.0428
8.15324
4.76292
3.35915
2.78472
2.66499
2.73662
2.81486
2.82197
2.72589
2.70969
2.8223
3.59184
6.19964
13.0042
19.6663
57.0791
158.411
188.57
665.653
358.68
159.281
112.499
35.133
8.73024
3.10215
2.29266
2.77618
2.43153
1.62719
1.58444
2.3944
2.64987
2.69224
2.88119
3.27311
4.93147
8.74036
16.0575
33.06
91.2269
194.5
174.894
801.41
204.397
191.29
108.405
31.6516
11.285
2.71262
1.0808
1.48051
2.37346
1.55669
0.767795
0.804831
1.90903
2.58046
2.94793
3.42751
5.14914
11.3271
16.9991
49.511
144.66
219.58
236.942
732.424
190.687
153.726
66.1758
23.7983
12.5233
5.49031
2.71051
2.04392
2.27256
2.44548
1.48687
0.764489
0.792184
1.89778
2.86546
3.58269
5.50997
11.6348
18.944
59.7023
148.637
136.524
737.156
376.15
165.274
126.13
50.6162
18.8943
12.2352
6.25288
3.10135
2.3065
2.40562
2.59553
2.63183
2.21722
1.77027
1.90523
2.81012
3.7172
6.70667
12.5166
23.7369
76.3139
186.077
182.502
989.56
200.259
198.693
114.489
42.2506
16.0176
8.98649
5.28221
2.98509
1.23651
0.896293
1.46631
2.42205
2.64099
2.5928
2.69719
3.08588
4.3675
7.83774
15.511
37.2348
105.343
164.896
227.623
768.867
143.267
132.888
74.6008
31.8196
15.3239
8.39047
4.30143
2.94874
2.04159
0.854322
0.665234
1.15234
2.21249
2.54722
2.80829
3.21289
4.82667
9.9763
15.9825
46.8354
138.33
176.413
375.786
369.502
164.176
126.635
61.349
20.821
13.2006
7.94818
4.07115
2.24245
1.47832
1.47676
0.947471
0.691854
0.80652
1.67005
2.71615
3.2715
4.98553
10.8724
18.415
56.2629
141.017
135.605
719.692
252.384
132.962
98.0787
39.951
15.7492
8.94806
5.22184
3.40844
1.6148
0.848326
0.697134
0.892748
1.31818
0.785901
0.602392
1.21463
3.07841
5.14998
12.1135
25.4986
73.7533
170.981
188.706
1003.72
210.762
196.986
92.8604
30.2977
14.1323
7.84929
4.40868
3.17713
2.1996
0.888716
0.601871
0.624576
0.776432
1.30798
0.909234
0.910093
2.00595
6.20463
12.9215
34.7104
111.401
163.687
205.265
934.235
147.103
139.915
74.0061
23.4824
12.2819
6.73556
3.93114
3.06636
2.71376
2.04326
0.839789
0.623162
0.607483
0.632232
1.10592
2.06396
3.06826
6.84361
15.7333
45.0257
135.56
193.362
363.53
746.542
137.458
127.296
62.9604
21.629
12.0083
6.00623
3.6125
2.89184
2.68998
2.59272
2.24523
1.25615
0.696663
0.541723
0.603914
1.35136
4.26119
9.35781
18.2265
59.8931
162.49
140.782
759.716
690.168
166.731
130.119
57.031
20.1638
11.5602
5.96136
3.49946
2.89577
2.68312
2.62773
2.51569
2.22657
1.75895
0.951627
0.613352
0.822119
2.67603
10.996
26.6856
94.1043
160.114
199.07
256.226
151.573
107.064
43.4776
17.5455
10.9428
5.80271
3.50204
2.83178
2.64674
2.59404
2.47815
1.73288
1.03134
1.01659
0.991852
0.99893
2.34195
10.2252
33.5076
119.246
162.392
251.154
246.923
130.876
95.3851
35.3398
15.3327
9.14774
5.22268
3.49675
2.85456
2.59787
2.55905
2.64298
2.27572
1.06506
0.601179
0.687085
1.37379
3.68851
10.7708
33.6637
132.859
181.646
671.618
214.082
194.242
90.6587
25.4287
13.4686
7.88493
4.61156
3.39182
2.69657
2.1295
2.07229
2.44647
2.64895
2.37416
1.5707
0.953069
1.35214
4.3229
13.0547
37.4979
150.037
296.029
710.583
208.89
143.871
71.1602
22.5563
12.0054
6.12464
3.8364
3.1029
2.67089
1.59981
0.827336
0.913611
1.94109
2.47185
2.60257
2.61423
2.7534
5.25593
13.4028
42.2533
130.603
192.411
848.033
198.379
141.451
67.9197
21.0423
11.9074
6.06861
3.53387
2.97852
2.7077
2.46473
1.46339
0.75515
0.828942
1.90797
2.59359
3.04363
3.84386
6.98023
14.3777
46.1377
133.961
150.628
952.488
907.037
151.662
136.689
68.6821
21.8274
12.3484
6.18335
3.51887
2.94816
2.74274
2.59485
2.56671
2.23785
1.78527
1.77011
2.4412
3.07242
4.72247
8.44545
16.5095
45.937
148.311
189.613
721.022
181.501
152.145
62.1191
21.0694
12.2049
6.21812
3.47094
2.85939
2.68101
2.62439
2.57001
2.61229
2.54004
2.45409
2.65116
3.16068
4.95233
10.1114
17.4664
58.5115
158.244
197.582
707.851
173.179
117.018
50.938
18.7604
11.8494
5.76066
3.28159
2.66265
2.52149
2.33784
2.29938
2.27425
2.41147
2.54745
2.72335
3.23659
5.04579
10.152
19.241
75.0494
150.865
205.393
367.976
154.062
109.853
44.6166
16.4276
10.6105
3.80533
1.93053
2.10324
2.13573
1.99268
1.19296
1.00979
1.17037
2.06922
2.66839
3.20206
5.08668
10.2261
19.3982
79.3087
145.364
257.187
248.827
138.878
97.2239
34.294
15.3592
10.706
4.64929
1.20119
0.743049
0.884107
1.06303
1.10965
0.593845
0.524165
0.67209
1.85277
3.09657
5.10431
10.9427
22.9204
88.8255
167.787
646.091
253.476
149.747
93.1022
26.4023
13.7086
9.92439
5.39033
2.59083
0.972695
0.567157
0.51085
0.531458
0.552944
0.530357
0.595252
0.914436
2.65526
5.55381
11.8548
28.5284
103.954
192.341
681.784
218.544
140.005
90.0085
27.4167
12.9711
7.08846
4.21148
3.05808
2.41757
1.63431
0.70978
0.501712
0.504534
0.504383
0.739239
1.49604
2.5386
6.33069
13.1862
35.9246
116.315
190.57
711.474
202.168
149.134
81.6113
27.6941
13.074
6.34713
3.6224
2.90368
2.61779
2.33174
1.55979
0.618432
0.496355
0.497697
0.575616
1.18082
3.03684
6.60574
14.572
45.9918
125.459
136.94
778.747
209.335
148.501
69.5998
21.4148
11.3692
5.87195
3.53259
2.8977
2.54426
2.25122
2.06531
1.43704
0.58828
0.503659
0.553455
1.00505
2.82783
6.96487
14.5592
47.2472
147.339
183.594
973.773
199.814
165.925
74.8563
21.618
11.3618
5.66646
3.41225
2.82833
2.51639
1.74369
1.04665
1.12756
1.29595
0.711943
0.685498
1.12197
3.01582
7.51726
15.9319
49.2548
149.685
197.91
896.31
144.386
141.775
73.5722
14.2956
10.1852
5.84443
3.43137
2.80934
2.63242
2.2419
1.00917
0.555633
0.618625
1.36669
1.66575
2.03196
4.14389
9.37968
15.6687
52.4378
154.056
201.766
708.53
181.767
116.217
9.66076
2.89291
1.49379
3.18731
3.21968
2.79835
2.64019
2.50052
2.09541
0.897575
0.526148
0.709751
1.87282
2.96635
4.98116
10.4374
17.087
52.5604
148.97
208.715
713.592
166.999
122.025
20.3076
1.6218
0.716615
0.907541
1.95381
2.65864
2.62651
2.29882
1.78543
1.58411
0.930745
0.613613
1.16882
3.14584
6.2587
11.2906
24.2419
73.1203
165.094
198.786
375.464
169.46