/*--------------------------------*- C++ -*----------------------------------*\
| =========                 |                                                 |
| \\      /  F ield         | OpenFOAM: The Open Source CFD Toolbox           |
|  \\    /   O peration     | Version:  2312                                  |
|   \\  /    A nd           | Website:  www.openfoam.com                      |
|    \\/     M anipulation  |                                                 |
\*---------------------------------------------------------------------------*/
FoamFile
{
    version     2.0;
    format      ascii;
    arch        "LSB;label=64;scalar=64";
    class       volScalarField;
    location    "20";
    object      p;
}
// * * * * * * * * * * * * * * * * * * * * * * * * * * * * * * * * * * * * * //

dimensions      [0 2 -2 0 0 0 0];

internalField   nonuniform List<scalar> 
404911
(
1.11045
1.10897
1.10891
1.10961
1.11194
1.10998
1.10922
1.10943
1.10954
1.10958
1.12662
1.12215
1.11734
1.11455
1.11181
1.11017
1.13245
1.12855
1.12377
1.11959
1.14018
1.13621
1.13138
1.14844
1.14458
1.14118
1.15649
1.15264
1.1493
1.16734
1.16389
1.15994
1.15594
1.152
1.17128
1.16763
1.16335
1.18346
1.1796
1.17533
1.17193
1.18942
1.18658
1.1831
1.17949
1.17638
1.19314
1.18978
1.18623
1.18274
1.19964
1.19676
1.19278
1.18897
1.20075
1.19927
1.23183
1.10522
1.10966
1.10727
1.12157
1.11731
1.1325
1.1282
1.12373
1.14008
1.13601
1.13121
1.14852
1.14384
1.15618
1.15237
1.14887
1.16376
1.15967
1.15488
1.15124
1.17122
1.16734
1.18002
1.17571
1.18744
1.18354
1.17969
1.19477
1.19133
1.20216
1.19835
1.19346
1.20425
1.20139
1.23082
1.23374
1.23028
1.24552
1.24138
1.2375
1.25332
1.24954
1.24454
1.26069
1.25751
1.25368
1.26018
0.477505
0.471399
0.466072
0.504891
0.49817
0.490617
0.485934
0.480569
0.475198
0.471102
0.463535
0.518839
0.513914
0.501629
0.493758
0.487433
0.483401
0.478234
0.473357
0.451997
0.536653
0.531206
0.526342
0.521462
0.516977
0.51391
0.506358
0.497941
0.490983
0.486679
0.481588
0.475773
0.467467
0.45869
0.453052
0.448603
0.550947
0.544661
0.538801
0.533365
0.528369
0.523604
0.51904
0.514768
0.510348
0.502166
0.496099
0.490443
0.485316
0.479589
0.453926
0.567255
0.559947
0.553046
0.546444
0.540128
0.534904
0.530019
0.525357
0.520737
0.516038
0.510557
0.504729
0.499157
0.493813
0.489762
0.576719
0.571509
0.563814
0.556573
0.549974
0.542669
0.536451
0.531463
0.527272
0.522902
0.518043
0.51293
0.507367
0.501885
0.496406
0.491937
0.593864
0.587098
0.580682
0.574195
0.567078
0.560605
0.55372
0.546042
0.539397
0.533417
0.529666
0.525144
0.520367
0.515312
0.510011
0.504657
0.499203
0.61676
0.610129
0.604947
0.597706
0.591272
0.584357
0.577495
0.570928
0.564038
0.557352
0.548947
0.542358
0.536771
0.532423
0.527805
0.522874
0.517963
0.512846
0.6277
0.621866
0.614483
0.608005
0.601571
0.594699
0.588433
0.581517
0.574268
0.567519
0.560501
0.552463
0.543926
0.539843
0.535445
0.530592
0.525652
0.520733
0.643162
0.637554
0.632375
0.626492
0.618919
0.6121
0.605439
0.598757
0.591848
0.584868
0.577889
0.571152
0.564466
0.556768
0.548674
0.542507
0.538627
0.533864
0.652751
0.647142
0.641485
0.636079
0.629945
0.622758
0.616322
0.609282
0.602516
0.595907
0.588831
0.581742
0.574689
0.567946
0.562239
0.553748
0.546427
0.667304
0.662118
0.656461
0.651164
0.645584
0.639581
0.633289
0.626736
0.620459
0.613191
0.606341
0.599455
0.59265
0.585751
0.578565
0.571512
0.566975
0.680857
0.675133
0.670468
0.666292
0.661638
0.655635
0.649704
0.643619
0.637714
0.631376
0.624881
0.617187
0.60988
0.602908
0.597209
0.589792
0.581991
0.575744
0.698217
0.693681
0.685928
0.678707
0.673232
0.670638
0.665626
0.65957
0.65338
0.647482
0.642612
0.635988
0.628534
0.620901
0.613631
0.605466
0.60031
0.594099
0.710384
0.70611
0.702001
0.698962
0.691396
0.68323
0.676592
0.673873
0.670187
0.663835
0.657283
0.651042
0.646953
0.640791
0.632087
0.624245
0.617734
0.609625
0.718344
0.713549
0.709085
0.704955
0.701429
0.695443
0.687713
0.682054
0.676977
0.673107
0.666253
0.659229
0.654129
0.650588
0.644558
0.635373
0.626514
0.620912
0.731924
0.726821
0.721479
0.716401
0.711747
0.707261
0.702869
0.698918
0.692799
0.686777
0.681432
0.676795
0.670296
0.662542
0.656558
0.653821
0.648233
0.63907
0.740668
0.734683
0.729975
0.7249
0.719143
0.713786
0.710354
0.704769
0.699921
0.695831
0.691528
0.6874
0.680963
0.674512
0.667289
0.660066
0.656078
0.651188
0.758562
0.753905
0.746437
0.739491
0.733969
0.729394
0.723986
0.717899
0.712997
0.707355
0.701825
0.698332
0.694678
0.691151
0.686559
0.679338
0.671417
0.665053
0.766659
0.762747
0.759717
0.752717
0.745579
0.739751
0.734494
0.728836
0.722505
0.716694
0.710122
0.704476
0.701167
0.697201
0.69318
0.688075
0.682455
0.778266
0.774089
0.770025
0.765727
0.76217
0.757525
0.750681
0.744955
0.739221
0.732811
0.726625
0.720526
0.714174
0.708068
0.704629
0.700289
0.695885
0.691079
0.785828
0.781648
0.777164
0.773137
0.76881
0.765338
0.760264
0.754791
0.749822
0.744923
0.738227
0.7319
0.725018
0.717996
0.712439
0.708001
0.703747
0.699128
0.793113
0.789138
0.785037
0.780914
0.775959
0.771075
0.767694
0.763001
0.757946
0.754077
0.750298
0.743711
0.736602
0.729671
0.72276
0.717193
0.711982
0.70748
0.804769
0.800588
0.796465
0.792322
0.788364
0.78451
0.780732
0.774625
0.769617
0.764817
0.760061
0.756196
0.752158
0.748181
0.741575
0.73363
0.727507
0.721363
0.815998
0.811975
0.807942
0.803618
0.799668
0.795614
0.791543
0.787258
0.783586
0.778515
0.773259
0.768112
0.762043
0.758572
0.75442
0.750015
0.74391
0.737706
0.823155
0.81896
0.81505
0.810926
0.806899
0.80291
0.799136
0.795524
0.79007
0.78501
0.780728
0.776746
0.771793
0.765543
0.761497
0.75731
0.752833
0.747364
0.834246
0.830207
0.826189
0.822087
0.817918
0.813863
0.809908
0.806091
0.802547
0.799416
0.794579
0.789337
0.784387
0.779371
0.775274
0.769632
0.764477
0.760556
0.841356
0.837067
0.833161
0.829049
0.824902
0.82072
0.816725
0.812847
0.809089
0.805537
0.802206
0.798148
0.793404
0.788424
0.783012
0.778541
0.7737
0.768592
0.848758
0.844127
0.83982
0.835921
0.831937
0.827677
0.823382
0.819452
0.815704
0.811976
0.808258
0.804482
0.800343
0.795788
0.791038
0.786253
0.781602
0.776906
0.857002
0.852739
0.847199
0.842299
0.838959
0.835159
0.830418
0.825663
0.822047
0.818523
0.814856
0.811053
0.807127
0.802916
0.798646
0.793797
0.789221
0.78483
0.868186
0.864087
0.860715
0.857299
0.851774
0.846223
0.842702
0.839398
0.834597
0.829018
0.825067
0.821577
0.817902
0.814041
0.810079
0.805811
0.801494
0.796924
0.875838
0.871584
0.86735
0.863349
0.859355
0.854702
0.85016
0.846394
0.843454
0.839171
0.833438
0.828698
0.824954
0.821158
0.817236
0.813173
0.809161
0.804858
0.883166
0.879013
0.874918
0.870578
0.866086
0.861374
0.856871
0.852928
0.849283
0.845873
0.841978
0.837372
0.832657
0.828476
0.824402
0.820469
0.816616
0.812636
0.890507
0.886487
0.88241
0.878223
0.874206
0.869774
0.863893
0.858923
0.855487
0.85197
0.848391
0.844566
0.840365
0.836014
0.831812
0.827632
0.823636
0.902411
0.898166
0.894037
0.889824
0.885516
0.881278
0.877588
0.874088
0.867888
0.861869
0.858254
0.85477
0.851207
0.847443
0.843456
0.839239
0.835231
0.831047
0.909607
0.905585
0.90166
0.897607
0.893207
0.888577
0.883727
0.88002
0.877227
0.871993
0.865363
0.861175
0.857765
0.854248
0.850549
0.846606
0.842578
0.83851
0.916672
0.912903
0.909044
0.905273
0.901394
0.897094
0.892018
0.887299
0.882228
0.879294
0.875789
0.870015
0.864455
0.861126
0.85753
0.85376
0.849987
0.846147
0.92705
0.923289
0.919778
0.916145
0.912419
0.908796
0.905453
0.901985
0.896313
0.891166
0.885874
0.882283
0.879574
0.87453
0.868715
0.864789
0.860979
0.857086
0.933884
0.930142
0.926599
0.922945
0.919348
0.915749
0.912256
0.9091
0.906004
0.900363
0.895009
0.889084
0.884746
0.881794
0.877837
0.873148
0.868602
0.8644
0.941002
0.937155
0.933424
0.929741
0.926125
0.922524
0.918976
0.915465
0.912143
0.908872
0.904701
0.899286
0.893591
0.888037
0.884799
0.880958
0.876858
0.872442
0.947973
0.944193
0.940444
0.936647
0.932945
0.929293
0.925746
0.922233
0.918547
0.914739
0.911117
0.90764
0.90296
0.897352
0.892036
0.888317
0.884422
0.880404
0.955096
0.951311
0.947473
0.943592
0.939779
0.93603
0.932403
0.929036
0.925715
0.921962
0.917392
0.913398
0.910175
0.90639
0.900946
0.896477
0.892254
0.96542
0.961847
0.958287
0.95442
0.950603
0.946748
0.942814
0.938991
0.935388
0.932188
0.92922
0.926225
0.921638
0.916735
0.912262
0.908984
0.904638
0.900362
0.972191
0.96853
0.964978
0.961484
0.95768
0.953922
0.950021
0.94569
0.941628
0.938189
0.935141
0.932271
0.929574
0.926382
0.920871
0.915955
0.912194
0.908095
0.979154
0.975415
0.971737
0.968176
0.964525
0.960917
0.95743
0.95412
0.948912
0.944314
0.941029
0.938085
0.93503
0.931896
0.928321
0.923957
0.919557
0.915617
0.986073
0.982262
0.978585
0.974831
0.971188
0.967531
0.964017
0.960747
0.958012
0.95402
0.948973
0.944532
0.941249
0.937935
0.934465
0.930742
0.926807
0.922912
0.993359
0.989354
0.985466
0.981648
0.977891
0.974133
0.970419
0.966893
0.963557
0.960407
0.95686
0.952696
0.948415
0.944657
0.941038
0.937609
0.933532
0.929847
1.00087
0.99666
0.992581
0.988549
0.984685
0.980847
0.976985
0.973182
0.969558
0.966156
0.962831
0.959392
0.955662
0.951796
0.948034
0.944274
0.940554
0.936674
1.00852
1.00439
0.999922
0.995451
0.991439
0.987596
0.983772
0.979768
0.975799
0.97205
0.968715
0.965478
0.96216
0.958632
0.954988
0.951296
0.947628
0.943735
1.01559
1.01197
1.00813
1.00309
0.997999
0.99419
0.990461
0.986909
0.982609
0.97833
0.97455
0.97129
0.968336
0.965144
0.961749
0.958171
0.954546
0.950982
1.02627
1.02272
1.01913
1.01565
1.01239
1.00857
1.00215
0.997772
0.993553
0.99023
0.987104
0.98231
0.977595
0.97445
0.971499
0.968322
0.964917
0.961503
0.957817
1.033
1.02953
1.02605
1.02237
1.01915
1.01616
1.01329
1.00765
1.0022
0.997422
0.993038
0.990561
0.986835
0.982375
0.978246
0.974969
0.971605
0.968218
1.03634
1.03283
1.02931
1.02578
1.02233
1.01917
1.01596
1.01153
1.00695
1.00207
0.997355
0.993148
0.990077
0.986242
0.982139
0.978534
0.974946
1.04693
1.04324
1.03971
1.03612
1.03254
1.02889
1.02531
1.02203
1.01892
1.01571
1.01048
1.00566
1.00115
0.9965
0.993241
0.989555
0.985773
0.982091
1.05384
1.05007
1.04653
1.04298
1.0394
1.03577
1.032
1.02814
1.02468
1.02176
1.01887
1.01392
1.00914
1.00437
1.00051
0.996784
0.99301
0.989259
1.06041
1.05669
1.0532
1.0497
1.04623
1.04272
1.03923
1.0354
1.0308
1.02709
1.02431
1.02183
1.01755
1.01268
1.00816
1.00439
1.00037
0.996623
1.06304
1.05963
1.05628
1.05293
1.04949
1.04604
1.04274
1.03951
1.03474
1.02966
1.02676
1.02396
1.0203
1.01602
1.01174
1.0078
1.00402
1.07233
1.06661
1.06249
1.05955
1.05622
1.05273
1.04919
1.04591
1.04283
1.03861
1.03328
1.0297
1.02653
1.023
1.01906
1.01516
1.01132
1.0889
1.08312
1.0773
1.07158
1.06653
1.06322
1.05972
1.05596
1.05209
1.04865
1.04608
1.04168
1.03633
1.03297
1.02949
1.02601
1.02221
1.01822
1.09564
1.09263
1.08771
1.0817
1.07588
1.0709
1.06705
1.0635
1.05961
1.05504
1.05093
1.04848
1.04522
1.0404
1.03641
1.03266
1.02916
1.10253
1.09887
1.09443
1.08994
1.0848
1.07886
1.07414
1.07057
1.0672
1.06381
1.05943
1.05478
1.05125
1.04785
1.04388
1.03979
1.03595
1.1137
1.1097
1.10581
1.10213
1.09785
1.09277
1.08811
1.08316
1.07793
1.07398
1.06996
1.06689
1.06318
1.059
1.0548
1.05112
1.04743
1.04333
1.12112
1.11694
1.11278
1.10904
1.10551
1.10163
1.09755
1.09314
1.08786
1.0822
1.07874
1.07399
1.069
1.06539
1.06191
1.05825
1.05463
1.0509
1.12917
1.12414
1.11968
1.11615
1.11211
1.1091
1.10565
1.10236
1.0978
1.0925
1.08747
1.08315
1.07865
1.07376
1.06836
1.06509
1.06174
1.0581
1.13759
1.13374
1.12864
1.124
1.12007
1.11639
1.11306
1.10946
1.1054
1.10207
1.09684
1.09225
1.08801
1.0835
1.07865
1.07331
1.06908
1.06546
1.14929
1.14549
1.1413
1.13725
1.13251
1.12802
1.12414
1.12004
1.11689
1.11278
1.10896
1.10526
1.10132
1.09683
1.09278
1.08866
1.08418
1.07807
1.07325
1.15636
1.1527
1.1487
1.145
1.14083
1.13601
1.13184
1.12704
1.12343
1.1195
1.11578
1.11174
1.10818
1.10437
1.10008
1.09565
1.0915
1.08708
1.0823
1.16022
1.15618
1.15212
1.14844
1.14417
1.13985
1.13532
1.13047
1.12665
1.12262
1.11876
1.11496
1.11122
1.10732
1.1031
1.0989
1.09462
1.09049
1.16862
1.16437
1.1602
1.15598
1.15218
1.14826
1.14387
1.13928
1.13443
1.13015
1.12542
1.12183
1.1183
1.11454
1.11057
1.1064
1.1022
1.17745
1.17289
1.1685
1.16414
1.16011
1.15587
1.15166
1.14872
1.14334
1.13817
1.13355
1.12962
1.12556
1.12184
1.11802
1.11403
1.10994
1.18666
1.18118
1.17701
1.17243
1.16782
1.16373
1.1595
1.15477
1.1513
1.14693
1.14189
1.1371
1.13314
1.12927
1.12572
1.12162
1.1176
1.20046
1.1959
1.1912
1.18615
1.18102
1.17636
1.17138
1.16732
1.16348
1.15919
1.15488
1.15059
1.14542
1.14083
1.13691
1.13293
1.1291
1.1253
1.2089
1.20477
1.20059
1.19534
1.19024
1.18511
1.18079
1.17652
1.17109
1.16718
1.16288
1.1592
1.15484
1.15006
1.14504
1.14091
1.13674
1.21714
1.21289
1.20856
1.20421
1.19893
1.19386
1.18852
1.18428
1.17995
1.17512
1.17096
1.16639
1.16243
1.15833
1.15372
1.14914
1.14489
1.22536
1.22105
1.21693
1.21266
1.20745
1.20203
1.19704
1.19292
1.18756
1.18339
1.17919
1.17508
1.17074
1.16605
1.16179
1.15729
1.15295
1.23414
1.22954
1.22494
1.22005
1.21648
1.21075
1.20526
1.20143
1.19629
1.19197
1.18767
1.18318
1.1788
1.17437
1.17012
1.16553
1.16111
1.24238
1.23782
1.23354
1.22905
1.22428
1.21949
1.21427
1.20823
1.20397
1.20047
1.1966
1.19198
1.18732
1.18283
1.1783
1.17384
1.16938
1.25044
1.24605
1.24172
1.23711
1.23299
1.22893
1.22433
1.21878
1.21386
1.20873
1.20441
1.20042
1.19608
1.19137
1.18684
1.18241
1.17783
1.25477
1.2493
1.2456
1.24124
1.23702
1.23244
1.22793
1.223
1.21781
1.21251
1.20797
1.20386
1.19954
1.19515
1.19081
1.18651
1.2678
1.26065
1.25421
1.24983
1.24525
1.24087
1.23637
1.23134
1.22634
1.22162
1.21654
1.21156
1.20745
1.20315
1.19885
1.28456
1.28099
1.27403
1.26669
1.25919
1.25444
1.24964
1.24489
1.23982
1.23491
1.22942
1.22432
1.22001
1.21544
1.21111
1.20691
1.29406
1.28925
1.28422
1.2785
1.27168
1.26417
1.2587
1.25435
1.24935
1.24455
1.23926
1.23275
1.2266
1.22304
1.21931
1.21499
1.30415
1.29938
1.29469
1.28876
1.28237
1.27593
1.26968
1.26434
1.25887
1.25378
1.24887
1.245
1.23837
1.23157
1.22694
1.22326
1.31926
1.31414
1.3092
1.30484
1.30127
1.29441
1.28806
1.28251
1.27686
1.27179
1.26549
1.25897
1.25275
1.24967
1.24426
1.238
1.3296
1.32363
1.31865
1.31383
1.30963
1.30531
1.2989
1.29275
1.28758
1.28306
1.27796
1.27193
1.26497
1.25847
1.25307
1.24975
1.34083
1.33393
1.3279
1.32327
1.31848
1.3139
1.30898
1.30373
1.29793
1.29321
1.28909
1.28578
1.27966
1.27237
1.26531
1.2589
1.35229
1.3458
1.33735
1.33097
1.32687
1.32284
1.31833
1.31235
1.30738
1.30223
1.29851
1.29426
1.29074
1.28676
1.27911
1.27159
1.36369
1.35761
1.35095
1.34469
1.33765
1.33172
1.328
1.32345
1.31643
1.31116
1.30647
1.30219
1.29876
1.29476
1.29027
1.28489
1.37427
1.36922
1.36352
1.35721
1.35131
1.34528
1.33922
1.33415
1.32921
1.32228
1.31575
1.31103
1.30734
1.30312
1.29888
1.38423
1.3801
1.37491
1.36861
1.36235
1.35692
1.35121
1.34583
1.33972
1.33452
1.32868
1.32152
1.31544
1.31202
1.30793
1.30341
1.39344
1.38871
1.38463
1.38048
1.37352
1.36736
1.36172
1.35668
1.35157
1.34574
1.34003
1.33501
1.32816
1.3211
1.31699
1.31265
1.4015
1.39758
1.39285
1.38846
1.38383
1.37782
1.37231
1.36713
1.36172
1.35649
1.35115
1.34571
1.34111
1.33464
1.32768
1.4075
1.40231
1.39774
1.39301
1.38794
1.38186
1.37678
1.37189
1.36689
1.36198
1.35603
1.35068
1.34513
1.33918
1.42296
1.41589
1.40882
1.40373
1.39804
1.39271
1.38666
1.38202
1.37672
1.37182
1.36721
1.36109
1.35548
1.43687
1.43251
1.42716
1.4224
1.41504
1.40928
1.40304
1.39777
1.39221
1.38709
1.3815
1.37595
1.37082
1.36542
1.44655
1.4412
1.43649
1.43163
1.42606
1.41981
1.41405
1.40827
1.40268
1.3969
1.3914
1.38613
1.38076
1.3754
1.45664
1.45159
1.44621
1.43968
1.43607
1.43072
1.42494
1.419
1.41335
1.40762
1.40167
1.39567
1.39087
1.38569
1.46583
1.46152
1.45702
1.4514
1.4456
1.44016
1.43587
1.43036
1.42409
1.41821
1.41336
1.4068
1.40111
1.39588
1.47484
1.47016
1.46613
1.46254
1.45673
1.4515
1.44543
1.44043
1.4345
1.42839
1.42235
1.41741
1.41179
1.40622
1.48416
1.4786
1.47324
1.47099
1.46717
1.46156
1.45631
1.45147
1.44646
1.43967
1.43177
1.42659
1.42161
1.47518
1.4734
1.46782
1.4608
1.45643
1.45327
1.44577
1.43714
1.43145
1.47952
1.47738
1.47306
1.46589
1.46004
1.45657
1.45124
1.44375
1.49029
1.48323
1.48118
1.47881
1.47209
1.46537
1.46041
1.50505
1.49827
1.49097
1.48501
1.48216
1.4769
1.47086
1.50465
1.49904
1.49259
1.48711
1.48179
1.52697
1.51792
1.50772
1.50391
1.49827
1.49251
1.56909
1.56453
1.54357
1.53507
1.50943
1.57117
1.56513
1.56021
1.55534
1.55051
1.52342
1.58294
1.55766
1.55281
1.54843
1.54029
1.58792
1.57393
1.56125
0.129814
0.122235
0.116725
0.172312
0.164209
0.156304
0.148628
0.140672
0.132572
0.124868
0.118489
0.0889961
0.206794
0.198867
0.190826
0.182952
0.175009
0.166921
0.158944
0.151035
0.142893
0.134612
0.126396
0.118844
0.110846
0.101452
0.0928346
0.233838
0.225618
0.217576
0.209572
0.201694
0.19338
0.185321
0.177459
0.169605
0.161632
0.15353
0.144693
0.135966
0.127669
0.119703
0.111819
0.103357
0.0941076
0.0854486
0.0743549
0.0613012
0.0497913
0.262859
0.254212
0.245201
0.236819
0.228351
0.22016
0.212238
0.204093
0.195819
0.187606
0.179747
0.172147
0.164504
0.156936
0.148868
0.13759
0.127795
0.120691
0.113136
0.105088
0.0961482
0.086406
0.0754968
0.290335
0.283065
0.275388
0.266632
0.257494
0.247981
0.238978
0.230553
0.222731
0.214899
0.206718
0.198078
0.189564
0.181738
0.174265
0.167481
0.161518
0.15325
0.139671
0.128338
0.122032
0.114843
0.106885
0.0983254
0.0884673
0.309293
0.301179
0.293842
0.28647
0.278961
0.270549
0.261215
0.250412
0.240517
0.231806
0.225258
0.217981
0.210061
0.199869
0.190344
0.183284
0.176394
0.169904
0.164391
0.156018
0.142157
0.130563
0.124288
0.117019
0.108908
0.332862
0.32164
0.311201
0.304927
0.297853
0.29
0.282769
0.277202
0.268115
0.256593
0.245095
0.233501
0.227873
0.221808
0.216494
0.204512
0.191055
0.184362
0.178206
0.171728
0.165162
0.158851
0.145553
0.134802
0.127177
0.356856
0.347029
0.336543
0.325494
0.315362
0.308931
0.302701
0.294087
0.285431
0.28116
0.273793
0.26262
0.250837
0.239794
0.230817
0.2248
0.221143
0.208824
0.194684
0.186677
0.180307
0.173336
0.165966
0.157541
0.147954
0.388811
0.383486
0.372365
0.361181
0.350887
0.339614
0.329182
0.320325
0.312546
0.306567
0.298199
0.288868
0.283918
0.279234
0.269256
0.2587
0.24676
0.235698
0.22894
0.221887
0.211733
0.197549
0.190101
0.182713
0.175202
0.167786
0.412548
0.405791
0.399177
0.393247
0.385312
0.375406
0.365464
0.353472
0.343716
0.334005
0.325579
0.315611
0.307793
0.300269
0.292351
0.286102
0.279742
0.272601
0.264043
0.253123
0.241173
0.23209
0.221952
0.211412
0.202653
0.193376
0.185426
0.422196
0.416405
0.408969
0.402959
0.396821
0.388133
0.376842
0.369303
0.357684
0.347876
0.338603
0.329829
0.320269
0.310793
0.301609
0.295105
0.288753
0.282217
0.275241
0.266916
0.258688
0.248372
0.236613
0.226624
0.213098
0.454099
0.447886
0.438318
0.428636
0.420693
0.412524
0.4068
0.399312
0.391144
0.381894
0.373026
0.363063
0.353039
0.34335
0.33352
0.324315
0.314406
0.304072
0.298027
0.291742
0.285242
0.278712
0.27156
0.26527
0.253791
0.465414
0.456211
0.450529
0.44312
0.435071
0.428223
0.417645
0.411047
0.403068
0.3946
0.385986
0.378423
0.367422
0.357491
0.347458
0.337563
0.327664
0.317649
0.307179
0.301236
0.294965
0.28828
0.282012
0.275535
0.488842
0.48371
0.479601
0.470772
0.461076
0.454318
0.447847
0.440365
0.432203
0.42307
0.415271
0.4073
0.398823
0.389238
0.382992
0.372248
0.361896
0.35211
0.341645
0.330943
0.321056
0.311263
0.30465
0.298269
0.291752
0.503531
0.497694
0.492112
0.486703
0.481336
0.474402
0.466585
0.459839
0.453437
0.445951
0.436814
0.428466
0.419913
0.411514
0.403958
0.39694
0.386549
0.377166
0.367254
0.357713
0.347212
0.33498
0.322013
0.315143
0.308139
0.517574
0.512246
0.506478
0.501119
0.494896
0.488954
0.483579
0.477555
0.471256
0.465312
0.459584
0.450843
0.442089
0.433137
0.423795
0.41679
0.407811
0.401735
0.392079
0.382699
0.372782
0.363164
0.352954
0.341091
0.328822
0.53702
0.531429
0.526095
0.52056
0.515453
0.510423
0.504511
0.498109
0.491088
0.485674
0.480437
0.474993
0.46971
0.464511
0.454686
0.446764
0.438403
0.428512
0.422902
0.414129
0.404066
0.39706
0.387958
0.377293
0.368043
0.357812
0.551923
0.546
0.540054
0.534166
0.528807
0.523805
0.518587
0.513731
0.50852
0.50144
0.493275
0.488052
0.483098
0.478105
0.473079
0.466411
0.457201
0.45035
0.444913
0.435192
0.427889
0.421487
0.411715
0.401749
0.39265
0.383282
0.567664
0.561394
0.555112
0.548532
0.542488
0.5368
0.531175
0.526262
0.521302
0.516599
0.511767
0.505332
0.496956
0.491452
0.486508
0.481399
0.475331
0.467522
0.458809
0.452398
0.44596
0.438304
0.432284
0.426962
0.417828
0.407404
0.397803
0.582591
0.576687
0.570705
0.564376
0.557785
0.551192
0.544637
0.538787
0.53318
0.528184
0.523469
0.518912
0.514073
0.508055
0.501136
0.49496
0.490138
0.485137
0.478625
0.47105
0.459522
0.454221
0.447896
0.441481
0.435394
0.430243
0.424739
0.592683
0.586402
0.579952
0.573855
0.567453
0.560705
0.553642
0.546899
0.540661
0.534762
0.529953
0.525443
0.520855
0.515967
0.51046
0.504458
0.498638
0.493683
0.489128
0.483748
0.474143
0.464687
0.457159
0.45097
0.444688
0.438343
0.609054
0.602691
0.596613
0.589919
0.583645
0.577173
0.570731
0.56358
0.556329
0.54933
0.542529
0.536659
0.531655
0.527329
0.522781
0.517904
0.512631
0.507158
0.501715
0.496438
0.491239
0.484821
0.477264
0.468496
0.461459
0.454627
0.624709
0.618813
0.612827
0.606652
0.600311
0.593703
0.587276
0.580257
0.573616
0.566884
0.559851
0.552853
0.545745
0.538662
0.534034
0.529538
0.525057
0.520218
0.515038
0.50975
0.504444
0.49893
0.493214
0.487028
0.479945
0.472665
0.634637
0.628824
0.622985
0.61672
0.610354
0.60389
0.59702
0.590242
0.583529
0.576981
0.5703
0.563366
0.556243
0.548911
0.542609
0.536861
0.532294
0.527679
0.52288
0.517812
0.512389
0.507
0.501599
0.49575
0.489532
0.6504
0.644858
0.638665
0.632984
0.62726
0.620873
0.613847
0.607292
0.600728
0.593931
0.587256
0.580652
0.573809
0.566934
0.559786
0.551999
0.546186
0.539972
0.535411
0.53072
0.525626
0.520608
0.515338
0.510146
0.504391
0.498865
0.665431
0.659836
0.654349
0.648753
0.642883
0.637146
0.631309
0.625567
0.61826
0.611315
0.604532
0.59772
0.590978
0.584337
0.577433
0.570495
0.563871
0.556515
0.548862
0.543495
0.538772
0.533965
0.528838
0.523816
0.518313
0.513168
0.679808
0.674488
0.66906
0.66359
0.658157
0.652481
0.646758
0.640968
0.634986
0.629313
0.622158
0.615721
0.608669
0.601705
0.594847
0.588171
0.581267
0.574162
0.567742
0.561467
0.553353
0.547655
0.542355
0.537326
0.532058
0.526714
0.521631
0.689111
0.683516
0.678104
0.672596
0.667224
0.661945
0.656356
0.650667
0.64507
0.638871
0.632799
0.626256
0.619591
0.612635
0.605588
0.598777
0.592233
0.585224
0.57824
0.571742
0.565466
0.558216
0.551863
0.546205
0.540801
0.53566
0.703268
0.698399
0.693062
0.687633
0.681602
0.675861
0.67073
0.666185
0.660856
0.65519
0.649173
0.643121
0.637262
0.630782
0.62405
0.616457
0.609156
0.602459
0.596696
0.58942
0.581928
0.575554
0.56918
0.562485
0.555807
0.550057
0.711593
0.70701
0.702146
0.697548
0.692206
0.685469
0.678357
0.673712
0.670161
0.665482
0.659295
0.653098
0.647176
0.641815
0.635403
0.627849
0.620226
0.612813
0.606074
0.599724
0.593074
0.586185
0.579898
0.572968
0.566687
0.725073
0.719986
0.71519
0.710294
0.705769
0.701621
0.696905
0.690765
0.68256
0.677273
0.673822
0.669959
0.663635
0.656938
0.651011
0.645881
0.640003
0.631304
0.623787
0.616935
0.609873
0.60323
0.59681
0.590277
0.58373
0.733961
0.728809
0.723599
0.718475
0.713376
0.708865
0.704875
0.70079
0.695326
0.687328
0.681639
0.677355
0.67288
0.666652
0.659718
0.654092
0.648821
0.6435
0.634539
0.627556
0.620584
0.613873
0.60703
0.600387
0.594283
0.748907
0.743542
0.737822
0.732174
0.726887
0.721777
0.716285
0.711484
0.707373
0.703101
0.697996
0.692302
0.686704
0.681687
0.676268
0.669991
0.662082
0.657417
0.65241
0.647242
0.638247
0.631377
0.625013
0.617972
0.611128
0.758286
0.753241
0.747837
0.7417
0.735715
0.730311
0.725283
0.719389
0.714179
0.709315
0.70468
0.700137
0.695716
0.691253
0.686979
0.681167
0.674415
0.666911
0.661076
0.655964
0.649665
0.642484
0.635628
0.629052
0.622326
0.7713
0.76688
0.762487
0.757754
0.752722
0.746177
0.739545
0.734364
0.729318
0.723547
0.717405
0.712365
0.706753
0.702181
0.698372
0.694682
0.690732
0.685258
0.678264
0.671469
0.665159
0.659481
0.653189
0.646522
0.640013
0.779096
0.774593
0.770554
0.766244
0.762052
0.757826
0.752534
0.74532
0.739279
0.733909
0.728358
0.72208
0.716244
0.709618
0.704979
0.701271
0.69742
0.693008
0.687895
0.682109
0.675653
0.669504
0.663688
0.657136
0.790932
0.786541
0.782385
0.778049
0.773887
0.769768
0.76564
0.761672
0.757021
0.750787
0.745088
0.739127
0.732627
0.726348
0.720138
0.713744
0.708616
0.704581
0.700547
0.695856
0.690643
0.685361
0.679529
0.673875
0.668471
0.798186
0.79411
0.789898
0.785676
0.781378
0.77732
0.772959
0.768614
0.764695
0.760251
0.754971
0.750174
0.744957
0.738205
0.731692
0.724373
0.717834
0.712525
0.708056
0.703964
0.699062
0.694003
0.688824
0.683432
0.809733
0.805535
0.801482
0.797272
0.793056
0.789138
0.784769
0.780618
0.776034
0.771345
0.767287
0.762821
0.75808
0.753813
0.749349
0.743592
0.736679
0.729296
0.722954
0.717207
0.712129
0.707565
0.702814
0.697539
0.692354
0.816896
0.81291
0.808778
0.804625
0.800446
0.796202
0.792281
0.788165
0.783992
0.779675
0.774459
0.769885
0.765117
0.760479
0.756255
0.75221
0.747549
0.740744
0.733652
0.727425
0.721732
0.716503
0.711486
0.706302
0.828294
0.824137
0.820094
0.8159
0.811805
0.807904
0.80366
0.799403
0.795425
0.791381
0.787053
0.78278
0.777971
0.772974
0.76779
0.762929
0.758725
0.75455
0.74987
0.744051
0.73763
0.73164
0.72618
0.720655
0.715621
0.835237
0.831341
0.827239
0.823132
0.818941
0.814815
0.810771
0.806658
0.802618
0.798789
0.794888
0.790332
0.785633
0.780926
0.77628
0.771259
0.766218
0.76165
0.757315
0.752593
0.747148
0.741375
0.735447
0.729991
0.842468
0.83819
0.834264
0.830207
0.826258
0.821979
0.8178
0.813654
0.809662
0.80582
0.802116
0.798518
0.794329
0.789302
0.784225
0.779516
0.774734
0.769759
0.764944
0.760601
0.755673
0.75041
0.745095
0.739601
0.853604
0.849623
0.845691
0.841504
0.83716
0.833132
0.829092
0.82485
0.820655
0.816579
0.812649
0.808845
0.80514
0.801463
0.797484
0.792749
0.787792
0.782969
0.778262
0.77334
0.768659
0.763953
0.75887
0.753768
0.748765
0.861231
0.857131
0.853064
0.848926
0.844616
0.840152
0.836056
0.831985
0.827716
0.823445
0.819435
0.815576
0.811755
0.80796
0.80412
0.79997
0.795451
0.790808
0.786063
0.781448
0.776544
0.771963
0.767276
0.762445
0.869147
0.864741
0.860609
0.856542
0.852389
0.84776
0.842925
0.839085
0.835176
0.830719
0.826145
0.822265
0.818532
0.814737
0.810885
0.806911
0.802715
0.798175
0.793707
0.789258
0.784596
0.779873
0.775279
0.770719
0.876735
0.872344
0.868179
0.864013
0.860063
0.856217
0.851512
0.846601
0.842705
0.838969
0.83445
0.82923
0.825391
0.821637
0.817852
0.813966
0.810028
0.805843
0.801359
0.796824
0.792385
0.787752
0.783427
0.888042
0.883856
0.879987
0.875915
0.871486
0.867338
0.863278
0.859248
0.854718
0.850236
0.846314
0.842787
0.838725
0.833431
0.829007
0.825008
0.821097
0.817129
0.813221
0.809111
0.804689
0.800205
0.795873
0.791112
0.895494
0.891425
0.887263
0.883253
0.879238
0.874925
0.870639
0.866306
0.861743
0.857297
0.853158
0.849362
0.84569
0.841628
0.837129
0.832666
0.828489
0.824498
0.820401
0.81642
0.812297
0.807964
0.803662
0.79944
0.903026
0.898649
0.894734
0.890545
0.886474
0.882397
0.878239
0.874054
0.869582
0.864264
0.859701
0.855812
0.852134
0.848424
0.844446
0.840276
0.835956
0.831733
0.827715
0.823745
0.81968
0.81551
0.811357
0.9139
0.909949
0.906229
0.902135
0.898046
0.893925
0.889753
0.885531
0.881284
0.877305
0.873238
0.867746
0.862698
0.85871
0.855008
0.851318
0.847447
0.84347
0.839262
0.835039
0.830883
0.826894
0.822869
0.818741
0.920698
0.917093
0.913304
0.909472
0.905494
0.90161
0.897475
0.893145
0.888693
0.88412
0.880127
0.876455
0.871673
0.866187
0.861825
0.858073
0.854409
0.850666
0.846746
0.842667
0.83851
0.834321
0.830279
0.826256
0.92749
0.923861
0.920206
0.916522
0.912793
0.90887
0.905059
0.901034
0.896824
0.892084
0.887088
0.88276
0.879229
0.875379
0.87015
0.865254
0.861377
0.857608
0.853913
0.849981
0.845868
0.841845
0.837715
0.833773
0.934572
0.930563
0.927037
0.92336
0.919768
0.91596
0.912175
0.908517
0.904887
0.901028
0.896064
0.890846
0.886028
0.882339
0.878937
0.874272
0.869294
0.865067
0.860993
0.857226
0.85323
0.84936
0.845053
0.945009
0.941425
0.937737
0.933941
0.930157
0.926537
0.922936
0.919174
0.915484
0.911947
0.908547
0.905028
0.900059
0.894662
0.889428
0.885334
0.881783
0.877636
0.873116
0.86879
0.864516
0.860549
0.85643
0.85235
0.952237
0.948383
0.944721
0.940909
0.937102
0.933409
0.92973
0.926122
0.922442
0.91878
0.915182
0.911687
0.908141
0.903885
0.898589
0.893183
0.888689
0.884957
0.880962
0.876702
0.872377
0.868085
0.864144
0.859914
0.959105
0.955451
0.951798
0.948118
0.944168
0.94037
0.936641
0.932946
0.929318
0.9257
0.922067
0.918348
0.914568
0.910796
0.90702
0.902403
0.897142
0.892611
0.888622
0.884529
0.880275
0.876155
0.871643
0.965855
0.962323
0.958606
0.955031
0.951457
0.947561
0.943658
0.939884
0.936103
0.932464
0.928957
0.925455
0.92172
0.917584
0.913473
0.909794
0.905754
0.901036
0.896623
0.89241
0.888185
0.883848
0.87958
0.972619
0.969034
0.965405
0.961811
0.958095
0.954507
0.950828
0.946912
0.943005
0.939162
0.935557
0.932205
0.928955
0.92561
0.921393
0.916668
0.912634
0.908727
0.904626
0.900374
0.896093
0.891806
0.887491
0.97972
0.975778
0.97226
0.968555
0.964994
0.961327
0.95757
0.953924
0.950119
0.946057
0.942031
0.938417
0.935167
0.932053
0.928863
0.925161
0.920447
0.915924
0.911946
0.90804
0.90387
0.89969
0.895601
0.986983
0.983075
0.979227
0.975403
0.971707
0.968041
0.964376
0.960734
0.95723
0.953686
0.949473
0.944822
0.941374
0.938106
0.93491
0.93158
0.927836
0.923656
0.919468
0.915496
0.911474
0.907432
0.903242
0.994144
0.990178
0.986277
0.982387
0.978583
0.974848
0.971127
0.967477
0.96389
0.960511
0.957316
0.953644
0.948825
0.944888
0.941311
0.937861
0.934272
0.930522
0.92658
0.922748
0.918892
0.915029
0.911093
1.00526
1.00142
0.997516
0.993486
0.98948
0.985599
0.981743
0.977927
0.974154
0.970477
0.966859
0.963417
0.960106
0.956499
0.952462
0.948458
0.94465
0.940958
0.937192