/*--------------------------------*- C++ -*----------------------------------*\
  =========                 |
  \\      /  F ield         | OpenFOAM: The Open Source CFD Toolbox
   \\    /   O peration     | Website:  https://openfoam.org
    \\  /    A nd           | Version:  8
     \\/     M anipulation  |
\*---------------------------------------------------------------------------*/
FoamFile
{
    version     2.0;
    format      ascii;
    class       volScalarField;
    location    "260";
    object      epsilon;
}
// * * * * * * * * * * * * * * * * * * * * * * * * * * * * * * * * * * * * * //

dimensions      [0 2 -3 0 0 0 0];

internalField   nonuniform List<scalar> 
12225
(
285.524
270.702
257.921
243.803
232.471
223.074
216.825
212.694
212.74
213.963
217.222
220.955
228.06
232.837
241.256
246.741
256.156
259.879
52.4936
91.8799
106.975
114.745
124.844
136.777
152.688
169.895
191.093
210.922
235.188
255.465
280.979
299.296
324.575
339.401
363.22
378.655
20.5288
34.8717
44.676
50.4682
55.3957
59.6062
64.663
69.6419
76.3122
83.1813
91.424
99.3105
108.152
116.912
125.504
135.235
142.418
153.795
16.0022
19.4862
24.0817
27.5635
30.4964
32.8693
35.1543
37.2934
39.5007
41.9173
44.3329
47.1999
49.6748
53.0326
55.3983
59.2296
61.3503
65.6427
15.0385
15.7123
17.3991
19.0784
20.6391
22.026
23.2457
24.431
25.4433
26.5943
27.5222
28.7568
29.63
30.9825
31.8077
33.2654
34.0348
35.6514
14.7897
14.8256
15.2495
15.8676
16.5676
17.287
17.9235
18.5841
19.1188
19.7337
20.1928
20.7982
21.2076
21.8212
22.1957
22.8262
23.1572
23.8624
14.7658
14.6146
14.641
14.7258
14.9351
15.2199
15.4915
15.8088
16.0708
16.3824
16.6179
16.9198
17.1305
17.4264
17.6146
17.9129
18.0694
18.409
14.7687
14.5866
14.466
14.3801
14.3677
14.3896
14.4394
14.5334
14.6185
14.7365
14.8307
14.9563
15.0475
15.1759
15.2603
15.3926
15.4618
15.6222
14.768
14.591
14.4349
14.2963
14.185
14.1044
14.0399
14.0066
13.9814
13.9785
13.9808
13.9917
14.0036
14.0298
14.046
14.0808
14.0965
14.1508
14.7665
14.594
14.432
14.282
14.143
14.0219
13.9115
13.8194
13.737
13.6698
13.6102
13.5633
13.5181
13.4872
13.4515
13.4342
13.4017
13.4008
14.7659
14.5945
14.4322
14.2803
14.1362
14.0032
13.8782
13.7644
13.6582
13.5629
13.4736
13.3952
13.3198
13.2561
13.1916
13.1408
13.0838
13.0451
14.7657
14.5943
14.4321
14.2798
14.1353
13.9999
13.8715
13.7518
13.6385
13.5337
13.4341
13.343
13.2557
13.1771
13.1003
13.0328
12.9647
12.9074
14.7657
14.5941
14.432
14.2794
14.1349
13.9989
13.8699
13.7485
13.6332
13.525
13.422
13.3257
13.2338
13.1484
13.0663
12.9906
12.9172
12.8502
14.7657
14.5939
14.4318
14.279
14.1346
13.9983
13.8691
13.7472
13.6315
13.5223
13.4184
13.3204
13.227
13.139
13.055
12.9759
12.9002
12.8291
14.7657
14.5938
14.4317
14.2787
14.1342
13.9977
13.8686
13.7464
13.6307
13.5211
13.4171
13.3185
13.2248
13.136
13.0516
12.9714
12.8951
12.8227
14.7657
14.5937
14.4316
14.2785
14.1339
13.9973
13.8681
13.7458
13.63
13.5202
13.4161
13.3174
13.2236
13.1346
13.05
12.9696
12.8931
12.8204
14.7657
14.5937
14.4315
14.2783
14.1337
13.997
13.8677
13.7453
13.6294
13.5195
13.4154
13.3165
13.2227
13.1336
13.0489
12.9684
12.8918
12.819
14.7657
14.5937
14.4314
14.2782
14.1335
13.9968
13.8674
13.7449
13.629
13.5191
13.4148
13.3159
13.222
13.1328
13.0481
12.9675
12.8909
12.8179
14.7657
14.5937
14.4314
14.2782
14.1335
13.9967
13.8673
13.7448
13.6288
13.5189
13.4146
13.3156
13.2217
13.1325
13.0477
12.967
12.8904
12.8174
14.7657
14.5937
14.4314
14.2782
14.1336
13.9968
13.8674
13.745
13.629
13.519
13.4148
13.3158
13.2219
13.1327
13.0479
12.9673
12.8906
12.8177
14.7657
14.5937
14.4315
14.2784
14.1337
13.997
13.8677
13.7453
13.6294
13.5195
13.4154
13.3166
13.2229
13.1338
13.0493
12.9689
12.8926
12.8199
14.7657
14.5937
14.4316
14.2785
14.1341
13.9974
13.8685
13.7464
13.6312
13.522
13.419
13.3213
13.2293
13.1418
13.0594
12.981
12.9073
12.8368
14.7659
14.5937
14.4318
14.2788
14.1353
14.0002
13.8742
13.756
13.6463
13.5435
13.4485
13.3591
13.277
13.1992
13.1282
13.0601
12.9988
12.9386
14.7661
14.5928
14.4329
14.2844
14.1515
14.0321
13.9289
13.8375
13.7593
13.6894
13.6306
13.5769
13.5328
13.4905
13.4574
13.423
13.3989
13.3693
14.7641
14.5936
14.461
14.3603
14.3029
14.2767
14.2796
14.294
14.3202
14.3529
14.3959
14.4345
14.4824
14.5217
14.572
14.609
14.6617
14.6939
14.757
14.6921
14.758
14.9172
15.1828
15.4611
15.7475
16.0121
16.2723
16.5038
16.7361
16.9387
17.1508
17.331
17.5311
17.6938
17.889
18.0361
14.9575
15.4344
16.5693
17.6884
18.7053
19.5678
20.3373
20.9969
21.6195
22.1662
22.7191
23.2111
23.7402
24.2046
24.7331
25.1831
25.7255
26.1666
16.2579
20.9389
25.015
27.7588
29.7845
31.3586
32.7769
34.0586
35.3596
36.6167
37.976
39.2979
40.7625
42.1468
43.7192
45.1753
46.8856
48.3605
29.9427
47.2251
54.8706
58.6737
61.6142
64.4326
67.5803
70.9801
74.7395
78.7161
82.9879
87.3477
91.9091
96.455
101.105
105.629
110.182
114.584
165.79
160.073
154.899
149.564
144.479
139.678
135.613
132.11
129.27
126.973
125.32
124.045
123.34
122.83
122.826
122.983
123.27
123.828
0.18807
0.234339
0.435046
0.615138
0.79495
0.997485
1.23154
1.5054
1.82093
2.17339
2.55438
2.95468
3.36601
3.78169
4.19667
4.60741
5.01161
5.40793
5.79554
6.17361
6.54058
6.89353
7.22737
7.53443
7.80372
8.02032
8.16493
8.21383
8.13542
7.88604
7.39562
7.63275
7.88789
8.12249
8.56127
9.12365
42.9268
41.8982
42.2531
40.3105
9.21893
42.4082
45.4458
48.4913
52.1018
55.5973
59.4232
63.3327
67.4552
71.7283
76.187
80.8182
85.6329
90.6309
95.8167
101.194
106.764
112.532
118.498
124.667
131.039
137.618
144.403
151.397
158.598
166.009
173.626
181.452
189.482
197.717
206.15
214.782
223.606
232.62
241.815
251.189
260.731
270.439
280.3
290.309
300.454
310.728
321.116
331.61
342.194
352.859
363.585
374.362
385.167
395.985
406.791
417.562
428.271
438.892
449.399
459.776
470.035
480.246
490.322
500.257
510.038
519.653
529.084
538.315
547.329
556.109
564.639
572.904
580.886
588.571
595.943
602.989
609.693
616.042
622.024
627.626
632.837
637.647
642.046
646.025
649.577
652.697
655.38
657.622
659.423
660.782
661.701
662.179
662.21
661.739
660.739
659.401
657.75
655.601
653.045
650.088
646.745
643.027
638.949
634.527
629.775
624.712
619.354
613.717
607.819
601.678
595.313
588.742
581.985
575.061
567.987
560.783
553.468
546.058
538.572
531.025
523.434
515.814
508.18
500.549
492.944
485.414
478.223
473.386
470.577
468
465.477
462.988
460.532
458.108
455.713
453.342
450.984
448.611
446.184
443.616
440.74
437.123
431.658
407.582
0.948943
0.586646
0.593475
0.671933
0.793075
0.950012
1.14362
1.37435
1.64032
1.93713
2.25911
2.60041
2.95599
3.32184
3.69522
4.07448
4.45909
4.84928
5.24606
5.6506
6.06424
6.48758
6.92066
7.36182
7.80813
8.28998
8.82111
9.44082
10.239
11.3095
12.1985
13.0678
15.0739
15.7692
17.138
19.4028
21.8829
22.5095
22.8687
23.1445
23.2113
27.7644
28.9845
30.7201
32.4779
34.2755
36.15
38.0792
40.0789
42.1439
44.2793
46.4848
48.7624
51.1131
53.538
56.038
58.6138
61.2662
63.9958
66.8029
69.6878
72.6508
75.6916
78.8102
82.0062
85.2791
88.628
92.0522
95.5504
99.1216
102.764
106.476
110.256
114.101
118.01
121.979
126.006
130.088
134.221
138.402
142.628
146.893
151.195
155.527
159.885
164.264
168.658
173.06
177.463
181.861
186.246
190.609
194.944
199.246
203.514
207.757
211.994
216.278
220.54
224.744
228.892
232.975
236.987
240.921
244.772
248.533
252.197
255.758
259.211
262.548
265.764
268.854
271.811
274.63
277.306
279.835
282.21
284.429
286.487
288.38
290.106
291.661
293.043
294.251
295.283
296.137
296.813
297.307
297.613
297.72
297.65
297.418
297.038
296.469
295.729
294.824
293.756
292.532
291.155
289.632
287.967
286.167
284.239
282.188
280.021
277.745
275.367
272.895
270.336
267.696
264.985
262.208
259.374
256.489
253.562
250.597
247.603
244.586
241.552
238.51
235.468
232.449
229.54
227.113
225.124
223.249
221.413
219.6
217.808
216.036
214.284
212.551
210.836
209.135
207.448
205.771
204.086
202.458
200.756
197.856
2.01201
1.03545
0.932316
0.970508
1.06905
1.21246
1.39647
1.61863
1.87567
2.16303
2.47551
2.80804
3.15645
3.51772
3.89011
4.27309
4.66727
5.07428
5.49668
5.93771
6.4013
6.89165
7.41366
7.97299
8.57821
9.21852
9.90166
10.6334
11.4126
12.267
13.1133
14.0166
15.0222
15.9597
17.0559
18.2545
19.4081
20.3328
21.2968
22.3938
23.7013
25.3717
26.6975
28.1171
29.5845
31.1026
32.6749
34.3
35.9797
37.7142
39.5044
41.3508
43.2542
45.2152
47.2343
49.312
51.4488
53.645
55.901
58.2169
60.5929
63.029
65.5252
68.0814
70.6972
73.3722
76.1056
78.8969
81.7451
84.6494
87.6086
90.6214
93.6865
96.8022
99.9667
103.178
106.435
109.734
113.073
116.449
119.861
123.303
126.774
130.27
133.787
137.322
140.869
144.426
147.987
151.549
155.108
158.66
162.201
165.731
169.249
172.759
176.264
179.761
183.228
186.653
190.032
193.361
196.633
199.843
202.986
206.057
209.05
211.961
214.784
217.514
220.147
222.678
225.102
227.414
229.611
231.688
233.642
235.469
237.166
238.729
240.157
241.445
242.594
243.6
244.462
245.18
245.751
246.175
246.443
246.544
246.526
246.362
246.065
245.622
245.04
244.323
243.474
242.497
241.395
240.173
238.836
237.388
235.835
234.181
232.431
230.593
228.67
226.669
224.596
222.457
220.258
218.004
215.702
213.358
210.977
208.565
206.127
203.67
201.197
198.717
196.236
193.769
191.362
189.135
187.09
185.125
183.198
181.297
179.417
177.558
175.719
173.902
172.107
170.337
168.599
166.902
165.261
163.772
162.443
161.305
3.21415
1.5373
1.31376
1.31316
1.39937
1.53952
1.72318
1.94545
2.20234
2.48956
2.8026
3.13718
3.48979
3.85796
4.24039
4.63693
5.04853
5.47705
5.92526
6.39651
6.89469
7.42366
7.9871
8.58761
9.22612
9.89991
10.6068
11.3439
12.1006
12.8682
13.655
14.4784
15.3452
16.2515
17.2195
18.2617
19.319
20.3828
21.5018
22.698
23.9813
25.315
26.6386
28.0056
29.4182
30.8785
32.3883
33.9482
35.5593
37.2221
38.9375
40.7062
42.5288
44.406
46.3382
48.326
50.3699
52.4703
54.6276
56.8422
59.1143
61.4442
63.8318
66.2773
68.7805
71.3412
73.959
76.6335
79.364
82.1498
84.9901
87.8839
90.8299
93.8268
96.8731
99.9671
103.107
106.291
109.516
112.78
116.081
119.415
122.78
126.173
129.59
133.027
136.482
139.95
143.427
146.911
150.398
153.883
157.365
160.841
164.31
167.769
171.215
174.64
178.032
181.386
184.694
187.953
191.156
194.298
197.374
200.379
203.307
206.153
208.913
211.58
214.151
216.62
218.983
221.236
223.373
225.393
227.289
229.06
230.702
232.211
233.585
234.822
235.92
236.876
237.69
238.36
238.885
239.264
239.481
239.553
239.498
239.297
238.96
238.483
237.869
237.122
236.246
235.243
234.119
232.876
231.521
230.057
228.49
226.824
225.066
223.22
221.292
219.288
217.213
215.074
212.877
210.627
208.331
205.993
203.62
201.218
198.791
196.345
193.886
191.418
188.95
186.493
184.073
181.744
179.512
177.342
175.208
173.102
171.02
168.961
166.926
164.918
162.937
160.99
159.082
157.231
155.465
153.877
152.501
151.453
4.41213
2.04746
1.69979
1.66095
1.73195
1.86655
2.04831
2.26982
2.52624
2.81337
3.12718
3.46396
3.82066
4.19505
4.58591
4.99297
5.41684
5.85892
6.32124
6.8063
7.3169
7.85575
8.42531
9.02704
9.66104
10.3254
11.0161
11.7277
12.4594
13.2174
14.0022
14.821
15.6885
16.6105
17.5964
18.6234
19.6861
20.7837
21.924
23.1134
24.3507
25.639
26.9634
28.3313
29.7453
31.2074
32.7188
34.2807
35.8942
37.5602
39.2797
41.0537
42.8831
44.769
46.7118
48.7122
50.7709
52.8885
55.0657
57.3032
59.6013
61.9607
64.3815
66.8642
69.4089
72.0155
74.6841
77.4144
80.2061
83.0586
85.9714
88.9435
91.974
95.0617
98.2051
101.403
104.653
107.953
111.301
114.696
118.133
121.61
125.125
128.674
132.253
135.859
139.488
143.136
146.799
150.475
154.157
157.843
161.529
165.21
168.882
172.539
176.176
179.785
183.36
186.893
190.379
193.813
197.187
200.497
203.735
206.898
209.978
212.97
215.869
218.669
221.365
223.952
226.425
228.779
231.01
233.113
235.085
236.921
238.619
240.175
241.586
242.85
243.965
244.929
245.739
246.396
246.898
247.243
247.413
247.443
247.325
247.055
246.637
246.072
245.362
244.512
243.524
242.404
241.155
239.781
238.289
236.683
234.968
233.15
231.235
229.228
227.136
224.964
222.719
220.408
218.036
215.61
213.136
210.621
208.069
205.488
202.882
200.258
197.621
194.977
192.331
189.694
187.084
184.526
182.029
179.581
177.169
174.786
172.43
170.103
167.805
165.538
163.308
161.12
158.987
156.928
154.976
153.212
151.667
150.377
5.54959
2.54019
2.07075
1.9935
2.04751
2.17436
2.35196
2.57047
2.82416
3.10871
3.42042
3.75598
4.11269
4.48851
4.88219
5.29325
5.72194
6.1691
6.63609
7.12458
7.63654
8.17392
8.73862
9.33214
9.95537
10.6084
11.2905
12.0005
12.7381
13.5049
14.3063
15.1496
16.0341
16.9651
17.9446
18.969
20.0357
21.1437
22.2947
23.4914
24.7351
26.0263
27.3635
28.7483
30.1823
31.6668
33.2032
34.7928
36.437
38.1369
39.8938
41.7087
43.5827
45.5168
47.5124
49.5706
51.6927
53.8796
56.1324
58.452
60.8393
63.2951
65.8201
68.4148
71.0798
73.8153
76.6217
79.4988
82.4467
85.465
88.5531
91.7104
94.9359
98.2285
101.587
105.009
108.494
112.038
115.64
119.297
123.007
126.765
130.569
134.414
138.298
142.216
146.163
150.136
154.129
158.139
162.159
166.186
170.213
174.236
178.247
182.241
186.211
190.15
194.05
197.906
201.709
205.453
209.133
212.74
216.268
219.712
223.064
226.318
229.467
232.507
235.43
238.232
240.906
243.448
245.853
248.115
250.232
252.197
254.009
255.663
257.157
258.487
259.652
260.65
261.479
262.137
262.626
262.933
263.059
263.032
262.836
262.474
261.948
261.262
260.417
259.419
258.271
256.979
255.546
253.978
252.281
250.461
248.523
246.473
244.318
242.065
239.72
237.289
234.781
232.201
229.557
226.856
224.104
221.308
218.475
215.611
212.723
209.816
206.897
203.97
201.044
198.125
195.226
192.363
189.545
186.767
184.025
181.315
178.637
175.993
173.384
170.814
168.288
165.816
163.409
161.091
158.896
156.891
155.094
153.46
6.58808
2.99759
2.41241
2.29695
2.33257
2.44966
2.62079
2.83381
3.08206
3.36101
3.66711
3.99737
4.34938
4.72129
5.11191
5.52067
5.94761
6.39327
6.85863
7.34499
7.85387
8.38694
8.94591
9.53239
10.1478
10.7934
11.47
12.1784
12.9194
13.6949
14.5072
15.3593
16.2527
17.1897
18.1715
19.1981
20.2693
21.3852
22.5467
23.7556
25.0132
26.3206
27.6785
29.0881
30.5509
32.0682
33.6417
35.2728
36.9631
38.7141
40.5275
42.4046
44.3471
46.3565
48.4344
50.5823
52.8018
55.0943
57.4614
59.9042
62.4242
65.0225
67.7001
70.4581
73.2972
76.2181
79.2213
82.3071
85.4756
88.7267
92.06
95.4748
98.9703
102.545
106.199
109.928
113.732
117.608
121.553
125.564
129.638
133.772
137.961
142.202
146.489
150.818
155.185
159.583
164.007
168.452
172.911
177.379
181.848
186.312
190.763
195.194
199.598
203.966
208.29
212.563
216.777
220.925
224.999
228.991
232.893
236.698
240.4
243.99
247.461
250.807
254.022
257.098
260.03
262.812
265.438
267.904
270.204
272.334
274.29
276.069
277.668
279.082
280.311
281.352
282.203
282.865
283.335
283.597
283.673
283.568
283.275
282.797
282.137
281.299
280.286
279.102
277.753
276.245
274.582
272.77
270.817
268.728
266.51
264.17
261.715
259.153
256.49
253.735
250.896
247.979
244.994
241.947
238.846
235.698
232.512
229.293
226.05
222.788
219.513
216.233
212.954
209.682
206.428
203.204
200.015
196.864
193.75
190.672
187.631
184.629
181.67
178.759
175.901
173.107
170.391
167.776
165.294
163.003
160.902
158.89
7.50084
3.40627
2.71447
2.56169
2.57796
2.6835
2.84602
3.05122
3.29151
3.56208
3.85945
4.18087
4.52419
4.88777
5.27056
5.67202
6.09216
6.5314
6.9906
7.4709
7.97371
8.50058
9.05315
9.63309
10.242
10.8814
11.5527
12.2575
12.9972
13.7735
14.5882
15.4429
16.3394
17.2792
18.2636
19.2937
20.3703
21.4944
22.6672
23.89
25.1647
26.4928
27.8754
29.3143
30.8109
32.3673
33.9853
35.6666
37.4133
39.2273
41.1106
43.0651
45.0929
47.196
49.3765
51.6363
53.9776
56.4022
58.912
61.509
64.1948
66.971
69.8393
72.8009
75.857
79.0087
82.2568
85.6017
89.0438
92.5832
96.2196
99.9524
103.781
107.703
111.719
115.825
120.02
124.3
128.663
133.105
137.623
142.212
146.867
151.584
156.357
161.181
166.049
170.956
175.894
180.856
185.837
190.827
195.818
200.804
205.774
210.721
215.635
220.508
225.331
230.094
234.789
239.408
243.941
248.379
252.715
256.939
261.044
265.02
268.861
272.558
276.104
279.492
282.715
285.767
288.641
291.333
293.837
296.148
298.261
300.174
301.883
303.384
304.675
305.755
306.623
307.276
307.712
307.918
307.922
307.717
307.301
306.68
305.856
304.833
303.615
302.21
300.621
298.855
296.919
294.82
292.564
290.159
287.612
284.931
282.125
279.201
276.169
273.035
269.81
266.501
263.118
259.669
256.162
252.606
249.01
245.379
241.724
238.05
234.364
230.675
226.987
223.309
219.649
216.016
212.416
208.854
205.331
201.848
198.409
195.017
191.676
188.391
185.17
182.023
178.966
176.022
173.22
170.607
168.165
165.763
8.27172
3.7578
2.97079
2.78198
2.7787
2.87113
3.02316
3.21854
3.44878
3.70876
3.995
4.30495
4.63667
4.98876
5.36035
5.75105
6.16086
6.59007
7.03953
7.51049
8.00433
8.5226
9.06694
9.63909
10.2409
10.8743
11.5403
12.2404
12.9763
13.7496
14.5621
15.4154
16.3111
17.2508
18.2361
19.2686
20.3496
21.4808
22.664
23.9017
25.1957
26.5475
27.9584
29.4299
30.9648
32.5656
34.2346
35.9742
37.7866
39.6745
41.6401
43.6861
45.815
48.0295
50.3319
52.7251
55.2115
57.7936
60.474
63.2549
66.1387
69.1274
72.2231
75.4275
78.7423
82.1687
85.7079
89.3607
93.1275
97.0086
101.004
105.112
109.333
113.665
118.106
122.655
127.307
132.06
136.911
141.855
146.887
152.004
157.198
162.464
167.797
173.188
178.631
184.118
189.641
195.193
200.763
206.344
211.926
217.499
223.053
228.578
234.064
239.501
244.878
250.186
255.414
260.552
265.59
270.519
275.328
280.008
284.549
288.943
293.18
297.252
301.151
304.869
308.398
311.731
314.863
317.786
320.495
322.986
325.253
327.293
329.103
330.678
332.018
333.12
333.983
334.607
334.983
335.114
335.014
334.677
334.107
333.309
332.285
331.041
329.582
327.915
326.046
323.982
321.731
319.3
316.698
313.932
311.012
307.945
304.741
301.41
297.96
294.401
290.743
286.995
283.167
279.268
275.308
271.297
267.242
263.154
259.039
254.907
250.766
246.621
242.481
238.354
234.246
230.165
226.119
222.113
218.15
214.234
210.368
206.557
202.805
199.119
195.509
191.984
188.56
185.26
182.109
179.146
176.34
173.541
8.89297
4.04789
3.17877
2.95487
2.93304
3.01135
3.15146
3.33543
3.55402
3.80179
4.07524
4.37196
4.69018
5.02855
5.3866
5.76438
6.16239
6.58185
7.02233
7.48474
7.97029
8.48043
9.01675
9.58089
10.1745
10.7991
11.4563
12.1481
12.8763
13.6428
14.4495
15.2982
16.1908
17.1292
18.1151
19.1507
20.2377
21.3783
22.5744
23.8276
25.1406
26.5158
27.9561
29.4648
31.0438
32.6961
34.4247
36.2325
38.1225
40.0975
42.1607
44.3152
46.5642
48.9108
51.3583
53.9099
56.5688
59.3381
62.2208
65.22
68.3384
71.5786
74.9432
78.4344
82.054
85.8039
89.6852
93.699
97.8459
102.126
106.539
111.084
115.761
120.566
125.499
130.556
135.734
141.029
146.436
151.951
157.568
163.281
169.084
174.968
180.927
186.953
193.036
199.169
205.34
211.541
217.761
223.99
230.217
236.43
242.618
248.769
254.872
260.915
266.887
272.775
278.569
284.256
289.827
295.269
300.571
305.724
310.716
315.537
320.178
324.629
328.882
332.927
336.757
340.364
343.741
346.883
349.782
352.434
354.833
356.977
358.862
360.485
361.843
362.936
363.762
364.321
364.606
364.625
364.38
363.873
363.11
362.094
360.829
359.322
357.58
355.608
353.416
351.011
348.402
345.597
342.605
339.436
336.099
332.604
328.961
325.18
321.271
317.245
313.112
308.884
304.57
300.182
295.729
291.222
286.671
282.085
277.475
272.847
268.212
263.577
258.95
254.338
249.749
245.19
240.67
236.194
231.766
227.391
223.075
218.821
214.637
210.53
206.509
202.585
198.774
195.096
191.574
188.24
185.053
181.857
9.36427
4.27524
3.33804
3.08225
3.04227
3.1059
3.23306
3.40449
3.6103
3.84482
4.10422
4.38675
4.6914
5.01811
5.36511
5.73191
6.11847
6.52472
6.95156
7.40047
7.87283
8.37009
8.89377
9.4455
10.027
10.64
11.2866
11.9689
12.6886
13.4478
14.2485
15.0928
15.9828
16.9207
17.9089
18.9496
20.0453
21.1985
22.4117
23.6878
25.0296
26.4402
27.9225
29.4773
31.1096
32.8244
34.626
36.5176
38.5027
40.5848
42.7675
45.0547
47.4503
49.9581
52.582
55.3259
58.1938
61.1893
64.3162
67.578
70.978
74.5194
78.205
82.0374
86.0189
90.1514
94.4362
98.8744
103.467
108.213
113.112
118.164
123.366
128.717
134.213
139.851
145.626
151.535
157.57
163.727
169.998
176.377
182.854
189.421
196.07
202.791
209.573
216.405
223.277
230.178
237.094
244.014
250.926
257.816
264.671
271.478
278.224
284.896
291.48
297.964
304.335
310.58
316.686
322.642
328.435
334.053
339.485
344.721
349.749
354.559
359.143
363.49
367.593
371.443
375.034
378.358
381.41
384.184
386.676
388.881
390.798
392.423
393.754
394.791
395.532
395.979
396.127
395.983
395.545
394.82
393.813
392.531
390.978
389.161
387.087
384.765
382.204
379.413
376.402
373.18
369.757
366.143
362.349
358.386
354.264
349.994
345.589
341.059
336.417
331.673
326.839
321.928
316.95
311.916
306.837
301.724
296.587
291.435
286.278
281.125
275.983
270.861
265.767
260.708
255.692
250.725
245.813
240.963
236.179
231.467
226.835
222.291
217.844
213.506
209.292
205.221
201.312
197.593
194.017
190.426
9.69281
4.44216
3.45111
3.16728
3.10986
3.15864
3.27221
3.43023
3.62267
3.84434
4.09237
4.36353
4.65587
4.96762
5.29868
5.64937
6.02
6.4112
6.82426
7.26002
7.71965
8.20456
8.71629
9.25655
9.82715
10.43
11.0673
11.7411
12.4535
13.207
14.0038
14.8463
15.7372
16.679
17.6745
18.7267
19.8385
21.013
22.2531
23.5627
24.9454
26.4036
27.9396
29.5564
31.2621
33.0612
34.9584
36.9597
39.0686
41.2892
43.6258
46.083
48.6654
51.3778
54.2246
57.2106
60.3401
63.6178
67.0477
70.6339
74.3803
78.2903
82.367
86.6133
91.0315
95.6233
100.39
105.333
110.451
115.745
121.214
126.855
132.666
138.644
144.784
151.083
157.535
164.134
170.872
177.742
184.736
191.845
199.06
206.369
213.763
221.229
228.756
236.331
243.942
251.574
259.216
266.851
274.467
282.048
289.58
297.048
304.438
311.734
318.923
325.99
332.92
339.701
346.318
352.758
359.008
365.055
370.888
376.495
381.865
386.986
391.85
396.446
400.767
404.803
408.548
411.995
415.138
417.972
420.493
422.697
424.581
426.144
427.384
428.301
428.894
429.165
429.116
428.747
428.053
427.05
425.743
424.139
422.242
420.061
417.604
414.882
411.904
408.68
405.221
401.538
397.642
393.543
389.254
384.786
380.15
375.359
370.425
365.361
360.179
354.891
349.511
344.051
338.522
332.937
327.308
321.646
315.962
310.266
304.568
298.878
293.204
287.556
281.94
276.366
270.84
265.371
259.965
254.628
249.366
244.187
239.098
234.108
229.227
224.466
219.84
215.367
211.063
206.953
202.984
199.005
9.89224
4.55411
3.52233
3.21449
3.14076
3.17479
3.27521
3.42204
3.60365
3.81336
4.04657
4.30176
4.57783
4.87423
5.19091
5.52772
5.88496
6.26328
6.66362
7.08706
7.53488
8.00855
8.50974
9.04028
9.60213
10.1975
10.8285
11.4977
12.2076
12.9609
13.7605
14.6091
15.5099
16.4659
17.4806
18.5578
19.7014
20.9142
22.1999
23.5616
24.9998
26.5225
28.1366
29.8484
31.6629
33.5854
35.6214
37.7772
40.058
42.4687
45.0148
47.7017
50.5347
53.5194
56.6609
59.9646
63.4355
67.0784
70.898
74.8987
79.0844
83.4587
88.0246
92.7848
97.7412
102.895
108.248
113.798
119.547
125.491
131.63
137.96
144.477
151.177
158.054
165.102
172.313
179.681
187.196
194.849
202.63
210.528
218.531
226.628
234.806
243.051
251.349
259.687
268.049
276.421
284.787
293.132
301.44
309.694
317.879
325.978
333.976
341.856
349.603
357.202
364.637
371.893
378.957
385.814
392.45
398.853
405.01
410.908
416.537
421.886
426.945
431.703
436.153
440.287
444.098
447.578
450.723
453.528
455.989
458.103
459.868
461.283
462.348
463.061
463.426
463.443
463.125
462.444
461.426
460.076
458.403
456.411
454.108
451.504
448.608
445.432
441.986
438.282
434.331
430.145
425.735
421.115
416.295
411.289
406.109
400.768
395.28
389.657
383.913
378.062
372.116
366.089
359.995
353.845
347.652
341.429
335.186
328.936
322.688
316.452
310.239
304.057
297.914
291.82
285.781
279.806
273.902
268.076
262.336
256.688
251.142
245.705
240.388
235.203
230.164
225.287
220.587
216.084
211.727
207.373
9.95457
4.6101
3.5543
3.22789
3.14062
3.16393
3.25347
3.38689
3.55368
3.74827
3.96751
4.20935
4.47247
4.75621
5.06039
5.38512
5.73085
6.09829
6.48841
6.90242
7.34176
7.80809
8.3033
8.82948
9.38889
9.98393
10.6172
11.2915
12.0098
12.7757
13.5932
14.465
15.3946
16.3858
17.442
18.5662
19.7602
21.0313
22.3857
23.8291
25.3688
27.0098
28.7586
30.6221
32.6063
34.7178
36.9637
39.3507
41.8845
44.5718
47.4193
50.4334
53.6203
56.9859
60.5359
64.2759
68.2111
72.3464
76.6864
81.2351
85.9962
90.9726
96.1667
101.58
107.214
113.068
119.143
125.435
131.944
138.666
145.598
152.733
160.067
167.592
175.303
183.189
191.242
199.451
207.808
216.299
224.912
233.636
242.455
251.358
260.328
269.35
278.41
287.491
296.578
305.653
314.699
323.701
332.641
341.501
350.264
358.914
367.433
375.805
384.013
392.041
399.874
407.496
414.893
422.049
428.953
435.589
441.946
448.011
453.774
459.223
464.35
469.144
473.598
477.704
481.455
484.847
487.873
490.53
492.814
494.725
496.259
497.418
498.201
498.609
498.645
498.327
497.623
496.552
495.126
493.35
491.234
488.784
486.008
482.917
479.523
475.838
471.874
467.642
463.155
458.426
453.467
448.292
442.913
437.343
431.595
425.684
419.623
413.426
407.107
400.68
394.16
387.56
380.894
374.176
367.417
360.632
353.831
347.027
340.231
333.454
326.705
319.993
313.328
306.719
300.173
293.7
287.305
280.999
274.787
268.679
262.682
256.806
251.061
245.459
240.014
234.74
229.649
224.763
220.027
215.317
9.93377
4.61976
3.55399
3.21777
3.12035
3.1302
3.20576
3.32625
3.48103
3.66408
3.872
4.10282
4.35539
4.62922
4.92423
5.24075
5.5794
5.94108
6.32691
6.73831
7.17697
7.64491
8.14445
8.67852
9.24989
9.861
10.515
11.2151
11.9648
12.767
13.6236
14.5397
15.5214
16.574
17.7032
18.9151
20.2164
21.6124
23.1098
24.716
26.4389
28.2854
30.2632
32.3797
34.6427
37.0599
39.639
42.3878
45.3138
48.4248
51.7289
55.2336
58.9454
62.8699
67.0122
71.3772
75.9694
80.7928
85.8509
91.1463
96.6812
102.457
108.474
114.731
121.228
127.962
134.931
142.131
149.555
157.2
165.058
173.122
181.384
189.833
198.461
207.257
216.209
225.305
234.533
243.877
253.326
262.864
272.475
282.145
291.857
301.596
311.343
321.083
330.798
340.47
350.082
359.617
369.056
378.382
387.578
396.626
405.508
414.208
422.71
430.997
439.054
446.865
454.416
461.693
468.682
475.371
481.748
487.8
493.518
498.892
503.911
508.569
512.857
516.769
520.299
523.442
526.194
528.553
530.515
532.08
533.246
534.017
534.395
534.373
533.986
533.184
532.003
530.445
528.518
526.229
523.589
520.604
517.285
513.643
509.693
505.445
500.913
496.111
491.05
485.744
480.207
474.451
468.49
462.338
456.009
449.517
442.876
436.1
429.205
422.204
415.113
407.945
400.716
393.437
386.124
378.788
371.443
364.1
356.771
349.467
342.198
334.975
327.805
320.699
313.665
306.71
299.845
293.076
286.411
279.86
273.431
267.134
260.978
254.976
249.14
243.484
238.018
232.764
227.667
222.626
9.86642
4.60759
3.53597
3.18701
3.07701
3.07606
3.14141
3.25213
3.3976
3.57208
3.77235
3.99656
4.24378
4.51373
4.80663
5.12326
5.46506
5.83299
6.22833
6.65295
7.10898
7.59879
8.12467
8.6884
9.29207
9.94125
10.6407
11.3951
12.2095
13.0895
14.0418
15.0718
16.1858
17.3906
18.694
20.1039
21.6289
23.2769
25.0567
26.9773
29.0478
31.2774
33.675
36.2497
39.0103
41.965
45.1212
48.4855
52.068
55.8779
59.9246
64.2195
68.7662
73.5661
78.6217
83.9349
89.5074
95.3403
101.434
107.787
114.398
121.266
128.386
135.754
143.366
151.215
159.296
167.599
176.117
184.841
193.761
202.867
212.147
221.59
231.183
240.913
250.767
260.731
270.79
280.93
291.135
301.39
311.679
321.986
332.294
342.585
352.845
363.054
373.197
383.255
393.211
403.049
412.75
422.298
431.676
440.866
449.852
458.618
467.148
475.427
483.439
491.171
498.609
505.74
512.552
519.032
525.169
530.954
536.376
541.426
546.097
550.382
554.273
557.766
560.856
563.539
565.813
567.675
569.124
570.161
570.783
570.996
570.811
570.222
569.218
567.82
566.034
563.865
561.322
558.415
555.151
551.54
547.593
543.325
538.748
533.875
528.721
523.297
517.619
511.698
505.549
499.185
492.621
485.87
478.945
471.863
464.636
457.28
449.809
442.239
434.584
426.859
419.078
411.254
403.402
395.535
387.664
379.803
371.963
364.155
356.39
348.678
341.028
333.45
325.952
318.542
311.23
304.024
296.932
289.963
283.127
276.432
269.889
263.509
257.305
251.288
245.469
239.869
234.433
229.092
9.72686
4.56892
3.49611
3.14048
3.02432
3.01802
3.07863
3.18581
3.32933
3.50397
3.70707
3.93673
4.19232
4.47389
4.7819
5.11691
5.47892
5.87001
6.29348
6.75246
7.25029
7.79077
8.37819
9.0179
9.71549
10.476
11.3059
12.212
13.2023
14.285
15.4693
16.764
18.1786
19.723
21.4078
23.244
25.243
27.4157
29.7735
32.3274
35.0883
38.0665
41.2718
44.7138
48.4013
52.3416
56.5412
61.0062
65.7438
70.76
76.0615
81.6546
87.5352
93.6993
100.143
106.862
113.853
121.109
128.625
136.393
144.408
152.661
161.143
169.845
178.758
187.871
197.174
206.656
216.305
226.11
236.059
246.139
256.338
266.642
277.039
287.515
298.056
308.649
319.278
329.93
340.59
351.243
361.874
372.468
383.01
393.483
403.874
414.165
424.341
434.386
444.285
454.021
463.579
472.944
482.1
491.031
499.723
508.161
516.331
524.219
531.812
539.096
546.059
552.691
558.98
564.917
570.49
575.691
580.511
584.944
588.983
592.622
595.854
598.679
601.091
603.085
604.665
605.827
606.568
606.898
606.802
606.325
605.399
604.081
602.363
600.251
597.754
594.878
591.635
588.032
584.08
579.785
575.164
570.23
564.996
559.476
553.684
547.631
541.333
534.801
528.051
521.094
513.946
506.62
499.13
491.49
483.715
475.818
467.815
459.721
451.551
443.318
435.037
426.722
418.385
410.041
401.701
393.378
385.083
376.828
368.623
360.478
352.403
344.408
336.5
328.688
320.982
313.39
305.921
298.583
291.387
284.34
277.455
270.74
264.209
257.872
251.738
245.831
240.093
234.497
9.58389
4.50805
3.44674
3.09477
2.98118
2.97865
3.04566
3.1616
3.3164
3.50455
3.72188
3.96892
4.24624
4.5549
4.8966
5.27372
5.6899
6.14843
6.65345
7.21004
7.82408
8.50232
9.25248
10.0833
11.0039
12.0238
13.1536
14.405
15.7909
17.3244
19.0195
20.8901
22.9504
25.2148
27.6982
30.4147
33.3777
36.5996
40.0926
43.8676
47.934
52.2987
56.9675
61.9454
67.2372
72.8428
78.7608
84.9899
91.5329
98.3848
105.551
113.007
120.736
128.729
136.972
145.453
154.162
163.084
172.207
181.52
191.009
200.663
210.47
220.417
230.493
240.687
250.986
261.38
271.856
282.404
293.013
303.671
314.367
325.09
335.828
346.571
357.306
368.022
378.708
389.352
399.941
410.463
420.907
431.259
441.508
451.64
461.642
471.502
481.205
490.739
500.09
509.245
518.191
526.913
535.399
543.635
551.609
559.307
566.718
573.83
580.63
587.107
593.251
599.053
604.503
609.592
614.312
618.654
622.612
626.182
629.357
632.13
634.496
636.461
638.017