/*--------------------------------*- C++ -*----------------------------------*\
  =========                 |
  \\      /  F ield         | OpenFOAM: The Open Source CFD Toolbox
   \\    /   O peration     | Website:  https://openfoam.org
    \\  /    A nd           | Version:  8
     \\/     M anipulation  |
\*---------------------------------------------------------------------------*/
FoamFile
{
    version     2.0;
    format      ascii;
    class       volScalarField;
    location    "260";
    object      k;
}
// * * * * * * * * * * * * * * * * * * * * * * * * * * * * * * * * * * * * * //

dimensions      [0 2 -2 0 0 0 0];

internalField   nonuniform List<scalar> 
12225
(
0.362815
0.343988
0.32775
0.309811
0.29541
0.283469
0.275528
0.270279
0.270341
0.271864
0.276066
0.280656
0.289855
0.295861
0.306565
0.313346
0.324042
0.333945
0.440186
0.468698
0.461606
0.448369
0.450347
0.458308
0.474579
0.498488
0.524421
0.552062
0.58075
0.606103
0.63381
0.653819
0.679652
0.693145
0.717228
0.728015
0.39054
0.417874
0.420232
0.416827
0.411628
0.407803
0.408021
0.410034
0.414569
0.421378
0.430728
0.439696
0.451164
0.461137
0.472799
0.483535
0.4934
0.50597
0.377547
0.386982
0.391406
0.391343
0.390221
0.387895
0.385664
0.384079
0.382884
0.382896
0.383386
0.38432
0.386293
0.388463
0.390899
0.394238
0.396485
0.400966
0.374562
0.37609
0.378412
0.378666
0.378263
0.377205
0.375489
0.373737
0.37201
0.370455
0.369259
0.368105
0.36738
0.366803
0.366441
0.36633
0.36634
0.366693
0.373814
0.37271
0.372645
0.372384
0.371761
0.370817
0.369554
0.368082
0.366572
0.364977
0.363529
0.362063
0.360756
0.359529
0.358397
0.357426
0.356437
0.35578
0.373782
0.371742
0.370386
0.369287
0.368234
0.367114
0.365915
0.364587
0.363238
0.361808
0.360423
0.359024
0.357679
0.356383
0.355122
0.353967
0.352795
0.351803
0.37382
0.37156
0.369634
0.367977
0.366501
0.365108
0.363775
0.362429
0.361108
0.359767
0.358451
0.357145
0.355864
0.354624
0.353403
0.352251
0.3511
0.350054
0.373832
0.371553
0.369449
0.367525
0.365777
0.364154
0.362645
0.361199
0.359818
0.358474
0.35717
0.355903
0.354668
0.353476
0.352309
0.351197
0.350099
0.349074
0.373831
0.37156
0.369418
0.367405
0.365529
0.363773
0.362133
0.360585
0.359122
0.357728
0.356395
0.355119
0.353889
0.352711
0.351571
0.350483
0.349421
0.348422
0.373829
0.37156
0.369413
0.367378
0.365458
0.363645
0.361937
0.360324
0.358799
0.357353
0.355979
0.354673
0.353425
0.352236
0.351095
0.35001
0.34896
0.34797
0.373828
0.371558
0.369409
0.36737
0.365439
0.363609
0.361876
0.360234
0.358678
0.357202
0.3558
0.354469
0.353201
0.351995
0.350843
0.349748
0.348696
0.347701
0.373827
0.371556
0.369405
0.367365
0.36543
0.363593
0.361851
0.360197
0.358626
0.357134
0.355716
0.354368
0.353085
0.351865
0.350701
0.349595
0.348536
0.347532
0.373826
0.371555
0.369401
0.367359
0.365422
0.363583
0.361837
0.360178
0.3586
0.357101
0.355674
0.354317
0.353025
0.351795
0.350622
0.349506
0.34844
0.347427
0.373826
0.371553
0.369398
0.367355
0.365416
0.363575
0.361826
0.360164
0.358584
0.357081
0.355651
0.354289
0.352993
0.351758
0.35058
0.349458
0.348388
0.347368
0.373826
0.371552
0.369396
0.367351
0.36541
0.363567
0.361817
0.360153
0.358571
0.357067
0.355634
0.35427
0.352971
0.351734
0.350554
0.349429
0.348356
0.347333
0.373825
0.371551
0.369394
0.367348
0.365406
0.363562
0.36181
0.360145
0.358561
0.357055
0.355621
0.354256
0.352955
0.351716
0.350534
0.349408
0.348333
0.347308
0.373825
0.371551
0.369393
0.367346
0.365403
0.363558
0.361805
0.360139
0.358554
0.357047
0.355612
0.354245
0.352943
0.351703
0.35052
0.349392
0.348316
0.34729
0.373825
0.37155
0.369393
0.367346
0.365402
0.363557
0.361804
0.360137
0.358552
0.357043
0.355608
0.35424
0.352938
0.351696
0.350513
0.349384
0.348307
0.34728
0.373825
0.371551
0.369393
0.367347
0.365404
0.363559
0.361806
0.360139
0.358555
0.357046
0.355611
0.354244
0.352941
0.3517
0.350517
0.349388
0.348311
0.347284
0.373825
0.371551
0.369395
0.367349
0.365407
0.363563
0.361811
0.360146
0.358562
0.357055
0.355621
0.354255
0.352954
0.351715
0.350533
0.349407
0.348332
0.347307
0.373826
0.371552
0.369397
0.367352
0.365412
0.363571
0.361822
0.360161
0.358583
0.357083
0.355656
0.354298
0.353006
0.351774
0.350602
0.349483
0.348417
0.347397
0.373826
0.371554
0.369399
0.367359
0.365428
0.363602
0.361875
0.36024
0.35869
0.35722
0.355823
0.354493
0.353227
0.352018
0.350865
0.349762
0.34871
0.3477
0.373828
0.371551
0.369412
0.367417
0.365556
0.363819
0.362189
0.360651
0.359189
0.357793
0.356456
0.355171
0.353935
0.352745
0.3516
0.350495
0.349436
0.348409
0.373823
0.371554
0.369604
0.367893
0.366339
0.364892
0.363495
0.362122
0.360761
0.359413
0.358081
0.356769
0.355488
0.354237
0.353029
0.351855
0.350734
0.349645
0.373788
0.371991
0.371113
0.370266
0.36936
0.368311
0.367048
0.36563
0.36412
0.362575
0.36103
0.359522
0.358073
0.356682
0.355381
0.354141
0.353009
0.351923
0.374355
0.375572
0.377775
0.377857
0.377288
0.375886
0.373835
0.371641
0.369505
0.367482
0.365664
0.364084
0.36271
0.361535
0.36061
0.359818
0.359289
0.358801
0.379125
0.394296
0.398249
0.396573
0.392538
0.387603
0.383646
0.380448
0.378268
0.376853
0.376498
0.376741
0.377416
0.378692
0.380443
0.382424
0.384828
0.38714
0.408394
0.427541
0.422416
0.411056
0.402226
0.397925
0.398627
0.400965
0.406072
0.413058
0.421003
0.429833
0.438842
0.448197
0.457315
0.46656
0.475331
0.484191
0.36605
0.353416
0.341988
0.33021
0.318982
0.308382
0.299411
0.291671
0.285404
0.280334
0.276682
0.273867
0.272313
0.271175
0.271213
0.271474
0.272191
0.273392
0.000651991
0.00370712
0.00686642
0.00969178
0.0124991
0.0156583
0.0193044
0.0235662
0.0284782
0.0339689
0.0399137
0.0461707
0.0526173
0.059149
0.0656877
0.0721662
0.0785296
0.0847186
0.0906721
0.0963088
0.101539
0.106247
0.110315
0.113615
0.11605
0.117564
0.118013
0.117523
0.116066
0.114985
0.114381
0.119995
0.124701
0.130077
0.136144
0.139598
0.137639
0.140263
0.143667
0.148988
0.152368
0.147749
0.157897
0.164241
0.172275
0.179838
0.187919
0.196002
0.20434
0.212798
0.22144
0.230234
0.239192
0.248309
0.257587
0.267023
0.276617
0.286369
0.296275
0.306336
0.316547
0.326908
0.337414
0.348063
0.358848
0.369769
0.380815
0.391987
0.403274
0.414673
0.426173
0.437771
0.449455
0.461221
0.473055
0.484953
0.4969
0.508892
0.520912
0.532956
0.545007
0.557059
0.569093
0.581104
0.593073
0.604992
0.61684
0.628608
0.640276
0.651829
0.663245
0.674502
0.685577
0.696446
0.707088
0.717494
0.727677
0.737712
0.747527
0.757109
0.766455
0.775557
0.784402
0.792979
0.801276
0.809284
0.816989
0.824384
0.831455
0.838196
0.844595
0.850644
0.856334
0.861656
0.866604
0.871171
0.875348
0.879132
0.882517
0.885496
0.888069
0.89023
0.891981
0.893319
0.894246
0.894762
0.894873
0.894577
0.893869
0.892706
0.891056
0.88909
0.886844
0.884146
0.88107
0.877625
0.873826
0.869678
0.865198
0.860392
0.855276
0.849862
0.844165
0.838197
0.831975
0.825512
0.818823
0.811926
0.804834
0.797566
0.790135
0.78256
0.774855
0.767037
0.759121
0.751123
0.743056
0.734935
0.726775
0.718593
0.710411
0.702284
0.694511
0.689171
0.685599
0.682219
0.678882
0.675577
0.6723
0.669053
0.665835
0.66264
0.659458
0.656266
0.653022
0.649644
0.645971
0.641575
0.635365
0.61074
0.00329053
0.0131766
0.0198279
0.0248068
0.0292288
0.0335963
0.0382597
0.0433956
0.0490518
0.0551822
0.0616929
0.0684745
0.0754261
0.0824626
0.0895183
0.0965403
0.103486
0.110312
0.116974
0.123414
0.129565
0.135342
0.140652
0.1454
0.149515
0.152971
0.155866
0.158534
0.161707
0.166807
0.175571
0.18438
0.192637
0.202117
0.210934
0.218167
0.222868
0.232128
0.243403
0.257142
0.273135
0.283793
0.29586
0.30807
0.320924
0.334077
0.347616
0.361477
0.375668
0.390173
0.404996
0.420134
0.435588
0.451359
0.467448
0.483856
0.500584
0.517632
0.535001
0.55269
0.570699
0.589026
0.607669
0.626625
0.64589
0.665461
0.685331
0.705496
0.725946
0.746676
0.767675
0.788936
0.810445
0.832193
0.854167
0.876353
0.898737
0.921305
0.944039
0.966926
0.989944
1.01308
1.03631
1.05961
1.08297
1.10636
1.12977
1.15315
1.1765
1.19978
1.22296
1.24602
1.26891
1.29159
1.31402
1.33614
1.35789
1.37918
1.40014
1.4208
1.44113
1.46113
1.48076
1.5
1.51882
1.53722
1.55515
1.5726
1.58954
1.60596
1.62183
1.63713
1.65184
1.66594
1.67941
1.69224
1.7044
1.71587
1.72665
1.73672
1.74606
1.75466
1.76252
1.76962
1.77597
1.78155
1.78636
1.79041
1.79369
1.79615
1.79761
1.79833
1.79857
1.79798
1.79659
1.79446
1.7916
1.78803
1.78376
1.77882
1.77322
1.76698
1.76013
1.75269
1.74468
1.73614
1.72708
1.71754
1.70754
1.69712
1.6863
1.67511
1.66359
1.65176
1.63966
1.62731
1.61475
1.602
1.58908
1.57603
1.56287
1.54964
1.53643
1.52367
1.51128
1.49895
1.48666
1.4744
1.46218
1.45002
1.43791
1.42585
1.41383
1.40183
1.38981
1.37773
1.36539
1.35279
1.33822
1.30424
0.00697547
0.0225761
0.0314072
0.0379804
0.0438128
0.0494864
0.0553115
0.0614537
0.0679746
0.0748602
0.0820524
0.0894744
0.0970519
0.104721
0.112434
0.120156
0.127863
0.135535
0.143154
0.150699
0.158145
0.165462
0.172629
0.17964
0.186542
0.193455
0.200605
0.208328
0.217021
0.226985
0.238089
0.24935
0.260711
0.272377
0.284069
0.295811
0.308017
0.322018
0.337171
0.353297
0.36974
0.385319
0.401314
0.41764
0.434417
0.451602
0.469194
0.487183
0.505564
0.524333
0.543489
0.563029
0.582956
0.603268
0.623966
0.645051
0.666522
0.68838
0.710623
0.73325
0.756258
0.779647
0.80341
0.827545
0.852046
0.876907
0.90212
0.927679
0.953573
0.979792
1.00633
1.03316
1.06029
1.08769
1.11534
1.14325
1.17137
1.19971
1.22823
1.25692
1.28575
1.31471
1.34377
1.3729
1.40208
1.43128
1.46048
1.48965
1.51875
1.54777
1.57665
1.60538
1.63392
1.66223
1.69029
1.71805
1.7455
1.77262
1.79939
1.82579
1.85178
1.87734
1.90243
1.92703
1.9511
1.97461
1.99753
2.01984
2.0415
2.06249
2.08277
2.10233
2.12112
2.13914
2.15635
2.17273
2.18826
2.20291
2.21668
2.22952
2.24144
2.25242
2.26244
2.27149
2.27956
2.28665
2.29275
2.29786
2.30198
2.30508
2.30701
2.30791
2.30809
2.30725
2.30542
2.30262
2.2989
2.29426
2.28873
2.28233
2.27509
2.26703
2.25819
2.24859
2.23826
2.22724
2.21556
2.20326
2.19037
2.17693
2.16298
2.14856
2.1337
2.11844
2.10283
2.0869
2.07068
2.05422
2.03754
2.02068
2.00368
1.98659
1.96947
1.95254
1.93581
1.91915
1.90251
1.88592
1.86937
1.85289
1.83647
1.82013
1.80386
1.78766
1.77154
1.75549
1.73945
1.72353
1.7063
1.67724
0.0111489
0.0313995
0.0422747
0.0502138
0.0571318
0.0637318
0.0703632
0.0772118
0.084361
0.0918233
0.0995671
0.10754
0.115685
0.123954
0.132313
0.140737
0.149219
0.157755
0.16635
0.175008
0.183735
0.19254
0.201438
0.210463
0.21968
0.229196
0.239163
0.249756
0.261122
0.273312
0.286203
0.299528
0.313231
0.327344
0.341876
0.356912
0.372617
0.38918
0.406468
0.424361
0.442651
0.461135
0.47997
0.499181
0.518809
0.538863
0.55935
0.580272
0.601631
0.623428
0.645662
0.668336
0.69145
0.715006
0.739004
0.763445
0.788331
0.81366
0.839432
0.865646
0.8923
0.919392
0.946917
0.974871
1.00325
1.03204
1.06125
1.09085
1.12084
1.15122
1.18196
1.21305
1.24448
1.27623
1.30829
1.34063
1.37324
1.40609
1.43916
1.47243
1.50588
1.53947
1.57319
1.607
1.64086
1.67477
1.70867
1.74254
1.77635
1.81006
1.84364
1.87706
1.91027
1.94325
1.97597
2.00838
2.04046
2.07218
2.10349
2.13437
2.16477
2.19467
2.22401
2.25277
2.2809
2.30838
2.33516
2.36121
2.3865
2.411
2.43466
2.45747
2.47938
2.50037
2.5204
2.53946
2.55752
2.57454
2.59052
2.60542
2.61923
2.63192
2.64349
2.65392
2.66321
2.67133
2.67829
2.68408
2.6887
2.69212
2.69425
2.69514
2.69512
2.69391
2.69154
2.68805
2.68347
2.67782
2.67112
2.66339
2.65468
2.64502
2.63442
2.62294
2.6106
2.59745
2.58353
2.56886
2.55351
2.53751
2.52091
2.50374
2.48607
2.46792
2.44935
2.43041
2.41112
2.39154
2.3717
2.35166
2.33144
2.31109
2.2907
2.27037
2.25015
2.22997
2.20983
2.18973
2.16968
2.14971
2.12982
2.11004
2.09037
2.07085
2.0515
2.0324
2.01356
1.99518
1.97607
1.94968
0.0153108
0.0396307
0.0523725
0.0615642
0.0694463
0.0768273
0.0841076
0.0915043
0.0991291
0.107024
0.115185
0.123585
0.132186
0.140954
0.149865
0.158906
0.168075
0.177382
0.186842
0.196476
0.206306
0.216357
0.22666
0.237255
0.248195
0.259554
0.27142
0.283882
0.297007
0.310815
0.325265
0.340289
0.355848
0.371938
0.388563
0.405756
0.423553
0.441977
0.460997
0.480564
0.500618
0.521107
0.542035
0.563408
0.585236
0.60753
0.630297
0.653543
0.677273
0.701491
0.7262
0.751404
0.777104
0.803304
0.830005
0.857211
0.884921
0.913137
0.941859
0.971087
1.00082
1.03105
1.06179
1.09301
1.12473
1.15693
1.1896
1.22274
1.25634
1.29037
1.32484
1.35972
1.39499
1.43065
1.46667
1.50303
1.5397
1.57667
1.6139
1.65138
1.68907
1.72694
1.76496
1.8031
1.84133
1.87961
1.9179
1.95618
1.9944
2.03252
2.07052
2.10834
2.14595
2.18331
2.22038
2.25712
2.29349
2.32944
2.36494
2.39994
2.43439
2.46826
2.50151
2.53408
2.56594
2.59705
2.62736
2.65684
2.68544
2.71313
2.73987
2.76563
2.79037
2.81405
2.83664
2.85812
2.87845
2.89761
2.91557
2.93231
2.94779
2.96202
2.97496
2.9866
2.99693
3.00594
3.01363
3.01999
3.02501
3.02868
3.03089
3.03175
3.03147
3.02985
3.02694
3.02275
3.01732
3.01067
3.00283
2.99383
2.9837
2.97249
2.96023
2.94695
2.9327
2.91752
2.90146
2.88456
2.86688
2.84845
2.82934
2.80958
2.78924
2.76837
2.747
2.72521
2.70302
2.6805
2.65768
2.63461
2.61134
2.58792
2.56442
2.54091
2.51744
2.49401
2.47059
2.44722
2.42391
2.40069
2.37758
2.35461
2.33181
2.30923
2.28694
2.26504
2.24366
2.223
2.20207
2.17634
0.0192643
0.0470822
0.0614962
0.0718288
0.0805822
0.0886543
0.0964923
0.104344
0.11235
0.120579
0.129055
0.137776
0.146722
0.155877
0.165225
0.174761
0.184491
0.19443
0.204599
0.215026
0.225741
0.236776
0.248166
0.259949
0.272166
0.284867
0.298104
0.311928
0.326376
0.341467
0.357196
0.373543
0.390491
0.408027
0.426146
0.444848
0.464137
0.484013
0.504466
0.525478
0.547031
0.569106
0.591694
0.614792
0.638403
0.662532
0.687187
0.712373
0.738096
0.764363
0.79118
0.81855
0.846479
0.87497
0.904029
0.933657
0.963858
0.994634
1.02599
1.05792
1.09042
1.12351
1.15716
1.19139
1.22618
1.26152
1.29742
1.33386
1.37083
1.40831
1.4463
1.48477
1.52371
1.5631
1.60292
1.64313
1.68373
1.72468
1.76595
1.80751
1.84933
1.89137
1.93361
1.976
2.0185
2.06108
2.1037
2.14631
2.18888
2.23135
2.27369
2.31585
2.35779
2.39945
2.44079
2.48177
2.52233
2.56242
2.602
2.64101
2.67941
2.71716
2.7542
2.79048
2.82596
2.86059
2.89432
2.92711
2.95892
2.9897
3.01941
3.04802
3.07547
3.10174
3.12679
3.15059
3.17309
3.19429
3.21413
3.23261
3.24969
3.26535
3.27958
3.29235
3.30366
3.31349
3.32184
3.3287
3.33407
3.33794
3.3402
3.34098
3.34041
3.33836
3.33487
3.32996
3.32366
3.31601
3.30702
3.29674
3.28521
3.27245
3.25853
3.24347
3.22732
3.21014
3.19196
3.17285
3.15286
3.13204
3.11045
3.08813
3.06516
3.04159
3.01747
2.99285
2.9678
2.94237
2.9166
2.89055
2.86426
2.8378
2.81122
2.78458
2.75794
2.73131
2.7047
2.67813
2.65164
2.62524
2.59899
2.57292
2.54708
2.52153
2.49639
2.47179
2.44791
2.42494
2.40204
2.37569
0.0228743
0.0536394
0.0695075
0.0808472
0.0903734
0.0990557
0.10738
0.11562
0.123939
0.13243
0.141144
0.150099
0.159297
0.168734
0.178407
0.18832
0.198483
0.208912
0.219635
0.230679
0.242078
0.253866
0.266078
0.278747
0.291907
0.305594
0.319841
0.334679
0.350132
0.366216
0.382935
0.400289
0.418268
0.436866
0.456076
0.475893
0.496314
0.517337
0.538956
0.561166
0.583961
0.607334
0.63128
0.655797
0.680887
0.706555
0.732808
0.759651
0.787092
0.815139
0.8438
0.87308
0.902987
0.933527
0.964705
0.996528
1.029
1.06212
1.0959
1.13034
1.16543
1.20119
1.2376
1.27466
1.31238
1.35074
1.38973
1.42935
1.46958
1.51042
1.55184
1.59383
1.63636
1.67942
1.72298
1.76701
1.81149
1.85639
1.90167
1.9473
1.99324
2.03946
2.0859
2.13254
2.17933
2.22622
2.27317
2.32013
2.36705
2.41388
2.46057
2.50707
2.55332
2.59928
2.64489
2.69008
2.73481
2.77902
2.82266
2.86566
2.90799
2.94958
2.99037
3.03032
3.06938
3.10749
3.14459
3.18065
3.21561
3.24942
3.28205
3.31344
3.34355
3.37234
3.39978
3.42583
3.45045
3.47361
3.49527
3.51542
3.53403
3.55107
3.56652
3.58037
3.59259
3.60319
3.61215
3.61946
3.62512
3.62914
3.6314
3.63207
3.63118
3.62867
3.62457
3.61891
3.61172
3.60303
3.59288
3.5813
3.56834
3.55404
3.53844
3.52159
3.50354
3.48434
3.46405
3.44273
3.42042
3.3972
3.37312
3.34825
3.32264
3.29637
3.26948
3.24205
3.21413
3.18578
3.15705
3.128
3.09869
3.06917
3.03951
3.00975
2.97995
2.95015
2.92036
2.89062
2.86096
2.83142
2.80206
2.77291
2.74406
2.71559
2.68763
2.66034
2.63391
2.60856
2.58346
2.55568
0.0260468
0.0592339
0.0763242
0.0885206
0.0987091
0.107916
0.116657
0.125225
0.133801
0.1425
0.15139
0.160511
0.169883
0.179516
0.189419
0.199602
0.210079
0.220872
0.232007
0.243512
0.255419
0.267763
0.280574
0.293885
0.307723
0.322116
0.337088
0.352661
0.368851
0.385672
0.40313
0.421231
0.439973
0.459355
0.479373
0.500026
0.521311
0.543228
0.565776
0.588955
0.612762
0.6372
0.662266
0.687964
0.714297
0.741271
0.768894
0.797173
0.826118
0.855737
0.886041
0.917038
0.948737
0.981146
1.01427
1.04813
1.08271
1.11804
1.15411
1.19092
1.22849
1.2668
1.30587
1.34568
1.38624
1.42753
1.46956
1.5123
1.55576
1.5999
1.64472
1.6902
1.73631
1.78303
1.83033
1.87819
1.92656
1.97542
2.02473
2.07445
2.12453
2.17494
2.22563
2.27654
2.32764
2.37887
2.43017
2.4815
2.53279
2.584
2.63506
2.68591
2.73649
2.78674
2.83661
2.88601
2.93491
2.98322
3.03089
3.07787
3.12408
3.16948
3.21399
3.25757
3.30016
3.34169
3.38211
3.42137
3.45942
3.4962
3.53167
3.56577
3.59847
3.62971
3.65946
3.68768
3.71432
3.73937
3.76278
3.78452
3.80457
3.82291
3.83951
3.85436
3.86743
3.87872
3.88822
3.89592
3.90182
3.90593
3.90815
3.90864
3.90739
3.90438
3.89963
3.89318
3.88507
3.87532
3.86398
3.85109
3.83668
3.82082
3.80353
3.78488
3.76492
3.74371
3.7213
3.69776
3.67314
3.64752
3.62095
3.59352
3.56527
3.53629
3.50664
3.47638
3.44558
3.4143
3.38261
3.35057
3.31822
3.28564
3.25288
3.22001
3.18706
3.1541
3.12114
3.08824
3.05544
3.02278
2.99033
2.95814
2.9263
2.89492
2.86414
2.83415
2.80514
2.7773
2.74985
2.72022
0.0287257
0.0638444
0.0819215
0.0948152
0.105547
0.115187
0.124272
0.133108
0.14189
0.150747
0.159765
0.168997
0.17848
0.188237
0.198288
0.208649
0.21934
0.230383
0.241804
0.253631
0.265894
0.278624
0.29185
0.305599
0.319899
0.334771
0.350236
0.366311
0.38301
0.400346
0.418326
0.436959
0.456247
0.476194
0.496801
0.518071
0.540006
0.562609
0.585882
0.609829
0.634453
0.65976
0.685754
0.712441
0.739827
0.767921
0.796732
0.826272
0.856551
0.88758
0.919372
0.951939
0.98529
1.01944
1.05439
1.09016
1.12676
1.16418
1.20245
1.24156
1.28152
1.32234
1.364
1.40652
1.44988
1.49408
1.53911
1.58497
1.63163
1.67909
1.72731
1.77629
1.82599
1.87638
1.92745
1.97914
2.03143
2.08428
2.13764
2.19148
2.24573
2.30036
2.35531
2.41052
2.46595
2.52152
2.57719
2.63289
2.68856
2.74414
2.79955
2.85473
2.90961
2.96413
3.01822
3.07179
3.1248
3.17716
3.22881
3.27969
3.32972
3.37885
3.427
3.47412
3.52014
3.56499
3.60863
3.65099
3.69202
3.73165
3.76984
3.80654
3.8417
3.87527
3.90721
3.93748
3.96604
3.99285
4.01788
4.0411
4.06248
4.08201
4.09965
4.11538
4.1292
4.14109
4.15104
4.15905
4.16511
4.16923
4.17135
4.1716
4.16994
4.16637
4.16093
4.15366
4.14459
4.13376
4.12121
4.10698
4.09113
4.07369
4.05472
4.03428
4.01241
3.98919
3.96467
3.93892
3.912
3.88399
3.85496
3.82498
3.79412
3.76245
3.73004
3.69698
3.66332
3.62914
3.5945
3.55947
3.52411
3.48848
3.45265
3.41668
3.38062
3.34452
3.30844
3.27241
3.2365
3.20076
3.16525
3.13006
3.09527
3.06101
3.02742
2.99472
2.96309
2.9327
2.9028
2.8713
0.0308838
0.067487
0.086324
0.0997555
0.110908
0.120886
0.130238
0.139281
0.148218
0.157188
0.166287
0.175584
0.185126
0.194948
0.205077
0.215536
0.22635
0.237542
0.249138
0.261166
0.273651
0.286623
0.300107
0.31413
0.328714
0.343881
0.359649
0.376035
0.393052
0.410713
0.429029
0.448009
0.467661
0.487993
0.50901
0.530721
0.55313
0.576246
0.600076
0.624627
0.649908
0.675926
0.702692
0.730214
0.758504
0.787574
0.817436
0.848103
0.879591
0.911913
0.945083
0.979116
1.01403
1.04983
1.08653
1.12414
1.16269
1.20217
1.24259
1.28396
1.32629
1.36958
1.41383
1.45904
1.50521
1.55232
1.60038
1.64936
1.69925
1.75004
1.80169
1.85419
1.90751
1.96161
2.01646
2.07203
2.12826
2.18512
2.24255
2.30051
2.35894
2.41779
2.477
2.5365
2.59623
2.65614
2.71614
2.77617
2.83616
2.89604
2.95574
3.01518
3.07428
3.13297
3.19117
3.24881
3.30581
3.36209
3.41759
3.47223
3.52594
3.57864
3.63028
3.68077
3.73005
3.77807
3.82474
3.87002
3.91384
3.95614
3.99688
4.03599
4.07342
4.10914
4.14308
4.17522
4.20551
4.23391
4.26039
4.28492
4.30747
4.32802
4.34655
4.36304
4.37747
4.38983
4.40011
4.40831
4.41442
4.41846
4.42041
4.42032
4.41819
4.41401
4.40783
4.39969
4.38963
4.3777
4.36392
4.34836
4.33105
4.31205
4.29141
4.26919
4.24545
4.22025
4.19366
4.16574
4.13657
4.10622
4.07477
4.04229
4.00886
3.97456
3.93946
3.90364
3.86718
3.83014
3.79261
3.75465
3.71633
3.67771
3.63886
3.59985
3.56074
3.52158
3.48243
3.44335
3.4044
3.36563
3.32714
3.289
3.25132
3.21422
3.17788
3.14249
3.10823
3.07526
3.04286
3.00928
0.0325201
0.0702074
0.089592
0.10341
0.114864
0.125085
0.134627
0.143813
0.152851
0.161887
0.171026
0.180344
0.189898
0.199731
0.20988
0.220373
0.231236
0.242494
0.254172
0.266296
0.278889
0.291979
0.305589
0.319744
0.334465
0.349773
0.365687
0.382223
0.399399
0.417228
0.435724
0.4549
0.474767
0.495337
0.516622
0.538633
0.56138
0.584875
0.609131
0.634158
0.65997
0.686582
0.714006
0.742257
0.771349
0.801298
0.83212
0.863833
0.896454
0.930002
0.964493
0.999944
1.03637
1.07379
1.11222
1.15167
1.19215
1.23368
1.27627
1.31992
1.36465
1.41044
1.45731
1.50526
1.55427
1.60434
1.65546
1.70761
1.76078
1.81494
1.87007
1.92614
1.98311
2.04094
2.09961
2.15906
2.21924
2.28011
2.3416
2.40367
2.46625
2.52928
2.59269
2.65641
2.72038
2.78451
2.84874
2.91299
2.97718
3.04123
3.10506
3.16858
3.23173
3.2944
3.35653
3.41802
3.4788
3.53879
3.5979
3.65607
3.7132
3.76923
3.82409
3.87769
3.92998
3.98088
4.03032
4.07825
4.12459
4.16929
4.21229
4.25354
4.29299
4.33058
4.36627
4.40002
4.43179
4.46154
4.48923
4.51485
4.53835
4.55972
4.57893
4.59598
4.61084
4.6235
4.63395
4.6422
4.64825
4.65209
4.65374
4.65324
4.65057
4.6457
4.63872
4.62967
4.6186
4.60555
4.59055
4.57365
4.55491
4.53438
4.51211
4.48816
4.4626
4.43548
4.40688
4.37687
4.34553
4.31292
4.27914
4.24425
4.20835
4.17151
4.13381
4.09534
4.05618
4.01639
3.97607
3.93528
3.8941
3.85259
3.81083
3.76888
3.72682
3.68471
3.6426
3.60057
3.55868
3.517
3.47562
3.43464
3.39416
3.35432
3.31529
3.27726
3.24041
3.20488
3.17
3.13427
0.0336594
0.0720836
0.0918178
0.105883
0.117527
0.127897
0.137551
0.146814
0.155899
0.164954
0.174091
0.183393
0.192923
0.202729
0.21285
0.223319
0.234162
0.245408
0.25708
0.269204
0.281803
0.294902
0.308524
0.322692
0.337428
0.352753
0.368687
0.38525
0.402459
0.420334
0.438891
0.458147
0.478118
0.498821
0.520272
0.542486
0.565479
0.589268
0.613869
0.639297
0.66557
0.692708
0.720731
0.749658
0.779506
0.810298
0.842053
0.874794
0.908542
0.943317
0.979141
1.01603
1.05401
1.09309
1.13329
1.17463
1.21712
1.26078
1.3056
1.35162
1.39882
1.44721
1.49679
1.54756
1.59951
1.65262
1.70689
1.7623
1.81881
1.87642
1.93507
1.99475
2.0554
2.117
2.17948
2.2428
2.30691
2.37175
2.43725
2.50335
2.56998
2.63707
2.70456
2.77235
2.84038
2.90856
2.97682
3.04506
3.1132
3.18116
3.24886
3.31619
3.38308
3.44943
3.51516
3.58017
3.64439
3.70773
3.7701
3.83142
3.89161
3.95059
4.00829
4.06463
4.11953
4.17293
4.22475
4.27493
4.32342
4.37014
4.41503
4.45806
4.49915
4.53826
4.57536
4.61038
4.6433
4.67408
4.70269
4.72909
4.75326
4.77518
4.79482
4.81219
4.82725
4.84001
4.85045
4.85857
4.86439
4.8679
4.86912
4.86813
4.86481
4.85918
4.85135
4.84136
4.82925
4.81507
4.79886
4.78066
4.76053
4.73852
4.71468
4.68908
4.66178
4.63284
4.60234
4.57036
4.53696
4.50222
4.46624
4.42909
4.39086
4.35163
4.31149
4.27052
4.2288
4.18642
4.14346
4.1
4.05611
4.01187
3.96736
3.92264
3.87778
3.83287
3.78796
3.74313
3.69846
3.65402
3.6099
3.56621
3.52307
3.48061
3.43901
3.39844
3.35909
3.32108
3.28378
3.24596
0.0343498
0.0732018
0.0931097
0.107294
0.119025
0.129456
0.139146
0.148424
0.157505
0.166539
0.17564
0.184891
0.194359
0.204095
0.214138
0.224525
0.235287
0.24645
0.258042
0.270085
0.282605
0.295624
0.309165
0.323253
0.33791
0.353159
0.369023
0.385524
0.402683
0.420524
0.439066
0.458334
0.478347
0.499128
0.520698
0.543078
0.56629
0.590354
0.61529
0.641117
0.667845
0.695513
0.724147
0.753771
0.784412
0.816095
0.848846
0.882689
0.917651
0.953753
0.99102
1.02947
1.06913
1.11001
1.15214
1.19552
1.24018
1.28612
1.33336
1.3819
1.43175
1.4829
1.53535
1.5891
1.64413
1.70042
1.75796
1.81673
1.87669
1.9378
2.00004
2.06336
2.12771
2.19304
2.25931
2.32644
2.39439
2.46307
2.53243
2.60239
2.67288
2.74382
2.81512
2.88671
2.95851
3.03041
3.10234
3.17421
3.24592
3.31739
3.38852
3.45921
3.52939
3.59894
3.66779
3.73584
3.80299
3.86917
3.93427
3.99823
4.06095
4.12235
4.18236
4.2409
4.29789
4.35327
4.40696
4.45889
4.50901
4.55725
4.60355
4.64787
4.69014
4.73033
4.76838
4.80426
4.83792
4.86933
4.89847
4.92529
4.94979
4.97194
4.99171
5.00911
5.02411
5.03671
5.04692
5.05472
5.06012
5.06315
5.06381
5.06223
5.05814
5.05167
5.04295
5.03199
5.01885
5.00355
4.98616
4.96671
4.94525
4.92184
4.89653
4.86939
4.84048
4.80987
4.77762
4.74381
4.70853
4.67185
4.63386
4.59464
4.55427
4.51286
4.47048
4.42722
4.38316
4.33841
4.29303
4.24711
4.20074
4.15398
4.10692
4.05964
4.01221
3.96471
3.91721
3.8698
3.82254
3.77554
3.72888
3.68268
3.63706
3.59215
3.54813
3.50518
3.46346
3.42309
3.38351
3.34374
0.0345624
0.0735822
0.0935438
0.107751
0.119482
0.129902
0.139568
0.148808
0.157834
0.1668
0.17582
0.184981
0.194356
0.204004
0.213955
0.224246
0.234907
0.245966
0.25745
0.269382
0.281788
0.29469
0.308115
0.322085
0.336627
0.351765
0.367525
0.383933
0.401015
0.418797
0.437303
0.456563
0.476604
0.497454
0.519141
0.541693
0.565136
0.589495
0.614795
0.641065
0.668324
0.696626
0.725995
0.756461
0.788054
0.820805
0.854744
0.889903
0.926306
0.963979
1.00295
1.04323
1.08484
1.12781
1.17215
1.21787
1.26498
1.31351
1.36344
1.41479
1.46755
1.52172
1.57729
1.63423
1.69254
1.75219
1.81316
1.8754
1.93888
2.00357
2.0694
2.13635
2.20434
2.27332
2.34323
2.41401
2.48557
2.55786
2.63079
2.70429
2.77828
2.85266
2.92736
3.00228
3.07735
3.15246
3.22752
3.30244
3.37712
3.45148
3.52541
3.59882
3.67162
3.7437
3.81498
3.88536
3.95475
4.02305
4.09019
4.15607
4.22061
4.28374
4.34536
4.40541
4.46381
4.52048
4.57537
4.6284
4.67951
4.72864
4.77575
4.82077
4.86365
4.90435
4.94283
4.97904
5.01295
5.04453
5.07375
5.10058
5.125
5.147
5.16655
5.18365
5.19829
5.21047
5.22018
5.22743
5.23224
5.23462
5.23459
5.23229
5.22731
5.21997
5.21031
5.19838
5.18421
5.16785
5.14933
5.12871
5.10603
5.08134
5.05471
5.02619
4.99584
4.96373
4.92993
4.89453
4.85758
4.81919
4.77943
4.73839
4.69616
4.65283
4.60848
4.56321
4.5171
4.47024
4.42273
4.37464
4.32605
4.27706
4.22775
4.17818
4.12845
4.07864
4.02882
3.97909
3.92952
3.88021
3.83126
3.78279
3.73492
3.68779
3.64157
3.59644
3.55253
3.51
3.46831
3.42678
0.0344888
0.0734843
0.0933847
0.107542
0.119223
0.129585
0.139184
0.148348
0.157291
0.166167
0.175088
0.184141
0.193394
0.202896
0.212691
0.222815
0.233301
0.24418
0.255479
0.267226
0.279445
0.292164
0.305408
0.319206
0.333587
0.348581
0.364219
0.380533
0.397555
0.415321
0.433867
0.453224
0.473422
0.494495
0.516475
0.539399
0.563306
0.588225
0.61418
0.641194
0.669281
0.698513
0.728931
0.760573
0.793475
0.827671
0.8632
0.900102
0.938396
0.978103
1.01925
1.06184
1.1059
1.15145
1.19849
1.24703
1.29707
1.34863
1.4017
1.45626
1.51232
1.56985
1.62883
1.68925
1.75106
1.81424
1.87875
1.94454
2.01157
2.07978
2.14912
2.21954
2.29097
2.36333
2.43657
2.51062
2.58538
2.66079
2.73677
2.81324
2.8901
2.96727
3.04466
3.12219
3.19975
3.27727
3.35463
3.43176
3.50855
3.58491
3.66074
3.73595
3.81044
3.88411
3.95689
4.02866
4.09934
4.16885
4.23709
4.30397
4.36943
4.43337
4.49572
4.5564
4.61535
4.67249
4.72775
4.78108
4.83241
4.88168
4.92886
4.97387
5.01669
5.05725
5.09553
5.13149
5.16508
5.19629
5.22509
5.25144
5.27534
5.29677
5.31571
5.33216
5.34611
5.35757
5.36654
5.37301
5.37701
5.37856
5.37779
5.37457
5.36868
5.36042
5.34982
5.33694
5.32179
5.30443
5.2849
5.26323
5.23948
5.21369
5.18592
5.15622
5.12466
5.09131
5.05623
5.01949
4.98118
4.94137
4.90016
4.85762
4.81385
4.76893
4.72296
4.67602
4.62821
4.57961
4.53031
4.4804
4.42996
4.37909
4.32786
4.27636
4.22467
4.17289
4.12109
4.06936
4.01781
3.96651
3.91558
3.86514
3.81532
3.76625
3.7181
3.67103
3.62519
3.58073
3.53718
3.49415
0.0342493
0.0731087
0.0928164
0.106819
0.11835
0.128558
0.137998
0.147
0.155776
0.16448
0.173223
0.182091
0.191151
0.200457
0.210054
0.219985
0.230282
0.240976
0.252095
0.263669
0.275728
0.288303
0.301426
0.315132
0.329454
0.344429
0.360094
0.376486
0.393647
0.411617
0.430443
0.450182
0.470857
0.492506
0.515165
0.538869
0.563633
0.58948
0.616492
0.644736
0.674274
0.705138
0.737364
0.770989
0.806048
0.842572
0.880586
0.920104
0.961159
1.00378
1.04799
1.09379
1.14119
1.19018
1.24075
1.29292
1.34666
1.40196
1.45882
1.5172
1.57708
1.63843
1.70121
1.76539
1.83093
1.89777
1.96586
2.03516
2.1056
2.17712
2.24967
2.32317
2.39756
2.47277
2.54872
2.62534
2.70254
2.78026
2.8584
2.9369
3.01565
3.09458
3.1736
3.25261
3.33154
3.41029
3.48877
3.56689
3.64456
3.72167
3.79816
3.87391
3.94885
4.02287
4.09589
4.16782
4.23857
4.30806
4.3762
4.44291
4.50811
4.57173
4.63369
4.69392
4.75236
4.80893
4.86357
4.91621
4.96681
5.01532
5.06169
5.10586
5.1478
5.18746
5.22481
5.2598
5.29242
5.32263
5.35042
5.37575
5.39861
5.419
5.43689
5.45229
5.46519
5.47559
5.48351
5.48895
5.49194
5.49248
5.49085
5.48654
5.47967
5.47046
5.45893
5.44512
5.42907
5.4108
5.39037
5.3678
5.34315
5.31645
5.28776
5.25713
5.22462
5.1903
5.15422
5.11646
5.0771
5.03622
4.9939
4.95023
4.90529
4.85916
4.81195
4.76373
4.7146
4.66465
4.61396
4.56262
4.51073
4.45836
4.40561
4.35257
4.29931
4.24593
4.19252
4.13918
4.08599
4.03306
3.9805
3.92843
3.87697
3.82628
3.7765
3.72779
3.6803
3.6342
3.58904
3.54481
0.0337686
0.0723246
0.0917318
0.105501
0.116811
0.126805
0.136038
0.144837
0.153416
0.161927
0.170482
0.179166
0.188048
0.197184
0.206621
0.2164
0.226561
0.237136
0.24816
0.25967
0.271704
0.2843
0.297496
0.311336
0.325867
0.341146
0.357217
0.374119
0.391899
0.410604
0.430269
0.4509
0.472567
0.495352
0.51932
0.544531
0.571055
0.598954
0.628268
0.659049
0.691349
0.725203
0.760641
0.797691
0.836379
0.876718
0.918718
0.962384
1.00772
1.05473
1.10339
1.15367
1.20556
1.25905
1.31413
1.37076
1.42891
1.48856
1.54966
1.61217
1.67605
1.74126
1.80774
1.87543
1.9443
2.01429
2.08532
2.15736
2.23033
2.30417
2.37882
2.45422
2.5303