/*--------------------------------*- C++ -*----------------------------------*\
  =========                 |
  \\      /  F ield         | OpenFOAM: The Open Source CFD Toolbox
   \\    /   O peration     | Website:  https://openfoam.org
    \\  /    A nd           | Version:  8
     \\/     M anipulation  |
\*---------------------------------------------------------------------------*/
FoamFile
{
    version     2.0;
    format      ascii;
    class       volScalarField;
    location    "260";
    object      nut;
}
// * * * * * * * * * * * * * * * * * * * * * * * * * * * * * * * * * * * * * //

dimensions      [0 2 -1 0 0 0 0];

internalField   nonuniform List<scalar> 
12225
(
4.14926e-05
3.93403e-05
3.74836e-05
3.5432e-05
3.37851e-05
3.24194e-05
3.15113e-05
3.0911e-05
3.09184e-05
3.10889e-05
3.15766e-05
3.20839e-05
3.31556e-05
3.38349e-05
3.506e-05
3.58137e-05
3.68926e-05
3.86209e-05
0.000332206
0.000215183
0.000179268
0.000157681
0.000146207
0.000138212
0.000132756
0.000131635
0.000129526
0.000130046
0.000129064
0.000129421
0.000128673
0.000128546
0.000128086
0.000127403
0.000127464
0.000125973
0.000668665
0.000450672
0.000355751
0.00030984
0.000275281
0.000251102
0.000231714
0.000217276
0.000202695
0.000192115
0.000182637
0.000175208
0.000169386
0.000163697
0.000160301
0.0001556
0.000153842
0.000149813
0.000801683
0.000691667
0.000572548
0.00050006
0.000449382
0.000411984
0.000380787
0.000356001
0.000334021
0.000314782
0.000298393
0.000281636
0.000270358
0.000256093
0.000248241
0.000236167
0.00023061
0.00022043
0.000839623
0.000810189
0.000740704
0.000676413
0.000623935
0.000581382
0.000545879
0.000514557
0.00048953
0.000464435
0.000445884
0.000424078
0.00040996
0.000390834
0.000379943
0.000363074
0.000354885
0.000339446
0.000850344
0.000843277
0.000819553
0.000786525
0.000750777
0.000715881
0.000685763
0.000656133
0.000632556
0.000607526
0.00058901
0.000567264
0.000552304
0.000533128
0.000520838
0.000503711
0.000493768
0.000477411
0.000851579
0.000851018
0.0008433
0.000833475
0.000817115
0.000796949
0.000777874
0.000756738
0.000738905
0.000719154
0.000703542
0.000685636
0.000672141
0.000655948
0.000644355
0.000629511
0.000619931
0.000605077
0.000851581
0.000851815
0.000850038
0.000847461
0.000841402
0.000833751
0.000824824
0.000813436
0.000802813
0.000790476
0.000779721
0.00076755
0.000757439
0.0007458
0.000736579
0.000725498
0.00071754
0.000705942
0.000851673
0.00085153
0.000851015
0.000850343
0.000848875
0.00084617
0.000843027
0.000838306
0.000833404
0.000827364
0.000821222
0.000814775
0.00080844
0.000801515
0.000795312
0.000788346
0.000782553
0.00077499
0.000851754
0.000851386
0.000851043
0.000850633
0.000850247
0.000849368
0.000848404
0.000846781
0.000844956
0.000842531
0.000839926
0.000836802
0.0008338
0.000830157
0.000826984
0.000822929
0.00081994
0.000815309
0.000851784
0.000851358
0.000851012
0.000850613
0.000850329
0.000849905
0.000849526
0.000848929
0.000848303
0.000847394
0.000846466
0.000845178
0.000843992
0.000842355
0.000841
0.000839037
0.000837648
0.000835371
0.000851788
0.000851359
0.000850995
0.000850605
0.000850292
0.000849938
0.000849646
0.00084928
0.000848955
0.000848505
0.000848099
0.000847508
0.000846998
0.000846245
0.000845643
0.000844723
0.000844061
0.00084298
0.000851786
0.000851363
0.000850985
0.000850604
0.000850269
0.000849926
0.00084963
0.000849313
0.000849042
0.000848729
0.000848462
0.000848126
0.000847844
0.000847466
0.000847157
0.000846727
0.000846388
0.000845903
0.000851783
0.000851364
0.000850978
0.000850602
0.000850256
0.000849916
0.000849607
0.0008493
0.000849022
0.00084874
0.000848488
0.000848224
0.000847989
0.000847735
0.000847508
0.000847258
0.000847033
0.000846783
0.000851781
0.000851364
0.000850973
0.000850598
0.000850246
0.000849908
0.000849591
0.000849286
0.000849
0.000848723
0.000848463
0.000848211
0.000847975
0.000847744
0.000847527
0.000847315
0.000847114
0.000846918
0.00085178
0.000851363
0.000850969
0.000850594
0.000850239
0.000849901
0.00084958
0.000849274
0.000848984
0.000848707
0.000848443
0.000848191
0.000847951
0.000847721
0.000847502
0.000847292
0.000847092
0.0008469
0.000851779
0.000851362
0.000850967
0.000850591
0.000850234
0.000849894
0.000849572
0.000849265
0.000848973
0.000848694
0.000848428
0.000848174
0.000847932
0.000847701
0.00084748
0.000847268
0.000847066
0.000846873
0.000851779
0.000851362
0.000850965
0.000850588
0.000850231
0.00084989
0.000849567
0.000849258
0.000848965
0.000848685
0.000848418
0.000848163
0.000847919
0.000847686
0.000847464
0.000847251
0.000847047
0.000846853
0.000851779
0.000851362
0.000850965
0.000850588
0.00085023
0.000849889
0.000849565
0.000849256
0.000848962
0.000848681
0.000848413
0.000848157
0.000847913
0.000847679
0.000847456
0.000847242
0.000847038
0.000846842
0.000851779
0.000851362
0.000850965
0.000850589
0.000850231
0.000849891
0.000849567
0.000849259
0.000848965
0.000848685
0.000848417
0.000848161
0.000847916
0.000847683
0.000847459
0.000847245
0.00084704
0.000846843
0.000851779
0.000851363
0.000850967
0.000850592
0.000850235
0.000849896
0.000849573
0.000849266
0.000848972
0.000848693
0.000848423
0.000848168
0.000847919
0.000847682
0.00084745
0.00084723
0.000847011
0.000846805
0.000851778
0.000851366
0.000850968
0.000850599
0.00085024
0.000849907
0.00084958
0.000849274
0.000848964
0.000848671
0.000848364
0.000848071
0.000847755
0.000847455
0.000847122
0.00084681
0.000846456
0.000846134
0.000851773
0.000851376
0.000850971
0.000850615
0.00085024
0.000849889
0.000849478
0.000849053
0.000848529
0.000847978
0.0008473
0.000846604
0.000845766
0.000844938
0.000843953
0.000843027
0.000841916
0.000840937
0.000851767
0.000851415
0.000850964
0.000850548
0.000849861
0.000848966
0.00084761
0.000845975
0.000843904
0.000841635
0.000838953
0.000836213
0.000833114
0.000830111
0.00082676
0.000823676
0.00082018
0.000817173
0.000851859
0.00085138
0.000850195
0.000848243
0.000844469
0.000839353
0.000832764
0.000825657
0.00081796
0.000810009
0.000801615
0.000793624
0.000785327
0.000777702
0.000769738
0.000762694
0.000755116
0.000748787
0.000852108
0.000847667
0.000839902
0.000827146
0.000808707
0.000789645
0.000769973
0.00075141
0.000733301
0.000716891
0.000700929
0.000686774
0.000672823
0.000660663
0.00064837
0.000637932
0.000626944
0.00061801
0.000843241
0.000822506
0.000775184
0.000726458
0.000684894
0.000649849
0.000618458
0.000592016
0.000568377
0.000548307
0.000529683
0.000513984
0.000498744
0.000486009
0.000473193
0.000462699
0.000451613
0.000442795
0.000795685
0.000668241
0.000570625
0.000509903
0.000465603
0.000431181
0.000404143
0.000382478
0.000364196
0.000349065
0.000335937
0.000325057
0.000314501
0.000306231
0.000297954
0.000291361
0.000284274
0.000278925
0.000501314
0.000348357
0.000292673
0.00025918
0.000236321
0.000221176
0.00021162
0.000203853
0.000198563
0.000195074
0.00019222
0.000190367
0.000188582
0.000187437
0.000186165
0.000185471
0.000184554
0.000184142
7.27385e-05
7.02256e-05
6.79542e-05
6.56138e-05
6.33828e-05
6.12762e-05
5.94944e-05
5.79552e-05
5.67109e-05
5.57033e-05
5.49776e-05
5.44182e-05
5.41097e-05
5.38814e-05
5.38978e-05
5.39331e-05
5.40918e-05
5.43245e-05
2.03426e-07
5.27801e-06
9.75369e-06
1.37429e-05
1.76872e-05
2.21221e-05
2.72337e-05
3.32024e-05
4.00845e-05
4.77823e-05
5.61309e-05
6.4933e-05
7.4026e-05
8.3263e-05
9.25349e-05
0.000101731
0.000110747
0.000119445
0.000127672
0.000135218
0.000141872
0.000147378
0.000151543
0.000154191
0.000155321
0.000155096
0.000153514
0.000151335
0.000149029
0.000150891
0.000159212
0.000169781
0.000177426
0.000187481
0.000194851
0.000192236
3.97189e-05
4.22607e-05
4.3964e-05
4.95592e-05
0.000226647
4.63281e-05
4.93736e-05
5.00659e-05
5.12664e-05
5.23543e-05
5.34847e-05
5.45927e-05
5.57098e-05
5.6818e-05
5.79261e-05
5.90297e-05
6.01308e-05
6.12284e-05
6.2323e-05
6.34143e-05
6.45024e-05
6.55873e-05
6.66686e-05
6.77465e-05
6.88205e-05
6.98907e-05
7.09565e-05
7.2018e-05
7.30745e-05
7.41261e-05
7.51719e-05
7.62121e-05
7.72456e-05
7.82727e-05
7.92921e-05
8.03042e-05
8.13076e-05
8.23026e-05
8.3288e-05
8.42639e-05
8.5229e-05
8.61835e-05
8.71262e-05
8.80572e-05
8.89751e-05
8.98802e-05
9.07711e-05
9.1648e-05
9.25094e-05
9.33555e-05
9.41848e-05
9.49973e-05
9.57917e-05
9.65675e-05
9.73237e-05
9.80591e-05
9.87724e-05
9.94626e-05
0.000100129
0.00010077
0.000101389
0.000101989
0.000102569
0.000103126
0.000103661
0.000104173
0.000104663
0.000105131
0.000105575
0.000105995
0.000106391
0.000106763
0.00010711
0.000107432
0.000107729
0.000108001
0.000108247
0.000108468
0.000108662
0.00010883
0.000108971
0.000109086
0.000109175
0.000109236
0.000109271
0.000109279
0.00010926
0.000109214
0.000109142
0.000109043
0.000108919
0.000108768
0.000108591
0.000108386
0.000108149
0.000107891
0.000107616
0.000107313
0.000106984
0.000106632
0.000106257
0.00010586
0.00010544
0.000104999
0.000104537
0.000104054
0.000103552
0.000103031
0.000102492
0.000101935
0.000101363
0.000100774
0.000100171
9.95547e-05
9.89252e-05
9.8284e-05
9.76318e-05
9.69698e-05
9.62988e-05
9.56201e-05
9.49343e-05
9.42427e-05
9.3546e-05
9.28458e-05
9.21435e-05
9.14441e-05
9.0776e-05
9.02984e-05
8.98985e-05
8.95042e-05
8.91114e-05
8.87201e-05
8.83301e-05
8.79421e-05
8.75556e-05
8.71709e-05
8.67872e-05
8.64036e-05
8.6017e-05
8.56222e-05
8.52091e-05
8.47488e-05
8.41683e-05
8.23646e-05
1.02692e-06
2.66364e-05
5.96201e-05
8.24252e-05
9.69502e-05
0.000106929
0.000115198
0.000123321
0.000132015
0.000141475
0.000151627
0.000162278
0.000173214
0.000184238
0.000195176
0.000205867
0.00021615
0.000225844
0.000234739
0.000242592
0.00024914
0.00025411
0.000257268
0.000258456
0.000257672
0.000254043
0.000247869
0.000239594
0.00022985
0.000221426
0.000227426
0.000234135
0.000221562
0.000233152
0.000233656
0.000220779
0.000204283
0.000215444
0.00023316
0.000257123
0.000289267
0.00026107
0.0002718
0.000278048
0.000285403
0.000293056
0.000300838
0.000308828
0.000316909
0.000325104
0.000333383
0.00034175
0.000350195
0.000358719
0.000367322
0.000376004
0.000384765
0.000393608
0.000402532
0.000411539
0.00042063
0.000429805
0.000439065
0.00044841
0.00045784
0.000467353
0.00047695
0.000486628
0.000496385
0.000506219
0.000516127
0.000526106
0.000536153
0.000546262
0.00055643
0.000566651
0.000576922
0.000587236
0.000597589
0.000607974
0.000618386
0.00062882
0.000639268
0.000649727
0.000660189
0.00067065
0.000681103
0.000691544
0.000701968
0.00071237
0.000722742
0.000733073
0.000743346
0.000753529
0.00076357
0.000773377
0.00078279
0.000791543
0.000800017
0.000808386
0.000816622
0.000824727
0.000832696
0.00084052
0.000848195
0.000855713
0.00086307
0.000870258
0.000877272
0.000884106
0.000890754
0.000897211
0.00090347
0.000909527
0.000915375
0.00092101
0.000926426
0.000931619
0.000936584
0.000941315
0.000945809
0.000950061
0.000954068
0.000957826
0.000961335
0.000964593
0.000967604
0.000970376
0.000972936
0.000975259
0.000977072
0.000978616
0.000980129
0.000981371
0.000982309
0.00098299
0.000983419
0.000983601
0.00098354
0.00098324
0.000982705
0.000981941
0.000980953
0.000979747
0.00097833
0.000976708
0.000974889
0.000972881
0.000970692
0.000968331
0.000965806
0.000963128
0.000960305
0.000957347
0.000954263
0.000951064
0.000947757
0.000944352
0.000940854
0.000937267
0.000933586
0.000929767
0.000925576
0.000919987
0.000913079
0.000905792
0.000898382
0.000890921
0.000883431
0.000875921
0.000868396
0.000860853
0.000853286
0.000845682
0.000838005
0.000830207
0.000822134
0.000813525
0.000802842
0.00077376
2.17651e-06
4.43007e-05
9.52219e-05
0.000133771
0.000161602
0.00018178
0.00019717
0.000209987
0.000221707
0.000233175
0.000244771
0.000256589
0.000268567
0.000280577
0.000292469
0.000304085
0.00031526
0.000325813
0.000335544
0.000344227
0.00035163
0.000357534
0.000361774
0.000364275
0.000365088
0.000365377
0.000365777
0.000367335
0.000371416
0.000378005
0.000389054
0.000399225
0.000407217
0.000418366
0.00042581
0.000431421
0.000439953
0.000458993
0.000480429
0.000501643
0.000519114
0.000526666
0.000542927
0.00055831
0.000574107
0.000590142
0.000606363
0.000622778
0.000639348
0.000656074
0.000672943
0.000689955
0.000707107
0.000724399
0.000741834
0.000759412
0.000777135
0.000795004
0.00081302
0.000831184
0.000849496
0.000867956
0.000886561
0.000905311
0.000924201
0.000943231
0.000962398
0.000981698
0.00100112
0.00102067
0.00104033
0.0010601
0.00107997
0.00109993
0.00111997
0.00114008
0.00116025
0.00118046
0.00120072
0.00122101
0.00124131
0.00126161
0.00128191
0.00130219
0.00132243
0.00134263
0.00136276
0.00138282
0.00140279
0.00142265
0.00144238
0.00146195
0.00148132
0.00150046
0.00151928
0.00153771
0.00155568
0.00157318
0.00159038
0.00160734
0.00162403
0.00164043
0.00165655
0.00167236
0.00168785
0.00170301
0.00171783
0.00173229
0.00174639
0.0017601
0.00177343
0.00178635
0.00179886
0.00181094
0.00182259
0.00183379
0.00184454
0.00185483
0.00186464
0.00187396
0.0018828
0.00189113
0.00189896
0.00190628
0.00191308
0.00191937
0.00192514
0.0019304
0.00193522
0.00193963
0.00194303
0.00194584
0.00194849
0.00195059
0.00195211
0.0019531
0.00195357
0.00195354
0.001953
0.00195198
0.00195047
0.00194849
0.00194606
0.00194317
0.00193986
0.00193612
0.00193198
0.00192744
0.00192254
0.00191728
0.00191169
0.00190578
0.00189957
0.00189308
0.00188632
0.00187933
0.00187212
0.0018647
0.00185708
0.00184928
0.00184129
0.00183304
0.00182426
0.00181413
0.00180267
0.00179058
0.00177818
0.00176562
0.00175296
0.00174021
0.00172739
0.00171451
0.00170156
0.00168851
0.00167529
0.0016618
0.00164777
0.00163245
0.00161307
0.0015696
3.48052e-06
5.77202e-05
0.000122429
0.000172811
0.000209925
0.000237448
0.000258584
0.000275797
0.000290831
0.000304807
0.000318356
0.000331772
0.000345141
0.000358434
0.000371569
0.000384442
0.00039694
0.000408942
0.000420319
0.000430936
0.00044067
0.000449435
0.000457234
0.000464217
0.000470764
0.000477557
0.000485344
0.000494895
0.000507133
0.000522446
0.000539883
0.000557696
0.000575439
0.000593415
0.000610885
0.000627803
0.00064682
0.000668774
0.000691544
0.000714045
0.000735347
0.000755997
0.000778322
0.000800783
0.00082346
0.000846336
0.000869405
0.000892667
0.000916117
0.000939753
0.000963574
0.000987579
0.00101177
0.00103614
0.00106071
0.00108547
0.00111042
0.00113557
0.00116092
0.00118646
0.00121219
0.00123812
0.00126424
0.00129054
0.00131702
0.00134368
0.00137051
0.00139751
0.00142465
0.00145194
0.00147937
0.00150692
0.00153457
0.00156233
0.00159017
0.00161809
0.00164606
0.00167407
0.0017021
0.00173014
0.00175818
0.00178619
0.00181416
0.00184207
0.0018699
0.00189762
0.00192523
0.0019527
0.00198001
0.00200712
0.00203402
0.00206066
0.00208701
0.00211302
0.00213865
0.00216384
0.00218856
0.00221286
0.00223679
0.00226037
0.00228357
0.00230638
0.00232878
0.00235075
0.00237227
0.00239334
0.00241392
0.00243401
0.00245359
0.00247264
0.00249115
0.00250911
0.00252649
0.00254328
0.00255948
0.00257505
0.00259001
0.00260432
0.00261797
0.00263096
0.00264328
0.00265491
0.00266584
0.00267608
0.0026856
0.00269441
0.00270252
0.00270991
0.00271678
0.00272289
0.00272782
0.00273192
0.00273573
0.00273873
0.00274098
0.0027425
0.0027433
0.00274339
0.00274278
0.0027415
0.00273954
0.00273693
0.00273367
0.00272979
0.00272531
0.00272023
0.00271458
0.00270839
0.00270167
0.00269445
0.00268675
0.0026786
0.00267003
0.00266105
0.0026517
0.00264201
0.00263199
0.00262167
0.00261107
0.0026002
0.00258906
0.00257759
0.00256559
0.00255256
0.00253845
0.00252366
0.00250846
0.002493
0.00247736
0.00246159
0.0024457
0.00242971
0.00241362
0.00239741
0.00238103
0.0023644
0.00234714
0.00232827
0.0023045
0.00225887
4.7818e-06
6.90385e-05
0.000145229
0.000205373
0.000250614
0.0002846
0.000310826
0.000331997
0.000350082
0.000366418
0.000381842
0.000396826
0.0004116
0.000426248
0.000440777
0.000455159
0.000469357
0.000483329
0.000497038
0.000510445
0.000523527
0.000536287
0.000548793
0.000561211
0.000573856
0.000587208
0.00060186
0.000618454
0.000637205
0.00065781
0.000680017
0.000703172
0.000726424
0.000749548
0.000772221
0.000795635
0.00082016
0.000845901
0.000872406
0.00089925
0.000926283
0.000953227
0.000980673
0.00100838
0.0010363
0.00106444
0.00109279
0.00112135
0.00115013
0.00117912
0.00120833
0.00123776
0.0012674
0.00129725
0.00132733
0.00135762
0.00138815
0.0014189
0.00144988
0.00148108
0.00151251
0.00154415
0.001576
0.00160805
0.0016403
0.00167274
0.00170537
0.00173816
0.00177111
0.00180421
0.00183744
0.00187079
0.00190424
0.00193778
0.00197139
0.00200506
0.00203876
0.00207247
0.00210619
0.00213988
0.00217353
0.00220711
0.00224062
0.00227401
0.00230728
0.0023404
0.00237335
0.00240609
0.00243861
0.00247087
0.00250285
0.00253452
0.00256584
0.00259679
0.00262732
0.00265744
0.00268714
0.00271639
0.00274523
0.00277363
0.00280158
0.00282907
0.00285606
0.00288255
0.0029085
0.00293391
0.00295875
0.002983
0.00300665
0.00302968
0.00305207
0.0030738
0.00309486
0.00311522
0.00313488
0.00315382
0.00317202
0.00318947
0.00320615
0.00322205
0.00323716
0.00325146
0.00326495
0.00327761
0.00328943
0.00330043
0.00331058
0.00331993
0.00332869
0.00333636
0.00334283
0.00334839
0.00335344
0.00335756
0.0033608
0.00336316
0.00336467
0.00336534
0.00336518
0.00336419
0.00336241
0.00335983
0.00335648
0.00335237
0.00334753
0.00334197
0.00333573
0.00332881
0.00332126
0.00331308
0.00330433
0.00329501
0.00328517
0.00327483
0.00326402
0.00325278
0.00324113
0.00322911
0.00321672
0.00320401
0.00319096
0.00317754
0.00316362
0.00314894
0.00313343
0.00311728
0.00310069
0.00308379
0.00306665
0.00304933
0.00303186
0.00301427
0.00299655
0.00297871
0.00296066
0.00294235
0.00292342
0.00290288
0.00287749
0.00283475
6.01851e-06
7.85396e-05
0.000164366
0.000232928
0.000285427
0.000325319
0.000356285
0.000381213
0.000402253
0.000420924
0.000438244
0.000454845
0.000471096
0.000487196
0.000503244
0.00051929
0.000535367
0.000551502
0.000567725
0.000584069
0.000600574
0.000617288
0.000634285
0.000651683
0.000669658
0.000688458
0.000708379
0.000729712
0.00075262
0.000777048
0.000802651
0.000828938
0.000855896
0.000883213
0.000910805
0.000938902
0.000967679
0.000997186
0.00102732
0.0010579
0.00108881
0.00111999
0.0011515
0.00118328
0.00121529
0.00124754
0.00128001
0.00131271
0.00134563
0.00137879
0.00141217
0.00144579
0.00147965
0.00151376
0.0015481
0.00158268
0.00161748
0.00165251
0.00168777
0.00172324
0.00175893
0.00179483
0.00183093
0.00186723
0.00190371
0.00194038
0.00197721
0.00201419
0.00205132
0.00208858
0.00212596
0.00216343
0.00220099
0.00223861
0.00227629
0.00231399
0.00235171
0.00238942
0.0024271
0.00246474
0.00250231
0.00253979
0.00257715
0.00261439
0.00265146
0.00268835
0.00272504
0.0027615
0.0027977
0.00283361
0.00286922
0.00290449
0.0029394
0.00297392
0.00300803
0.00304171
0.00307496
0.00310775
0.00314008
0.00317194
0.0032033
0.00323415
0.00326446
0.00329421
0.00332339
0.00335196
0.00337992
0.00340724
0.00343391
0.00345989
0.00348518
0.00350976
0.00353361
0.0035567
0.00357903
0.00360057
0.00362132
0.00364124
0.00366033
0.00367858
0.00369596
0.00371247
0.00372809
0.00374281
0.00375662
0.00376952
0.00378149
0.0037927
0.00380311
0.00381233
0.00382033
0.00382741
0.00383377
0.00383914
0.00384354
0.00384697
0.00384947
0.00385102
0.00385165
0.00385137
0.00385019
0.00384813
0.0038452
0.00384142
0.00383682
0.0038314
0.00382521
0.00381825
0.00381057
0.00380218
0.00379312
0.00378342
0.00377312
0.00376224
0.00375082
0.00373888
0.00372647
0.00371362
0.00370035
0.00368669
0.00367264
0.0036582
0.00364329
0.00362777
0.00361161
0.00359488
0.0035777
0.00356019
0.0035424
0.00352441
0.00350625
0.00348796
0.00346954
0.00345101
0.00343234
0.00341346
0.00339407
0.00337326
0.00334817
0.00331
7.14792e-06
8.63849e-05
0.000180242
0.000256106
0.000315129
0.000360492
0.000395964
0.000424556
0.000448553
0.000469622
0.000488928
0.00050725
0.000525083
0.000542732
0.000560383
0.000578156
0.000596136
0.000614396
0.000633004
0.000652029
0.000671536
0.000691589
0.000712254
0.000733601
0.000755718
0.00077871
0.000802691
0.000827771
0.000854007
0.000881369
0.000909722
0.000938898
0.000968782
0.000999242
0.00103021
0.0010617
0.00109375
0.00112636
0.00115949
0.00119305
0.00122699
0.00126125
0.00129582
0.00133066
0.00136574
0.00140107
0.00143663
0.00147242
0.00150843
0.00154467
0.00158114
0.00161785
0.00165478
0.00169194
0.00172933
0.00176694
0.00180478
0.00184283
0.00188109
0.00191956
0.00195823
0.0019971
0.00203616
0.0020754
0.00211482
0.00215439
0.00219412
0.00223399
0.00227399
0.0023141
0.00235432
0.00239461
0.00243498
0.00247539
0.00251584
0.00255631
0.00259678
0.00263722
0.00267762
0.00271796
0.00275822
0.00279837
0.0028384
0.00287828
0.00291799
0.0029575
0.0029968
0.00303585
0.00307464
0.00311313
0.0031513
0.00318914
0.00322661
0.00326369
0.00330037
0.00333662
0.00337242
0.00340776
0.00344263
0.00347701
0.00351086
0.00354419
0.00357695
0.00360914
0.00364072
0.00367168
0.00370201
0.00373166
0.00376064
0.00378891
0.00381646
0.00384327
0.00386932
0.00389459
0.00391906
0.00394271
0.00396554
0.00398751
0.00400861
0.00402884
0.00404816
0.00406657
0.00408406
0.0041006
0.0041162
0.00413084
0.00414451
0.00415746
0.00416937
0.00418017
0.0041897
0.00419833
0.00420607
0.00421278
0.00421846
0.00422313
0.00422679
0.00422945
0.00423112
0.00423181
0.00423154
0.00423032
0.00422816
0.00422509
0.00422112
0.00421627
0.00421056
0.00420404
0.00419671
0.00418861
0.00417977
0.00417022
0.00416
0.00414914
0.00413767
0.00412563
0.00411306
0.00409998
0.00408643
0.00407244
0.00405803
0.00404319
0.0040279
0.0040121
0.00399575
0.0039789
0.00396162
0.003944
0.0039261
0.00390797
0.00388966
0.00387122
0.00385267
0.00383404
0.00381533
0.00379651
0.00377735
0.00375705
0.00373324
0.00369963
8.14034e-06
9.27052e-05
0.000193145
0.000275299
0.000340158
0.000390584
0.000430354
0.00046254
0.000489516
0.000513061
0.000534459
0.000554608
0.000574117
0.000593386
0.000612677
0.000632168
0.000651985
0.000672232
0.000692994
0.000714346
0.000736359
0.000759092
0.000782598
0.000806921
0.000832104
0.000858191
0.00088521
0.000913177
0.000942092
0.000971924
0.00100261
0.00103408
0.00106625
0.00109904
0.00113241
0.00116631
0.00120071
0.00123561
0.00127096
0.00130674
0.00134287
0.00137932
0.00141607
0.0014531
0.00149038
0.00152788
0.00156561
0.00160356
0.00164172
0.0016801
0.00171869
0.00175748
0.00179649
0.00183571
0.00187514
0.00191476
0.00195459
0.00199462
0.00203484
0.00207525
0.00211584
0.00215661
0.00219755
0.00223866
0.00227993
0.00232134
0.0023629
0.00240458
0.00244637
0.00248827
0.00253026
0.00257233
0.00261446
0.00265663
0.00269884
0.00274106
0.00278328
0.00282547
0.00286763
0.00290972
0.00295174
0.00299365
0.00303544
0.00307709
0.00311858
0.00315987
0.00320096
0.00324181
0.0032824
0.00332272
0.00336272
0.0034024
0.00344173
0.00348069
0.00351925
0.00355739
0.0035951
0.00363235
0.00366913
0.00370542
0.00374118
0.00377641
0.00381108
0.00384517
0.00387865
0.0039115
0.00394371
0.00397525
0.0040061
0.00403624
0.00406565
0.00409431
0.0041222
0.0041493
0.00417559
0.00420106
0.00422568
0.00424943
0.00427231
0.00429429
0.00431536
0.0043355
0.00435469
0.00437293
0.00439019
0.00440647
0.0044218
0.00443637
0.00444976
0.00446212
0.00447323
0.00448342
0.00449262
0.00450074
0.00450781
0.00451381
0.00451877
0.00452269
0.00452558
0.00452744
0.00452829
0.00452814
0.004527
0.00452488
0.00452182
0.00451782
0.00451292
0.00450713
0.00450048
0.00449301
0.00448474
0.0044757
0.00446594
0.00445547
0.00444435
0.0044326
0.00442026
0.00440737
0.00439395
0.00438005
0.00436568
0.00435087
0.00433561
0.00431987
0.00430365
0.00428697
0.00426989
0.00425246
0.00423475
0.0042168
0.00419868
0.00418043
0.00416209
0.00414371
0.00412534
0.00410695
0.0040884
0.00406903
0.00404692
0.00401758
8.97818e-06
9.76235e-05
0.000203314
0.000290834
0.000360821
0.00041591
0.000459754
0.000495439
0.00052539
0.00055146
0.000575025
0.000597079
0.000618322
0.000639237
0.00066015
0.000681286
0.00070281
0.00072486
0.000747525
0.000770866
0.000794941
0.000819798
0.000845474
0.00087199
0.000899353
0.000927547
0.000956639
0.000986615
0.00101745
0.00104911
0.00108156
0.00111473
0.00114858
0.00118304
0.00121808
0.00125364
0.00128969
0.00132619
0.00136309
0.00140033
0.00143785
0.00147568
0.0015138
0.00155222
0.00159087
0.00162973
0.00166879
0.00170804
0.00174747
0.00178709
0.00182689
0.00186688
0.00190705
0.0019474
0.00198793
0.00202865
0.00206953
0.0021106
0.00215183
0.00219324
0.00223481
0.00227655
0.00231844
0.00236049
0.00240269
0.00244503
0.0024875
0.0025301
0.00257282
0.00261564
0.00265856
0.00270157
0.00274465
0.00278778
0.00283096
0.00287418
0.0029174
0.00296062
0.00300383
0.00304699
0.0030901
0.00313314
0.00317607
0.00321889
0.00326157
0.00330409
0.00334642
0.00338854
0.00343044
0.00347208
0.00351345
0.00355451
0.00359525
0.00363564
0.00367566
0.00371528
0.00375449
0.00379327
0.00383158
0.00386941
0.00390673
0.00394353
0.00397978
0.00401545
0.00405052
0.00408498
0.0041188
0.00415195
0.00418442
0.00421618
0.00424722
0.00427751
0.00430704
0.00433577
0.0043637
0.00439081
0.00441707
0.00444247
0.00446698
0.0044906
0.0045133
0.00453507
0.00455589
0.00457575
0.00459463
0.00461251
0.0046295
0.00464555
0.00466051
0.00467444
0.00468717
0.00469895
0.00470967
0.00471928
0.00472781
0.00473525
0.00474162
0.00474692
0.00475116
0.00475433
0.00475646
0.00475754
0.0047576
0.00475664
0.00475468
0.00475175
0.00474786
0.00474304
0.00473731
0.0047307
0.00472324
0.00471497
0.00470592
0.00469611
0.0046856
0.00467441
0.00466258
0.00465015
0.00463715
0.00462362
0.00460959
0.00459509
0.00458012
0.00456468
0.0045488
0.00453249
0.00451578
0.00449874
0.00448141
0.00446385
0.00444611
0.00442826
0.00441035
0.00439244
0.0043746
0.00435686
0.00433912
0.00432086
0.00430057
0.00427561
9.65286e-06
0.000101264
0.000210983
0.000303094
0.00037744
0.000436752
0.000484405
0.000523448
0.00055632
0.000584914
0.000610672
0.000634654
0.000657639
0.000680201
0.000702685
0.000725323
0.000748263
0.000771569
0.000795503
0.000820158
0.000845596
0.000871858
0.00089897
0.000926949
0.0009558
0.000985539
0.00101614
0.00104759
0.00107982
0.00111279
0.00114647
0.0011808
0.00121573
0.00125122
0.00128722
0.0013237
0.00136062
0.00139793
0.00143562
0.00147368
0.00151206
0.00155073
0.00158963
0.00162869
0.00166795
0.00170738
0.00174695
0.00178666
0.00182651
0.00186652
0.00190666
0.00194696
0.00198741
0.00202802
0.00206878
0.00210969
0.00215076
0.00219199
0.00223337
0.00227492
0.00231663
0.0023585
0.00240053
0.00244272
0.00248506
0.00252756
0.0025702
0.00261299
0.00265592
0.00269898
0.00274217
0.00278547
0.00282888
0.00287238
0.00291597
0.00295962
0.00300333
0.00304708
0.00309085
0.00313463
0.0031784
0.00322213
0.00326582
0.00330942
0.00335294
0.00339633
0.00343959
0.00348268
0.00352558
0.00356827
0.00361072
0.0036529
0.0036948
0.00373639
0.00377763
0.00381851
0.003859
0.00389909
0.00393873
0.00397791
0.00401661
0.00405479
0.00409245
0.00412954
0.00416606
0.00420196
0.00423724
0.00427187
0.00430583
0.00433909
0.00437164
0.00440345
0.00443451
0.00446478
0.00449426
0.00452292
0.00455074
0.00457771
0.0046038
0.004629
0.00465329
0.00467665
0.00469907
0.00472053
0.00474101
0.0047605
0.0047791
0.00479667
0.00481322
0.00482875
0.00484316
0.00485657
0.00486889
0.00488005
0.00489011
0.00489908
0.00490696
0.00491375
0.00491945
0.00492407
0.0049276
0.00493006
0.00493146
0.00493181
0.00493112
0.00492941
0.00492671
0.00492303
0.00491839
0.00491284
0.00490638
0.00489907
0.00489092
0.00488198
0.00487228
0.00486185
0.00485074
0.00483897
0.0048266
0.00481365
0.00480016
0.00478616
0.00477168
0.00475673
0.00474133
0.00472552
0.00470932
0.00469279
0.00467598
0.00465893
0.00464172
0.0046244
0.00460705
0.00458974
0.00457256
0.00455557
0.00453873
0.00452162
0.00450309
0.00448164
1.01642e-05
0.000103764
0.000216416
0.000312249
0.000390315
0.000453386
0.000504539
0.000546746
0.000582419
0.000613468
0.000641412
0.000667271
0.000691797
0.000715474
0.000738935
0.000762534
0.000786521
0.000811117
0.000836407
0.000862405
0.00088915
0.000916676
0.000945003
0.000974143
0.0010041
0.00103484
0.00106635
0.00109856
0.00113147
0.00116503
0.00119921
0.00123397
0.00126926
0.00130505
0.00134128
0.00137793
0.00141496
0.00145233
0.00149001
0.00152797
0.00156617
0.00160458
0.00164321
0.00168215
0.00172128
0.00176049
0.00179975
0.00183907
0.00187848
0.00191799
0.00195761
0.00199735
0.0020372
0.00207719
0.00211732
0.00215759
0.00219801
0.00223859
0.00227934
0.00232025
0.00236134
0.00240261
0.00244407
0.00248572
0.00252755
0.00256958
0.00261181
0.00265422
0.00269683
0.00273962
0.00278259
0.00282574
0.00286905
0.00291252
0.00295614
0.00299989
0.00304376
0.00308774
0.0031318
0.00317594
0.00322012
0.00326434
0.00330857
0.00335278
0.00339695
0.00344107
0.0034851
0.00352901
0.00357279
0.00361641
0.00365983
0.00370303
0.00374598
0.00378866
0.00383104
0.00387309
0.00391478
0.00395609
0.00399698
0.00403744
0.00407744
0.00411695
0.00415594
0.00419439
0.00423228
0.00426958
0.00430627
0.00434232
0.00437771
0.00441243
0.00444644
0.00447972
0.00451226
0.00454404
0.00457503
0.00460521
0.00463457
0.00466308
0.00469073
0.00471749
0.00474336
0.00476831
0.00479232
0.00481539
0.00483749
0.00485861
0.00487878
0.00489795
0.00491615
0.00493333
0.00494944
0.00496455
0.00497855
0.00499132
0.00500299
0.00501357
0.00502306
0.00503144
0.00503871
0.00504488
0.00504995
0.00505391
0.00505679
0.00505858
0.00505931
0.00505897
0.0050576
0.00505522
0.00505184
0.00504749
0.0050422
0.00503601
0.00502893
0.00502102
0.00501229
0.0050028
0.00499257
0.00498164
0.00497006
0.00495786
0.00494508
0.00493175
0.00491791
0.00490358
0.00488881
0.00487361
0.00485803
0.00484211
0.00482591
0.00480948
0.00479288
0.0047762
0.0047595
0.00474288
0.00472644
0.00471025
0.00469433
0.00467837
0.00466145
0.00464292
1.05197e-05
0.000105274
0.000219856
0.000318571
0.000399738
0.000466084
0.00052039
0.00056553
0.000603807
0.000637008
0.000666528
0.000693695
0.000719464
0.000744607
0.000769526
0.000794496
0.000819747
0.000845434
0.000871612
0.000898393
0.00092584
0.000953988
0.000982854
0.00101244
0.00104274
0.00107374
0.00110539
0.00113768
0.00117056
0.00120401
0.00123797
0.00127243
0.00130734
0.00134265
0.00137834
0.00141435
0.00145066
0.00148724
0.00152406
0.00156107
0.00159823
0.00163561
0.00167328
0.00171126
0.0017493
0.00178737
0.00182545
0.00186348
0.00190154
0.00193964
0.00197783
0.00201612
0.00205452
0.00209304
0.00213172
0.00217055