/*--------------------------------*- C++ -*----------------------------------*\
  =========                 |
  \\      /  F ield         | OpenFOAM: The Open Source CFD Toolbox
   \\    /   O peration     | Website:  https://openfoam.org
    \\  /    A nd           | Version:  8
     \\/     M anipulation  |
\*---------------------------------------------------------------------------*/
FoamFile
{
    version     2.0;
    format      ascii;
    class       volScalarField;
    location    "260";
    object      p;
}
// * * * * * * * * * * * * * * * * * * * * * * * * * * * * * * * * * * * * * //

dimensions      [0 2 -2 0 0 0 0];

internalField   nonuniform List<scalar> 
12225
(
-1.55704
-3.74565
-4.84574
-5.16651
-5.34795
-5.51722
-5.64904
-5.7446
-5.82174
-5.8898
-5.95065
-6.00663
-6.05788
-6.10626
-6.15227
-6.19211
-6.24192
-6.2231
-4.72047
-5.48896
-5.64948
-5.55736
-5.545
-5.61308
-5.69092
-5.75707
-5.8172
-5.87529
-5.93075
-5.98274
-6.03204
-6.07901
-6.12475
-6.16626
-6.21398
-6.25046
-5.12161
-5.10664
-5.23406
-5.31254
-5.4076
-5.52798
-5.63551
-5.72074
-5.79306
-5.85905
-5.91997
-5.97593
-6.02843
-6.07789
-6.1259
-6.17053
-6.22083
-6.26542
-4.99966
-4.94279
-5.18446
-5.34289
-5.44478
-5.55119
-5.64917
-5.72958
-5.79881
-5.8625
-5.92184
-5.97683
-6.02869
-6.07782
-6.12564
-6.17146
-6.22061
-6.26869
-4.98931
-5.01378
-5.24191
-5.38357
-5.46734
-5.55959
-5.65109
-5.72915
-5.79716
-5.85995
-5.91878
-5.97365
-6.02555
-6.07498
-6.12314
-6.17004
-6.21873
-6.26834
-5.04725
-5.09623
-5.27057
-5.39458
-5.47623
-5.56424
-5.65254
-5.72938
-5.79677
-5.859
-5.91743
-5.97216
-6.02399
-6.07352
-6.12176
-6.16903
-6.21716
-6.2663
-5.10756
-5.15184
-5.28708
-5.4035
-5.48737
-5.57168
-5.65584
-5.73078
-5.79724
-5.85872
-5.91656
-5.97096
-6.02258
-6.07202
-6.12012
-6.1673
-6.21468
-6.26249
-5.16106
-5.19873
-5.30875
-5.41713
-5.50024
-5.58
-5.65962
-5.73237
-5.79775
-5.85837
-5.91553
-5.96951
-6.02081
-6.07003
-6.11782
-6.1646
-6.21104
-6.25721
-5.21074
-5.2439
-5.33487
-5.4329
-5.51308
-5.58859
-5.66393
-5.73428
-5.79837
-5.858
-5.91435
-5.96777
-6.01864
-6.06746
-6.11474
-6.16086
-6.20619
-6.25065
-5.25773
-5.287
-5.36256
-5.44984
-5.52612
-5.59778
-5.66904
-5.73673
-5.79926
-5.85773
-5.91313
-5.96582
-6.01608
-6.06432
-6.11092
-6.15616
-6.20027
-6.24303
-5.30197
-5.32747
-5.3907
-5.46792
-5.53967
-5.60758
-5.67492
-5.73975
-5.8005
-5.85764
-5.91194
-5.96373
-6.01322
-6.06069
-6.10645
-6.15067
-6.19348
-6.23463
-5.3399
-5.36226
-5.41648
-5.48534
-5.55251
-5.61696
-5.68086
-5.74301
-5.80194
-5.85773
-5.9109
-5.96173
-6.01036
-6.05701
-6.10187
-6.14506
-6.18667
-6.2264
-5.37492
-5.39464
-5.44148
-5.50289
-5.56541
-5.62645
-5.6871
-5.74658
-5.80361
-5.85796
-5.90992
-5.95969
-6.00738
-6.0531
-6.097
-6.13913
-6.17954
-6.21797
-5.41158
-5.42878
-5.4688
-5.52282
-5.58015
-5.63733
-5.69447
-5.75097
-5.80574
-5.85834
-5.90882
-5.95729
-6.00379
-6.04837
-6.0911
-6.13199
-6.17107
-6.20812
-5.44863
-5.46342
-5.49741
-5.5445
-5.59637
-5.64934
-5.70278
-5.75607
-5.80827
-5.85881
-5.90754
-5.95445
-5.99952
-6.04272
-6.08408
-6.12358
-6.16123
-6.19686
-5.4841
-5.49673
-5.52565
-5.56659
-5.61313
-5.6618
-5.71149
-5.76148
-5.81091
-5.85915
-5.9059
-5.95102
-5.99444
-6.03608
-6.07592
-6.11391
-6.15007
-6.18428
-5.51509
-5.52595
-5.55089
-5.58681
-5.62864
-5.6733
-5.71947
-5.76631
-5.81299
-5.85886
-5.90351
-5.94673
-5.98837
-6.02835
-6.06658
-6.10304
-6.13772
-6.17055
-5.53721
-5.54686
-5.56909
-5.60152
-5.63991
-5.68146
-5.72481
-5.76904
-5.81336
-5.85709
-5.89979
-5.9412
-5.98114
-6.0195
-6.05619
-6.09118
-6.12447
-6.15602
-5.54361
-5.55275
-5.57394
-5.60504
-5.64206
-5.68224
-5.72418
-5.76699
-5.80989
-5.85223
-5.89356
-5.93361
-5.97222
-6.00927
-6.0447
-6.07849
-6.11063
-6.14115
-5.52716
-5.53692
-5.55949
-5.59251
-5.63144
-5.67303
-5.71587
-5.75925
-5.80245
-5.84484
-5.88599
-5.92569
-5.96383
-6.00033
-6.03515
-6.06831
-6.09981
-6.12971
-5.5001
-5.51088
-5.53612
-5.57308
-5.61577
-5.66018
-5.70515
-5.75024
-5.79471
-5.83789
-5.87947
-5.91938
-5.95755
-5.99395
-6.02859
-6.06149
-6.09271
-6.12233
-5.46474
-5.47654
-5.50586
-5.54938
-5.59758
-5.64546
-5.69315
-5.74073
-5.78713
-5.83155
-5.8739
-5.91428
-5.95271
-5.9892
-6.0238
-6.0566
-6.08766
-6.1171
-5.42409
-5.43597
-5.47039
-5.5236
-5.57906
-5.63091
-5.68168
-5.73198
-5.78035
-5.82607
-5.86933
-5.91034
-5.94917
-5.98586
-6.02053
-6.05331
-6.08432
-6.11369
-5.38031
-5.39127
-5.43301
-5.49737
-5.55947
-5.61604
-5.67154
-5.72527
-5.77538
-5.82205
-5.86601
-5.90753
-5.94664
-5.98343
-6.01812
-6.05087
-6.0818
-6.11107
-5.33333
-5.33882
-5.40145
-5.47959
-5.54145
-5.5996
-5.66062
-5.71885
-5.77123
-5.81914
-5.864
-5.90611
-5.94549
-5.98238
-6.01705
-6.04973
-6.08059
-6.10982
-5.28999
-5.25365
-5.36315
-5.47406
-5.53623
-5.59141
-5.6535
-5.71311
-5.7662
-5.81477
-5.86034
-5.90299
-5.94271
-5.97979
-6.01457
-6.04731
-6.07821
-6.10745
-5.3042
-5.14523
-5.27412
-5.42813
-5.51816
-5.58942
-5.65823
-5.71901
-5.77168
-5.81982
-5.86495
-5.90707
-5.94621
-5.98273
-6.01696
-6.04921
-6.0797
-6.10867
-5.42738
-5.24698
-5.26112
-5.33319
-5.42148
-5.5206
-5.61117
-5.68482
-5.74639
-5.80138
-5.85155
-5.89718
-5.93884
-5.97719
-6.01275
-6.04595
-6.07727
-6.10732
-5.13475
-5.72583
-5.81462
-5.69031
-5.63589
-5.66295
-5.70981
-5.75293
-5.79435
-5.83639
-5.87775
-5.91693
-5.95375
-5.98834
-6.02077
-6.05119
-6.07982
-6.10845
-2.14542
-3.90871
-4.91337
-5.21245
-5.36155
-5.50507
-5.61899
-5.69982
-5.76392
-5.82064
-5.87176
-5.91766
-5.9592
-5.99729
-6.03245
-6.06447
-6.0932
-6.11689
-6.9816
-6.98164
-6.98204
-6.98284
-6.98389
-6.98514
-6.98659
-6.98827
-6.99023
-6.9925
-6.99513
-6.99816
-7.00164
-7.0056
-7.01009
-7.01515
-7.02083
-7.02716
-7.0342
-7.04199
-7.05057
-7.05998
-7.07024
-7.08138
-7.09334
-7.10607
-7.11949
-7.13356
-7.14823
-7.16335
-7.17912
-7.19654
-7.21671
-7.23961
-7.26428
-7.2906
-7.31871
-7.34744
-7.37663
-7.40391
-7.42565
-7.44556
-7.46902
-7.49538
-7.52279
-7.55114
-7.58008
-7.60946
-7.63912
-7.66895
-7.69883
-7.72868
-7.75838
-7.78786
-7.817
-7.84571
-7.87389
-7.90143
-7.92822
-7.95414
-7.97907
-8.00288
-8.02543
-8.04659
-8.0662
-8.08412
-8.10019
-8.11424
-8.12609
-8.13558
-8.14252
-8.14673
-8.14801
-8.14619
-8.14105
-8.13241
-8.12006
-8.1038
-8.08343
-8.05876
-8.02956
-7.99567
-7.95686
-7.91296
-7.86378
-7.80914
-7.74884
-7.68271
-7.61059
-7.53233
-7.44779
-7.35684
-7.25935
-7.15525
-7.04456
-6.92736
-6.80355
-6.67256
-6.53413
-6.38845
-6.23562
-6.07566
-5.9086
-5.73448
-5.55332
-5.36519
-5.17015
-4.96831
-4.75978
-4.54468
-4.32316
-4.09539
-3.86154
-3.62182
-3.37644
-3.12564
-2.86966
-2.60876
-2.34324
-2.07337
-1.79945
-1.52182
-1.2408
-0.956718
-0.669932
-0.380784
-0.0896231
0.203205
0.497356
0.792475
1.08819
1.38414
1.68002
1.97549
2.27023
2.56392
2.85626
3.14696
3.43575
3.72236
4.00654
4.28806
4.56668
4.84222
5.11448
5.3833
5.64853
5.91003
6.16768
6.4214
6.6711
6.91671
7.15819
7.39549
7.6286
7.8575
8.08219
8.30269
8.519
8.73116
8.93919
9.14314
9.34311
9.53925
9.7314
9.91931
10.103
10.2827
10.4583
10.63
10.7977
10.9614
11.1211
11.277
11.4291
11.5777
11.724
11.869
12.0241
12.1847
-6.98033
-6.98065
-6.98121
-6.98192
-6.98259
-6.98319
-6.98389
-6.98481
-6.98607
-6.98771
-6.98976
-6.99225
-6.99521
-6.99864
-7.00259
-7.00709
-7.01216
-7.01786
-7.02421
-7.03124
-7.03899
-7.04747
-7.05666
-7.0665
-7.07694
-7.08789
-7.09934
-7.1114
-7.12435
-7.13893
-7.15601
-7.17546
-7.19591
-7.21633
-7.23686
-7.25737
-7.27761
-7.29885
-7.32059
-7.34423
-7.37442
-7.40939
-7.44215
-7.47184
-7.50111
-7.53035
-7.55971
-7.58921
-7.61885
-7.64857
-7.67829
-7.70794
-7.73745
-7.76672
-7.79568
-7.82422
-7.85224
-7.87965
-7.90634
-7.93218
-7.95707
-7.98087
-8.00345
-8.02468
-8.0444
-8.06247
-8.07873
-8.09301
-8.10515
-8.11496
-8.12228
-8.12691
-8.12867
-8.12736
-8.1228
-8.11478
-8.10311
-8.08758
-8.06799
-8.04415
-8.01586
-7.98291
-7.9451
-7.90227
-7.85421
-7.80074
-7.74169
-7.67688
-7.60614
-7.52934
-7.44633
-7.35698
-7.26116
-7.15873
-7.04957
-6.93346
-6.81021
-6.67998
-6.54291
-6.39886
-6.24774
-6.08955
-5.92429
-5.75196
-5.57262
-5.3863
-5.19308
-4.99306
-4.78632
-4.57301
-4.35327
-4.12724
-3.89512
-3.65708
-3.41336
-3.16416
-2.90974
-2.65036
-2.38629
-2.11781
-1.84523
-1.56887
-1.28904
-1.00608
-0.720333
-0.432149
-0.141875
0.150144
0.443568
0.73805
1.03321
1.32869
1.62418
1.91935
2.21386
2.50741
2.79969
3.09041
3.37928
3.66606
3.95047
4.23228
4.51127
4.78723
5.05997
5.32932
5.59513
5.85725
6.11557
6.37
6.62043
6.86681
7.10908
7.34719
7.58114
7.81089
8.03646
8.25785
8.47506
8.68813
8.89713
9.10206
9.30295
9.49958
9.6918
9.8798
10.0637
10.2435
10.4193
10.5911
10.7589
10.9229
11.0829
11.2392
11.3918
11.5413
11.6889
11.8355
11.9936
12.1487
-6.97623
-6.97725
-6.9787
-6.97991
-6.98065
-6.98113
-6.9816
-6.98225
-6.98322
-6.98457
-6.98635
-6.98859
-6.99131
-6.99454
-6.99828
-7.00259
-7.00747
-7.01296
-7.01909
-7.02587
-7.03333
-7.04146
-7.05029
-7.05978
-7.06995
-7.08085
-7.09263
-7.10552
-7.11977
-7.1356
-7.15318
-7.1724
-7.19283
-7.21402
-7.23565
-7.25731
-7.27882
-7.30058
-7.32262
-7.34556
-7.37117
-7.39925
-7.42789
-7.45636
-7.48499
-7.51376
-7.54268
-7.57172
-7.60086
-7.63006
-7.65925
-7.68838
-7.71736
-7.74614
-7.77461
-7.80269
-7.83029
-7.85731
-7.88364
-7.90917
-7.93378
-7.95735
-7.97974
-8.00083
-8.02045
-8.03848
-8.05474
-8.06908
-8.08133
-8.09131
-8.09885
-8.10377
-8.10588
-8.10498
-8.10089
-8.09341
-8.08234
-8.06748
-8.04864
-8.0256
-7.99818
-7.96618
-7.9294
-7.88764
-7.84073
-7.78849
-7.73072
-7.66726
-7.59795
-7.52263
-7.44116
-7.35341
-7.25925
-7.15855
-7.0512
-6.93701
-6.81581
-6.68761
-6.5525
-6.41043
-6.26136
-6.10525
-5.9421
-5.77191
-5.59473
-5.41059
-5.21956
-5.02172
-4.81718
-4.60606
-4.3885
-4.16464
-3.93466
-3.69875
-3.45712
-3.20998
-2.95758
-2.70016
-2.43801
-2.17139
-1.90061
-1.62598
-1.34781
-1.06644
-0.782203
-0.495448
-0.206523
0.0842297
0.376472
0.669856
0.964012
1.25859
1.55325
1.84769
2.14156
2.43455
2.72636
3.01669
3.30527
3.59183
3.8761
4.15785
4.43684
4.71288
4.98576
5.2553
5.52136
5.78379
6.04246
6.29727
6.54812
6.79494
7.03768
7.27629
7.51073
7.741
7.96707
8.18895
8.40664
8.62018
8.82957
9.03486
9.23611
9.43329
9.62634
9.81529
10.0001
10.1809
10.3576
10.5303
10.699
10.8638
11.0248
11.182
11.3359
11.4867
11.6363
11.7845
11.9449
12.088
-6.96964
-6.97149
-6.9743
-6.97656
-6.97797
-6.9789
-6.97968
-6.98051
-6.98153
-6.98287
-6.9846
-6.98676
-6.98939
-6.99251
-6.99615
-7.00034
-7.00509
-7.01044
-7.01641
-7.023
-7.03025
-7.03816
-7.04675
-7.05606
-7.06612
-7.07703
-7.08893
-7.10203
-7.11653
-7.13253
-7.15002
-7.1688
-7.18855
-7.20901
-7.22994
-7.25125
-7.27297
-7.29534
-7.31851
-7.34258
-7.36785
-7.39423
-7.42128
-7.44876
-7.4766
-7.50473
-7.53307
-7.56159
-7.59024
-7.61896
-7.6477
-7.67639
-7.70496
-7.73334
-7.76145
-7.7892
-7.8165
-7.84326
-7.86936
-7.89469
-7.91915
-7.9426
-7.96492
-7.98597
-8.00561
-8.02368
-8.04004
-8.05451
-8.06694
-8.07715
-8.08497
-8.09021
-8.09268
-8.0922
-8.08858
-8.08161
-8.0711
-8.05685
-8.03866
-8.01633
-7.98967
-7.95847
-7.92254
-7.88169
-7.83573
-7.78447
-7.72774
-7.66536
-7.59717
-7.523
-7.44273
-7.35619
-7.26327
-7.16382
-7.05773
-6.94486
-6.82512
-6.69846
-6.56489
-6.42438
-6.27688
-6.12236
-5.96082
-5.79227
-5.61673
-5.43424
-5.24487
-5.0487
-4.84583
-4.63637
-4.42045
-4.19823
-3.96988
-3.73557
-3.49552
-3.24993
-2.99905
-2.74312
-2.48241
-2.2172
-1.94777
-1.67444
-1.39751
-1.11733
-0.834231
-0.548548
-0.260632
0.0291752
0.32054
0.613104
0.906501
1.2004
1.49446
1.78835
2.08175
2.37433
2.6658
2.95586
3.24423
3.53064
3.81482
4.09654
4.37556
4.65168
4.92469
5.19441
5.46069
5.72338
5.98235
6.23748
6.48869
6.7359
6.97903
7.21805
7.45292
7.6836
7.91009
8.13239
8.35052
8.5645
8.77431
8.97999
9.18158
9.37912
9.57265
9.76213
9.94752
10.1288
10.3061
10.4793
10.6485
10.8139
10.9754
11.1332
11.2877
11.4392
11.5895
11.7373
11.8959
12.025
-6.96215
-6.96488
-6.96926
-6.97281
-6.97513
-6.97676
-6.97808
-6.97933
-6.98068
-6.98226
-6.98417
-6.98648
-6.98922
-6.99244
-6.99617
-7.00043
-7.00526
-7.01067
-7.0167
-7.02337
-7.03071
-7.03875
-7.04751
-7.05703
-7.06739
-7.07865
-7.09094
-7.1044
-7.11913
-7.13522
-7.15261
-7.17116
-7.19064
-7.2108
-7.23149
-7.25263
-7.27429
-7.29662
-7.31977
-7.34383
-7.36883
-7.39465
-7.42108
-7.44798
-7.47526
-7.50285
-7.53071
-7.55877
-7.58698
-7.61529
-7.64364
-7.67197
-7.70021
-7.72828
-7.75611
-7.78361
-7.81068
-7.83724
-7.86318
-7.88839
-7.91274
-7.93613
-7.95841
-7.97946
-7.99913
-8.01728
-8.03373
-8.04835
-8.06095
-8.07136
-8.07942
-8.08493
-8.08771
-8.08757
-8.08431
-8.07775
-8.06768
-8.05391
-8.03623
-8.01444
-7.98834
-7.95775
-7.92245
-7.88227
-7.837
-7.78647
-7.7305
-7.6689
-7.60151
-7.52818
-7.44876
-7.36311
-7.27107
-7.17254
-7.06739
-6.95551
-6.8368
-6.71123
-6.57874
-6.43931
-6.2929
-6.13948
-5.97905
-5.81161
-5.63718
-5.45581
-5.26756
-5.07251
-4.87076
-4.66241
-4.44759
-4.22647
-3.99919
-3.76594
-3.52693
-3.28236
-3.03247
-2.77751
-2.51773
-2.25342
-1.98487
-1.71237
-1.43625
-1.15683
-0.87445
-0.589447
-0.302171
-0.0129551
0.27786
0.569906
0.862825
1.1563
1.44999
1.74356
2.03666
2.329
2.62027
2.91018
3.19843
3.48476
3.76891
4.05064
4.3297
4.6059
4.87902
5.1489
5.41535
5.67825
5.93744
6.19283
6.44431
6.69181
6.93525
7.17458
7.40977
7.6408
7.86765
8.09032
8.30879
8.5231
8.73324
8.93921
9.14104
9.33877
9.53245
9.7221
9.90766
10.0892
10.2666
10.44
10.6095
10.775
10.9367
11.0947
11.2493
11.4009
11.5508
11.6969
11.8519
11.9682
-6.95529
-6.95884
-6.96467
-6.96947
-6.97275
-6.97515
-6.97713
-6.97893
-6.98075
-6.98273
-6.98499
-6.9876
-6.99063
-6.99411
-6.9981
-7.00261
-7.00769
-7.01336
-7.01965
-7.02661
-7.03426
-7.04264
-7.05179
-7.06176
-7.07259
-7.08435
-7.09712
-7.11097
-7.12595
-7.1421
-7.15938
-7.1777
-7.19692
-7.21689
-7.23749
-7.25865
-7.28038
-7.30273
-7.32576
-7.34955
-7.37411
-7.39938
-7.42525
-7.45162
-7.47841
-7.50555
-7.53298
-7.56065
-7.58851
-7.61648
-7.64453
-7.67258
-7.70056
-7.7284
-7.75603
-7.78335
-7.81028
-7.83672
-7.86257
-7.88771
-7.91204
-7.93542
-7.95773
-7.97883
-7.99858
-8.01683
-8.03342
-8.04819
-8.06097
-8.0716
-8.07988
-8.08565
-8.08871
-8.08887
-8.08593
-8.07971
-8.07001
-8.05662
-8.03934
-8.01797
-7.99232
-7.96218
-7.92737
-7.88768
-7.84292
-7.79292
-7.73749
-7.67646
-7.60965
-7.53691
-7.45809
-7.37306
-7.28166
-7.18378
-7.07929
-6.9681
-6.85012
-6.72527
-6.59353
-6.45484
-6.30916
-6.15648
-5.99678
-5.83008
-5.6564
-5.47577
-5.28826
-5.09395
-4.89292
-4.6853
-4.4712
-4.25078
-4.0242
-3.79164
-3.5533
-3.30938
-3.06013
-2.80579
-2.54661
-2.28287
-2.01487
-1.7429
-1.46728
-1.18834
-0.906409
-0.621834
-0.334959
-0.0461128
0.24435
0.536056
0.828665
1.12187
1.41532
1.70866
2.00157
2.29374
2.58486
2.87465
3.16281
3.44907
3.73317
4.01487
4.29394
4.57016
4.84332
5.11325
5.37979
5.64277
5.90208
6.15759
6.4092
6.65684
6.90043
7.13993
7.3753
7.6065
7.83352
8.05636
8.27502
8.48949
8.69979
8.90592
9.10789
9.30572
9.49946
9.68915
9.87477
10.0563
10.2338
10.4073
10.5769
10.7424
10.9042
11.0622
11.2167
11.3679
11.5169
11.6609
11.8123
11.9172
-6.95015
-6.95445
-6.96144
-6.9673
-6.97146
-6.97463
-6.97728
-6.97968
-6.98202
-6.98447
-6.98716
-6.99017
-6.99358
-6.99743
-7.00178
-7.00665
-7.01209
-7.01814
-7.02481
-7.03217
-7.04023
-7.04904
-7.05864
-7.06907
-7.08037
-7.09258
-7.10575
-7.11992
-7.13511
-7.15132
-7.16852
-7.18666
-7.20565
-7.2254
-7.24585
-7.26694
-7.28866
-7.31099
-7.33396
-7.35759
-7.38188
-7.40678
-7.43226
-7.45823
-7.48464
-7.51143
-7.53853
-7.5659
-7.59348
-7.62122
-7.64904
-7.67689
-7.70471
-7.73241
-7.75992
-7.78716
-7.81402
-7.84043
-7.86627
-7.89143
-7.91579
-7.93923
-7.96163
-7.98283
-8.00271
-8.0211
-8.03786
-8.05281
-8.06579
-8.07662
-8.08513
-8.09114
-8.09445
-8.09487
-8.09222
-8.08628
-8.07687
-8.06378
-8.04681
-8.02577
-8.00045
-7.97064
-7.93617
-7.89683
-7.85243
-7.80279
-7.74773
-7.68707
-7.62064
-7.54829
-7.46988
-7.38524
-7.29426
-7.19679
-7.09273
-6.98198
-6.86445
-6.74007
-6.60879
-6.47056
-6.32535
-6.17312
-6.01388
-5.84764
-5.6744
-5.49423
-5.30717
-5.11331
-4.91273
-4.70555
-4.49189
-4.2719
-4.04574
-3.81359
-3.57565
-3.33213
-3.08326
-2.82928
-2.57046
-2.30706
-2.03938
-1.76773
-1.49241
-1.21375
-0.932082
-0.647761
-0.361123
-0.0725002
0.217737
0.509223
0.801631
1.09465
1.38794
1.68112
1.97389
2.26593
2.55693
2.8466
3.13466
3.42084
3.70487
3.98651
4.26553
4.5417
4.81484
5.08474
5.35127
5.61424
5.87354
6.12905
6.38068
6.62833
6.87195
7.11147
7.34686
7.57808
7.80514
8.028
8.24668
8.46119
8.67151
8.87767
9.07966
9.27751
9.47125
9.66093
9.84654
10.0281
10.2056
10.3791
10.5487
10.7142
10.8759
11.0338
11.1881
11.3387
11.4865
11.6281
11.7762
11.8713
-6.94748
-6.95233
-6.96013
-6.96681
-6.97171
-6.97556
-6.97882
-6.98178
-6.98465
-6.98758
-6.99072
-6.99417
-6.99799
-7.00225
-7.007
-7.01228
-7.01813
-7.02458
-7.03167
-7.03944
-7.04793
-7.05717
-7.06719
-7.07803
-7.08972
-7.1023
-7.11578
-7.13019
-7.14553
-7.16179
-7.17896
-7.19699
-7.21582
-7.23542
-7.25573
-7.27671
-7.29834
-7.3206
-7.34348
-7.36698
-7.39109
-7.41577
-7.441
-7.46671
-7.49287
-7.51941
-7.5463
-7.57347
-7.60088
-7.62846
-7.65616
-7.68392
-7.71166
-7.73931
-7.76679
-7.79403
-7.82091
-7.84736
-7.87326
-7.8985
-7.92297
-7.94653
-7.96906
-7.99042
-8.01045
-8.02902
-8.04596
-8.06111
-8.07429
-8.08533
-8.09406
-8.10028
-8.10381
-8.10446
-8.10203
-8.09632
-8.08713
-8.07427
-8.05753
-8.03671
-8.0116
-7.98202
-7.94777
-7.90865
-7.86446
-7.81504
-7.76019
-7.69974
-7.63353
-7.5614
-7.48319
-7.39878
-7.30801
-7.21076
-7.10693
-6.99641
-6.87912
-6.75499
-6.62394
-6.48595
-6.34097
-6.18898
-6.02997
-5.86396
-5.69096
-5.51101
-5.32418
-5.13055
-4.9302
-4.72324
-4.5098
-4.29002
-4.06408
-3.83214
-3.5944
-3.35107
-3.10239
-2.84859
-2.58994
-2.32671
-2.0592
-1.78769
-1.51252
-1.234
-0.952469
-0.668277
-0.381757
-0.0932618
0.196838
0.488188
0.780473
1.07338
1.36655
1.65962
1.95227
2.24419
2.53508
2.82465
3.1126
3.39868
3.68261
3.96415
4.24308
4.51916
4.79221
5.06203
5.32847
5.59137
5.85059
6.10603
6.35758
6.60515
6.84869
7.08813
7.32344
7.55459
7.78157
8.00436
8.22297
8.43741
8.64767
8.85376
9.05569
9.25348
9.44716
9.63677
9.82232
10.0038
10.1813
10.3547
10.5242
10.6897
10.8512
11.0089
11.1627
11.3125
11.459
11.5982
11.7434
11.83
-6.94757
-6.95276
-6.96104
-6.96824
-6.9737
-6.97809
-6.98188
-6.98533
-6.98867
-6.99205
-6.99562
-6.99947
-7.00369
-7.00834
-7.01347
-7.01913
-7.02536
-7.0322
-7.03968
-7.04783
-7.0567
-7.0663
-7.07668
-7.08785
-7.09985
-7.1127
-7.1264
-7.14097
-7.15641
-7.17272
-7.18986
-7.20782
-7.22656
-7.24605
-7.26625
-7.28714
-7.30868
-7.33086
-7.35365
-7.37706
-7.40105
-7.4256
-7.45068
-7.47624
-7.50226
-7.52867
-7.55544
-7.58252
-7.60984
-7.63737
-7.66504
-7.69279
-7.72054
-7.74823
-7.77577
-7.80308
-7.83006
-7.85662
-7.88264
-7.90802
-7.93264
-7.95637
-7.97907
-8.00061
-8.02083
-8.03959
-8.05672
-8.07206
-8.08543
-8.09667
-8.10558
-8.11199
-8.1157
-8.11652
-8.11426
-8.10871
-8.09967
-8.08695
-8.07034
-8.04965
-8.02466
-7.99519
-7.96104
-7.92201
-7.87791
-7.82857
-7.77379
-7.71342
-7.64727
-7.57519
-7.49705
-7.41269
-7.32197
-7.22478
-7.12101
-7.01055
-6.89332
-6.76924
-6.63826
-6.50033
-6.35541
-6.20347
-6.04452
-5.87856
-5.70561
-5.52573
-5.33896
-5.14538
-4.94509
-4.73819
-4.52481
-4.30509
-4.0792
-3.84732
-3.60964
-3.36637
-3.11774
-2.86399
-2.60539
-2.34221
-2.07473
-1.80327
-1.52814
-1.24967
-0.968184
-0.684036
-0.397566
-0.109139
0.18088
0.472148
0.764349
1.05717
1.35024
1.64321
1.93575
2.22756
2.51833
2.80778
3.0956
3.38155
3.66535
3.94676
4.22555
4.50151
4.77441
5.0441
5.31039
5.57314
5.83221
6.0875
6.33888
6.5863
6.82968
7.06896
7.30412
7.53512
7.76194
7.98459
8.20306
8.41736
8.62749
8.83345
9.03527
9.23294
9.42652
9.61602
9.80147
9.98288
10.1602
10.3336
10.5029
10.6682
10.8296
10.9869
11.1401
11.2891
11.4342
11.571
11.7135
11.7929
-6.95041
-6.95573
-6.96416
-6.97163
-6.97743
-6.98221
-6.9864
-6.99025
-6.99397
-6.99772
-7.00165
-7.00584
-7.0104
-7.01538
-7.02085
-7.02683
-7.03339
-7.04054
-7.04833
-7.0568
-7.06596
-7.07584
-7.08648
-7.0979
-7.11011
-7.12313
-7.13698
-7.15165
-7.16714
-7.18346
-7.20058
-7.21849
-7.23716
-7.25657
-7.27669
-7.2975
-7.31898
-7.3411
-7.36385
-7.3872
-7.41114
-7.43564
-7.46066
-7.48617
-7.51214
-7.53852
-7.56527
-7.59234
-7.61969
-7.64725
-7.67498
-7.70279
-7.73064
-7.75843
-7.7861
-7.81354
-7.84068
-7.8674
-7.89359
-7.91915
-7.94396
-7.96787
-7.99077
-8.01249
-8.0329
-8.05185
-8.06916
-8.08467
-8.09821
-8.1096
-8.11865
-8.12519
-8.12902
-8.12995
-8.12778
-8.1223
-8.11333
-8.10066
-8.08409
-8.06342
-8.03844
-8.00897
-7.9748
-7.93574
-7.8916
-7.84221
-7.78738
-7.72694
-7.66072
-7.58857
-7.51034
-7.4259
-7.3351
-7.23783
-7.13397
-7.02342
-6.90611
-6.78196
-6.6509
-6.51288
-6.36788
-6.21587
-6.05684
-5.8908
-5.71779
-5.53783
-5.351
-5.15736
-4.957
-4.75005
-4.53662
-4.31685
-4.09092
-3.85899
-3.62126
-3.37795
-3.12928
-2.8755
-2.61687
-2.35366
-2.08616
-1.81468
-1.53954
-1.26105
-0.979565
-0.69542
-0.408972
-0.120588
0.169379
0.460585
0.752711
1.04545
1.33842
1.63128
1.92369
2.21537
2.50599
2.79528
3.08295
3.36874
3.65237
3.9336
4.21221
4.48797
4.76068
5.03016
5.29623
5.55877
5.81761
6.07267
6.32383
6.57101
6.81416
7.05322
7.28815
7.51893
7.74554
7.96798
8.18625
8.40035
8.6103
8.81609
9.01774
9.21527
9.4087
9.59807
9.78339
9.96467
10.1419
10.3151
10.4843
10.6494
10.8104
10.9673
11.12
11.2679
11.4116
11.5461
11.6863
11.7595
-6.95576
-6.96103
-6.96933
-6.97681
-6.98277
-6.98777
-6.99222
-6.99634
-7.00033
-7.00436
-7.00855
-7.01301
-7.01782
-7.02305
-7.02875
-7.03497
-7.04174
-7.04912
-7.05712
-7.06579
-7.07513
-7.0852
-7.096
-7.10756
-7.11989
-7.13301
-7.14692
-7.16164
-7.17715
-7.19347
-7.21056
-7.22843
-7.24706
-7.26642
-7.28649
-7.30727
-7.32871
-7.35082
-7.37355
-7.39691
-7.42085
-7.44536
-7.47041
-7.49596
-7.52197
-7.5484
-7.57521
-7.60236
-7.6298
-7.65748
-7.68533
-7.71328
-7.74128
-7.76924
-7.79707
-7.8247
-7.85202
-7.87893
-7.90532
-7.93108
-7.95607
-7.98017
-8.00324
-8.02514
-8.04571
-8.0648
-8.08225
-8.09788
-8.11153
-8.12301
-8.13214
-8.13873
-8.14259
-8.14354
-8.14136
-8.13587
-8.12686
-8.11413
-8.09749
-8.07672
-8.05164
-8.02205
-7.98774
-7.94854
-7.90425
-7.85468
-7.79968
-7.73905
-7.67264
-7.6003
-7.52187
-7.43723
-7.34623
-7.24876
-7.14471
-7.03397
-6.91647
-6.79212
-6.66088
-6.52268
-6.3775
-6.22531
-6.06611
-5.89991
-5.72674
-5.54663
-5.35965
-5.16587
-4.96538
-4.7583
-4.54475
-4.32487
-4.09883
-3.8668
-3.62898
-3.38558
-3.13683
-2.88297
-2.62427
-2.361
-2.09345
-1.82192
-1.54674
-1.26823
-0.986738
-0.702598
-0.416179
-0.12784
0.16207
0.453201
0.745236
1.03787
1.33072
1.62343
1.91569
2.20718
2.49762
2.78671
3.07417
3.35973
3.64313
3.92412
4.20247
4.47797
4.75041
5.01961
5.28541
5.54764
5.8062
6.06095
6.31181
6.55869
6.80154
7.0403
7.27494
7.50543
7.73177
7.95394
8.17196
8.38582
8.59554
8.80112
9.00258
9.19993
9.3932
9.58242
9.76759
9.94872
10.1258
10.2989
10.4679
10.6327
10.7934
10.9498
11.1018
11.2488
11.391
11.5234
11.6614
11.7296
-6.96325
-6.96831
-6.97625
-6.98354
-6.98946
-6.99452
-6.99908
-7.00334
-7.00748
-7.01167
-7.01601
-7.02061
-7.02556
-7.03092
-7.03674
-7.04307
-7.04996
-7.05743
-7.06552
-7.07427
-7.08371
-7.09385
-7.10472
-7.11633
-7.12871
-7.14186
-7.1558
-7.17053
-7.18604
-7.20234
-7.21941
-7.23725
-7.25585
-7.27519
-7.29526
-7.31603
-7.33749
-7.35962
-7.3824
-7.4058
-7.42981
-7.45438
-7.4795
-7.50513
-7.53124
-7.5578
-7.58475
-7.61205
-7.63964
-7.66748
-7.6955
-7.72364
-7.75182
-7.77996
-7.80799
-7.8358
-7.86331
-7.89041
-7.91697
-7.9429
-7.96805
-7.99229
-8.01549
-8.0375
-8.05817
-8.07734
-8.09484
-8.11051
-8.12416
-8.13563
-8.14473
-8.15127
-8.15507
-8.15591
-8.15362
-8.14799
-8.13883
-8.12593
-8.10909
-8.08812
-8.06281
-8.03298
-7.99843
-7.95896
-7.9144
-7.86456
-7.80927
-7.74836
-7.68166
-7.60902
-7.53031
-7.44537
-7.35409
-7.25634
-7.152
-7.04099
-6.92322
-6.79861
-6.66711
-6.52867
-6.38324
-6.23082
-6.0714
-5.90499
-5.73161
-5.55131
-5.36414
-5.17019
-4.96954
-4.7623
-4.5486
-4.32859
-4.10242
-3.87028
-3.63236
-3.38886
-3.14003
-2.8861
-2.62734
-2.36402
-2.09643
-1.82488
-1.54968
-1.27116
-0.989678
-0.705572
-0.419208
-0.130936
0.158887
0.449904
0.741811
1.03429
1.32696
1.61946
1.91149
2.20275
2.49294
2.78176
3.06893
3.3542
3.63729
3.91796
4.19598
4.47114
4.74324
5.01208
5.27751
5.53938
5.79757
6.05194
6.30243
6.54894
6.79142
7.02981
7.2641
7.49425
7.72025
7.94211
8.15983
8.37341
8.58286
8.7882
8.98944
9.18659
9.37968
9.56872
9.75373
9.9347
10.1116
10.2845
10.4533
10.6179
10.7783
10.9342
11.0854
11.2313
11.3722
11.5026
11.6385
11.7026
-6.97243
-6.97718
-6.98459
-6.9915
-6.99722
-7.00219
-7.0067
-7.01095
-7.0151
-7.0193
-7.02366
-7.02827
-7.03322
-7.03857
-7.04438
-7.0507
-7.05758
-7.06504
-7.07313
-7.08187
-7.09129
-7.10143
-7.11228
-7.12389
-7.13625
-7.14939
-7.1633
-7.17801
-7.19349
-7.20977
-7.22682
-7.24465
-7.26324
-7.28259
-7.30267
-7.32348
-7.34498
-7.36716
-7.39001
-7.41348
-7.43757
-7.46225
-7.48749
-7.51326
-7.53952
-7.56624
-7.59337
-7.62085
-7.64863
-7.67665
-7.70485
-7.73316
-7.76151
-7.78982
-7.818
-7.84597
-7.87362
-7.90084
-7.92752
-7.95353
-7.97875
-8.00305
-8.02628
-8.04829
-8.06894
-8.08807
-8.1055
-8.12108
-8.13462
-8.14595
-8.15489
-8.16125
-8.16483
-8.16545
-8.16291
-8.15702
-8.14757
-8.13437
-8.11722
-8.09592
-8.07028
-8.0401
-8.00519
-7.96536
-7.92044
-7.87023
-7.81457
-7.75329
-7.68622
-7.61322
-7.53415
-7.44887
-7.35725
-7.25916
-7.15449
-7.04317
-6.92509
-6.80019
-6.6684
-6.52969
-6.38401
-6.23134
-6.07169
-5.90506
-5.73148
-5.55099
-5.36365
-5.16953
-4.96873
-4.76136
-4.54754
-4.32742
-4.10115
-3.86892
-3.63092
-3.38737
-3.13848
-2.88452
-2.62573
-2.3624
-2.09481
-1.82327
-1.54811
-1.26964
-0.988225
-0.704219
-0.417965
-0.129818
0.159842
0.450669
0.742379
1.03463
1.32702
1.61923
1.91095
2.20188
2.49173
2.78019
3.067
3.35188
3.63457
3.91484
4.19245
4.46718
4.73884
5.00725
5.27223
5.53366
5.79138
6.04531
6.29535
6.54142
6.78346
7.02143
7.2553
7.48505
7.71067
7.93217
8.14955
8.36281
8.57197
8.77704
8.97803
9.17496
9.36785
9.55672
9.74156
9.92238
10.0992
10.2718
10.4404
10.6048
10.7647
10.9201
11.0707
11.2155
11.355
11.4836
11.6176
11.6783
-6.98288
-6.98723
-6.994
-7.0004
-7.00578
-7.01049
-7.01479
-7.01887
-7.02286
-7.02691
-7.03112
-7.03559
-7.0404
-7.04561
-7.05129
-7.05749
-7.06424
-7.07159
-7.07957
-7.08822
-7.09755
-7.1076
-7.11838
-7.12991
-7.14221
-7.15528
-7.16915
-7.18381
-7.19926
-7.21551
-7.23256
-7.25038
-7.26897
-7.28833
-7.30843
-7.32926
-7.35081
-7.37306
-7.39597
-7.41954
-7.44374
-7.46856
-7.49394
-7.51987
-7.5463
-7.57318
-7.60047
-7.6281
-7.65602
-7.68418
-7.71249
-7.74091
-7.76935
-7.79775
-7.826
-7.85401
-7.88168
-7.9089
-7.93556
-7.96152
-7.98667
-8.01087
-8.03397
-8.05583
-8.0763
-8.09522
-8.11242
-8.12775
-8.14101
-8.15205
-8.16067
-8.16669
-8.16992
-8.17017
-8.16725
-8.16096
-8.15111
-8.13749
-8.11992
-8.0982
-8.07213
-8.04152
-8.00618
-7.96593
-7.92057
-7.86995
-7.81387
-7.75217
-7.6847
-7.61132
-7.53188
-7.44623
-7.35425
-7.25582
-7.15083
-7.03919
-6.92082
-6.79563
-6.66358
-6.52462
-6.3787
-6.22583
-6.06598
-5.89916
-5.72542
-5.54478
-5.35731
-5.16308
-4.96218
-4.75472
-4.54084
-4.32066
-4.09436
-3.86211
-3.62411
-3.38056
-3.1317
-2.87777
-2.61904
-2.35578
-2.08827
-1.81683
-1.54178
-1.26346
-0.982215
-0.698391
-0.41233
-0.124415
0.164974
0.455517
0.746932
1.03884
1.33085
1.62265
1.91396
2.20446
2.49386
2.78187
3.0682
3.3526
3.6348
3.91456
4.19165
4.46587
4.737
5.00488
5.26933
5.53022
5.78741
6.04082
6.29033
6.53588
6.77742
7.01491
7.24831
7.47761
7.7028
7.9239
8.14089
8.35381
8.56265
8.76743
8.96816
9.16487
9.35756
9.54624
9.73091
9.91157
10.0882
10.2607
10.4291
10.5931
10.7527
10.9076
11.0574
11.2013
11.3394
11.4663
11.5985
11.6567
-6.99421
-6.99813
-7.0042
-7.00997
-7.01486
-7.01915
-7.02307
-7.02678
-7.03043
-7.03415
-7.03805
-7.04222
-7.04675
-7.0517
-7.05712
-7.06308
-7.06962
-7.07676
-7.08455
-7.09302
-7.1022
-7.1121
-7.12275
-7.13417
-7.14636
-7.15935
-7.17312
-7.18771
-7.20309
-7.21929
-7.23628
-7.25407
-7.27265
-7.29199
-7.3121
-7.33295
-7.35453
-7.37683
-7.39983
-7.4235
-7.44781
-7.47273
-7.49822
-7.52424
-7.55075
-7.57769
-7.60503
-7.6327
-7.66063
-7.68877
-7.71706
-7.74543
-7.7738
-7.80211
-7.83025
-7.85812
-7.88563
-7.91266
-7.93909
-7.96481
-7.98968
-8.01358
-8.03636
-8.05787
-8.07797
-8.0965
-8.1133
-8.1282
-8.14103
-8.15162
-8.15977
-8.16532
-8.16808
-8.16784
-8.16443
-8.15765
-8.14731
-8.1332
-8.11514
-8.09293
-8.06637
-8.03529
-7.99948
-7.95876
-7.91296
-7.86189
-7.80539
-7.74328
-7.67543
-7.60168
-7.52187
-7.43588
-7.34357
-7.24483
-7.13956
-7.02766
-6.90904
-6.78363
-6.65138
-6.51223
-6.36615
-6.21313
-6.05317
-5.88625
-5.71243
-5.53173
-5.34422
-5.14997
-4.94907
-4.74163
-4.52778
-4.30766
-4.08143
-3.84927
-3.61137
-3.36794
-3.11921
-2.86544
-2.60688
-2.3438
-2.07651
-1.80529
-1.53048
-1.25243
-0.971474
-0.687944
-0.402213
-0.114673
0.174317
0.46446
0.755451
1.04687
1.33836
1.62964
1.92041
2.21036
2.4992
2.78662
3.07237
3.35617
3.63776
3.91691
4.19339
4.46698
4.73749
5.00473
5.26856
5.52883
5.78541
6.03821
6.28713
6.5321
6.77308
7.01002
7.2429
7.4717
7.69643
7.91709
8.13368
8.34622
8.55473
8.75921
8.95968
9.15615
9.34864
9.53715
9.72167
9.90218
10.0786
10.251
10.4191
10.5829
10.7422
10.8965
11.0456
11.1886
11.3254
11.4507
11.5811
11.6375
-7.00661
-7.0101
-7.01546
-7.02052
-7.02476
-7.02842
-7.03172
-7.03484
-7.03792
-7.04109
-7.04448
-7.04817
-7.05224
-7.05678
-7.06182
-7.06742
-7.07363
-7.08047
-7.08798
-7.09619
-7.10512
-7.11479
-7.12523
-7.13644
-7.14845
-7.16126
-7.17487
-7.18931
-7.20455
-7.22061
-7.23747
-7.25514
-7.27362
-7.29289
-7.31294
-7.33375
-7.3553
-7.37758
-7.40054
-7.42418
-7.44844
-7.47329
-7.4987
-7.52461
-7.55099
-7.57778
-7.60494
-7.6324
-7.66011
-7.68801
-7.71603
-7.74413
-7.77221
-7.80019
-7.82798
-7.85547
-7.88256
-7.90916
-7.93513
-7.96036
-7.98473
-8.0081
-8.03034
-8.0513
-8.07084
-8.0888
-8.10502
-8.11934
-8.13159
-8.14159
-8.14917
-8.15414
-8.15632
-8.15552
-8.15154
-8.14421
-8.13332
-8.11868
-8.1001
-8.07739
-8.05035
-8.01878
-7.98252
-7.94136
-7.89514
-7.84368
-7.78682
-7.72438
-7.65619
-7.58213
-7.50203
-7.41577
-7.32322
-7.22427
-7.1188
-7.00673
-6.88797
-6.76245
-6.6301
-6.49088
-6.34477
-6.19173
-6.03177
-5.8649
-5.69113
-5.51051
-5.3231
-5.12897
-4.92822
-4.72094
-4.50728
-4.28737
-4.06136
-3.82944
-3.59181
-3.34866
-3.10023
-2.84678
-2.58855
-2.32584
-2.05891
-1.7881
-1.51371
-1.23608
-0.955564
-0.672509
-0.387299
-0.100307
0.188123
0.477712
0.768106