/*--------------------------------*- C++ -*----------------------------------*\
  =========                 |
  \\      /  F ield         | OpenFOAM: The Open Source CFD Toolbox
   \\    /   O peration     | Website:  https://openfoam.org
    \\  /    A nd           | Version:  8
     \\/     M anipulation  |
\*---------------------------------------------------------------------------*/
FoamFile
{
    version     2.0;
    format      ascii;
    class       surfaceScalarField;
    location    "260";
    object      phi;
}
// * * * * * * * * * * * * * * * * * * * * * * * * * * * * * * * * * * * * * //

dimensions      [0 3 -1 0 0 0 0];

internalField   nonuniform List<scalar> 
24170
(
3.12901e-06
5.94003e-08
3.04663e-06
8.23768e-08
2.97354e-06
7.30889e-08
2.90491e-06
6.86274e-08
2.84059e-06
6.43206e-08
2.78328e-06
5.73106e-08
2.73397e-06
4.931e-08
2.69203e-06
4.1934e-08
2.65638e-06
3.56506e-08
2.62597e-06
3.04141e-08
2.59981e-06
2.61571e-08
2.57708e-06
2.27314e-08
2.55711e-06
1.99708e-08
2.53934e-06
1.77606e-08
2.52343e-06
1.59188e-08
2.50839e-06
1.50346e-08
2.49478e-06
1.36103e-08
1.79219e-08
2.47686e-06
3.45306e-06
2.35849e-08
3.45701e-06
7.84349e-08
3.45055e-06
7.95476e-08
3.43909e-06
8.00808e-08
3.42432e-06
7.9094e-08
3.40707e-06
7.45565e-08
3.38786e-06
6.85193e-08
3.36735e-06
6.24485e-08
3.34621e-06
5.67833e-08
3.32505e-06
5.15785e-08
3.30434e-06
4.68673e-08
3.28436e-06
4.27106e-08
3.26531e-06
3.90198e-08
3.24723e-06
3.58414e-08
3.2302e-06
3.29464e-08
3.2142e-06
3.10361e-08
3.19951e-06
2.82979e-08
2.9515e-08
3.18791e-06
3.66816e-06
1.79412e-08
3.6792e-06
6.7392e-08
3.68543e-06
7.33173e-08
3.68947e-06
7.60427e-08
3.69107e-06
7.7491e-08
3.69011e-06
7.5516e-08
3.68698e-06
7.16473e-08
3.68215e-06
6.72784e-08
3.67602e-06
6.29203e-08
3.6689e-06
5.86993e-08
3.66107e-06
5.46906e-08
3.65279e-06
5.09892e-08
3.64425e-06
4.75641e-08
3.6356e-06
4.4493e-08
3.62691e-06
4.16296e-08
3.61856e-06
3.93845e-08
3.61001e-06
3.6855e-08
3.5919e-08
3.6036e-06
3.92585e-06
1.748e-08
3.93592e-06
5.73197e-08
3.94258e-06
6.6663e-08
3.94812e-06
7.04976e-08
3.95254e-06
7.30707e-08
3.9555e-06
7.25604e-08
3.95717e-06
6.99685e-08
3.95782e-06
6.6633e-08
3.95762e-06
6.3119e-08
3.95672e-06
5.95945e-08
3.95527e-06
5.61469e-08
3.95337e-06
5.28836e-08
3.95113e-06
4.98032e-08
3.94865e-06
4.69754e-08
3.94596e-06
4.43163e-08
3.94332e-06
4.20266e-08
3.94045e-06
3.97187e-08
3.79193e-08
3.93845e-06
4.2082e-06
1.64069e-08
4.21599e-06
4.95323e-08
4.22169e-06
6.09616e-08
4.2268e-06
6.53877e-08
4.23155e-06
6.83163e-08
4.23553e-06
6.8581e-08
4.23871e-06
6.67909e-08
4.2412e-06
6.41444e-08
4.2431e-06
6.12132e-08
4.24451e-06
5.8183e-08
4.24551e-06
5.51488e-08
4.24618e-06
5.22164e-08
4.24657e-06
4.94086e-08
4.24677e-06
4.67792e-08
4.2468e-06
4.42856e-08
4.24681e-06
4.20152e-08
4.24673e-06
3.97936e-08
3.77019e-08
4.24695e-06
4.51071e-06
1.47834e-08
4.51689e-06
4.33568e-08
4.52214e-06
5.57093e-08
4.52696e-06
6.05658e-08
4.53168e-06
6.35972e-08
4.53593e-06
6.43241e-08
4.53962e-06
6.31073e-08
4.54279e-06
6.09712e-08
4.54553e-06
5.84761e-08
4.54789e-06
5.58199e-08
4.54993e-06
5.31075e-08
4.55171e-06
5.04372e-08
4.55327e-06
4.78495e-08
4.55466e-06
4.53832e-08
4.55593e-06
4.30208e-08
4.55715e-06
4.07917e-08
4.55833e-06
3.86088e-08
3.64302e-08
4.55961e-06
4.83433e-06
1.31725e-08
4.83963e-06
3.80566e-08
4.84476e-06
5.05808e-08
4.84947e-06
5.5857e-08
4.85411e-06
5.89576e-08
4.85843e-06
5.99983e-08
4.86231e-06
5.9225e-08
4.86579e-06
5.74941e-08
4.86892e-06
5.53468e-08
4.87175e-06
5.29919e-08
4.87431e-06
5.05425e-08
4.87666e-06
4.80909e-08
4.87882e-06
4.56872e-08
4.88084e-06
4.33616e-08
4.88275e-06
4.11098e-08
4.88461e-06
3.89347e-08
4.88643e-06
3.67871e-08
3.46088e-08
4.88825e-06
5.18105e-06
1.17054e-08
5.18576e-06
3.33479e-08
5.19076e-06
4.55749e-08
5.19542e-06
5.12004e-08
5.20001e-06
5.43651e-08
5.20438e-06
5.56309e-08
5.20838e-06
5.52191e-08
5.21204e-06
5.38319e-08
5.21541e-06
5.19805e-08
5.21852e-06
4.98845e-08
5.2214e-06
4.76623e-08
5.22409e-06
4.54025e-08
5.22661e-06
4.31599e-08
5.22901e-06
4.09617e-08
5.23131e-06
3.88104e-08
5.23354e-06
3.67004e-08
5.23573e-06
3.46009e-08
3.2468e-08
5.23787e-06
5.55269e-06
1.03492e-08
5.55689e-06
2.91492e-08
5.5617e-06
4.07643e-08
5.56632e-06
4.65869e-08
5.57089e-06
4.97943e-08
5.5753e-06
5.1218e-08
5.57941e-06
5.1105e-08
5.58322e-06
5.00207e-08
5.58677e-06
4.84337e-08
5.59008e-06
4.65711e-08
5.59319e-06
4.45547e-08
5.59612e-06
4.24715e-08
5.5989e-06
4.03777e-08
5.60156e-06
3.83012e-08
5.60412e-06
3.62491e-08
5.60661e-06
3.42162e-08
5.60903e-06
3.21823e-08
3.01259e-08
5.61137e-06
5.95104e-06
9.08548e-09
5.95479e-06
2.53995e-08
5.95936e-06
3.61879e-08
5.96392e-06
4.2027e-08
5.96848e-06
4.52413e-08
5.97293e-06
4.67663e-08
5.97714e-06
4.68933e-08
5.98108e-06
4.60754e-08
5.98479e-06
4.47284e-08
5.98828e-06
4.30813e-08
5.99157e-06
4.12578e-08
5.9947e-06
3.9343e-08
5.99769e-06
3.73935e-08
6.00055e-06
3.54394e-08
6.00331e-06
3.34916e-08
6.00597e-06
3.15493e-08
6.00855e-06
2.96012e-08
2.7643e-08
6.01104e-06
6.37798e-06
7.9137e-09
6.38135e-06
2.20343e-08
6.38568e-06
3.18565e-08
6.39017e-06
3.75374e-08
6.3947e-06
4.07119e-08
6.39918e-06
4.2288e-08
6.40347e-06
4.25968e-08
6.40754e-06
4.20068e-08
6.41139e-06
4.08774e-08
6.41504e-06
3.94307e-08
6.41851e-06
3.77906e-08
6.42181e-06
3.60399e-08
6.42497e-06
3.4235e-08
6.428e-06
3.2408e-08
6.43092e-06
3.05739e-08
6.43373e-06
2.8737e-08
6.43644e-06
2.68933e-08
2.50524e-08
6.43903e-06
5.74176e-06
6.98704e-09
5.74435e-06
1.94497e-08
5.74782e-06
2.83848e-08
5.75155e-06
3.38064e-08
5.75535e-06
3.69056e-08
5.75915e-06
3.84914e-08
5.76284e-06
3.89095e-08
5.76636e-06
3.84804e-08
5.76972e-06
3.75173e-08
5.77292e-06
3.6229e-08
5.77598e-06
3.47378e-08
5.77889e-06
3.31242e-08
5.78168e-06
3.14434e-08
5.78436e-06
2.97295e-08
5.78693e-06
2.80001e-08
5.78941e-06
2.62641e-08
5.79178e-06
2.45224e-08
2.27929e-08
5.79404e-06
6.99914e-06
6.00293e-09
7.00187e-06
1.67146e-08
7.00564e-06
2.46179e-08
7.00981e-06
2.96362e-08
7.01413e-06
3.25814e-08
7.01849e-06
3.41327e-08
7.02277e-06
3.4631e-08
7.0269e-06
3.43508e-08
7.03086e-06
3.35557e-08
7.03465e-06
3.24358e-08
7.03828e-06
3.11085e-08
7.04176e-06
2.96503e-08
7.04508e-06
2.81153e-08
7.04828e-06
2.65378e-08
7.05134e-06
2.49389e-08
7.05427e-06
2.33313e-08
7.05707e-06
2.17201e-08
2.01304e-08
7.05973e-06
8.53188e-06
4.9691e-09
8.53474e-06
1.38564e-08
8.53877e-06
2.05836e-08
8.54337e-06
2.50341e-08
8.54823e-06
2.77214e-08
8.55319e-06
2.91751e-08
8.55811e-06
2.9708e-08
8.56291e-06
2.95508e-08
8.56755e-06
2.89168e-08
8.57202e-06
2.79707e-08
8.5763e-06
2.68202e-08
8.58042e-06
2.55372e-08
8.58436e-06
2.41719e-08
8.58814e-06
2.2759e-08
8.59176e-06
2.13212e-08
8.59521e-06
1.98745e-08
8.59851e-06
1.84276e-08
1.70084e-08
8.60163e-06
1.04003e-05
3.89468e-09
1.04033e-05
1.0895e-08
1.04075e-05
1.63042e-08
1.04126e-05
2.00096e-08
1.0418e-05
2.231e-08
1.04236e-05
2.35828e-08
1.04292e-05
2.40879e-08
1.04347e-05
2.4013e-08
1.04401e-05
2.35221e-08
1.04453e-05
2.27486e-08
1.04504e-05
2.17857e-08
1.04552e-05
2.06971e-08
1.04599e-05
1.9528e-08
1.04643e-05
1.83111e-08
1.04686e-05
1.70694e-08
1.04726e-05
1.58202e-08
1.04765e-05
1.45741e-08
1.33596e-08
1.04801e-05
1.26779e-05
2.78477e-09
1.2681e-05
7.8252e-09
1.26855e-05
1.17787e-08
1.26909e-05
1.45575e-08
1.26969e-05
1.63209e-08
1.27032e-05
1.73079e-08
1.27096e-05
1.77084e-08
1.27159e-05
1.76615e-08
1.27222e-05
1.7285e-08
1.27283e-05
1.66764e-08
1.27341e-05
1.59087e-08
1.27398e-05
1.50335e-08
1.27452e-05
1.40885e-08
1.27504e-05
1.31015e-08
1.27554e-05
1.20937e-08
1.27602e-05
1.10813e-08
1.27647e-05
1.00747e-08
9.10094e-09
1.27689e-05
1.54543e-05
1.62867e-09
1.54576e-05
4.60142e-09
1.54624e-05
6.95018e-09
1.54683e-05
8.61913e-09
1.5475e-05
9.68128e-09
1.5482e-05
1.02619e-08
1.54892e-05
1.04704e-08
1.54965e-05
1.03907e-08
1.55037e-05
1.00934e-08
1.55107e-05
9.63843e-09
1.55176e-05
9.0726e-09
1.55242e-05
8.43083e-09
1.55305e-05
7.73939e-09
1.55366e-05
7.0187e-09
1.55424e-05
6.28465e-09
1.5548e-05
5.55031e-09
1.55532e-05
4.82373e-09
4.12804e-09
1.55582e-05
1.88389e-05
3.8655e-10
1.88424e-05
1.09954e-09
1.88477e-05
1.64563e-09
1.88543e-05
2.00433e-09
1.88618e-05
2.19476e-09
1.88698e-05
2.24481e-09
1.88781e-05
2.17638e-09
1.88865e-05
2.00929e-09
1.88948e-05
1.76378e-09
1.8903e-05
1.45837e-09
1.89109e-05
1.10854e-09
1.89187e-05
7.27239e-10
1.89261e-05
3.25508e-10
1.89332e-05
-8.71141e-11
1.894e-05
-5.02558e-10
1.89464e-05
-9.13471e-10
1.89526e-05
-1.31565e-09
-1.6916e-09
1.89584e-05
2.29648e-05
-1.04267e-09
2.29688e-05
-2.96931e-09
2.2975e-05
-4.55388e-09
2.29828e-05
-5.76237e-09
2.29916e-05
-6.61585e-09
2.30011e-05
-7.20036e-09
2.30108e-05
-7.60335e-09
2.30207e-05
-7.87918e-09
2.30305e-05
-8.06466e-09
2.30402e-05
-8.19065e-09
2.30496e-05
-8.28102e-09
2.30587e-05
-8.34991e-09
2.30674e-05
-8.40535e-09
2.30758e-05
-8.45138e-09
2.30837e-05
-8.49022e-09
2.30914e-05
-8.5218e-09
2.30986e-05
-8.54699e-09
-8.55498e-09
2.31054e-05
1.68118e-05
-2.16449e-09
1.6815e-05
-6.13758e-09
1.68198e-05
-9.37954e-09
1.68258e-05
-1.1754e-08
1.68325e-05
-1.33202e-08
1.68396e-05
-1.43061e-08
1.68469e-05
-1.4899e-08
1.68542e-05
-1.52027e-08
1.68615e-05
-1.52958e-08
1.68685e-05
-1.52508e-08
1.68754e-05
-1.51197e-08
1.6882e-05
-1.4936e-08
1.68883e-05
-1.47199e-08
1.68943e-05
-1.44855e-08
1.69001e-05
-1.42412e-08
1.69055e-05
-1.39921e-08
1.69107e-05
-1.37411e-08
-1.34822e-08
1.69156e-05
1.46356e-05
-3.24194e-09
1.46387e-05
-9.22209e-09
1.46434e-05
-1.40898e-08
1.46492e-05
-1.74923e-08
1.46555e-05
-1.96005e-08
1.4662e-05
-2.0864e-08
1.46687e-05
-2.1553e-08
1.46753e-05
-2.18033e-08
1.46817e-05
-2.17461e-08
1.4688e-05
-2.14976e-08
1.4694e-05
-2.11334e-08
1.46997e-05
-2.06983e-08
1.47052e-05
-2.02224e-08
1.47105e-05
-1.97268e-08
1.47155e-05
-1.92248e-08
1.47202e-05
-1.8724e-08
1.47247e-05
-1.82295e-08
-1.77369e-08
1.47289e-05
1.27411e-05
-4.2509e-09
1.27443e-05
-1.23474e-08
1.27491e-05
-1.89168e-08
1.27547e-05
-2.31335e-08
1.27607e-05
-2.55752e-08
1.27669e-05
-2.70156e-08
1.2773e-05
-2.77176e-08
1.2779e-05
-2.78302e-08
1.27849e-05
-2.75608e-08
1.27904e-05
-2.70744e-08
1.27958e-05
-2.64608e-08
1.28008e-05
-2.57713e-08
1.28057e-05
-2.50432e-08
1.28102e-05
-2.4302e-08
1.28146e-05
-2.35633e-08
1.28187e-05
-2.28352e-08
1.28226e-05
-2.2123e-08
-2.14235e-08
1.28263e-05
1.10918e-05
-5.09391e-09
1.1095e-05
-1.55671e-08
1.11001e-05
-2.40392e-08
1.11057e-05
-2.87535e-08
1.11115e-05
-3.13052e-08
1.11173e-05
-3.2823e-08
1.1123e-05
-3.34385e-08
1.11285e-05
-3.33338e-08
1.11337e-05
-3.28112e-08
1.11387e-05
-3.20683e-08
1.11435e-05
-3.11966e-08
1.1148e-05
-3.02529e-08
1.11522e-05
-2.92803e-08
1.11562e-05
-2.83074e-08
1.116e-05
-2.73493e-08
1.11636e-05
-2.64145e-08
1.11669e-05
-2.55066e-08
-2.46238e-08
1.11701e-05
9.65582e-06
-5.70027e-09
9.65924e-06
-1.89889e-08
9.66458e-06
-2.93813e-08
9.67008e-06
-3.42458e-08
9.67563e-06
-3.68579e-08
9.68118e-06
-3.83757e-08
9.68651e-06
-3.87638e-08
9.69153e-06
-3.83534e-08
9.69626e-06
-3.75472e-08
9.70073e-06
-3.65393e-08
9.70494e-06
-3.54088e-08
9.7089e-06
-3.4215e-08
9.71263e-06
-3.30055e-08
9.71613e-06
-3.18099e-08
9.71943e-06
-3.06432e-08
9.72252e-06
-2.95126e-08
9.72544e-06
-2.84203e-08
-2.73626e-08
9.72817e-06
8.40532e-06
-5.67006e-09
8.40963e-06
-2.33016e-08
8.41487e-06
-3.4613e-08
8.41989e-06
-3.92692e-08
8.42525e-06
-4.22184e-08
8.43065e-06
-4.37774e-08
8.43573e-06
-4.38423e-08
8.44043e-06
-4.30516e-08
8.44479e-06
-4.1908e-08
8.44884e-06
-4.05876e-08
8.45259e-06
-3.916e-08
8.45606e-06
-3.76877e-08
8.45927e-06
-3.62201e-08
8.46225e-06
-3.47851e-08
8.465e-06
-3.33977e-08
8.46755e-06
-3.20643e-08
8.46992e-06
-3.07867e-08
-2.95615e-08
8.47212e-06
7.31455e-06
-2.93148e-09
7.32119e-06
-2.99429e-08
7.32673e-06
-4.01611e-08
7.33168e-06
-4.42167e-08
7.33707e-06
-4.76112e-08
7.34239e-06
-4.90925e-08
7.34726e-06
-4.87137e-08
7.35167e-06
-4.74575e-08
7.35564e-06
-4.58785e-08
7.35918e-06
-4.41354e-08
7.36233e-06
-4.23086e-08
7.36512e-06
-4.04708e-08
7.36757e-06
-3.86744e-08
7.36973e-06
-3.69439e-08
7.37162e-06
-3.52944e-08
7.37329e-06
-3.37286e-08
7.37475e-06
-3.22469e-08
-3.084e-08
7.37603e-06
6.36245e-06
4.68516e-09
6.37189e-06
-3.93829e-08
6.37931e-06
-4.75856e-08
6.38595e-06
-5.08541e-08
6.39223e-06
-5.3889e-08
6.39754e-06
-5.44004e-08
6.40183e-06
-5.30028e-08
6.4053e-06
-5.0932e-08
6.40809e-06
-4.86718e-08
6.41027e-06
-4.63135e-08
6.4119e-06
-4.39343e-08
6.41304e-06
-4.16111e-08
6.41376e-06
-3.93947e-08
6.41412e-06
-3.73033e-08
6.41417e-06
-3.53509e-08
6.41398e-06
-3.35334e-08
6.41358e-06
-3.18518e-08
-3.02864e-08
6.41303e-06
5.5412e-06
8.94804e-09
5.55032e-06
-4.85045e-08
5.55834e-06
-5.56017e-08
5.56604e-06
-5.85532e-08
5.5725e-06
-6.0347e-08
5.57682e-06
-5.87211e-08
5.57905e-06
-5.52397e-08
5.57961e-06
-5.14863e-08
5.57885e-06
-4.7913e-08
5.57706e-06
-4.4523e-08
5.57446e-06
-4.1335e-08
5.57124e-06
-3.83918e-08
5.56755e-06
-3.57016e-08
5.5635e-06
-3.32561e-08
5.5592e-06
-3.10525e-08
5.55474e-06
-2.90736e-08
5.55021e-06
-2.73213e-08
-2.57464e-08
5.54567e-06
4.86004e-06
-2.3488e-08
4.86538e-06
-5.38458e-08
4.86524e-06
-5.54547e-08
4.86217e-06
-5.54816e-08
4.85699e-06
-5.5174e-08
4.84949e-06
-5.12172e-08
4.83979e-06
-4.55396e-08
4.82839e-06
-4.00886e-08
4.81581e-06
-3.53347e-08
4.80253e-06
-3.12393e-08
4.78892e-06
-2.77314e-08
4.77528e-06
-2.47483e-08
4.76179e-06
-2.2212e-08
4.74859e-06
-2.00516e-08
4.73575e-06
-1.82207e-08
4.72337e-06
-1.66863e-08
4.71153e-06
-1.54863e-08
-1.514e-08
4.70092e-06
4.17919e-06
4.12534e-06
4.06989e-06
4.01441e-06
3.95923e-06
3.90801e-06
3.86248e-06
3.82239e-06
3.78705e-06
3.75581e-06
3.72808e-06
3.70333e-06
3.68112e-06
3.66107e-06
3.64285e-06
3.62616e-06
3.61068e-06
3.59554e-06
1.16343e-08
-1.16267e-08
2.5202e-08
-1.35552e-08
3.44931e-08
-9.28349e-09
3.82475e-08
-3.7426e-09
3.65332e-08
1.71869e-09
3.01392e-08
6.40713e-09
2.00797e-08
1.0059e-08
7.34206e-09
1.27512e-08
-7.39429e-09
1.47323e-08
-2.36465e-08
1.62639e-08
-4.11582e-08
1.75047e-08
-5.97225e-08
1.85718e-08
-7.92757e-08
1.9544e-08
-9.97336e-08
2.04594e-08
-1.21076e-07
2.13301e-08
-1.43236e-07
2.21568e-08
-1.66186e-07
2.29334e-08
-1.89841e-07
2.3654e-08
-2.14173e-07
2.43121e-08
-2.3907e-07
2.49057e-08
-2.64523e-07
2.54331e-08
-2.90402e-07
2.58978e-08
-3.16724e-07
2.6298e-08
-3.43354e-07
2.66422e-08
-3.70344e-07
2.6964e-08
-3.97696e-07
2.73325e-08
-4.25587e-07
2.78499e-08
-4.54532e-07
2.88766e-08
-4.85948e-07
3.13644e-08
-5.22831e-07
3.67599e-08
-5.58186e-07
3.53032e-08
-5.89291e-07
3.09633e-08
-6.25171e-07
3.5864e-08
-6.63998e-07
3.87327e-08
-7.02966e-07
3.89961e-08
-7.36099e-07
3.30988e-08
-7.73924e-07
3.78633e-08
-8.19067e-07
4.51407e-08
-8.67612e-07
4.85821e-08
-9.20794e-07
5.31908e-08
-9.64275e-07
4.3515e-08
-9.98251e-07
3.39858e-08
-1.03725e-06
3.90187e-08
-1.07864e-06
4.14023e-08
-1.12128e-06
4.26574e-08
-1.16465e-06
4.33764e-08
-1.20834e-06
4.36917e-08
-1.25212e-06
4.37885e-08
-1.29588e-06
4.37601e-08
-1.33953e-06
4.36561e-08
-1.38302e-06
4.35011e-08
-1.42633e-06
4.33102e-08
-1.46942e-06
4.30927e-08
-1.51228e-06
4.28535e-08
-1.55487e-06
4.25956e-08
-1.59719e-06
4.23197e-08
-1.63921e-06
4.2026e-08
-1.68093e-06
4.17133e-08
-1.72231e-06
4.13809e-08
-1.76334e-06
4.10264e-08
-1.80399e-06
4.06485e-08
-1.84424e-06
4.02448e-08
-1.88405e-06
3.9814e-08
-1.92341e-06
3.9353e-08
-1.96227e-06
3.88611e-08
-2.00061e-06
3.83353e-08
-2.03838e-06
3.7775e-08
-2.07557e-06
3.71776e-08
-2.11211e-06
3.65429e-08
-2.14798e-06
3.58681e-08
-2.18313e-06
3.51539e-08
-2.21754e-06
3.43976e-08
-2.25114e-06
3.36001e-08
-2.2839e-06
3.27589e-08
-2.31578e-06
3.18756e-08
-2.34673e-06
3.09479e-08
-2.37671e-06
2.99776e-08
-2.40568e-06
2.8963e-08
-2.43359e-06
2.79062e-08
-2.4604e-06
2.6805e-08
-2.48606e-06
2.5662e-08
-2.51054e-06
2.44752e-08
-2.53379e-06
2.32474e-08
-2.55577e-06
2.19758e-08
-2.57643e-06
2.06633e-08
-2.59574e-06
1.93074e-08
-2.61365e-06
1.79106e-08
-2.63012e-06
1.64693e-08
-2.64509e-06
1.49831e-08
-2.65852e-06
1.34483e-08
-2.67037e-06
1.18586e-08
-2.68057e-06
1.02078e-08
-2.68905e-06
8.48802e-09
-2.69574e-06
6.68802e-09
-2.70052e-06
4.79079e-09
-2.70331e-06
2.78776e-09
-2.70404e-06
7.34967e-10
-2.70285e-06
-1.19623e-09
-2.69991e-06
-2.93447e-09
-2.69533e-06
-4.58317e-09
-2.68912e-06
-6.21217e-09
-2.68129e-06
-7.84167e-09
-2.67182e-06
-9.47662e-09
-2.66071e-06
-1.11186e-08
-2.64795e-06
-1.27649e-08
-2.63354e-06
-1.44149e-08
-2.61748e-06
-1.60649e-08
-2.59977e-06
-1.77143e-08
-2.58041e-06
-1.93596e-08
-2.55941e-06
-2.09998e-08
-2.53677e-06
-2.26315e-08
-2.51251e-06
-2.42535e-08
-2.48664e-06
-2.58623e-08
-2.45917e-06
-2.74562e-08
-2.43013e-06
-2.9032e-08
-2.39953e-06
-3.05877e-08
-2.36739e-06
-3.21204e-08
-2.33375e-06
-3.36274e-08
-2.29863e-06
-3.51061e-08
-2.26206e-06
-3.65533e-08
-2.22407e-06
-3.79662e-08
-2.18471e-06
-3.93412e-08
-2.14401e-06
-4.0677e-08
-2.10202e-06
-4.19695e-08
-2.05877e-06
-4.32192e-08
-2.01433e-06
-4.44216e-08
-1.96873e-06
-4.55792e-08
-1.92203e-06
-4.6688e-08
-1.87426e-06
-4.77521e-08
-1.82549e-06
-4.87647e-08
-1.77577e-06
-4.97183e-08
-1.72515e-06
-5.06085e-08
-1.67371e-06
-5.1451e-08
-1.62148e-06
-5.22393e-08
-1.56853e-06
-5.29712e-08
-1.5149e-06
-5.3643e-08
-1.46067e-06
-5.42583e-08
-1.40589e-06
-5.48148e-08
-1.35061e-06
-5.53148e-08
-1.29489e-06
-5.57582e-08
-1.23877e-06
-5.61466e-08
-1.18232e-06
-5.64814e-08
-1.12558e-06
-5.67626e-08
-1.06861e-06
-5.69921e-08
-1.01146e-06
-5.71698e-08
-9.54166e-07
-5.7299e-08
-8.9679e-07
-5.73798e-08
-8.39372e-07
-5.74167e-08
-7.81954e-07
-5.74098e-08
-7.24575e-07
-5.73643e-08
-6.67272e-07
-5.72806e-08
-6.10078e-07
-5.71649e-08
-5.53023e-07
-5.70174e-08
-4.96135e-07
-5.68449e-08
-4.39435e-07
-5.66473e-08
-3.82945e-07
-5.64318e-08
-3.26682e-07
-5.61974e-08
-2.7066e-07
-5.595e-08
-2.14894e-07
-5.56872e-08
-1.59393e-07
-5.54173e-08
-1.0417e-07
-5.51321e-08
-4.92628e-08
-5.48137e-08
5.17772e-09
-5.43407e-08
5.91509e-08
-5.38734e-08
1.12733e-07
-5.34799e-08
1.65916e-07
-5.30828e-08
2.18775e-07
-5.27569e-08
2.71369e-07
-5.24931e-08
3.23743e-07
-5.22713e-08
3.75924e-07
-5.20793e-08
4.27922e-07
-5.18961e-08
4.79722e-07
-5.16987e-08
5.31267e-07
-5.14435e-08
5.82426e-07
-5.10575e-08
6.32924e-07
-5.03984e-08
6.82197e-07
-4.91735e-08
7.29007e-07
-4.67145e-08
7.70318e-07
-4.12188e-08
7.98673e-07
-2.82728e-08
1.59753e-08
7.8277e-07
8.87614e-09
-2.05005e-08
1.15002e-08
-1.61756e-08
9.31548e-09
-7.09666e-09
3.92881e-09
1.64847e-09
-4.01622e-09
9.66522e-09
-1.43424e-08
1.67379e-08
-2.7014e-08
2.27312e-08
-4.19083e-08
2.765e-08
-5.88096e-08
3.16328e-08
-7.74286e-08
3.48869e-08
-9.75454e-08
3.76195e-08
-1.18972e-07
4.00013e-08
-1.41587e-07
4.21549e-08
-1.65286e-07
4.41579e-08
-1.90016e-07
4.60549e-08
-2.15731e-07
4.78692e-08
-2.42419e-07
4.96128e-08
-2.70061e-07
5.1294e-08
-2.98682e-07
5.2923e-08
-3.28289e-07
5.45153e-08
-3.58959e-07
5.60937e-08
-3.90744e-07
5.76912e-08
-4.23805e-07
5.93495e-08
-4.58283e-07
6.11236e-08
-4.94415e-07
6.30818e-08
-5.32399e-07
6.53027e-08
-5.72432e-07
6.78556e-08
-6.14396e-07
7.07938e-08
-6.57126e-07
7.40537e-08
-6.97522e-07
7.70846e-08
-7.40325e-07
7.80629e-08
-7.87127e-07
7.76985e-08
-8.30191e-07
7.89057e-08
-8.71422e-07
7.99253e-08
-9.12651e-07
8.02267e-08
-9.59761e-07
8.01977e-08
-1.00433e-06
8.24445e-08
-1.04593e-06
8.67447e-08
-1.08701e-06
8.96827e-08
-1.12462e-06
9.0809e-08
-1.1688e-06
8.77183e-08
-1.21905e-06
8.42404e-08
-1.26394e-06
8.39171e-08
-1.3065e-06
8.39729e-08
-1.34781e-06
8.39721e-08
-1.3883e-06
8.38699e-08
-1.42824e-06
8.36425e-08
-1.46776e-06
8.33044e-08
-1.50688e-06
8.28858e-08
-1.54563e-06
8.24091e-08
-1.58402e-06
8.18886e-08
-1.62204e-06
8.13331e-08
-1.65969e-06
8.07474e-08
-1.69697e-06
8.01336e-08
-1.73386e-06
7.94916e-08
-1.77036e-06
7.88203e-08
-1.80645e-06
7.81173e-08
-1.84212e-06
7.73796e-08
-1.87735e-06
7.6604e-08
-1.91211e-06
7.57867e-08
-1.94638e-06
7.49244e-08
-1.98015e-06
7.4013e-08
-2.01339e-06
7.30493e-08
-2.04607e-06
7.20294e-08
-2.07816e-06
7.09504e-08
-2.10964e-06
6.9809e-08
-2.14046e-06
6.86027e-08
-2.17062e-06
6.73287e-08
-2.20006e-06
6.5985e-08
-2.22876e-06
6.45694e-08
-2.25669e-06
6.30806e-08
-2.28381e-06
6.15166e-08
-2.31009e-06
5.98769e-08
-2.33549e-06
5.816e-08
-2.35998e-06
5.63659e-08
-2.38353e-06
5.44936e-08
-2.4061e-06
5.25439e-08
-2.42766e-06
5.05163e-08
-2.44816e-06
4.84116e-08
-2.46759e-06
4.62296e-08
-2.4859e-06
4.39716e-08
-2.50307e-06
4.16376e-08
-2.51905e-06
3.92289e-08
-2.53382e-06
3.67455e-08
-2.54735e-06
3.41892e-08
-2.5596e-06
3.156e-08
-2.57055e-06
2.88595e-08
-2.58017e-06
2.60874e-08
-2.58842e-06
2.32444e-08
-2.59529e-06
2.03298e-08
-2.60077e-06
1.73435e-08
-2.60484e-06
1.42865e-08
-2.60751e-06
1.11617e-08
-2.6088e-06
7.9755e-09
-2.60875e-06
4.74216e-09
-2.60746e-06
1.49707e-09
-2.60501e-06
-1.71102e-09
-2.60133e-06
-4.88056e-09
-2.59622e-06
-8.05163e-09
-2.58956e-06
-1.12392e-08
-2.58133e-06
-1.44436e-08
-2.57151e-06
-1.76654e-08
-2.56009e-06
-2.0904e-08
-2.54706e-06
-2.41567e-08
-2.53241e-06
-2.74195e-08
-2.51614e-06
-3.06884e-08
-2.49825e-06
-3.39588e-08
-2.47874e-06
-3.72268e-08
-2.45761e-06
-4.04874e-08
-2.43488e-06
-4.37368e-08
-2.41053e-06
-4.69698e-08
-2.3846e-06
-5.01823e-08
-2.35709e-06
-5.33689e-08
-2.32801e-06
-5.65252e-08
-2.29739e-06
-5.96455e-08
-2.26524e-06
-6.27253e-08
-2.2316e-06
-6.57589e-08
-2.19647e-06
-6.87414e-08
-2.1599e-06
-7.16669e-08
-2.12192e-06
-7.45297e-08
-2.08255e-06
-7.73238e-08
-2.04183e-06
-8.00436e-08
-1.99981e-06
-8.26839e-08
-1.95652e-06
-8.52396e-08
-1.91202e-06
-8.7707e-08
-1.86635e-06
-9.00819e-08
-1.81955e-06
-9.23629e-08
-1.77168e-06
-9.45482e-08
-1.72278e-06
-9.66397e-08
-1.67291e-06
-9.86298e-08
-1.62213e-06
-1.00504e-07
-1.57047e-06
-1.02259e-07
-1.51802e-06
-1.03912e-07
-1.4648e-06
-1.05458e-07
-1.41089e-06
-1.0689e-07
-1.35634e-06
-1.08205e-07
-1.30121e-06
-1.09407e-07
-1.24555e-06
-1.10495e-07
-1.18941e-06
-1.11469e-07
-1.13286e-06
-1.12333e-07
-1.07593e-06
-1.13087e-07
-1.0187e-06
-1.13734e-07
-9.61196e-07
-1.14276e-07
-9.03483e-07
-1.14714e-07
-8.45608e-07
-1.15052e-07
-7.87618e-07
-1.15292e-07
-7.2956e-07
-1.15441e-07
-6.71474e-07
-1.15499e-07
-6.13403e-07
-1.15476e-07
-5.55383e-07
-1.15374e-07
-4.9745e-07
-1.15202e-07
-4.39634e-07
-1.14964e-07
-3.81963e-07
-1.14669e-07
-3.24461e-07
-1.14321e-07
-2.6715e-07
-1.13932e-07
-2.10046e-07
-1.13503e-07
-1.53165e-07
-1.13045e-07
-9.65175e-08
-1.12557e-07
-4.01188e-08
-1.12046e-07
1.60111e-08
-1.11502e-07
7.18628e-08
-1.10939e-07
1.27454e-07
-1.10355e-07
1.82875e-07
-1.09714e-07
2.38091e-07
-1.09037e-07
2.9304e-07
-1.08377e-07
3.47774e-07
-1.07762e-07
4.02312e-07
-1.07241e-07
4.56683e-07
-1.06807e-07
5.10913e-07
-1.06445e-07
5.6502e-07
-1.06126e-07
6.19004e-07
-1.05822e-07
6.72844e-07
-1.05477e-07
7.26472e-07
-1.05011e-07
7.79751e-07
-1.04273e-07
8.32405e-07
-1.02991e-07
8.83929e-07
-1.00633e-07
9.33281e-07
-9.60047e-08
9.78849e-07
-8.67255e-08
1.01701e-06
-6.63798e-08
-1.56553e-08
1.04869e-06
-2.65849e-10
-2.02352e-08
-6.77494e-09
-9.66599e-09
-1.5898e-08
2.02654e-09
-2.66664e-08
1.24182e-08
-3.87708e-08
2.17699e-08
-5.21792e-08
3.01484e-08
-6.69912e-08
3.75427e-08
-8.3303e-08
4.3964e-08
-1.01161e-07
4.94897e-08
-1.20526e-07
5.42544e-08
-1.41326e-07
5.8418e-08
-1.63458e-07
6.21339e-08
-1.86835e-07
6.55299e-08
-2.11379e-07
6.87019e-08
-2.37045e-07
7.17171e-08
-2.63798e-07
7.46204e-08
-2.91634e-07
7.74425e-08
-3.20549e-07
8.02072e-08
-3.5057e-07
8.29367e-08
-3.81709e-07
8.56562e-08
-4.14018e-07
8.83956e-08
-4.47513e-07
9.11907e-08
-4.82249e-07
9.40797e-08
-5.18224e-07
9.71003e-08
-5.55428e-07
1.00278e-07
-5.93745e-07
1.0361e-07
-6.32951e-07
1.07046e-07
-6.72644e-07
1.1046e-07
-7.12235e-07
1.13621e-07
-7.51366e-07
1.16177e-07
-7.91066e-07
1.17739e-07
-8.3189e-07
1.18487e-07
-8.72215e-07
1.19218e-07
-9.12186e-07
1.19875e-07
-9.52414e-07
1.20453e-07
-9.93411e-07
1.21189e-07
-1.03344e-06
1.22481e-07
-1.07091e-06
1.24217e-07
-1.10661e-06
1.25393e-07
-1.14126e-06
1.25467e-07
-1.17775e-06
1.24217e-07
-1.21612e-06
1.22612e-07
-1.25373e-06
1.21538e-07
-1.29049e-06
1.20728e-07
-1.32656e-06
1.2005e-07
-1.3621e-06
1.19413e-07
-1.39722e-06
1.18765e-07
-1.43199e-06
1.18084e-07
-1.46647e-06
1.17366e-07
-1.50067e-06
1.16613e-07
-1.53461e-06
1.15826e-07
-1.56828e-06
1.15007e-07
-1.60169e-06
1.14155e-07
-1.63482e-06
1.13267e-07
-1.66767e-06
1.1234e-07
-1.70022e-06
1.11371e-07
-1.73246e-06
1.10355e-07
-1.76437e-06
1.09287e-07
-1.79592e-06
1.08162e-07
-1.82711e-06
1.06975e-07
-1.85791e-06
1.0572e-07
-1.88829e-06
1.04392e-07
-1.91823e-06
1.02986e-07
-1.9477e-06
1.01498e-07
-1.97667e-06
9.99227e-08
-2.00512e-06
9.8256e-08
-2.03301e-06
9.64943e-08
-2.06032e-06
9.4634e-08
-2.08701e-06
9.26721e-08
-2.11305e-06
9.0606e-08
-2.1384e-06
8.84334e-08
-2.16304e-06
8.61522e-08
-2.18692e-06
8.3761e-08
-2.21002e-06
8.12585e-08
-2.2323e-06
7.8644e-08
-2.25372e-06
7.5917e-08
-2.27426e-06
7.30776e-08
-2.29387e-06
7.01259e-08
-2.31252e-06
6.70625e-08
-2.33018e-06
6.38879e-08
-2.34681e-06
6.06034e-08
-2.36239e-06
5.721e-08
-2.37687e-06
5.37092e-08
-2.39023e-06
5.01026e-08
-2.40243e-06
4.63921e-08
-2.41345e-06
4.25798e-08
-2.42326e-06
3.86682e-08
-2.43183e-06
3.46596e-08
-2.43914e-06
3.05568e-08
-2.44516e-06
2.63631e-08
-2.4499e-06
2.20821e-08
-2.45333e-06
1.772e-08
-2.45545e-06
1.32854e-08
-2.45627e-06
8.78954e-09
-2.45578e-06
4.24954e-09
-2.45397e-06
-3.12915e-10
-2.45079e-06
-4.88403e-09
-2.4462e-06
-9.47856e-09
-2.44013e-06
-1.41179e-08
-2.43257e-06
-1.88038e-08
-2.42349e-06
-2.35296e-08
-2.41287e-06
-2.82893e-08
-2.4007e-06
-3.30775e-08
-2.38698e-06
-3.78878e-08
-2.37169e-06
-4.27143e-08
-2.35483e-06
-4.755e-08
-2.3364e-06
-5.23887e-08
-2.31641e-06
-5.72236e-08
-2.29484e-06
-6.20483e-08
-2.27172e-06
-6.68558e-08
-2.24705e-06
-7.16396e-08
-2.22084e-06
-7.63923e-08
-2.1931e-06
-8.11069e-08
-2.16384e-06
-8.5776e-08
-2.13309e-06
-9.03921e-08
-2.10086e-06
-9.49475e-08
-2.06718e-06
-9.94345e-08
-2.03207e-06
-1.03845e-07
-1.99556e-06
-1.08171e-07
-1.95767e-06
-1.12404e-07
-1.91845e-06
-1.16535e-07
-1.87793e-06
-1.20557e-07
-1.83614e-06
-1.24459e-07
-1.79314e-06
-1.28237e-07
-1.74895e-06
-1.31883e-07
-1.70363e-06
-1.3539e-07
-1.65723e-06
-1.38756e-07
-1.60979e-06
-1.4198e-07
-1.56136e-06
-1.45059e-07
-1.512e-06
-1.47989e-07
-1.46175e-06
-1.50751e-07
-1.41067e-06
-1.53341e-07
-1.35881e-06
-1.55773e-07
-1.30623e-06
-1.58045e-07
-1.25297e-06
-1.60149e-07
-1.1991e-06
-1.62083e-07
-1.14467e-06
-1.63847e-07
-1.08974e-06
-1.65444e-07
-1.03434e-06
-1.66873e-07
-9.7855e-07
-1.68139e-07
-9.22405e-07
-1.69243e-07
-8.65959e-07
-1.70188e-07
-8.09263e-07
-1.70978e-07
-7.52367e-07
-1.71615e-07
-6.95315e-07
-1.72106e-07
-6.38156e-07
-1.72454e-07
-5.80931e-07
-1.72666e-07
-5.23681e-07
-1.72748e-07
-4.66443e-07
-1.7271e-07
-4.09255e-07
-1.72559e-07
-3.52146e-07
-1.72304e-07
-2.95147e-07
-1.71956e-07
-2.38283e-07
-1.71524e-07
-1.81575e-07
-1.7102e-07
-1.25042e-07
-1.70453e-07
-6.87007e-08
-1.69833e-07
-1.25618e-08
-1.6917e-07
4.33604e-08
-1.68467e-07
9.90623e-08
-1.67733e-07
1.54548e-07
-1.66974e-07
2.09822e-07
-1.66199e-07
2.64895e-07
-1.65415e-07
3.19812e-07
-1.64615e-07
3.74591e-07
-1.63803e-07
4.29231e-07
-1.63003e-07
4.83744e-07
-1.62261e-07
5.38135e-07
-1.61617e-07
5.92416e-07
-1.61074e-07
6.46604e-07
-1.60617e-07
7.00708e-07
-1.60216e-07
7.54726e-07
-1.59823e-07
8.08629e-07
-1.59365e-07
8.62353e-07
-1.58719e-07
9.15768e-07
-1.57672e-07
9.68635e-07
-1.55842e-07
1.02054e-06
-1.52523e-07
1.07082e-06
-1.46271e-07
1.11857e-06
-1.34456e-07
1.16317e-06
-1.10971e-07
-6.19303e-08
1.20946e-06
-8.3689e-09
-1.18681e-08
-2.08515e-08
2.81509e-09
-3.45902e-08
1.57642e-08
-4.90801e-08
2.69085e-08
-6.42499e-08
3.69388e-08
-8.01625e-08
4.60615e-08
-9.69504e-08
5.43296e-08
-1.14752e-07
6.17663e-08
-1.33684e-07
6.84203e-08
-1.53806e-07
7.4377e-08
-1.75138e-07
7.9748e-08
-1.97655e-07
8.46523e-08
-2.21329e-07
8.92008e-08
-2.46114e-07
9.34867e-08
-2.71982e-07
9.75824e-08
-2.98905e-07
1.01542e-07
-3.26871e-07
1.05404e-07
-3.55862e-07
1.09197e-07
-3.85875e-07
1.12944e-07
-4.16882e-07
1.16664e-07
-4.48868e-07
1.20376e-07
-4.8177e-07
1.24095e-07
-5.15525e-07
1.2783e-07
-5.50005e-07
1.31582e-07
-5.85064e-07
1.35331e-07
-6.20493e-07
1.39032e-07
-6.56055e-07
1.426e-07
-6.91522e-07
1.45909e-07
-7.26717e-07
1.48802e-07
-7.61678e-07
1.51115e-07
-7.96699e-07
1.52748e-07
-8.32019e-07
1.53785e-07
-8.67323e-07
1.54515e-07
-9.02544e-07
1.55082e-07
-9.37666e-07
1.55573e-07
-9.72562e-07
1.56079e-07
-1.00672e-06
1.56646e-07
-1.03968e-06
1.57177e-07
-1.07168e-06
1.57392e-07
-1.10328e-06
1.57072e-07
-1.13526e-06
1.56202e-07
-1.16772e-06
1.55078e-07
-1.20017e-06
1.53988e-07
-1.23242e-06
1.52978e-07
-1.2644e-06
1.52039e-07
-1.29613e-06
1.51142e-07
-1.32762e-06
1.50255e-07
-1.35889e-06
1.49361e-07
-1.38997e-06
1.48448e-07
-1.42087e-06
1.47509e-07
-1.45158e-06
1.4654e-07
-1.48211e-06
1.45534e-07
-1.51244e-06
1.44489e-07
-1.54257e-06
1.43399e-07
-1.57249e-06
1.42257e-07
-1.60217e-06
1.41057e-07
-1.63161e-06
1.39794e-07
-1.66078e-06
1.3846e-07
-1.68967e-06
1.37048e-07
-1.71825e-06
1.35552e-07
-1.74649e-06
1.33965e-07
-1.77438e-06
1.3228e-07
-1.80189e-06
1.30491e-07
-1.82898e-06
1.28592e-07
-1.85564e-06
1.26578e-07
-1.88183e-06
1.24443e-07
-1.90751e-06
1.22182e-07
-1.93267e-06
1.19792e-07
-1.95727e-06
1.17268e-07
-1.98127e-06
1.14607e-07
-2.00464e-06
1.11806e-07
-2.02736e-06
1.08863e-07
-2.04937e-06
1.05776e-07
-2.07066e-06
1.02543e-07
-2.09118e-06
9.91631e-08
-2.1109e-06
9.56365e-08
-2.12978e-06
9.19628e-08
-2.1478e-06
8.81424e-08
-2.16491e-06
8.41759e-08
-2.18109e-06
8.00645e-08
-2.1963e-06
7.58098e-08
-2.2105e-06
7.14135e-08
-2.22367e-06
6.68778e-08
-2.23577e-06
6.22053e-08
-2.24678e-06
5.73989e-08
-2.25666e-06
5.2462e-08
-2.26539e-06
4.73984e-08
-2.27295e-06
4.22123e-08
-2.27929e-06
3.69087e-08
-2.28442e-06
3.14924e-08
-2.28831e-06
2.59702e-08
-2.29093e-06
2.03498e-08
-2.29229e-06
1.46408e-08
-2.29236e-06
8.8546e-09
-2.29111e-06
3.00397e-09
-2.28853e-06
-2.89916e-09
-2.28456e-06
-8.85128e-09
-2.27918e-06
-1.48611e-08
-2.27237e-06
-2.09372e-08
-2.2641e-06
-2.70768e-08
-2.25436e-06
-3.32724e-08
-2.24314e-06
-3.95152e-08
-2.23042e-06
-4.57972e-08
-2.21621e-06
-5.21093e-08
-2.20048e-06
-5.84433e-08
-2.18324e-06
-6.47899e-08
-2.16449e-06
-7.1141e-08
-2.14423e-06
-7.74872e-08
-2.12246e-06
-8.38204e-08
-2.09918e-06
-9.01311e-08
-2.07441e-06
-9.64106e-08
-2.04815e-06
-1.02649e-07
-2.02042e-06
-1.08838e-07
-1.99122e-06
-1.14966e-07
-1.96058e-06
-1.21025e-07
-1.92852e-06
-1.27004e-07