/*--------------------------------*- C++ -*----------------------------------*\
  =========                 |
  \\      /  F ield         | OpenFOAM: The Open Source CFD Toolbox
   \\    /   O peration     | Website:  https://openfoam.org
    \\  /    A nd           | Version:  8
     \\/     M anipulation  |
\*---------------------------------------------------------------------------*/
FoamFile
{
    version     2.0;
    format      ascii;
    class       volVectorField;
    location    "260";
    object      U;
}
// * * * * * * * * * * * * * * * * * * * * * * * * * * * * * * * * * * * * * //

dimensions      [0 1 -1 0 0 0 0];

internalField   nonuniform List<vector> 
12225
(
(9.85697 -0.886451 0)
(9.66665 -0.740745 0)
(9.45573 -0.429483 0)
(9.22456 -0.222214 0)
(9.00654 -0.106461 0)
(8.81445 -0.0458743 0)
(8.6476 -0.0151786 0)
(8.50543 0.000442114 0)
(8.38382 0.0083811 0)
(8.2811 0.012261 0)
(8.19276 0.0139895 0)
(8.11668 0.0149733 0)
(8.05005 0.0153754 0)
(7.99121 0.0155203 0)
(7.93822 0.0155484 0)
(7.89233 0.0153348 0)
(7.83928 0.0166117 0)
(7.83002 0.0101915 0)
(10.0545 0.227569 0)
(10.121 0.326909 0)
(10.1196 0.26157 0)
(10.0856 0.186537 0)
(10.0435 0.134663 0)
(9.99676 0.101107 0)
(9.94405 0.0792743 0)
(9.88533 0.0645526 0)
(9.824 0.0542412 0)
(9.76151 0.0466496 0)
(9.70009 0.0408718 0)
(9.64032 0.036312 0)
(9.5831 0.0326338 0)
(9.52879 0.0297401 0)
(9.47708 0.0272354 0)
(9.42954 0.0262899 0)
(9.38233 0.0231062 0)
(9.34772 0.0312952 0)
(10.0035 0.0579183 0)
(10.0303 0.056006 0)
(10.0561 0.0337769 0)
(10.0703 0.032892 0)
(10.077 0.0406388 0)
(10.0779 0.0465332 0)
(10.0726 0.0493445 0)
(10.0615 0.0502854 0)
(10.0463 0.0501776 0)
(10.0279 0.0494564 0)
(10.0074 0.0484034 0)
(9.98522 0.0472253 0)
(9.96216 0.0460215 0)
(9.93861 0.0449175 0)
(9.91482 0.0438011 0)
(9.89156 0.043291 0)
(9.86847 0.0423152 0)
(9.8467 0.0439217 0)
(9.99779 0.0110532 0)
(10.011 0.0266065 0)
(10.035 0.0371472 0)
(10.0525 0.0480799 0)
(10.0644 0.0554436 0)
(10.0735 0.0581722 0)
(10.0796 0.0583374 0)
(10.0825 0.0575899 0)
(10.0829 0.0565343 0)
(10.0814 0.0553293 0)
(10.0783 0.0540462 0)
(10.074 0.0527998 0)
(10.0687 0.0515858 0)
(10.0627 0.0504999 0)
(10.056 0.0494455 0)
(10.0492 0.0487677 0)
(10.0422 0.0478549 0)
(10.0352 0.0478151 0)
(9.99935 0.00719749 0)
(10.009 0.0316521 0)
(10.0275 0.0439176 0)
(10.0418 0.0499153 0)
(10.0528 0.0536005 0)
(10.0629 0.0552207 0)
(10.0716 0.055495 0)
(10.0784 0.0551988 0)
(10.0835 0.0546472 0)
(10.0874 0.0539326 0)
(10.0902 0.0531098 0)
(10.0922 0.0522716 0)
(10.0934 0.0514323 0)
(10.0941 0.0506612 0)
(10.0943 0.0499114 0)
(10.0944 0.0493455 0)
(10.0943 0.0486746 0)
(10.0942 0.0482061 0)
(10.0003 0.00917752 0)
(10.0083 0.0311666 0)
(10.0227 0.0409375 0)
(10.035 0.0453831 0)
(10.0451 0.0490234 0)
(10.0548 0.051353 0)
(10.0638 0.0523272 0)
(10.0715 0.0525523 0)
(10.078 0.052408 0)
(10.0836 0.0520318 0)
(10.0884 0.0514991 0)
(10.0927 0.050896 0)
(10.0963 0.0502561 0)
(10.0996 0.0496289 0)
(10.1025 0.048996 0)
(10.1052 0.0484214 0)
(10.1079 0.0477712 0)
(10.1105 0.0470488 0)
(10.0005 0.00894369 0)
(10.0071 0.0270811 0)
(10.0191 0.036405 0)
(10.0302 0.041378 0)
(10.0396 0.0453958 0)
(10.0487 0.0480543 0)
(10.0573 0.0493148 0)
(10.065 0.0497741 0)
(10.0718 0.0498341 0)
(10.0779 0.0496404 0)
(10.0835 0.0492701 0)
(10.0886 0.0487989 0)
(10.0932 0.0482681 0)
(10.0975 0.0477122 0)
(10.1016 0.047125 0)
(10.1054 0.0465227 0)
(10.1092 0.0458308 0)
(10.113 0.0449751 0)
(10.0004 0.00791462 0)
(10.006 0.0233739 0)
(10.0161 0.0327255 0)
(10.0263 0.038086 0)
(10.0352 0.0420742 0)
(10.0436 0.0447489 0)
(10.0518 0.0461494 0)
(10.0593 0.0467702 0)
(10.066 0.0469761 0)
(10.0722 0.0469114 0)
(10.078 0.046654 0)
(10.0834 0.0462723 0)
(10.0884 0.0458103 0)
(10.0931 0.0452936 0)
(10.0977 0.0447209 0)
(10.102 0.0440871 0)
(10.1063 0.0433429 0)
(10.1105 0.0424152 0)
(10.0004 0.00695869 0)
(10.0051 0.0204207 0)
(10.0137 0.0294419 0)
(10.0229 0.0348432 0)
(10.0312 0.0386861 0)
(10.0392 0.0413379 0)
(10.0469 0.0428576 0)
(10.0541 0.0436162 0)
(10.0607 0.043937 0)
(10.0669 0.0439693 0)
(10.0726 0.0437934 0)
(10.0781 0.0434734 0)
(10.0832 0.0430529 0)
(10.0881 0.0425538 0)
(10.0928 0.0419768 0)
(10.0973 0.0413108 0)
(10.1017 0.0405191 0)
(10.106 0.0395526 0)
(10.0004 0.00612757 0)
(10.0043 0.0178543 0)
(10.0116 0.0262624 0)
(10.0199 0.0315608 0)
(10.0277 0.0352765 0)
(10.0352 0.0378913 0)
(10.0424 0.0394892 0)
(10.0493 0.0403492 0)
(10.0558 0.0407549 0)
(10.0618 0.0408587 0)
(10.0675 0.0407418 0)
(10.0729 0.0404647 0)
(10.078 0.0400689 0)
(10.0829 0.0395754 0)
(10.0876 0.038987 0)
(10.0922 0.0382934 0)
(10.0966 0.037468 0)
(10.1009 0.0364862 0)
(10.0003 0.00536732 0)
(10.0037 0.0155439 0)
(10.0099 0.0232226 0)
(10.0173 0.0283226 0)
(10.0245 0.0318951 0)
(10.0315 0.0344321 0)
(10.0384 0.0360537 0)
(10.045 0.0369763 0)
(10.0512 0.0374412 0)
(10.0571 0.0375961 0)
(10.0627 0.0375217 0)
(10.068 0.0372744 0)
(10.073 0.0368942 0)
(10.0779 0.0364018 0)
(10.0826 0.0358027 0)
(10.087 0.0350905 0)
(10.0914 0.0342479 0)
(10.0956 0.0332693 0)
(10.0003 0.00470181 0)
(10.0032 0.0136017 0)
(10.0086 0.0205744 0)
(10.0152 0.0254084 0)
(10.0219 0.0288141 0)
(10.0286 0.0312446 0)
(10.0351 0.032846 0)
(10.0414 0.0337939 0)
(10.0474 0.0342914 0)
(10.0531 0.0344766 0)
(10.0586 0.0344282 0)
(10.0638 0.0341996 0)
(10.0687 0.0338286 0)
(10.0735 0.0333367 0)
(10.0781 0.0327318 0)
(10.0825 0.0320123 0)
(10.0867 0.031168 0)
(10.0907 0.0302075 0)
(10.0003 0.00408671 0)
(10.0028 0.0118315 0)
(10.0075 0.0180735 0)
(10.0134 0.0225653 0)
(10.0197 0.0257697 0)
(10.0259 0.0280683 0)
(10.0321 0.0296171 0)
(10.0381 0.0305634 0)
(10.0439 0.0310753 0)
(10.0495 0.0312774 0)
(10.0548 0.0312456 0)
(10.0598 0.0310301 0)
(10.0647 0.0306668 0)
(10.0693 0.0301774 0)
(10.0738 0.0295725 0)
(10.0781 0.0288552 0)
(10.0822 0.0280208 0)
(10.0861 0.0270887 0)
(10.0002 0.00345134 0)
(10.0024 0.00999159 0)
(10.0064 0.015391 0)
(10.0117 0.0194156 0)
(10.0174 0.0223353 0)
(10.0232 0.0244422 0)
(10.029 0.0258878 0)
(10.0347 0.0267949 0)
(10.0403 0.0272964 0)
(10.0456 0.0274994 0)
(10.0508 0.0274738 0)
(10.0557 0.027266 0)
(10.0604 0.0269094 0)
(10.0649 0.0264259 0)
(10.0693 0.0258283 0)
(10.0734 0.025124 0)
(10.0774 0.0243136 0)
(10.0812 0.023424 0)
(10.0002 0.00279165 0)
(10.002 0.00808067 0)
(10.0055 0.0125372 0)
(10.0101 0.015965 0)
(10.0153 0.0184978 0)
(10.0206 0.020338 0)
(10.026 0.0216164 0)
(10.0314 0.0224329 0)
(10.0367 0.022888 0)
(10.0418 0.0230675 0)
(10.0468 0.0230322 0)
(10.0515 0.0228237 0)
(10.0561 0.0224719 0)
(10.0604 0.0219982 0)
(10.0646 0.0214169 0)
(10.0686 0.0207387 0)
(10.0724 0.0199685 0)
(10.0761 0.0191365 0)
(10.0002 0.002107 0)
(10.0017 0.00610092 0)
(10.0047 0.00952097 0)
(10.0088 0.0122184 0)
(10.0134 0.0142456 0)
(10.0183 0.0157264 0)
(10.0233 0.0167592 0)
(10.0283 0.0174195 0)
(10.0333 0.0177789 0)
(10.0382 0.0179007 0)
(10.0429 0.0178332 0)
(10.0475 0.0176111 0)
(10.0518 0.0172599 0)
(10.056 0.0167991 0)
(10.0601 0.0162431 0)
(10.0639 0.0156042 0)
(10.0675 0.0148892 0)
(10.071 0.0141292 0)
(10.0002 0.00139446 0)
(10.0015 0.00403845 0)
(10.0041 0.00632621 0)
(10.0076 0.00815926 0)
(10.0118 0.00955043 0)
(10.0163 0.010564 0)
(10.0209 0.0112603 0)
(10.0256 0.0116882 0)
(10.0303 0.0118925 0)
(10.035 0.011914 0)
(10.0395 0.0117859 0)
(10.0438 0.0115334 0)
(10.048 0.0111759 0)
(10.052 0.0107291 0)
(10.0559 0.0102055 0)
(10.0595 0.00961642 0)
(10.063 0.00896886 0)
(10.0664 0.00829161 0)
(10.0001 0.000637681 0)
(10.0013 0.00184162 0)
(10.0036 0.00288107 0)
(10.0068 0.0037079 0)
(10.0107 0.00432221 0)
(10.0148 0.00474647 0)
(10.0192 0.00500348 0)
(10.0236 0.00511312 0)
(10.0281 0.00509477 0)
(10.0325 0.00496677 0)
(10.0368 0.00474481 0)
(10.041 0.00444174 0)
(10.045 0.00406835 0)
(10.0488 0.00363413 0)
(10.0525 0.00314745 0)
(10.056 0.00261659 0)
(10.0594 0.00204653 0)
(10.0626 0.00146137 0)
(10.0001 -0.000206382 0)
(10.0012 -0.000611476 0)
(10.0034 -0.000987412 0)
(10.0065 -0.00132772 0)
(10.0102 -0.0016319 0)
(10.0143 -0.00191385 0)
(10.0185 -0.00219141 0)
(10.0228 -0.00247659 0)
(10.0271 -0.00277664 0)
(10.0313 -0.00309695 0)
(10.0355 -0.0034417 0)
(10.0395 -0.00381293 0)
(10.0434 -0.00421108 0)
(10.0471 -0.00463512 0)
(10.0507 -0.00508327 0)
(10.0541 -0.00555244 0)
(10.0573 -0.00604134 0)
(10.0604 -0.00653269 0)
(10.0001 -0.0010137 0)
(10.0013 -0.00296482 0)
(10.0037 -0.00470518 0)
(10.007 -0.00615782 0)
(10.0108 -0.00731945 0)
(10.015 -0.00824976 0)
(10.0193 -0.00901003 0)
(10.0237 -0.00964219 0)
(10.028 -0.0101803 0)
(10.0323 -0.0106558 0)
(10.0364 -0.0110932 0)
(10.0404 -0.0115089 0)
(10.0443 -0.0119138 0)
(10.0479 -0.0123151 0)
(10.0514 -0.0127175 0)
(10.0548 -0.0131231 0)
(10.058 -0.013534 0)
(10.061 -0.0139394 0)
(10.0002 -0.00170987 0)
(10.0015 -0.00502014 0)
(10.0041 -0.00795418 0)
(10.0078 -0.0103136 0)
(10.012 -0.0121193 0)
(10.0164 -0.0135212 0)
(10.021 -0.0146252 0)
(10.0255 -0.0154883 0)
(10.03 -0.0161672 0)
(10.0343 -0.0167203 0)
(10.0385 -0.0171917 0)
(10.0426 -0.0176099 0)
(10.0464 -0.0179939 0)
(10.0501 -0.0183573 0)
(10.0536 -0.0187091 0)
(10.0569 -0.0190547 0)
(10.0601 -0.0193981 0)
(10.063 -0.0197324 0)
(10.0002 -0.00237104 0)
(10.0016 -0.00705123 0)
(10.0047 -0.0112009 0)
(10.009 -0.0143776 0)
(10.0137 -0.0166812 0)
(10.0185 -0.0184219 0)
(10.0233 -0.0197597 0)
(10.0281 -0.0207652 0)
(10.0328 -0.0215197 0)
(10.0373 -0.0221041 0)
(10.0416 -0.022575 0)
(10.0457 -0.0229687 0)
(10.0495 -0.0233115 0)
(10.0532 -0.0236227 0)
(10.0567 -0.0239154 0)
(10.0601 -0.0241971 0)
(10.0632 -0.0244732 0)
(10.0662 -0.0247392 0)
(10.0002 -0.0029899 0)
(10.0018 -0.00910822 0)
(10.0054 -0.01447 0)
(10.0105 -0.0183656 0)
(10.0159 -0.021116 0)
(10.0211 -0.0231444 0)
(10.0263 -0.0246058 0)
(10.0314 -0.0256254 0)
(10.0362 -0.0263573 0)
(10.0409 -0.0269112 0)
(10.0453 -0.0273435 0)
(10.0494 -0.0276897 0)
(10.0533 -0.0279791 0)
(10.0571 -0.0282339 0)
(10.0606 -0.0284682 0)
(10.0639 -0.0286903 0)
(10.067 -0.0289057 0)
(10.07 -0.0291119 0)
(10.0001 -0.00353542 0)
(10.0018 -0.0115605 0)
(10.0062 -0.0179025 0)
(10.0123 -0.0220059 0)
(10.0183 -0.0250786 0)
(10.024 -0.0274933 0)
(10.0296 -0.0291365 0)
(10.035 -0.0301513 0)
(10.0401 -0.030808 0)
(10.0449 -0.0312714 0)
(10.0493 -0.0316089 0)
(10.0536 -0.0318612 0)
(10.0576 -0.0320619 0)
(10.0613 -0.0322348 0)
(10.0648 -0.0323934 0)
(10.0681 -0.0325449 0)
(10.0712 -0.0326929 0)
(10.0742 -0.032834 0)
(9.99991 -0.0033836 0)
(10.0016 -0.0149756 0)
(10.0073 -0.0227383 0)
(10.0142 -0.0262548 0)
(10.0206 -0.0288464 0)
(10.0268 -0.0312162 0)
(10.0331 -0.0329417 0)
(10.039 -0.0340335 0)
(10.0444 -0.0347367 0)
(10.0494 -0.0352035 0)
(10.054 -0.0355043 0)
(10.0583 -0.035693 0)
(10.0623 -0.0358159 0)
(10.066 -0.0359037 0)
(10.0694 -0.0359745 0)
(10.0725 -0.0360382 0)
(10.0754 -0.0360994 0)
(10.0781 -0.0361569 0)
(9.9986 -0.000400224 0)
(9.99908 -0.0157622 0)
(10.0075 -0.027439 0)
(10.0166 -0.0325037 0)
(10.0238 -0.0348837 0)
(10.0306 -0.0362428 0)
(10.0376 -0.0369978 0)
(10.0441 -0.0374674 0)
(10.0498 -0.0378186 0)
(10.0549 -0.0380681 0)
(10.0595 -0.0382151 0)
(10.0635 -0.0382846 0)
(10.0671 -0.0383065 0)
(10.0703 -0.0383021 0)
(10.073 -0.0382866 0)
(10.0755 -0.0382682 0)
(10.0776 -0.0382509 0)
(10.0794 -0.0382326 0)
(9.99488 0.00133408 0)
(9.99288 -0.00809673 0)
(10.006 -0.0203581 0)
(10.0202 -0.0322856 0)
(10.0306 -0.04049 0)
(10.0392 -0.0441637 0)
(10.0467 -0.0450782 0)
(10.0529 -0.0449356 0)
(10.0578 -0.0444705 0)
(10.0616 -0.0438764 0)
(10.0646 -0.0432331 0)
(10.0667 -0.0425975 0)
(10.0682 -0.0420037 0)
(10.069 -0.04146 0)
(10.0693 -0.040976 0)
(10.0692 -0.0405482 0)
(10.0687 -0.0401738 0)
(10.0679 -0.0398273 0)
(9.99473 -0.0305624 0)
(9.99925 -0.0228748 0)
(10.0147 -0.00264018 0)
(10.0304 -0.00191597 0)
(10.0434 -0.011667 0)
(10.0533 -0.0209322 0)
(10.0594 -0.0272906 0)
(10.0618 -0.0315197 0)
(10.0615 -0.0342957 0)
(10.059 -0.035993 0)
(10.055 -0.0369257 0)
(10.0497 -0.0373598 0)
(10.0434 -0.0374858 0)
(10.0364 -0.0374234 0)
(10.0288 -0.0372631 0)
(10.0209 -0.0370599 0)
(10.0128 -0.036879 0)
(10.0045 -0.0366888 0)
(10.0273 -0.182759 0)
(10.0763 -0.288315 0)
(10.0871 -0.247758 0)
(10.0777 -0.186523 0)
(10.0663 -0.140302 0)
(10.0537 -0.108228 0)
(10.0365 -0.0858887 0)
(10.0145 -0.0704294 0)
(9.98934 -0.0596611 0)
(9.9623 -0.0518877 0)
(9.93432 -0.0460658 0)
(9.90599 -0.0415684 0)
(9.8778 -0.0380126 0)
(9.85009 -0.0351375 0)
(9.82309 -0.0327709 0)
(9.79691 -0.0308497 0)
(9.77181 -0.0293327 0)
(9.74781 -0.0285127 0)
(9.93574 0.689319 0)
(9.8686 0.609604 0)
(9.76453 0.380622 0)
(9.62662 0.21744 0)
(9.48587 0.119264 0)
(9.35717 0.0631833 0)
(9.24263 0.0315714 0)
(9.14107 0.0136114 0)
(9.05138 0.00325804 0)
(8.97239 -0.00280341 0)
(8.90247 -0.00635902 0)
(8.84028 -0.00847833 0)
(8.78457 -0.00972909 0)
(8.73445 -0.0104752 0)
(8.68901 -0.0109781 0)
(8.64766 -0.0112471 0)
(8.60946 -0.0114538 0)
(8.57411 -0.0121139 0)
(0.00500953 -0.0117499 -8.49386e-19)
(0.0171733 -0.0180471 7.41872e-19)
(0.0272496 -0.0148624 0)
(0.033289 -0.00801891 0)
(0.0343267 -0.00054199 0)
(0.0305158 0.00589534 -3.82924e-19)
(0.0229984 0.0106379 0)
(0.0126995 0.0137677 0)
(0.000346647 0.015687 0)
(-0.0135397 0.0168529 0)
(-0.0286277 0.0176315 2.21082e-19)
(-0.0447296 0.018254 0)
(-0.0617466 0.0188288 0)
(-0.0796197 0.0193916 0)
(-0.0983087 0.0199408 0)
(-0.117777 0.0204656 1.24927e-19)
(-0.137985 0.020957 0)
(-0.158882 0.0214195 0)
(-0.180422 0.0218732 0)
(-0.202541 0.0223601 0)
(-0.225187 0.0229363 0)
(-0.248295 0.0236741 0)
(-0.271821 0.0246434 0)
(-0.295711 0.0259342 7.5081e-20)
(-0.31992 0.0277118 -7.2526e-20)
(-0.344445 0.0301505 7.07057e-20)
(-0.369365 0.0333438 6.96587e-20)
(-0.394976 0.0377076 0)
(-0.421658 0.0442292 0)
(-0.450017 0.0538046 -7.74249e-20)
(-0.483052 0.0304918 -9.6978e-20)
(-0.51766 -0.00603692 0)
(-0.546075 -0.00677593 0)
(-0.580062 -0.00797295 -9.41633e-20)
(-0.614999 -0.0113782 0)
(-0.650416 -0.0220239 0)
(-0.684375 0.0140635 5.45005e-20)
(-0.719394 0.0569423 0)
(-0.761686 0.0840092 4.86539e-20)
(-0.806022 0.104645 1.0407e-19)
(-0.850932 0.0709894 0)
(-0.888988 0.0274984 0)
(-0.920956 0.0314332 0)
(-0.958338 0.0328198 0)
(-0.996984 0.0337531 0)
(-1.03657 0.0344512 1.19626e-19)
(-1.07677 0.0346377 1.16173e-19)
(-1.11718 0.0345908 1.12936e-19)
(-1.15767 0.0344161 0)
(-1.19815 0.0341762 -1.07054e-19)
(-1.23857 0.0338915 0)
(-1.27889 0.0335796 1.0186e-19)
(-1.31909 0.0332487 9.94859e-20)
(-1.35913 0.0329047 0)
(-1.39901 0.0325503 0)
(-1.43871 0.0321869 0)
(-1.47821 0.0318149 9.12019e-20)
(-1.51749 0.0314339 0)
(-1.55654 0.0310431 0)
(-1.59534 0.0306412 0)
(-1.63387 0.0302274 0)
(-1.67211 0.0298 0)
(-1.71002 0.0293581 0)
(-1.74759 0.0288998 0)
(-1.78479 0.0284246 0)
(-1.82158 0.0279308 -7.74509e-20)
(-1.85794 0.027418 0)
(-1.89383 0.0268848 0)
(-1.92922 0.0263312 7.38392e-20)
(-1.96407 0.0257558 7.27096e-20)
(-1.99835 0.0251591 0)
(-2.032 0.0245398 -7.0544e-20)
(-2.06501 0.0238988 6.95025e-20)
(-2.09732 0.0232348 0)
(-2.1289 0.0225493 -6.74897e-20)
(-2.1597 0.0218411 0)
(-2.18969 0.0211119 0)
(-2.21881 0.0203609 6.4611e-20)
(-2.24704 0.0195898 0)
(-2.27433 0.0187974 -6.27606e-20)
(-2.30063 0.0179857 0)
(-2.3259 0.0171537 6.09469e-20)
(-2.3501 0.0163029 6.00492e-20)
(-2.3732 0.0154318 5.91552e-20)
(-2.39515 0.0145419 1.16527e-19)
(-2.4159 0.013631 -1.14744e-19)
(-2.43542 0.0126991 0)
(-2.45366 0.011742 0)
(-2.47057 0.0107564 0)
(-2.48611 0.00973629 -1.0756e-19)
(-2.50023 0.00867366 -1.05738e-19)
(-2.51287 0.00756022 1.039e-19)
(-2.52398 0.00638751 0)
(-2.53347 0.00515052 -1.00173e-19)
(-2.54127 0.00385807 -9.82814e-20)
(-2.54729 0.00255283 -9.63731e-20)
(-2.55141 0.00131991 0)
(-2.55353 0.000233846 0)
(-2.55401 -0.000725965 0)
(-2.55295 -0.00163357 -8.83409e-20)
(-2.55036 -0.00252625 0)
(-2.54625 -0.00341336 0)
(-2.54059 -0.00429749 8.17979e-20)
(-2.53339 -0.0051794 0)
(-2.52463 -0.00605804 0)
(-2.51431 -0.00693336 7.47436e-20)
(-2.5024 -0.00780385 0)
(-2.48892 -0.00866951 0)
(-2.47385 -0.00952889 -6.71031e-20)
(-2.45719 -0.0103819 -6.44128e-20)
(-2.43896 -0.0112271 0)
(-2.41914 -0.0120641 5.8799e-20)
(-2.39775 -0.0128917 0)
(-2.37479 -0.0137094 -5.28536e-20)
(-2.35027 -0.0145159 0)
(-2.32421 -0.0153104 -4.65505e-20)
(-2.29662 -0.0160919 -4.32561e-20)
(-2.26752 -0.016859 0)
(-2.23694 -0.0176109 0)
(-2.20488 -0.0183461 0)
(-2.17139 -0.0190638 0)
(-2.13648 -0.0197624 0)
(-2.10019 -0.0204417 0)
(-2.06256 -0.0210998 0)
(-2.02361 -0.0217373 -1.29775e-20)
(-1.9834 -0.0223524 8.64001e-21)
(-1.94195 -0.0229468 0)
(-1.89932 -0.0235185 0)
(-1.85554 -0.0240677 0)
(-1.81065 -0.0245911 0)
(-1.76471 -0.0250897 -3.04614e-20)
(-1.71777 -0.025564 0)
(-1.66987 -0.026016 5.18173e-20)
(-1.62106 -0.0264414 -6.30347e-20)
(-1.5714 -0.0268428 0)
(-1.52094 -0.0272184 0)
(-1.46973 -0.0275697 0)
(-1.41781 -0.0278959 1.11909e-19)
(-1.36525 -0.0281983 1.25228e-19)
(-1.31209 -0.0284771 0)
(-1.25839 -0.0287335 1.53355e-19)
(-1.20418 -0.0289682 1.68217e-19)
(-1.14952 -0.0291815 -1.83652e-19)
(-1.09445 -0.0293741 0)
(-1.03903 -0.0295467 0)
(-0.9833 -0.0297009 -2.33749e-19)
(-0.927305 -0.0298375 0)
(-0.871089 -0.0299586 0)
(-0.814692 -0.0300653 0)
(-0.758154 -0.0301605 0)
(-0.701508 -0.0302453 3.32618e-19)
(-0.644789 -0.0303231 3.55227e-19)
(-0.588026 -0.0303955 0)
(-0.531246 -0.0304661 4.03911e-19)
(-0.474471 -0.0305364 0)
(-0.417722 -0.03061 0)
(-0.361016 -0.0306879 4.8723e-19)
(-0.304366 -0.0307726 0)
(-0.247787 -0.0308643 5.51272e-19)
(-0.191286 -0.0309727 0)
(-0.134877 -0.0311141 0)
(-0.0785824 -0.0312779 6.64035e-19)
(-0.0224385 -0.0313605 0)
(0.0333378 -0.0309163 7.18751e-19)
(0.0887999 -0.0300096 0)
(0.144125 -0.0291264 0)
(0.199291 -0.0283211 0)
(0.254355 -0.0275856 -6.55205e-19)
(0.309371 -0.0269054 0)
(0.364381 -0.0262702 6.29335e-19)
(0.41941 -0.025668 0)
(0.474458 -0.0250865 0)
(0.529498 -0.0245062 0)
(0.584429 -0.0238971 0)
(0.639095 -0.0232017 0)
(0.69292 -0.0223122 0)
(0.745681 -0.0209606 0)
(0.792535 -0.0185196 -1.10895e-18)
(0.839773 -0.0135543 0)
(0.834338 0.00365281 0)
(0.00471424 -0.0344908 1.96735e-18)
(0.0102854 -0.0332386 -1.12512e-18)
(0.00981412 -0.019402 0)
(0.00639555 -0.00505827 3.52428e-19)
(0.000517896 0.00819793 0)
(-0.0075716 0.0195649 1.35629e-19)
(-0.017835 0.0286928 -2.47709e-19)
(-0.0301615 0.0356815 -2.28327e-19)
(-0.0443842 0.0409103 0)
(-0.0602683 0.0448558 -1.95181e-19)
(-0.0775849 0.0479501 -9.04817e-20)
(-0.0961545 0.050515 0)
(-0.115844 0.0527535 0)
(-0.136559 0.0547797 0)
(-0.158234 0.0566483 0)
(-0.180827 0.0583823 -6.49934e-20)
(-0.204314 0.0599887 0)
(-0.228683 0.0614704 1.16849e-19)
(-0.253938 0.0628299 0)
(-0.28009 0.0640752 0)
(-0.307178 0.0652163 -1.02606e-19)
(-0.335256 0.066269 0)
(-0.364419 0.0672454 9.63075e-20)
(-0.394795 0.0681626 -4.73086e-20)
(-0.426546 0.0690345 4.67457e-20)
(-0.459855 0.069887 -4.67026e-20)
(-0.494903 0.0707514 -4.72737e-20)
(-0.531745 0.0717615 0)
(-0.569911 0.073332 0)
(-0.607591 0.0761155 5.3265e-20)
(-0.647478 0.0798219 -5.64792e-20)
(-0.687893 0.0829269 0)
(-0.728297 0.0868232 0)
(-0.766705 0.0895454 4.78514e-20)
(-0.804473 0.0906252 0)
(-0.844904 0.09008 0)
(-0.884875 0.0881415 -3.60618e-20)
(-0.924342 0.0880534 0)
(-0.962353 0.0867862 3.43167e-20)
(-0.998344 0.0860403 -7.0048e-20)
(-1.03793 0.0847021 0)
(-1.0808 0.0852718 0)
(-1.1242 0.0874874 -1.38059e-19)
(-1.16443 0.0886784 -1.34893e-19)
(-1.20307 0.0889455 -1.31867e-19)
(-1.24086 0.0887249 6.43287e-20)
(-1.27811 0.0882006 -6.3276e-20)
(-1.31498 0.0874597 -1.8562e-19)
(-1.35153 0.0865842 1.2118e-19)
(-1.3878 0.0856229 5.95634e-20)
(-1.42378 0.0846066 0)
(-1.45948 0.0835531 -5.73783e-20)
(-1.4949 0.0824735 5.60699e-20)
(-1.53005 0.0813735 0)
(-1.5649 0.0802561 0)
(-1.59945 0.0791217 0)
(-1.63368 0.0779697 -5.26891e-20)
(-1.6676 0.0767981 0)
(-1.70117 0.075605 1.01832e-19)
(-1.73439 0.0743875 0)
(-1.76722 0.0731433 9.8788e-20)
(-1.79966 0.0718694 0)
(-1.83168 0.0705636 -9.59288e-20)
(-1.86325 0.0692231 0)
(-1.89436 0.0678461 9.32259e-20)
(-1.92496 0.0664304 -4.58351e-20)
(-1.95504 0.0649748 0)
(-1.98457 0.0634776 -8.941e-20)
(-2.01352 0.0619383 -4.42146e-20)
(-2.04185 0.0603556 -4.36127e-20)
(-2.06954 0.0587297 0)
(-2.09656 0.0570597 -4.22163e-20)
(-2.12286 0.0553465 -4.18597e-20)
(-2.14843 0.0535894 0)
(-2.17322 0.0517901 4.07239e-20)
(-2.19721 0.0499482 -8.01352e-20)
(-2.22035 0.0480661 0)
(-2.24263 0.0461439 -3.90488e-20)
(-2.26399 0.044184 0)
(-2.28442 0.0421864 1.13665e-19)
(-2.30387 0.0401539 0)
(-2.32232 0.0380868 -1.10353e-19)
(-2.33973 0.0359877 -3.62715e-20)
(-2.35607 0.0338566 3.55958e-20)
(-2.3713 0.0316965 7.00838e-20)
(-2.3854 0.0295075 -6.89677e-20)
(-2.39834 0.0272923 0)
(-2.41008 0.0250503 0)
(-2.4206 0.0227822 0)
(-2.42986 0.0204866 1.93355e-19)
(-2.43785 0.0181613 6.32781e-20)
(-2.44457 0.015804 -6.20576e-20)
(-2.44998 0.0134117 0)
(-2.45411 0.0109796 -5.95803e-20)
(-2.45698 0.00850428 5.82895e-20)
(-2.45864 0.00600304 5.69995e-20)
(-2.45919 0.00353674 0)
(-2.45873 0.00118893 0)
(-2.457 -0.00103547 0)
(-2.45384 -0.00319568 5.15198e-20)
(-2.44922 -0.0053242 0)
(-2.4431 -0.00743116 -9.74623e-20)
(-2.43548 -0.00951921 -1.4165e-19)
(-2.42633 -0.0115881 9.15147e-20)
(-2.41565 -0.0136354 0)
(-2.40343 -0.0156593 4.28394e-20)
(-2.38965 -0.0176567 0)
(-2.37431 -0.019626 7.89434e-20)
(-2.35742 -0.0215642 -3.80378e-20)
(-2.33897 -0.0234696 -3.63768e-20)
(-2.31896 -0.0253395 0)
(-2.29739 -0.027172 -9.78601e-20)
(-2.27428 -0.0289644 6.18705e-20)
(-2.24962 -0.0307147 2.88475e-20)
(-2.22343 -0.0324203 0)
(-2.19573 -0.0340793 2.51164e-20)
(-2.16652 -0.0356892 7.02632e-20)
(-2.13583 -0.0372479 0)
(-2.10368 -0.0387531 3.92621e-20)
(-2.07009 -0.0402022 3.5263e-20)
(-2.03508 -0.041593 3.11976e-20)
(-1.99868 -0.042923 0)
(-1.96093 -0.044191 0)
(-1.92186 -0.0453947 0)
(-1.8815 -0.0465341 -7.57485e-21)
(-1.8399 -0.0476074 -4.49736e-21)
(-1.79709 -0.0486161 0)
(-1.75313 -0.0495603 -9.17904e-22)
(-1.70804 -0.0504433 3.65992e-21)
(-1.66187 -0.0512605 0)
(-1.61468 -0.0520028 1.39924e-20)
(-1.56651 -0.0526705 3.55034e-20)
(-1.5174 -0.053279 -2.35932e-20)
(-1.46742 -0.053825 -2.63825e-20)
(-1.4166 -0.0543053 0)
(-1.365 -0.0547192 0)
(-1.31267 -0.0550704 0)
(-1.25966 -0.0553591 -4.85185e-20)
(-1.20602 -0.0555881 5.14406e-20)
(-1.1518 -0.0557589 1.15434e-19)
(-1.09705 -0.0558741 -6.40547e-20)
(-1.04182 -0.0559359 6.70684e-20)
(-0.986153 -0.0559462 7.46304e-20)
(-0.930102 -0.055907 0)
(-0.873711 -0.0558207 0)
(-0.817025 -0.05569 -8.85081e-20)
(-0.760089 -0.0555179 0)
(-0.702944 -0.0553074 0)
(-0.645629 -0.055062 2.12227e-19)
(-0.58818 -0.054785 0)
(-0.530631 -0.0544805 1.16117e-19)
(-0.473013 -0.0541518 -1.2398e-19)
(-0.415353 -0.0538036 0)
(-0.357675 -0.0534389 1.33035e-19)
(-0.3 -0.0530625 0)
(-0.242346 -0.052677 0)
(-0.184726 -0.0522864 -1.52362e-19)
(-0.127152 -0.0518914 3.14044e-19)
(-0.0696347 -0.0514941 -1.63875e-19)
(-0.0121871 -0.0510915 0)
(0.0451651 -0.0506756 0)
(0.102432 -0.0502438 1.72032e-19)
(0.159685 -0.0497706 0)
(0.216947 -0.049136 1.75179e-19)
(0.274171 -0.0483769 0)
(0.331349 -0.0476452 0)
(0.388522 -0.0469758 0)
(0.44572 -0.0463667 1.83086e-19)
(0.502973 -0.0458077 0)
(0.560311 -0.0452846 -1.85543e-19)
(0.617746 -0.0447822 0)
(0.675275 -0.0442778 0)
(0.732859 -0.0437377 3.75661e-19)
(0.790397 -0.0431021 -3.77477e-19)
(0.847715 -0.0422597 0)
(0.904336 -0.0410017 0)
(0.959898 -0.038805 0)
(1.01144 -0.0347205 1.15908e-18)
(1.06239 -0.0255194 0)
(1.08963 -0.0021688 -8.04118e-19)
(-0.000273481 -0.0417875 -8.65047e-22)
(-0.00308521 -0.0267472 1.08551e-18)
(-0.00982431 -0.00674157 0)
(-0.0185222 0.0113574 -4.40723e-19)
(-0.0286981 0.0274712 0)
(-0.0400508 0.0415683 0)
(-0.0526004 0.0535929 5.7913e-23)
(-0.0664544 0.0635941 1.36863e-19)
(-0.0816875 0.0717833 1.28746e-19)
(-0.098303 0.0784857 1.21781e-19)
(-0.116248 0.0840551 0)
(-0.135441 0.0888076 0)
(-0.155798 0.0929901 -1.04262e-19)
(-0.177246 0.0967749 -1.98821e-19)
(-0.199731 0.100273 1.89987e-19)
(-0.223221 0.103554 0)
(-0.247699 0.10666 1.74669e-19)
(-0.273163 0.109623 -8.41395e-20)
(-0.299627 0.112472 0)
(-0.327106 0.115244 1.56643e-19)
(-0.355632 0.117984 7.60623e-20)
(-0.385233 0.120751 -1.4758e-19)
(-0.415944 0.123613 -7.21838e-20)
(-0.44779 0.126647 0)
(-0.480766 0.129931 1.39133e-19)
(-0.514827 0.133529 1.37999e-19)
(-0.549844 0.137461 0)
(-0.585581 0.141674 1.38285e-19)
(-0.621635 0.145941 0)
(-0.657583 0.149639 1.39675e-19)
(-0.693788 0.151436 6.90279e-20)
(-0.730431 0.151743 0)
(-0.767254 0.152465 0)
(-0.80381 0.152944 0)
(-0.840341 0.152862 0)
(-0.877218 0.152393 0)
(-0.91389 0.153047 0)
(-0.949453 0.154722 1.0267e-19)
(-0.983176 0.155532 -1.5141e-19)
(-1.01562 0.154699 0)
(-1.04857 0.151171 0)
(-1.08312 0.147205 0)
(-1.11813 0.144939 1.55974e-22)
(-1.15245 0.14316 9.21994e-20)
(-1.18612 0.141557 1.80454e-19)
(-1.21931 0.139979 -1.76829e-19)
(-1.25211 0.138351 -8.66068e-20)
(-1.28463 0.136663 8.51049e-20)
(-1.3169 0.134925 -1.5295e-22)
(-1.34896 0.13315 8.18565e-20)
(-1.38082 0.131348 0)
(-1.41249 0.129524 7.90137e-20)
(-1.44397 0.127682 -1.58024e-22)
(-1.47525 0.125822 0)
(-1.50633 0.123943 0)
(-1.53719 0.122041 -7.39525e-20)
(-1.56783 0.120115 0)
(-1.59822 0.11816 0)
(-1.62835 0.116171 7.04307e-20)
(-1.6582 0.114144 1.39076e-19)
(-1.68775 0.112075 -6.86734e-20)
(-1.71699 0.10996 0)
(-1.74588 0.107795 6.67014e-20)
(-1.7744 0.105577 0)
(-1.80254 0.103303 6.4514e-20)
(-1.83025 0.10097 6.39075e-20)
(-1.85752 0.0985767 -1.25729e-19)
(-1.88432 0.0961206 -6.18429e-20)
(-1.91061 0.093601 0)
(-1.93637 0.0910168 1.20547e-19)
(-1.96156 0.088368 0)
(-1.98615 0.0856543 1.7594e-19)
(-2.01012 0.0828764 1.15562e-19)
(-2.03343 0.0800346 1.1393e-19)
(-2.05604 0.0771305 -1.1231e-19)
(-2.07792 0.0741651 1.66159e-19)
(-2.09905 0.0711407 0)
(-2.11938 0.0680587 0)
(-2.13888 0.0649217 -1.05889e-19)
(-2.15752 0.0617315 -1.5652e-19)
(-2.17526 0.0584911 0)
(-2.19208 0.0552025 5.06139e-20)
(-2.20794 0.0518687 0)
(-2.22281 0.0484919 -1.46811e-19)
(-2.23665 0.0450753 -1.14719e-22)
(-2.24944 0.0416215 1.00636e-22)
(-2.26115 0.0381337 9.28839e-20)
(-2.27175 0.0346144 0)
(-2.28121 0.0310667 -8.95099e-20)
(-2.28951 0.0274935 -4.12944e-23)
(-2.29663 0.0238985 0)
(-2.30256 0.0202878 0)
(-2.30729 0.0166702 0)
(-2.31082 0.0130585 8.07139e-20)
(-2.31313 0.00947073 0)
(-2.31424 0.0059296 0)
(-2.3141 0.00244825 0)
(-2.31267 -0.000992334 0)
(-2.30989 -0.00441612 0)
(-2.30571 -0.00782225 6.92308e-20)
(-2.3001 -0.0112046 0)
(-2.29306 -0.0145602 6.49837e-20)
(-2.28455 -0.0178861 6.28795e-20)
(-2.27456 -0.0211786 -6.07455e-20)
(-2.26309 -0.0244339 0)
(-2.25013 -0.0276477 -5.63859e-20)
(-2.23565 -0.0308159 0)
(-2.21967 -0.0339346 -5.19025e-20)
(-2.20218 -0.0370001 4.9614e-20)
(-2.18317 -0.0400084 1.42496e-19)
(-2.16265 -0.0429558 0)
(-2.14062 -0.0458386 1.28368e-19)
(-2.11709 -0.0486529 4.08685e-20)
(-2.09206 -0.0513951 0)
(-2.06555 -0.0540613 7.12488e-20)
(-2.03757 -0.0566481 6.62737e-20)
(-2.00813 -0.0591517 -9.14286e-20)
(-1.97724 -0.0615687 0)
(-1.94494 -0.0638952 -2.50341e-20)
(-1.91124 -0.0661277 -2.24142e-20)
(-1.87617 -0.0682622 -6.02902e-20)
(-1.83975 -0.0702956 0)
(-1.80202 -0.0722249 0)
(-1.763 -0.0740477 0)
(-1.72274 -0.0757622 -1.0033e-20)
(-1.68127 -0.077367 0)
(-1.63863 -0.0788625 0)
(-1.59487 -0.0802498 5.67893e-22)
(-1.55002 -0.0815313 -2.25609e-21)
(-1.50414 -0.0827048 0)
(-1.45725 -0.0837614 0)
(-1.40942 -0.0846992 -2.16402e-20)
(-1.36068 -0.0855319 0)
(-1.31109 -0.086261 3.31778e-20)
(-1.2607 -0.0868823 3.76636e-20)
(-1.20954 -0.0873968 0)
(-1.15769 -0.0878077 0)
(-1.10517 -0.0881176 -5.50915e-20)
(-1.05205 -0.0883296 -1.35527e-21)
(-0.998359 -0.0884469 -1.36272e-21)
(-0.944158 -0.0884732 0)
(-0.88949 -0.0884118 -1.58187e-19)
(-0.834401 -0.0882666 0)
(-0.778938 -0.0880407 0)
(-0.723145 -0.0877386 0)
(-0.667065 -0.0873642 1.03003e-19)
(-0.610739 -0.0869226 0)
(-0.554206 -0.0864185 -2.26261e-19)
(-0.497504 -0.0858575 -1.20218e-19)
(-0.440666 -0.0852448 0)
(-0.383723 -0.0845868 -1.31553e-19)
(-0.326705 -0.0838885 0)
(-0.269635 -0.0831569 0)
(-0.212536 -0.0823969 -4.42208e-19)
(-0.155427 -0.0816149 3.04935e-19)
(-0.0983208 -0.0808146 0)
(-0.0412302 -0.0800018 3.26718e-19)
(0.015832 -0.0791793 -1.69271e-19)
(0.0728583 -0.0783508 0)
(0.129854 -0.0775143 0)
(0.186825 -0.0766705 0)
(0.243777 -0.0758247 -5.41414e-19)
(0.300742 -0.0749746 0)
(0.357764 -0.0741221 -1.8653e-19)
(0.414854 -0.0732844 0)
(0.472012 -0.0724857 0)
(0.52925 -0.0717489 0)
(0.586583 -0.0710716 0)
(0.644029 -0.0704448 0)
(0.701606 -0.0698523 0)
(0.759323 -0.0692738 -4.04085e-19)
(0.81717 -0.0686766 0)
(0.875108 -0.0680098 -2.06914e-19)
(0.933041 -0.0671839 6.24426e-19)
(0.990807 -0.0660382 0)
(1.04801 -0.0642706 0)
(1.10438 -0.0612425 -4.26885e-19)
(1.15794 -0.0557431 -4.32998e-19)
(1.21189 -0.044816 4.37924e-19)
(1.25295 -0.0208492 4.50875e-19)
(-0.00546811 -0.0320666 -3.02218e-18)
(-0.0139811 -0.00820604 -1.30079e-18)
(-0.0246001 0.0150176 -4.70838e-19)
(-0.0368592 0.0350716 -1.68189e-19)
(-0.0500762 0.0528248 0)
(-0.0639192 0.0685773 2.43837e-19)
(-0.0784586 0.0824199 -1.11451e-19)
(-0.0938462 0.0944271 0)
(-0.11021 0.104744 -9.8355e-20)
(-0.12763 0.113595 0)
(-0.146143 0.121244 1.78417e-19)
(-0.165744 0.127955 0)
(-0.18641 0.133959 8.18735e-20)
(-0.208105 0.13944 1.57289e-19)
(-0.230799 0.144534 -1.51355e-19)
(-0.254467 0.149335 0)
(-0.279092 0.153912 -1.40877e-19)
(-0.304665 0.158316 0)
(-0.331177 0.162588 0)
(-0.358617 0.166771 -1.27971e-19)
(-0.386967 0.170905 0)
(-0.416193 0.175034 1.7578e-22)
(-0.446242 0.179199 0)
(-0.477032 0.183429 0)
(-0.508442 0.187724 -1.18494e-22)
(-0.540319 0.192044 -1.102e-19)
(-0.572472 0.196278 -1.08301e-19)
(-0.604709 0.200236 -1.06651e-19)
(-0.636855 0.203631 0)
(-0.668836 0.206096 -2.06656e-19)
(-0.700771 0.207305 0)
(-0.732819 0.207417 -9.83017e-20)
(-0.764976 0.207092 0)
(-0.797118 0.206485 0)
(-0.829194 0.20569 8.92153e-20)
(-0.861127 0.204942 0)
(-0.892674 0.204555 -8.42189e-20)
(-0.923468 0.20436 -2.12819e-23)
(-0.953395 0.203664 1.60988e-19)
(-0.982726 0.201986 -1.5771e-19)
(-1.01209 0.199152 0)
(-1.04187 0.195905 0)
(-1.07187 0.192976 -7.39547e-20)
(-1.10181 0.19031 0)
(-1.13158 0.187812 -7.10746e-20)
(-1.16116 0.185406 6.97004e-20)
(-1.19056 0.183037 6.83834e-20)
(-1.21981 0.180677 0)
(-1.24891 0.178313 -6.59106e-20)
(-1.27788 0.175941 -6.47488e-20)
(-1.30672 0.173557 1.2714e-19)
(-1.33545 0.171159 -6.25587e-20)
(-1.36405 0.168744 -6.15244e-20)
(-1.39251 0.166307 0)
(-1.42082 0.163844 0)