/*--------------------------------*- C++ -*----------------------------------*\
| =========                 |                                                 |
| \\      /  F ield         | OpenFOAM: The Open Source CFD Toolbox           |
|  \\    /   O peration     | Version:  2312                                  |
|   \\  /    A nd           | Website:  www.openfoam.com                      |
|    \\/     M anipulation  |                                                 |
\*---------------------------------------------------------------------------*/
FoamFile
{
    version     2.0;
    format      ascii;
    arch        "LSB;label=64;scalar=64";
    class       volScalarField;
    location    "170";
    object      nut_ML_ND;
}
// * * * * * * * * * * * * * * * * * * * * * * * * * * * * * * * * * * * * * //

dimensions      [0 0 0 0 0 0 0];

internalField   nonuniform List<scalar> 
404911
(
0.344681
0.498794
0.15401
0.0739038
0.503327
0.507499
0.518327
0.0801612
0.0749803
0.0739209
0.479021
0.485263
0.527186
0.488283
0.510369
0.210265
0.475969
0.507857
0.482666
0.458407
0.44192
0.510234
0.422402
0.480183
0.566185
0.474694
0.519458
0.577261
0.572968
0.318427
0.531749
0.573465
0.537508
0.50867
0.441135
0.555788
0.506887
0.134044
0.373949
0.548585
0.510327
0.107638
0.428565
0.562714
0.552142
0.375542
0.335635
0.545034
0.533741
0.320764
0.382406
0.350417
0.40928
0.149518
0.232148
0.288475
0.0739039
0.470078
0.471057
0.473791
0.52476
0.571686
0.546185
0.580902
0.575492
0.565531
0.571303
0.535314
0.571927
0.580244
0.573641
0.586007
0.571112
0.578295
0.58548
0.527297
0.270481
0.541942
0.580893
0.573194
0.579753
0.570553
0.585438
0.574633
0.574296
0.578964
0.528391
0.579069
0.14129
0.567547
0.541823
0.0795684
0.577188
0.557521
0.564186
0.577952
0.571437
0.571882
0.580783
0.532668
0.344702
0.578147
0.568241
0.348292
0.357666
0.481207
0.529645
0.51396
0.526936
0.54423
0.550007
0.54477
0.543684
0.536769
0.117936
0.517335
0.544945
0.113371
0.382403
0.55681
0.550257
0.552161
0.547917
0.512561
0.361307
0.530248
0.54507
0.549153
0.555579
0.492408
0.517738
0.479823
0.558737
0.558106
0.550578
0.548153
0.527115
0.528275
0.527602
0.500156
0.376717
0.531122
0.548588
0.551499
0.550276
0.555181
0.55726
0.562301
0.514335
0.490229
0.554267
0.556093
0.547513
0.131529
0.523915
0.461984
0.538333
0.55708
0.558557
0.558193
0.554152
0.551366
0.55272
0.554138
0.556122
0.557839
0.555782
0.551916
0.540207
0.526375
0.523997
0.518161
0.519528
0.519303
0.519002
0.511253
0.433016
0.555372
0.551343
0.551619
0.551701
0.551361
0.549185
0.545476
0.539645
0.534575
0.538189
0.509372
0.521758
0.524822
0.50515
0.526362
0.528085
0.519546
0.478264
0.561009
0.555453
0.554523
0.551021
0.548232
0.54493
0.539274
0.35122
0.419941
0.54126
0.519141
0.522444
0.53376
0.53038
0.523362
0.511462
0.529315
0.524784
0.523613
0.512261
0.561562
0.555731
0.553682
0.551018
0.541603
0.522119
0.473154
0.515987
0.532231
0.554631
0.572733
0.561197
0.530972
0.528948
0.54531
0.533699
0.543105
0.540908
0.568094
0.556062
0.551589
0.544237
0.529134
0.353234
0.353954
0.532342
0.566694
0.554275
0.57113
0.574027
0.574213
0.571808
0.558533
0.542734
0.543752
0.568598
0.568492
0.530415
0.471829
0.551792
0.540049
0.352061
0.516502
0.550344
0.56824
0.551384
0.573426
0.574765
0.575888
0.576593
0.576238
0.57363
0.573763
0.571638
0.540379
0.518152
0.503439
0.481779
0.519588
0.515459
0.538914
0.554538
0.531472
0.571046
0.574173
0.574688
0.574524
0.573264
0.575854
0.576816
0.575529
0.553698
0.513407
0.413937
0.497733
0.32897
0.520564
0.554483
0.557043
0.568082
0.567875
0.572186
0.575301
0.575525
0.573791
0.568567
0.570578
0.574173
0.576037
0.559792
0.525443
0.51897
0.531684
0.368258
0.419323
0.463404
0.526067
0.553056
0.576455
0.579826
0.57345
0.572727
0.575255
0.57408
0.572648
0.571429
0.573314
0.574457
0.571865
0.526916
0.551575
0.514075
0.382649
0.537898
0.563537
0.553296
0.568223
0.570244
0.554796
0.581878
0.572812
0.572793
0.572069
0.579219
0.579417
0.56955
0.573722
0.571071
0.522448
0.532349
0.514765
0.556071
0.56811
0.576204
0.579451
0.573294
0.573735
0.572569
0.58226
0.579722
0.584294
0.584709
0.579064
0.572588
0.561093
0.548802
0.541687
0.420808
0.422442
0.533308
0.558039
0.571278
0.581464
0.583983
0.58263
0.577579
0.581024
0.579508
0.584095
0.577157
0.578547
0.576046
0.567183
0.562137
0.508853
0.368874
0.52334
0.567464
0.56624
0.56702
0.573849
0.581005
0.578289
0.582144
0.585719
0.584913
0.582874
0.57926
0.57642
0.572851
0.568222
0.561087
0.528763
0.479122
0.471115
0.50174
0.51237
0.569967
0.569498
0.579323
0.578254
0.580486
0.583423
0.584822
0.585945
0.58488
0.582845
0.577273
0.562383
0.551178
0.554371
0.518719
0.52062
0.564596
0.561713
0.572322
0.578311
0.581459
0.581487
0.580553
0.583035
0.579885
0.582081
0.585177
0.583493
0.579538
0.574552
0.561632
0.527505
0.504472
0.558533
0.574893
0.570526
0.579045
0.578144
0.581665
0.583276
0.579182
0.576568
0.577608
0.577829
0.58031
0.579581
0.578985
0.564322
0.558556
0.525707
0.520427
0.570103
0.568107
0.575302
0.58086
0.583113
0.580322
0.583155
0.58309
0.580797
0.576618
0.577742
0.581081
0.575755
0.575482
0.565885
0.555699
0.39908
0.543354
0.573718
0.578739
0.582333
0.583584
0.584625
0.584134
0.576356
0.5854
0.585359
0.581674
0.579445
0.574936
0.572414
0.564023
0.556942
0.530319
0.367838
0.515266
0.558235
0.573167
0.579936
0.582424
0.583809
0.58208
0.583402
0.585453
0.584941
0.58498
0.583638
0.582016
0.577043
0.549438
0.564041
0.54537
0.370167
0.406644
0.541547
0.572053
0.569794
0.579632
0.582742
0.58379
0.584956
0.585627
0.583585
0.585783
0.582641
0.580932
0.581095
0.578279
0.572068
0.552679
0.523725
0.513898
0.563943
0.573713
0.579741
0.582124
0.583304
0.583659
0.584609
0.582317
0.585753
0.585741
0.585518
0.580559
0.578242
0.572072
0.564309
0.549066
0.367527
0.455307
0.544354
0.575417
0.578957
0.581214
0.582997
0.583694
0.584034
0.584009
0.584768
0.581964
0.583547
0.583253
0.583822
0.578407
0.573391
0.555173
0.530373
0.499765
0.5693
0.577504
0.580777
0.582011
0.58339
0.584001
0.584181
0.584378
0.584351
0.583495
0.584812
0.584687
0.583599
0.579654
0.565549
0.545517
0.520703
0.544959
0.579635
0.58034
0.58131
0.582378
0.583723
0.584281
0.584499
0.584481
0.584558
0.584577
0.584074
0.583499
0.582036
0.576377
0.567586
0.553195
0.517319
0.551072
0.57406
0.583016
0.583895
0.583222
0.584354
0.585209
0.585296
0.584974
0.584504
0.584483
0.584327
0.583392
0.580087
0.574361
0.565787
0.535349
0.359035
0.482783
0.563721
0.580853
0.581622
0.582992
0.584488
0.584442
0.585402
0.583945
0.584228
0.585348
0.584214
0.583794
0.582888
0.57919
0.562722
0.553666
0.521392
0.504835
0.567292
0.578431
0.58273
0.584199
0.584487
0.584725
0.584796
0.585534
0.58436
0.585535
0.585268
0.58352
0.581608
0.578377
0.562545
0.55021
0.357538
0.53626
0.571808
0.5769
0.581743
0.584093
0.584574
0.584977
0.58504
0.585005
0.584914
0.585004
0.585091
0.583908
0.581569
0.573076
0.565847
0.547019
0.352024
0.53868
0.574976
0.580404
0.58272
0.584175
0.582532
0.583225
0.585739
0.585195
0.584951
0.584728
0.584102
0.583477
0.581095
0.574579
0.562348
0.528539
0.474723
0.554629
0.575072
0.579805
0.583246
0.584535
0.584963
0.583302
0.584381
0.585808
0.585386
0.584885
0.584174
0.583048
0.579963
0.568197
0.555013
0.521962
0.517671
0.56824
0.571093
0.576785
0.582955
0.585263
0.585624
0.585713
0.584036
0.584657
0.585537
0.585629
0.584394
0.583196
0.579919
0.567136
0.548836
0.346546
0.536357
0.574945
0.580695
0.582094
0.583907
0.585409
0.584162
0.585001
0.584481
0.585798
0.58475
0.585673
0.585429
0.583023
0.579382
0.566257
0.536741
0.346354
0.484051
0.56124
0.577762
0.580014
0.582464
0.583812
0.584731
0.583944
0.585326
0.585378
0.585065
0.585738
0.584736
0.584164
0.583592
0.576606
0.566111
0.53158
0.493419
0.566077
0.578963
0.581787
0.582683
0.583716
0.584427
0.584897
0.584027
0.584978
0.585437
0.585666
0.585714
0.584755
0.582112
0.575632
0.559269
0.522795
0.497643
0.56696
0.579158
0.582206
0.582802
0.583602
0.584362
0.58471
0.584956
0.58575
0.58472
0.585732
0.585716
0.585268
0.580347
0.570583
0.554616
0.355881
0.49884
0.567217
0.578871
0.582025
0.582972
0.583436
0.584327
0.58466
0.585048
0.585338
0.585597
0.585578
0.58522
0.583898
0.580305
0.566128
0.536594
0.351626
0.540412
0.573576
0.577455
0.580935
0.582697
0.583614
0.584371
0.584685
0.584901
0.585716
0.585397
0.585585
0.585621
0.582365
0.57999
0.565885
0.531797
0.465449
0.546843
0.578482
0.581896
0.581318
0.582345
0.58372
0.584558
0.584819
0.584818
0.585125
0.585755
0.585663
0.584801
0.583874
0.580213
0.566817
0.533518
0.49013
0.567238
0.577899
0.579587
0.582253
0.582538
0.583797
0.585183
0.585487
0.585043
0.584431
0.584652
0.584783
0.582952
0.58149
0.576934
0.567786
0.531491
0.501358
0.568487
0.57988
0.583489
0.583998
0.583601
0.583542
0.585012
0.584367
0.584895
0.58547
0.584659
0.584117
0.583498
0.581868
0.57599
0.567946
0.529033
0.497756
0.567905
0.579343
0.582963
0.584207
0.584278
0.584253
0.584424
0.585375
0.58448
0.585226
0.585316
0.584436
0.583524
0.58164
0.575467
0.567241
0.527846
0.490342
0.566963
0.577986
0.582287
0.583893
0.584384
0.584743
0.585002
0.585002
0.584713
0.584992
0.585214
0.584538
0.583532
0.580668
0.575237
0.563475
0.524271
0.500064
0.567388
0.578087
0.582227
0.583827
0.584353
0.584966
0.585266
0.58532
0.585151
0.585012
0.584862
0.584404
0.583519
0.580406
0.570104
0.55604
0.383569
0.534839
0.567573
0.577597
0.581749
0.584005
0.584655
0.585134
0.585558
0.585667
0.585596
0.585284
0.584965
0.584407
0.583514
0.580466
0.570494
0.554119
0.363393
0.533865
0.567968
0.576588
0.581979
0.584701
0.585354
0.585583
0.585774
0.585256
0.584807
0.585407
0.585548
0.584618
0.583652
0.580449
0.570239
0.554267
0.359944
0.395435
0.548463
0.567881
0.575353
0.581267
0.582243
0.584311
0.584473
0.584538
0.584721
0.585043
0.584841
0.585593
0.585406
0.583811
0.580319
0.567704
0.551744
0.360019
0.404439
0.557172
0.57291
0.572028
0.580418
0.583923
0.583237
0.585725
0.584122
0.583835
0.58391
0.583763
0.584824
0.5853
0.583891
0.579636
0.566444
0.536259
0.555737
0.571768
0.580033
0.582969
0.5841
0.584694
0.58571
0.581401
0.582405
0.583482
0.5829
0.583645
0.585723
0.583812
0.576322
0.567259
0.532457
0.360427
0.548734
0.57042
0.580423
0.583531
0.58442
0.58484
0.585204
0.585736
0.584535
0.581714
0.581492
0.584463
0.585775
0.583573
0.575443
0.56423
0.525166
0.347633
0.548275
0.56711
0.580395
0.583757
0.584628
0.585157
0.58552
0.585667
0.585732
0.584657
0.58293
0.584287
0.585759
0.5841
0.576384
0.561614
0.521956
0.348172
0.546531
0.564688
0.580164
0.583874
0.584785
0.585345
0.585779
0.584758
0.585167
0.585672
0.585625
0.585715
0.5858
0.583307
0.575663
0.560147
0.369766
0.55728
0.56467
0.579884
0.583808
0.58483
0.585222
0.585576
0.58494
0.585263
0.585631
0.585687
0.585581
0.585032
0.581938
0.571638
0.553749
0.357291
0.355374
0.557683
0.581907
0.583768
0.584739
0.585146
0.585403
0.585671
0.584585
0.584883
0.585481
0.585549
0.584026
0.580234
0.57002
0.550948
0.350353
0.0872581
0.520522
0.57218
0.579494
0.584822
0.584805
0.585234
0.585648
0.585774
0.585777
0.585077
0.585718
0.585732
0.583983
0.577528
0.568037
0.547794
0.3446
0.522261
0.568189
0.57332
0.581644
0.585262
0.585122
0.585233
0.585695
0.584977
0.585602
0.58574
0.585739
0.585569
0.584131
0.576641
0.564201
0.529721
0.526059
0.556147
0.576034
0.583495
0.585305
0.585553
0.585497
0.585543
0.585725
0.585666
0.585335
0.585389
0.58523
0.582408
0.575624
0.560379
0.52601
0.352908
0.53428
0.561868
0.576304
0.580026
0.581642
0.583167
0.584517
0.585701
0.585453
0.58433
0.584038
0.585561
0.585493
0.581862
0.569526
0.553595
0.351322
0.393036
0.55007
0.570315
0.581109
0.581481
0.582714
0.571958
0.578082
0.585627
0.583547
0.585432
0.585731
0.585577
0.585397
0.580491
0.566811
0.549283
0.344687
0.478073
0.56654
0.562316
0.575789
0.582613
0.584301
0.585006
0.581167
0.573444
0.585808
0.58485
0.585701
0.585287
0.584491
0.581151
0.567703
0.550448
0.3503
0.513633
0.570729
0.572397
0.58077
0.584588
0.585281
0.584906
0.585596
0.585781
0.582094
0.585711
0.585298
0.584364
0.583675
0.581515
0.571852
0.553852
0.354696
0.464478
0.543382
0.574468
0.57802
0.58048
0.585445
0.584442
0.578986
0.585638
0.583203
0.584631
0.584709
0.584173
0.583304
0.584852
0.580326
0.569972
0.519678
0.354342
0.50692
0.570831
0.569105
0.579911
0.581616
0.585522
0.5801
0.566669
0.575481
0.585692
0.584194
0.585742
0.585135
0.583726
0.58206
0.578727
0.56597
0.54397
0.348807
0.559246
0.578369
0.582176
0.583206
0.585798
0.579012
0.567348
0.570862
0.580414
0.585775
0.585687
0.585055
0.583581
0.581154
0.573069
0.56431
0.531487
0.340666
0.551918
0.580033
0.581106
0.58301
0.585706
0.570739
0.569595
0.580089
0.580488
0.585131
0.585666
0.585659
0.583774
0.581188
0.573308
0.561114
0.526252
0.547296
0.578643
0.581195
0.582813
0.585839
0.575418
0.564659
0.574174
0.583981
0.584232
0.58575
0.585735
0.584099
0.581191
0.573579
0.557402
0.52142
0.544112
0.562934
0.579217
0.583414
0.585878
0.570834
0.564984
0.57111
0.578117
0.583783
0.585719
0.58573
0.584273
0.580146
0.572635
0.555612
0.358593
0.490976
0.563746
0.575334
0.580714
0.584008
0.585761
0.579374
0.568449
0.575745
0.581589
0.585619
0.585687
0.584686
0.583941
0.579524
0.5679
0.549484
0.35215
0.501315
0.568656
0.574601
0.580349
0.582836
0.58572
0.571482
0.571795
0.578168
0.584776
0.585818
0.584814
0.582774
0.583348
0.57702
0.567466
0.533355
0.506107
0.580324
0.584017
0.582574
0.583279
0.585739
0.577737
0.56876
0.575579
0.584453
0.585619
0.58473
0.585101
0.582667
0.576204
0.564396
0.52743
0.509357
0.582933
0.585491
0.583666
0.583181
0.585775
0.572596
0.574678
0.583602
0.585757
0.585627
0.58466
0.585268
0.582574
0.575772
0.562389
0.527859
0.508663
0.583168
0.585397
0.584388
0.582917
0.584914
0.576965
0.57628
0.582793
0.58579
0.585322
0.584545
0.584979
0.581673
0.574052
0.560404
0.378056
0.507847
0.580831
0.583925
0.583956
0.583809
0.584311
0.585811
0.581555
0.58274
0.585557
0.584681
0.584085
0.584983
0.581177
0.569683
0.553439
0.363276
0.554683
0.580924
0.574652
0.582371
0.584838
0.585793
0.585715
0.585906
0.585759
0.585447
0.584498
0.585595
0.584437
0.581131
0.564767
0.549558
0.354226
0.534744
0.54465
0.580064
0.585622
0.584724
0.574391
0.581424
0.585881
0.585179
0.58457
0.585643
0.583969
0.577266
0.561766
0.538405
0.353783
0.533453
0.572395
0.573824
0.584747
0.574186
0.570961
0.57675
0.585425
0.585654
0.584956
0.583681
0.583617
0.575553
0.558093
0.526943
0.552411
0.557444
0.57093
0.574655
0.581422
0.575905
0.571398
0.577993
0.584472
0.585856
0.585105
0.585697
0.58237
0.57272
0.555365
0.524475
0.54636
0.576
0.578418
0.571915
0.576125
0.585803
0.577072
0.579992
0.585892
0.585437
0.584735
0.582617
0.581105
0.568415
0.551871
0.3545
0.539121
0.572389
0.569277
0.574203
0.574348
0.574914
0.583926
0.585543
0.585444
0.584157
0.5833
0.579625
0.575523
0.560049
0.548101
0.355915
0.413923
0.540353
0.563507
0.573454
0.574146
0.574203
0.575678
0.57748
0.580426
0.575689
0.572826
0.576535
0.581815
0.573192
0.552868
0.509348
0.388341
0.550712
0.566801
0.56984
0.582581
0.576158
0.576584
0.578304
0.584111
0.582226
0.578204
0.575559
0.57183
0.564964
0.528245
0.541848
0.442314
0.552897
0.562197
0.571905
0.582624
0.577851
0.580542
0.580243
0.581447
0.582138
0.576124
0.57343
0.572371
0.56931
0.526696
0.493254
0.532493
0.565737
0.528517
0.565466
0.577242
0.585222
0.582973
0.584348
0.584607
0.58312
0.579983
0.57494
0.567616
0.556235
0.52519
0.17335
0.528008
0.519727
0.53987
0.57488
0.574152
0.577905
0.581911
0.577463
0.576872
0.578568
0.580875
0.571605
0.56676
0.557724
0.537483
0.508714
0.357296
0.498135
0.530291
0.571392
0.577433
0.576723
0.581206
0.582207
0.578164
0.574846
0.574531
0.569682
0.552988
0.558226
0.532602
0.354648
0.544129
0.520288
0.557072
0.573225
0.57812
0.581703
0.579316
0.576572
0.576081
0.576081
0.574439
0.568022
0.556257
0.547498
0.381599
0.357554
0.541394
0.556709
0.50341
0.543346
0.576558
0.582649
0.581339
0.576601
0.575903
0.573157
0.568666
0.565253
0.565275
0.530921
0.426044
0.516627
0.547761
0.555165
0.451229
0.514191
0.572512
0.579557
0.578719
0.57661
0.575046
0.57354
0.559315
0.569965
0.561626
0.530062
0.354368
0.525332
0.404284
0.517395
0.538224
0.57705
0.577439
0.576212
0.572554
0.568494
0.54794
0.563415
0.550275
0.414992
0.347853
0.482869
0.499275
0.511396
0.534792
0.528828
0.576269
0.575446
0.573019
0.559039
0.570911
0.563527
0.530591
0.344873
0.545897
0.559073
0.508573
0.502671
0.563305
0.533765
0.524666
0.573946
0.571888
0.559431
0.569952
0.556314
0.524049
0.336882
0.541785
0.558029
0.500331
0.491884
0.530084
0.565069
0.546007
0.534211
0.533836
0.537631
0.571017
0.557283
0.436058
0.336313
0.539456
0.476834
0.512717
0.502467
0.510702
0.55409
0.548039
0.563836
0.528923
0.514986
0.572494
0.560336
0.461498
0.332609
0.53262
0.459441
0.479439
0.495646
0.496751
0.53873
0.566678
0.574823
0.553228
0.524227
0.575814
0.547835
0.494193
0.342793
0.532582
0.551169
0.46152
0.484106
0.452362
0.444388
0.556131
0.565686
0.534132
0.576151
0.577038
0.549941
0.491402
0.328491
0.307099
0.547527
0.558773
0.493134
0.502404
0.44636
0.505922
0.54396
0.523172
0.511938
0.581068
0.553874
0.561315
0.502739
0.51349
0.522197
0.569918
0.531455
0.523134
0.52549
0.542603
0.562798
0.566294
0.513358
0.505404
0.573542
0.578859
0.572129
0.509055
0.0749032
0.505765
0.56587
0.524245
0.522077
0.572003
0.556215
0.373948
0.183203
0.438219
0.361464
0.564127
0.566772
0.502545
0.41501
0.356517
0.560344
0.566176
0.52996
0.355312
0.373209
0.543779
0.560534
0.567149
0.506326
0.347692
0.541647
0.316545
0.350986
0.542233
0.516707
0.558264
0.558585
0.547613
0.550365
0.53314
0.52172
0.545669
0.523277
0.524301
0.504736
0.344496
0.0745768
0.501573
0.570428
0.727283
0.742629
0.518949
0.616062
0.681101
0.719971
0.728053
0.727633
0.717291
0.708048
0.706868
0.508906
0.562993
0.606766
0.637382
0.66262
0.686641
0.710847
0.713824
0.716554
0.714824
0.708542
0.704018
0.699533
0.69467
0.676537
0.508356
0.550124
0.588676
0.59988
0.610093
0.623863
0.639882
0.66109
0.689646
0.709036
0.699469
0.695306
0.698159
0.697545
0.698142
0.690522
0.679861
0.649482
0.61532
0.631718
0.701581
0.726918
0.510763
0.536624
0.574232
0.581471
0.584286
0.590676
0.6013
0.611627
0.619305
0.634753
0.660986
0.68824
0.697355
0.680745
0.611755
0.652034
0.69903
0.690444
0.677427
0.664712
0.637684
0.608056
0.597328
0.519794
0.548154
0.564196
0.570957
0.575548
0.578765
0.57742
0.580862
0.593432
0.604086
0.609258
0.610637
0.630363
0.659667
0.678647
0.682441
0.674199
0.619556
0.654002
0.688471
0.685465
0.677245
0.662364
0.636893
0.589844
0.53381
0.565376
0.571564
0.572864
0.565973
0.563435
0.515893
0.525145
0.508176
0.589455
0.597432
0.604742
0.607046
0.605768
0.626847
0.652213
0.660147
0.668347
0.670118
0.612506
0.638873
0.689874
0.686894
0.679398
0.654594
0.441428
0.534522
0.566607
0.56645
0.577456
0.576865
0.577067
0.57341
0.572643
0.577639
0.579371
0.559255
0.602073
0.606703
0.47752
0.597766
0.516074
0.640774
0.650514
0.667914
0.683284
0.603933
0.63793
0.683982
0.662184
0.498594
0.550341
0.567738
0.575565
0.581594
0.582801
0.583704
0.579506
0.58277
0.582662
0.576059
0.579356
0.581831
0.585842
0.578666
0.569975
0.572742
0.596332
0.583371
0.634373
0.644773
0.657418
0.671047
0.676475
0.638355
0.527916
0.501349
0.548122
0.576997
0.580018
0.579309
0.582459
0.583266
0.583941
0.5842
0.580569
0.583398
0.586164
0.578568
0.578709
0.580761
0.582141
0.588568
0.593408
0.604486
0.600548
0.623909
0.629861
0.636351
0.620661
0.576287
0.478897
0.530118
0.567404
0.570465
0.575954
0.58087
0.580558
0.584537
0.584741
0.584131
0.580966
0.583009
0.58529
0.586071
0.58714
0.587248
0.586985
0.587024
0.586088
0.582708
0.57538
0.582717
0.588792
0.607812
0.612922
0.549253
0.484489
0.5555
0.573928
0.567037
0.575329
0.580749
0.581716
0.585679
0.583787
0.583907
0.582833
0.583846
0.585119
0.585264
0.584426
0.586865
0.586877
0.586541
0.586165
0.586026
0.582168
0.575182
0.533241
0.532031
0.518463
0.340678
0.508353
0.439258
0.532258
0.570525
0.5786
0.581992
0.584007
0.584405
0.585804
0.585942
0.58577
0.585711
0.585637
0.585898
0.585799
0.585572
0.585163
0.585621
0.585108
0.584313
0.58342
0.581227
0.577362
0.524178
0.452057
0.49335
0.536623
0.576748
0.578194
0.578849
0.579462
0.583167
0.586109
0.586412
0.586915
0.586845
0.586085
0.58604
0.586443
0.586094
0.585197
0.585172
0.584475
0.582479
0.581046
0.578881
0.577017
0.564384
0.531283
0.538216
0.58219
0.576922
0.582717
0.582913
0.581668
0.580549
0.576896
0.584215
0.585981
0.586082
0.585533
0.586248
0.585469
0.587039
0.586958
0.586816
0.585753
0.58425
0.582439
0.577888
0.57268
0.57231
0.559536
0.521903
0.540523
0.582075
0.58945
0.5883
0.587633
0.585036
0.583038
0.581378
0.581592
0.582199
0.585781
0.586197
0.58626
0.583366
0.583775
0.586429
0.586671
0.586382
0.585209
0.582976
0.579663
0.576043
0.542722
0.553538
0.522063
0.549509
0.586775
0.584527
0.587112
0.587161
0.587285
0.586396
0.58495
0.584324
0.584674
0.585112
0.58418
0.585343
0.585731
0.58527
0.584074
0.585906
0.586462
0.585577
0.58333
0.581273
0.576658
0.566276
0.535876
0.360846
0.505657
0.550773
0.586299
0.585648
0.587838
0.587105
0.586758
0.586334
0.586302
0.585817
0.585836
0.58611
0.586433
0.586526
0.585023
0.584797
0.585721
0.586605
0.58635
0.586085
0.585935
0.583658
0.579728
0.573209
0.539403
0.520108
0.504623
0.548975
0.585919
0.584077
0.586163
0.587007
0.587052
0.586627
0.586037
0.585301
0.584618
0.585136
0.585679
0.585893
0.586285
0.586848
0.586586
0.585385
0.584575
0.58459
0.586069
0.585913
0.583562
0.577985
0.56146
0.523622
0.506978
0.56625
0.586084
0.581395
0.584412
0.585942
0.586496
0.586009
0.585191
0.584583
0.584285
0.583691
0.584278
0.585294
0.585777
0.58596
0.586152
0.586498
0.586745
0.585607
0.579131
0.579207
0.578359
0.566458
0.563482
0.531525
0.382018
0.500747
0.561105
0.585237
0.586781
0.585381
0.58521
0.585908
0.585697
0.584707
0.584215
0.584102
0.584407
0.58462
0.584436
0.585229
0.586146
0.586642
0.586865
0.586608
0.586438
0.586316
0.581697
0.576312
0.56882
0.549861
0.548358
0.35188
0.539256
0.584094
0.581835
0.585187
0.58561
0.585728
0.585879
0.584298
0.583401
0.583741
0.584188
0.584617
0.58508
0.585334
0.585488
0.586
0.586613
0.587077
0.586336
0.584078
0.583834
0.580976
0.572811
0.561842
0.558775
0.523206
0.531494
0.57689
0.585044
0.586576
0.586315
0.58639
0.586066
0.584745
0.581695
0.58024
0.581331
0.583141
0.584334
0.585157
0.585737
0.585964
0.585965
0.585878
0.585897
0.585767
0.582328
0.579634
0.577852
0.565512
0.559181
0.52093
0.50948
0.564536
0.5825
0.584263
0.58584
0.586588
0.586316
0.584586
0.582386
0.579428
0.577118
0.577113
0.579094
0.582149
0.584154
0.585179
0.585685
0.585798
0.585683
0.585602
0.585729
0.584053
0.580098
0.575779
0.568506
0.526829
0.535943
0.578411
0.583572
0.586064
0.58697
0.586287
0.583139
0.579411
0.577141
0.575726
0.574338
0.57369
0.575002
0.577893
0.581407
0.583788
0.584798
0.585164
0.585369
0.585712
0.585312
0.583685
0.577713
0.566359
0.544246
0.525078
0.572714
0.576714
0.583403
0.586594
0.586414
0.583318
0.577625
0.572488
0.570663
0.570492
0.570082
0.569798
0.571085
0.57385
0.577641
0.581574
0.583782
0.584755
0.585449
0.585642
0.584031
0.581207
0.57704
0.567449
0.509342
0.503701
0.558916
0.575961
0.580171
0.585196
0.586679
0.584447
0.579968
0.573442
0.567833
0.56508
0.564756
0.56556
0.566782
0.568387
0.571372
0.575736
0.579635
0.582765
0.584917
0.585755
0.58445
0.581501
0.577735
0.573078
0.531882
0.504646
0.555456
0.577105
0.57952
0.582933
0.585715
0.585733
0.581807
0.576596
0.571264
0.566674
0.563551
0.561879
0.562081
0.563942
0.567325
0.571551
0.576128
0.581017
0.584287
0.58573
0.58393
0.581769
0.576936
0.564392
0.550163
0.492573
0.530358
0.573699
0.580553
0.583142
0.584216
0.58611
0.584567
0.579511
0.574292
0.569851
0.56661
0.564587
0.563165
0.562174
0.563272
0.567129
0.573338
0.579652
0.583917
0.585759
0.583028
0.579508
0.574491
0.560523
0.55225
0.506198
0.510716
0.567273
0.576065
0.583148
0.584838
0.58587
0.585933
0.583382
0.578004
0.572883
0.568983
0.566812
0.566035
0.565448
0.564942
0.565125
0.567888
0.574162
0.581188
0.585542
0.585262
0.582099
0.574556
0.560381
0.551365
0.506475
0.554945
0.57969
0.584004
0.586107
0.586633
0.585946
0.583529
0.580803
0.576333
0.57249
0.569345
0.567301
0.567091
0.568055
0.568292
0.568515
0.570716
0.576239
0.583171
0.5862
0.585131
0.581361
0.57667
0.554897
0.506589
0.507028
0.573991
0.582104
0.585238
0.586945
0.585952
0.583537
0.580466
0.577081
0.575222
0.572244
0.570027
0.56829
0.568111
0.570255
0.573158
0.574613
0.575889
0.58108
0.585421
0.586133
0.583139
0.57848
0.564348
0.531726
0.543887
0.576444
0.583213
0.585574
0.586607
0.583695
0.579905
0.576585
0.574065
0.571966
0.571537
0.570809
0.570285
0.569232
0.570433
0.575061
0.580436
0.583182
0.585431
0.585798
0.584545
0.579845
0.567566
0.553199
0.506765
0.50235
0.559237
0.580288
0.583648
0.58553
0.586151
0.581896
0.57675
0.573132
0.571128
0.56976
0.569295
0.570125
0.570843
0.57153
0.57212
0.575446
0.581254
0.584875
0.586198
0.584891
0.581366
0.577502
0.568333
0.507973
0.533473
0.572347
0.580223
0.583663
0.586158
0.585737
0.580531
0.57415
0.570686
0.568429
0.567503
0.56792
0.569148
0.571348
0.573808
0.576689
0.57895
0.58249
0.58568
0.586071
0.583285
0.57859
0.566907
0.545205
0.39866
0.511274
0.572485
0.582037
0.584897
0.58633
0.586768
0.582992
0.577406
0.571161
0.56755
0.565598
0.564924
0.565357
0.56755
0.570472
0.574021
0.578793
0.582984
0.585231
0.586117
0.584658
0.58089
0.570484
0.550557
0.490981
0.55636
0.574074
0.583083
0.586029
0.58718
0.586072
0.582277
0.57469
0.568608
0.565272
0.563659
0.563141
0.56373
0.565564
0.569403
0.573698
0.578364
0.583037
0.585784
0.585108
0.580976
0.575172
0.564998
0.528343
0.512855
0.572346
0.581666
0.585976
0.587368
0.58647
0.584645
0.581285
0.575652
0.569211
0.564848
0.563088
0.562874
0.563396
0.565051
0.568755
0.574144
0.578851
0.583361
0.585934
0.585169
0.580405
0.567216
0.543238
0.379585
0.548163
0.57725
0.583502
0.586647
0.586817
0.584832
0.582083
0.578436
0.574772
0.571051
0.56734
0.564733
0.564085
0.564902
0.566629
0.569636
0.574791
0.580751
0.584359
0.586143
0.584192
0.577954
0.566127
0.527326
0.510597
0.572281
0.581251
0.584993
0.587029
0.585836
0.582669
0.579031
0.575429
0.572134
0.570449
0.569591
0.56806
0.567474
0.568184
0.570686
0.573945
0.577581
0.58212
0.585761
0.58583
0.582004
0.576744
0.562088
0.464282
0.548428
0.577769
0.583318
0.586079
0.586864
0.584684
0.58105
0.577271
0.573748
0.570458
0.568165
0.567974
0.568807
0.569722
0.571381
0.57423
0.578722
0.582543
0.584912
0.586219
0.583916
0.577486
0.565254
0.539984
0.509427
0.572414
0.581345
0.58488
0.586859
0.586082
0.583193
0.579554
0.575998
0.572933
0.570058
0.567753
0.566597
0.567345
0.56957
0.572888
0.576027
0.579968
0.584091
0.586088
0.585445
0.581048
0.575503
0.562159
0.475753
0.544687
0.578328
0.583806
0.585747
0.587008
0.584975
0.5813
0.577786
0.574866
0.572563
0.570448
0.568205
0.566919
0.56716
0.569276
0.573086
0.57776
0.581349
0.584485
0.586176
0.584148
0.580137
0.562681
0.539008
0.55567
0.574298
0.583918
0.586625
0.586811
0.583899
0.579822
0.576228
0.573683
0.5719
0.570738
0.56974
0.568567
0.568284
0.569866
0.573636
0.57884
0.583084
0.585468
0.585921
0.581983
0.575564
0.565336
0.500152
0.511902
0.57166
0.582291
0.586209
0.58754
0.586372
0.583031
0.578588
0.574915
0.5726
0.571224
0.570374
0.570037
0.570196
0.570397
0.571619
0.574509
0.579136
0.584229
0.586057
0.58531
0.580182
0.562422
0.542534
0.382974
0.514289
0.573259
0.583624
0.587369
0.587667
0.585813
0.582176
0.577386
0.573545
0.571385
0.570422
0.570068
0.569987
0.57034
0.571395
0.573218
0.576087
0.580015
0.583848
0.58607
0.584456
0.579191
0.55849
0.495145
0.528867
0.576125
0.584296
0.587685
0.586843
0.58418
0.580513
0.576089
0.572141
0.569764
0.569023
0.569372
0.569963
0.570598
0.571792
0.574012
0.577427
0.581432
0.584854
0.58608
0.582618
0.575531
0.552328
0.434529
0.554917
0.574711
0.584429
0.587576
0.585818
0.582162
0.5783
0.574527
0.571277
0.568864
0.567528
0.567665
0.569228
0.570874
0.572376
0.574633
0.578176
0.582478
0.585644
0.585211
0.580891
0.567512
0.539298
0.510011
0.567356
0.579669
0.585862
0.587349
0.584736
0.580571
0.576427
0.573007
0.570451
0.568838
0.567774
0.567195
0.567857
0.570164
0.572782
0.57553
0.578945
0.583014
0.585967
0.584422
0.575799
0.565247
0.479519
0.525262
0.573937
0.583387
0.587054
0.586819
0.583901
0.579628
0.575145
0.571563
0.569323
0.568316
0.568101
0.568266
0.568717
0.569955
0.572516
0.575943
0.580093
0.583867
0.586139
0.583166
0.575677
0.550097
0.384763
0.554815
0.572646
0.583187
0.587015
0.586268
0.582688
0.578419
0.574244
0.570428
0.567654
0.566843
0.567346
0.568261
0.569396
0.570852
0.572999
0.576222
0.580439
0.584527
0.586089
0.581833
0.57143
0.541271
0.50848
0.570887
0.581199
0.585816
0.587331
0.585679
0.581727
0.576854
0.57265
0.56942
0.566774
0.565214
0.56552
0.567088
0.569007
0.571125
0.573686
0.577111
0.581346
0.58519
0.585474
0.581098
0.566363
0.528513
0.527307
0.574932
0.583419
0.586273
0.587116
0.584874
0.580868
0.575647
0.570825
0.567361
0.565359
0.564238
0.563932
0.564982
0.567611
0.570671
0.573848
0.577709
0.582199
0.585608
0.584577
0.575943
0.565971
0.489965
0.544349
0.578881
0.584112
0.58712
0.58659
0.583363
0.579223
0.574551
0.569749
0.56573
0.56325
0.562529
0.563085
0.563938
0.565917
0.569594
0.573886
0.578362
0.583155
0.586099
0.584115
0.575048
0.549191
0.393378
0.554856
0.573407
0.583945
0.587226
0.586208
0.582754
0.578247
0.573869
0.569778
0.565759
0.562604
0.561013
0.561278
0.563162
0.565688
0.569199
0.573926
0.579426
0.584242
0.586102
0.581197
0.573983
0.543045
0.493327
0.569931
0.582424
0.586633
0.587416
0.585254
0.581933
0.577841
0.573642
0.570085
0.567062
0.563929
0.561476
0.560476
0.561585
0.564985
0.569647
0.574883
0.58063
0.585425
0.585353
0.580656
0.562594
0.52635
0.510017
0.572789
0.581771
0.586522
0.587366
0.584903
0.581253
0.577536
0.573797
0.570478
0.567941
0.565838
0.563694
0.561919
0.561766
0.564251
0.569447
0.576059
0.582258
0.586096
0.584503
0.57596
0.564942
0.485837
0.512594
0.573472
0.583147
0.586522
0.587315
0.584945
0.580977
0.57713
0.57401
0.571225
0.568863
0.566841
0.565234
0.564256
0.564042
0.565654
0.570019
0.576862
0.58365
0.586342
0.582281
0.576296
0.547291
0.543915
0.578935
0.584811
0.587456
0.587053
0.584895
0.58101
0.576682
0.573545
0.571527
0.569845
0.568065
0.566146
0.564788
0.56522
0.567513
0.571686
0.578077
0.584533
0.586081
0.580731
0.564086