/*--------------------------------*- C++ -*----------------------------------*\
| =========                 |                                                 |
| \\      /  F ield         | OpenFOAM: The Open Source CFD Toolbox           |
|  \\    /   O peration     | Version:  2312                                  |
|   \\  /    A nd           | Website:  www.openfoam.com                      |
|    \\/     M anipulation  |                                                 |
\*---------------------------------------------------------------------------*/
FoamFile
{
    version     2.0;
    format      ascii;
    arch        "LSB;label=64;scalar=64";
    class       volScalarField;
    location    "170";
    object      omega;
}
// * * * * * * * * * * * * * * * * * * * * * * * * * * * * * * * * * * * * * //

dimensions      [0 0 -1 0 0 0 0];

internalField   nonuniform List<scalar> 
404911
(
215.354
152.139
3433.43
1536.57
130.354
145.845
119.996
602.545
340.918
281.615
242.579
279.741
136.001
215.408
390.306
1098.75
203.916
126.074
142.686
235.743
361.033
168.36
548.059
333.081
128.892
912.823
224.45
94.3018
125.691
968.495
210.056
80.0584
182.676
272.945
177.228
79.7448
173.464
400.086
187.775
72.7425
173.689
1001.88
187.207
71.7925
68.1478
356.336
306.277
71.3813
70.9569
502.747
377.031
326.349
127.869
1321.45
325.173
566.163
9402.12
91.0038
297.69
198.787
148.349
82.7943
155.702
48.7252
69.3836
124.347
97.6867
321.886
92.9533
54.4764
88.5626
29.9035
85.073
57.2304
33.7477
583.869
2262.68
216.537
46.2855
70.3031
42.658
76.7052
27.8936
59.7988
56.6876
42.5523
179.274
38.0495
1120.31
58.9201
89.1014
2948.02
39.8052
62.0186
69.1627
47.2021
72.6423
59.794
37.4415
205.263
586.685
39.9874
53.1115
434.551
1137.41
395.325
160.81
577.864
246.29
181.514
129.259
129.839
121.214
132.781
2188.08
415.059
140.438
4447.59
499.451
101.929
105.775
105.809
108.869
170.038
1203.46
226.742
133.076
123.387
110.549
422.741
384.513
421.177
104.446
97.9195
106.409
99.238
141.446
137.549
92.6542
191.106
1077.13
221.914
123.63
108.986
107.216
107.798
111.862
106.777
424.059
366.172
104.986
96.484
112.838
1685.53
191.526
888.215
177.08
106.885
96.0527
101.187
100.707
105.787
109.753
109.896
106.238
101.785
100.887
99.4259
107.328
170.252
312.197
495.725
363.569
335.479
358.128
350.802
424.962
106.213
110.233
103.334
103.08
101.62
108.64
118.258
121.072
119.35
210.026
613.461
384.471
329.014
328.894
185.608
287.387
455.179
362.85
97.196
103.346
101.311
108.237
114.037
119.291
144.782
1059.76
888.858
177.235
491.486
347.385
208.941
201.377
192.651
359.92
259.16
310.187
367.926
371.19
95.393
107.455
112.288
110.617
130.582
399.483
760.741
501.504
197.908
133.971
82.1162
115.813
212.09
202.309
147.22
206.599
177.164
159.138
85.4863
109.491
111.983
127.124
208.605
1099.44
1115.2
198.66
75.5491
122.081
82.6311
78.4199
81.1036
91.5899
134.272
174.878
181.418
98.7807
92.5042
233.505
389.34
99.9048
136.121
1005.77
368.417
100.162
66.2292
127.572
76.314
73.9701
72.5073
75.5425
77.6431
94.4166
80.7725
83.1089
160.485
308.209
374.104
440.101
336.948
377.353
132.713
95.862
222.156
79.3029
76.1503
81.6924
74.4733
85.3182
84.2063
73.2785
74.6788
117.959
288.624
348.785
382.055
1581.92
272.01
109.601
89.1675
59.4008
75.3061
80.0894
78.3578
74.0465
73.2804
85.4172
81.5863
77.9376
72.6707
121.105
313.814
352.134
165.857
928.144
881.77
786.019
219.479
124.331
40.8309
39.7004
73.2132
84.0997
74.7888
71.7744
69.0203
70.1042
75.4749
76.0954
89.5882
282.463
120.167
452.187
1009.7
174.093
88.5398
132.244
79.0211
73.3345
101.936
34.7275
72.6911
71.9763
74.0171
44.6141
41.4707
88.468
78.9985
88.2318
320.702
184.343
376.664
98.4147
79.9761
51.0661
41.1207
67.4815
65.9349
60.1596
34.2566
42.7463
29.2419
28.3649
37.2967
49.2572
83.3809
124.461
119.193
904.545
1039.05
184.336
89.5861
59.9216
35.0699
31.3789
36.3551
54.2333
39.534
41.2879
28.9872
49.8111
46.6865
53.92
65.8612
74.2152
291.031
784.603
267.998
87.1077
66.7848
73.2798
61.3479
44.2443
57.8594
40.701
27.7655
28.6715
32.7811
39.0266
49.9346
71.7885
90.5292
78.8993
195.291
614.674
1003.21
795.725
250.667
99.516
78.3214
44.8965
56.6594
49.6333
41.7738
34.7443
26.0469
27.4172
29.332
40.6086
73.6229
102.246
83.4661
347.806
346.147
105.755
117.309
76.1802
53.8526
40.1322
42.4495
50.015
41.4104
58.2096
44.7598
28.5298
30.8458
37.9315
49.7211
78.1992
191.746
876.427
122.129
73.2319
84.7654
44.9875
45.882
41.0898
37.6589
55.0216
69.0911
63.1785
61.8946
46.252
45.7558
41.8915
86.1941
89.9758
224.553
342.431
84.094
92.8715
65.9348
39.7988
31.2107
40.8733
36.1362
39.3612
46.8385
64.1221
59.1523
43.0726
65.871
57.1495
86.6574
104.584
877.814
172.052
67.4877
50.3622
36.0062
33.5265
29.7118
29.5814
54.6755
27.0013
26.8799
36.7262
42.6075
64.7684
77.2559
101.329
100.095
197.657
1071.36
369.509
107.704
69.1855
42.8394
33.8205
30.5976
37.9828
35.2952
27.4373
27.2875
25.4563
28.4017
30.9957
40.6291
98.6691
60.1748
112.392
902.834
1028.08
158.01
66.986
77.9889
41.5413
32.3284
29.3882
27.2271
26.2571
35.4848
25.1859
34.745
37.2778
33.4219
38.8689
50.5428
88.0122
207.852
345.213
91.1997
65.0898
42.5751
34.2543
30.4058
29.4254
27.9749
36.0108
25.6869
25.275
25.843
42.4195
46.4632
61.4443
73.8227
107.938
895.676
1041.82
160.076
68.1966
52.5816
38.0487
31.9498
29.5288
28.26
28.6801
27.5827
37.8861
34.7865
35.9057
31.6942
44.0239
55.2906
109.486
186.292
809.505
97.5812
68.6602
47.3548
36.043
31.0121
28.7273
28.4333
27.9507
27.9561
31.192
26.6341
27.3302
30.244
37.158
73.8094
125.283
235.679
191.157
75.0803
69.9771
47.4519
35.5955
30.0935
28.1983
27.5329
27.8978
27.6187
26.9197
27.9103
28.771
31.4923
46.1777
70.11
98.2947
412.957
168.584
94.4444
77.1635
43.9101
35.0735
28.9248
26.8551
26.3507
26.4861
27.3154
26.9956
27.1123
28.9945
35.8157
50.9308
71.1588
167.02
1015
1059.77
115.872
63.6053
60.772
46.9807
32.504
29.0099
25.9312
34.1348
33.109
25.0524
26.7604
27.9477
29.8144
37.153
86.138
97.2831
366
836.737
103.839
67.2618
42.2166
34.0573
29.8981
27.4799
27.4948
25.8172
33.5469
27.7649
24.699
27.9815
30.9573
37.0397
80.4478
101.383
959.596
211.259
86.5625
68.7415
42.6607
33.5405
30.5855
27.2505
26.8351
26.8017
27.2251
27.213
26.1624
28.2061
31.2502
50.4113
60.5635
106.742
998.718
198.47
74.4077
51.3239
38.2059
31.8696
37.1888
36.6241
24.8926
26.8054
26.6132
26.0601
27.4586
28.4455
31.6761
45.9128
68.1433
184.254
940.727
132.957
72.7646
50.3938
35.5643
30.5865
28.6545
35.0497
33.8991
25.0845
25.6855
26.0551
26.9828
28.6778
33.1342
62.9391
84.9856
352.909
347.415
91.8341
85.51
60.6397
35.8624
28.623
26.4534
25.4933
33.6267
33.1169
22.4374
24.396
27.6257
29.1029
33.4579
65.4228
99.3092
905.024
203.632
74.0011
51.5719
38.9131
32.1503
28.0086
34.7841
32.1947
33.3294
25.5596
32.7847
27.8207
26.2543
29.7984
35.2453
66.6045
139.333
1036.61
959.021
118.658
68.2357
51.9461
36.8909
31.4242
28.8207
33.8227
31.5982
32.5091
32.6086
23.8105
31.3289
33.5289
30.0644
41.8547
64.6148
163.785
952.223
109.871
67.512
44.7528
34.9534
30.8739
28.6299
28.7698
33.164
33.5209
32.45
29.4151
23.8515
28.204
31.6956
44.4714
74.2199
329.611
936.98
108.825
68.1118
42.6296
34.1951
29.9108
28.6104
28.4636
28.7767
25.2574
21.0695
27.8783
28.8105
28.0352
36.1318
59.4896
86.0172
806.231
933.062
105.662
67.1251
42.2869
33.3275
29.7331
27.9049
28.6189
27.9377
26.9075
25.5811
22.506
30.9954
35.853
38.7838
70.9043
138.453
1034.83
202.277
90.7816
69.2379
43.9597
33.7146
29.1685
27.0638
27.4928
28.0022
25.4162
21.4034
21.8243
25.0973
36.2899
39.0056
71.8315
160.606
1060.74
182.284
74.9785
55.2687
42.6907
34.4876
29.0095
26.5121
26.4451
27.2508
26.1184
23.3167
27.5553
32.4824
31.9862
38.2674
72.6215
156.298
1010.64
111.242
80.1372
63.63
40.6149
34.674
29.3518
25.7045
24.8416
25.9903
27.8065
25.7154
26.3277
34.0227
39.7466
47.7818
69.5426
170.337
889.635
108.12
69.2506
43.6111
35.7133
32.0891
29.9801
27.0047
30.9316
28.5056
24.604
26.0605
26.7406
28.169
31.8945
49.5536
67.4062
181.235
955.437
108.356
68.861
42.7405
33.9971
31.0726
28.3304
27.7879
26.705
33.2883
29.8301
25.2626
27.2518
29.1978
33.0026
51.9726
70.7478
196.422
956.737
112.071
73.9858
43.0087
33.2723
30.4495
27.9702
26.6652
27.1858
28.9569
28.2844
26.2135
27.5936
29.5158
35.6741
53.3327
78.1962
335.79
889.553
104.9
70.8887
42.3774
32.4715
29.5074
27.6825
27.0562
26.7123
27.225
26.6584
26.2662
27.4338
29.2142
35.653
69.5185
99.1111
890.25
212.892
101.68
68.4935
42.9536
32.0526
28.2174
26.9102
26.3552
26.1908
25.7632
26.3684
26.2934
27.3902
29.2549
35.4355
66.5121
100.841
973.39
216.636
97.9216
66.1132
41.5193
32.0253
26.7651
25.4269
25.0863
22.0184
21.1285
21.777
24.9961
27.7649
29.1481
35.3742
67.9895
98.9268
941.06
1081.71
136.092
93.0519
66.676
38.8751
38.3043
35.0808
20.5653
20.8909
21.6326
23.6324
23.7623
25.2617
26.2228
29.2895
35.3897
71.2707
109.718
926.786
968.7
104.123
66.8542
75.2441
39.3957
29.2701
33.6746
27.2764
22.3661
22.0978
21.7414
21.2996
23.4597
31.3813
29.6736
37.1032
69.4008
146.729
108.733
67.2241
39.9278
31.8952
28.6012
27.4864
25.1384
17.704
20.5569
22.7839
21.093
19.96
25.2217
29.7428
46.1891
62.8798
156.052
903.041
106.965
65.2038
36.2473
29.82
28.1179
27.13
26.8466
24.7399
22.2638
19.9226
19.7359
23.5525
24.8386
30.7798
48.6068
69.3595
196.679
943.245
98.7357
67.0084
34.2808
28.8426
27.8897
26.6555
25.6225
25.4082
24.6444
22.5064
21.0784
23.2947
25.1095
30.1241
47.6532
74.0297
338.72
1040.51
96.5626
67.5688
33.423
28.0774
27.26
26.4062
24.117
20.5566
21.3408
23.3238
24.4351
27.1379
25.8083
30.966
49.5085
79.4899
752.224
90.0459
76.2795
34.3769
28.001
26.8602
26.7519
26.4497
21.6812
24.4354
25.5439
22.9473
25.3595
26.8776
32.803
61.419
96.3144
853.985
658.871
113.282
33.816
28.1402
26.8617
26.7306
26.5844
25.9129
20.9511
23.8596
24.8165
25.6873
28.0852
35.1189
63.7274
99.6063
952.82
2072.46
253.921
72.031
47.8384
27.8426
26.7155
26.5118
25.6532
23.8431
24.2901
21.2833
26.9057
25.0787
28.7856
40.513
64.8237
115.083
1001.7
193.087
58.1614
61.9368
38.6854
27.3422
26.9469
26.6571
25.4591
21.5663
24.5082
24.9487
23.8705
25.2305
28.0307
42.7261
67.9482
176.472
178.918
77.1563
42.2027
30.688
27.703
27.0329
26.2939
26.4908
24.3918
25.6976
24.5745
30.2019
26.3719
30.7767
44.1575
70.9566
192.562
1086.18
150.099
76.9599
42.9415
38.8447
40.2866
39.8218
35.2421
25.1311
23.2678
20.4309
19.8867
23.2503
25.6917
31.911
64.0145
85.6355
754.727
857.3
103.944
60.3632
33.691
35.751
37.143
77.0084
67.735
33.6572
20.7879
24.7723
27.3747
24.0124
26.6772
35.1477
67.4019
93.6461
884.55
729.488
72.4348
99.0455
51.6395
36.2056
34.921
32.9152
42.3077
83.5705
34.0234
24.2693
27.7695
33.0284
33.9784
40.7784
70.0839
96.4354
894.954
345.237
67.8356
68.83
42.4687
33.9601
33.8222
38.8399
28.8541
29.1114
45.2454
32.0705
33.8162
35.7107
36.2028
41.8826
77.8851
103.807
931.507
913.638
153.939
68.9944
51.6426
43.9975
32.4078
24.5154
17.2523
29.9342
51.7352
39.1525
34.7251
34.9029
35.8979
28.1225
37.721
70.7553
223.202
939.217
802.25
81.1728
86.3294
49.3597
43.0203
32.6332
18.552
9.94573
14.6678
29.9804
39.6643
27.6848
28.3539
30.754
32.3009
36.7882
65.7727
111.06
967.859
138.407
65.64
45.3834
41.441
30.3185
17.6686
10.34
12.1607
18.9653
30.0641
24.0499
28.375
29.1537
31.4915
48.8229
60.4073
154.182
1090.81
167.755
66.6074
59.8556
46.4281
29.7707
12.117
11.5896
19.1685
19.0725
26.0984
29.8302
25.4158
28.3216
30.9688
47.5976
67.3211
190.983
172.294
71.2281
64.6912
51.2436
32.0113
15.41
9.18734
14.2842
24.1171
23.5127
30.1179
25.1492
27.8099
31.0279
46.1524
71.4295
334.357
146.459
126.685
74.0261
48.8702
33.5888
12.3462
9.45335
12.5617
16.9407
22.7532
27.9208
24.8161
28.7223
33.7025
49.786
75.9318
767.49
853.291
91.4517
78.026
62.3282
44.5447
31.2206
18.3686
11.0131
15.5696
20.426
28.3654
31.438
33.5495
29.8702
36.7946
64.2514
101.176
870.28
808.73
99.7389
81.9669
62.419
46.6683
30.5356
12.3068
12.8128
17.3146
25.8469
30.8655
33.7451
36.8927
30.63
41.2266
63.9784
167.724
751.633
83.9433
59.2227
54.1234
46.6611
32.6682
16.5946
10.9524
15.0467
24.5903
33.7784
34.4771
27.7723
30.5845
42.0349
68.0753
200.653
767.432
86.1732
60.0206
53.0279
49.2713
32.5812
12.8262
14.3639
23.9611
31.0011
32.9762
34.6352
27.3155
31.2468
44.37
72.799
201.311
780.926
91.6579
59.8678
47.7133
48.0921
38.3259
15.1842
15.1758
21.7222
30.8404
33.3841
34.6325
28.0978
32.6542
50.9564
78.4235
756.815
788.481
91.646
60.6395
51.8584
47.7052
40.2344
32.3565
18.9558
20.713
33.5942
35.5437
35.0695
27.5877
32.9113
62.3743
97.4292
861.4
205.544
91.1347
106.145
55.7134
40.1068
29.2101
27.2601
30.4185
32.912
34.3432
35.5021
27.3659
28.3392
31.3498
73.3197
101.079
937.074
257.885
186.982
57.8497
34.9024
25.5307
13.6064
18.7247
29.4407
35.0077
34.9339
27.1766
28.9273
37.3072
68.1813
137.418
1069.84
241.22
107.478
77.4046
40.503
13.6442
11.9279
15.4745
27.7231
33.6563
35.0311
35.4109
29.211
40.5239
64.6925
173.856
201.374
182.098
106.113
78.0396
45.6628
14.4673
12.114
16.6164
24.4878
33.605
34.2593
27.5687
31.5836
45.6948
66.2289
195.225
218.055
79.4253
71.0223
85.2106
62.8408
31.6428
14.8914
17.8553
30.029
35.6609
36.0025
38.3176
36.2056
63.843
86.54
743.606
220.913
82.6252
97.1019
79.0889
77.9202
77.6106
39.9927
34.5373
34.1707
38.7943
39.427
49.4797
61.3164
102.885
110.269
934.935
1062.75
197.519
97.9286
71.1133
67.5619
75.616
80.5018
70.7184
47.4764
66.085
80.2284
61.82
38.8487
67.5108
119.227
377.282
1108.59
127.652
72.9076
76.7058
36.4403
70.4539
73.146
69.8648
37.9277
41.835
55.1195
68.8606
79.5919
90.73
169.631
156.266
876.69
120.251
83.6061
60.6571
37.3812
63.4168
56.7609
62.2618
55.7904
45.5201
62.6037
69.7252
75.6313
90.7876
213.858
703.653
198.574
83.4522
301.137
90.0099
56.6368
34.4035
46.0205
42.5783
41.439
41.5525
41.7771
50.0123
63.3168
96.2665
205.852
3970.03
206.567
437.122
179.494
79.8806
74.2005
62.2636
49.4467
75.4496
79.0357
59.4698
40.6706
66.7675
76.1292
106.832
196.42
682.362
949.032
519.06
219.306
85.4235
66.0571
72.5006
48.8153
45.4963
66.0911
80.7419
71.4342
73.7695
124.617
118.8
224.799
1066.56
114.562
339.413
117.632
85.708
65.9052
45.6409
54.0084
72.6909
75.0493
72.6746
78.5531
72.4111
114.913
146.346
1291.03
1055.99
129.536
86.6303
216.098
186.432
78.5343
45.6303
47.675
72.5431
74.5679
74.8122
83.6534
100.495
86.7206
219.695
1123.86
464.074
124.565
89.3015
373.043
230.272
91.352
55.9636
61.2164
74.4735
76.8897
78.5149
108.819
74.0133
95.1519
227.55
1014.26
433.583
360.531
268.446
194.718
70.5995
71.183
71.1065
80.5485
85.499
130.097
89.7884
141.71
1024.54
593.805
405.121
343.954
292.117
144.431
216.465
75.5746
77.0852
81.8054
109.628
74.8317
98.1893
217.463
1039.53
115.692
89.5548
383.767
272.204
96.0928
225.134
257.779
89.8918
93.9819
127.687
92.5521
122.709
413.468
1097.45
123.154
94.6504
391.244
365.144
192.378
98.3582
144.047
194.041
248.148
247.778
100.253
135.805
1074.34
1021.53
122.726
427.487
382.133
391.713
273.801
132.946
171.938
93.8818
248.877
391.069
103.277
143.599
1159.27
1084.8
121.794
442.273
381.681
391.411
363.966
134.974
114.368
79.8577
156.098
397.362
108.413
216.342
1209.56
1035.66
130.607
100.308
403.197
366.41
400.281
388.257
99.2521
92.7747
241.712
104.675
121.291
220.558
1316.57
1315.07
1026.6
102.034
96.8108
382.357
380.073
495.973
263.46
141.329
258.431
405.7
125.983
238.7
103.766
410.788
367.478
375.029
93.4431
404.248
414.478
436.089
410.277
105.851
94.2922
364.522
439.98
110.131
129.864
195.083
1051.28
6163.51
479.388
93.0386
379.516
416.107
136.979
276.413
2697.33
1976.55
380.421
660.945
128.509
150.759
1032.89
359.6
649.496
130.153
143.589
461.545
709.376
484.715
152.578
126.235
168.53
1031.37
1031.43
188.75
1822.71
697.649
409.793
229.981
109.445
104.636
132.402
134.57
530.244
174.786
114.199
256.72
566.627
1359.19
1187.7
6309.51
366.821
1386.13
524.397
539.875
1237.95
474.114
294.638
211.314
209.099
211.548
224.665
245.224
435.257
1235.78
463.952
268.942
188.22
178.081
162.317
152.51
160.64
182.538
202.394
226.991
242.592
270.481
302.216
322.844
1131.74
418.09
192.126
167.386
148.247
145.58
144.987
144.724
148.269
150.488
167.263
172.096
185.204
215.964
253.656
277.047
304.93
325.722
361.782
500.909
603.691
1222.2
824.323
381.171
172.73
151.164
145.378
133.391
127.974
131.056
138.242
142.606
145.995
146.605
151.791
147.356
474.024
512.82
224.201
259.947
267.588
303.601
325.509
393.175
833.917
418.766
206.071
146.546
130.571
116.793
113.982
116.218
115.739
121.332
123.836
130.688
137.834
145.021
143.275
142.431
143.201
138.279
438.552
510.16
194.622
242.013
271.212
314.024
381.874
1484.87
300.082
108.575
79.7937
75.9586
101.994
107.19
385.726
443.371
516.461
92.832
116.232
122.802
117.865
123.8
123.443
136.394
136.947
127.697
123.615
413.116
493.633
190.627
239.264
306.361
685.014
1362.51
281.46
121.868
103.602
56.3892
63.0153
62.7408
86.393
118.641
99.5272
91.4072
219.675
100.623
111.279
680.533
129.54
559.755
116.557
131.461
138.225
142.577
462.665
501.955
228.213
579.044
1124.72
225.426
157.994
98.0168
43.8546
38.3919
37.1659
57.9821
50.4048
57.0614
99.7292
95.3674
87.2527
88.0024
183.819
238.976
242.486
124.606
210.307
124.527
134.544
136.863
146.003
179.874
449.931
307.233
1218.66
218.835
123.347
87.9536
74.1835
40.1362
37.1461
36.4226
36.2682
49.1984
50.6293
46.0669
82.1407
88.332
80.2191
88.4819
86.2984
95.6657
90.2574
132.492
96.5597
128.152
148.928
248.257
478.43
959.146
285.203
98.2679
96.4573
103.184
60.0362
60.9577
36.211
33.0111
35.0147
49.5425
42.3729
35.961
34.6185
32.9546
34.8739
37.4079
40.6437
55.2593
82.1906
146.411
117.085
120.174
112.067
139.732
403.291
998.896
146.459
78.6606
109.647
77.805
51.9553
56.97
31.6213
39.2414
40.2971
46.4139
43.8725
41.5751
40.4065
40.6249
33.7834
33.0314
35.2049
38.728
44.9396
66.0164
97.5482
458.391
422.496
531.154
4364.91
661.363
1256.14
211.201
92.9076
57.1134
46.369
38.596
42.7112
39.0212
39.6444
41.5706
43.312
44.008
42.1991
41.7173
42.5579
41.3401
36.5157
36.6732
41.1108
48.5775
62.1941
76.185
444.311
1509.65
1150.41
243.616
91.9535
53.5456
44.5113
50.981
43.0849
32.1543
31.7882
34.6535
37.7109
42.2232
43.6142
39.2507
39.5482
43.6167
43.3783
42.967
42.8562
47.5379
60.2251
70.2486
113.476
323.572
343.648
113.192
146.755
110.781
83.3853
48.9333
39.2611
53.5169
37.9765
33.2203
29.8329
28.2006
29.4697
24.9869
33.1051
32.0134
32.6014
38.6076
43.2129
49.4184
62.4536
64.8116
67.6413
108.177
347.122
323.885
117.118
83.408
77.3313
55.4803
51.5942
47.3419
44.9341
36.7348
40.3666
33.5759
32.2123
31.0963
22.3886
22.2595
28.4002
30.1111
33.6759
37.8243
44.1185
56.1499
70.1031
143.778
97.9137
340.339
287.821
97.404
102.383
81.3989
56.869
46.4188
41.6804
37.989
35.133
30.9839
29.2159
35.5248
34.0031
36.7929
24.2978
22.4354
26.3257
29.6082
35.1133
40.2702
44.9894
63.3918
93.6905
158.336
710.581
1029.59
277.385
94.9204
90.8313
59.5902
50.4347
44.7948
40.2716
35.0845
28.7414
25.3516
23.4066
22.7832
25.4799
34.7068
36.9263
35.7794
30.843
28.7718
28.3736
24.8847
37.4455
50.4337
75.2771
156.948
303.825
1006.65
270.701
87.3934
86.3455
56.0244
42.5988
36.2285
31.4089
29.39
27.0473
22.9818
20.454
19.7976
19.6564
20.2646
22.7678
25.1291
29.1743
33.0714
37.3758
26.4418
26.0778
38.6873
63.4108
133.141
333.288
897.88
165.854
83.4853
91.0165
56.7093
41.1317
32.343
26.6011
23.4577
21.698
21.3008
20.907
19.886
19.1641
19.0184
19.2561
19.7419
20.7354
21.2854
23.7847
36.8664
35.7855
36.3963
67.5598
92.8031
221.58
1211.84
1096.97
179.707
79.7812
62.1795
49.7814
41.7032
34.3035
25.6083
21.225
19.3949
18.8754
19.2647
20.0722
19.9738
19.7664
19.5837
19.9152
21.2816
23.0662
26.7782
24.36
31.8582
42.9236
60.0755
100.877
101.355
1390.5
300.199
85.8153
90.3456
55.5378
40.8309
35.06
28.1235
21.9207
19.1245
18.2272
18.1187
18.4375
19.007
19.5359
19.6107
19.6406
19.953
21.3142
25.4644
36.0914
41.4316
50.8543
68.3491
94.6506
101.838
321.409
344.338
110.52
74.4506
54.1248
43.0138
35.5824
29.1854
24.0161
19.2825
17.6533
17.6963
18.1782
18.4726
18.9236
19.4275
19.7647
19.9543
20.1722
21.0873
24.6341
33.2952
40.8307
49.8868
81.0133
99.7045
335.149
873.01
148.758
72.874
63.6844
45.69
37.681
30.2982
24.2799
20.11
17.5216
16.0159
16.0765
16.9702
18.0597
18.6632
19.2484
19.8096
20.3571
21.0175
22.4247
26.1555
34.6
47.7617
65.7668
79.7682
286.711
291.147
84.0402
57.8804
40.9011
34.5317
28.1711
22.3171
17.8024
15.8456
14.9561
14.2356
13.956
14.7667
16.0663
17.3852
18.4597
19.3286
20.2032
21.4452
24.6156
30.037
37.0204
62.5197
101.324
181.375
343.698
95.5687
86.8653
49.6396
34.5745
26.9422
22.0838
16.3528
13.0543
12.1059
12.0685
11.8289
11.6795
12.3956
13.8864
15.6324
17.2955
18.5206
19.8529
22.4526
27.7574
35.3767
45.2672
65.6144
91.9393
698.78
819.588
135.441
79.6503
61.0753
37.1287
28.112
22.0017
17.7954
13.5109
10.6276
9.45221
9.36894
9.70859
10.2049
10.9493
12.4054
14.6372
16.8438
18.5762
20.6176
24.5054
33.9055
44.6347
62.1816
77.292
288.673
824.453
147.054
77.4932
67.0189
42.6965
31.9753
23.3567
18.3448
14.9336
12.1985
10.0385
8.7547
8.14506
8.24114
8.98734
10.4059
12.3687
14.655
17.3822
21.236
26.4027
34.7909
41.8697
67.4248
108.33
155.081
954.692
300.318
91.2965
67.0432
45.0611
37.1173
27.8838
20.5765
16.0593
13.5451
11.5763
10.1056
9.1621
8.59946
8.24354
8.69643
10.3151
13.1953
16.9738
20.985
27.0373
35.8928
48.3144
68.7098
106.148
137.505
790.827
665.436
117.48
88.7639
50.5401
37.4395
30.8524
24.3637
18.5696
14.8101
12.6302
11.1002
10.1247
9.69217
9.33304
9.26477
9.42579
10.6346
13.6027
18.2085
24.7048
31.5624
40.9791
71.0348
102.747
134.118
779.067
156.961
73.2983
49.0804
36.4742
29.26
25.6001
20.0349
16.1512
13.5369
12.234
11.0722
10.1809
9.84231
10.1395
10.4214
10.8753
12.0282
15.1464
20.782
27.1244
34.9576
48.3494
68.0856
120.651
774.095
662.022
86.6582
59.8085
39.9396
30.0999
23.6038
19.4481
17.06
14.3025
12.8637
11.5571
10.8671
10.2125
10.0455
10.7458
12.0774
13.5213
14.8113
18.7121
24.2552
32.8706
44.3429
68.0968
106.111
272.579
167.98
77.2506
50.8013
37.1691
26.3247
19.7849
15.9625
13.7948
12.9024
11.7069
11.23
10.8971
10.8085
10.3847
10.7685
12.5583
15.716
19.463
24.412
33.2194
38.3629
60.9945
103.606
143.318
814.911
829.944
119.69
64.1653
45.963
35.7432
24.6175
17.8601
13.9893
12.0388
11.2106
10.7647
10.4702
10.6191
10.9117
11.3877
11.8515
13.5067
16.6246
20.2637
25.6453
34.0676
45.5823
60.9394
85.9239
724.046
237.902
85.6051
63.3047
44.502
33.561
24.1942
16.8582
12.8442
11.2129
10.2468
9.82993
9.89037
10.208
10.9583
12.1254
14.1458
16.0205
18.8319
22.5092
27.9053
36.0714
51.7479
90.0318
162.227
1087.37
622.638
81.6585
56.2429
41.0362
33.3459
28.7282
20.5031
14.8999
11.527
10.1785
9.35441
9.05709
9.10383
9.71271
10.5995
11.893
14.3572
17.7499
20.872
24.7432
30.0882
39.3675
74.1913
134.001
778.438
131.855
85.4871
48.5218
36.7474
29.275
23.4906
18.9948
13.5437
10.4484
9.1395
8.61184
8.42358
8.6842
9.2147
10.4488
12.0153
14.1654
17.342
21.6747
27.7759
36.5682
52.4111
71.7536
301.418
605.408
83.4023
53.9043
36.2825
29.1555
24.5286
21.0083
17.0912
13.5134
10.6088
8.92402
8.38194
8.34521
8.54741
9.11728
10.4561
12.641
14.9235
18.3525
22.8903
29.3071
40.5306
76.7244
133.375
880.981
157.46
69.9322
44.2074
33.0474
25.9991
21.687
18.3986
15.1342
12.6916
11.0571
9.68822
8.78115
8.68212
9.00496
9.70569
11.0412
13.3657
16.8099
20.0942
25.0424
33.2913
52.1555
81.9986
286.448
614.238
82.0811
55.5852
38.712
29.3935
23.1237
18.8378
15.7498
13.451
11.5749
10.6599
10.3442
9.74221
9.53635
9.90304
11.0504
12.8562
14.9627
18.1656
23.4147
28.8798
39.7338
56.3156
91.6783
773.896
157.332
70.2354
45.5983
34.5512
26.6412
21.0764
17.1155
14.3376
12.3629
10.891
9.89937
9.7246
9.94911
10.159
10.7289
11.9558
14.3866
17.4733
20.3476
24.8831
33.9484
53.6639
87.0146
165.231
630.684
82.7877
57.8028
39.6023
30.5145
23.3704
18.9763
15.7244
13.3862
11.7857
10.5554
9.7037
9.27836
9.50485
10.2818
11.4854
12.6967
14.673
17.8829
22.3436
27.6926
39.0534
55.1891
82.5646
734.354
163.522
67.6525
46.2609
37.2224
27.9589
21.2765
16.9809
14.329
12.5805
11.4455
10.6251
9.82821
9.37363
9.45847
10.2474
11.8461
14.0364
15.9927
18.6181
23.012
30.5472
39.9382
89.0233
159.18
129.554
84.7441
45.8872
34.3284
26.1003
19.9834
15.8525
13.3287
11.8875
11.0193
10.5519
10.2745
9.94634
9.89173
10.5414
12.0997
14.6821
17.5915
20.6158
25.566
35.4119
53.735
72.6426
601.651
655.293
79.1792
52.2759
37.4932
30.4563
24.5977
19.1213
15.0576
12.6484
11.3783
10.7177
10.3425
10.2083
10.3328
10.4859
11.0679
12.4045
14.7358
18.6311
22.4897
27.2133
39.0466
85.2708
138.071
896.484
620.076
83.3845
46.4597
33.4986
28.5473
23.8566
18.5378
14.3512
12.0243
10.9159
10.4303
10.2499
10.1839
10.2914
10.7203
11.5333
12.9358
15.1889
18.1712
22.4719
28.6414
40.0543
88.1497
556.622
267.709
77.2619
43.8888
31.6077
25.1649
21.3809
17.4204
13.701
11.4173
10.3716
10.0192
10.0525
10.2104
10.4046
10.8663
11.8448
13.5742
16.1081
19.538
24.4804
33.411
52.2932
100.576
689.606
130.397
81.5057
43.1894
29.9478
23.3409
18.9703
15.6575
12.9335
11.0346
10.0019
9.58193
9.58483
10.0155
10.5435
11.101
12.0938
13.9328
16.9732
21.268
28.0072
37.4946
73.309
152.018
628.111
90.6736
60.8589
36.3913
27.4035
21.8024
17.5211
14.3149
12.0575
10.6312
9.87958
9.52657
9.4144
9.62276
10.3441
11.2776
12.4424
14.2227
17.19
22.0606
30.4107
53.98
73.8533
627.201
282.939
77.2661
44.1785
31.6616
25.0423
20.4808
16.6541
13.6073
11.4769
10.2061
9.65121
9.51517
9.59327
9.81632
10.2807
11.2174
12.6372
14.8756
17.8517
22.5729
32.7856
53.8016
106.468
875.683
126.031
86.5545
45.4786
31.4141
24.0026
19.0134
15.5304
12.9501
11.0498
9.74838
9.23943
9.27727
9.52321
9.90195
10.4748
11.3584
12.7706
15.0777
18.6655
24.5225
35.5982
66.3552
144.594
663.882
82.2293
53.4679
35.7595
28.6748
22.9047
18.1212
14.4474
12.0123
10.4673
9.42839
8.82484
8.80275
9.20176
9.78502
10.5169
11.5305
13.1225
15.6849
19.7239
26.9754
37.4148
78.1494
281.156
277.058
75.7903
44.4677
34.6899
26.7883
21.5657
17.3526
13.7329
11.2078
9.6443
8.81429
8.43005
8.3529
8.65664
9.44901
10.4658
11.6509
13.3737
16.2035
20.5275
29.5448
53.8823
73.3195
610.301
170.995
64.1393
41.4838
31.0106
24.2619
19.5717
15.9498
12.9967
10.7134
9.10442
8.1473
7.8266
8.00242
8.3408
9.04292
10.2792
11.8507
13.8652
17.0828
22.5334
30.3018
56.5893
111.822
890.4
136.392
90.9574
44.3163
30.4232
23.7077
18.898
15.2203
12.5097
10.5529
9.04208
7.95839
7.3932
7.4206
8.01075
8.91321
10.2348
12.0837
14.7513
18.5218
24.7049
37.9069
56.905
124.444
826.186
85.7832
51.6959
35.4871
27.8137
22.2629
18.1896
14.8564
12.3006
10.5539
9.36146
8.311
7.53463
7.21316
7.55012
8.65225
10.3286
12.5008
15.6582
20.7274
28.4181
39.3344
86.7741
268.003
641.819
78.922
53.1038
35.6289
27.7034
22.0341
17.701
14.5785
12.2474
10.6389
9.61289
8.8593
8.15648
7.61955
7.63922
8.51892
10.3868
13.1749
16.904
22.4693
31.267
56.9949
76.9998
650.276
588.235
81.7187
47.3761
35.7208
28.0315
22.1278
17.4878
14.2529
12.203
10.8394
9.92529
9.20147
8.6293
8.29691
8.28932
8.98264
10.7282
13.8199
18.4899
24.8641
36.6003
53.4608
120.834
174.294
65.769
40.7148
31.2411
26.5891
22.0623
17.469
13.943
11.886
10.8431
10.201
9.59635
8.96539
8.51023
8.65947
9.52724
11.2825
14.427
19.5026
27.0138
40.4807
83
164.703
166.814
62.98
40.4654
31.9114
25.2302
20.9131
17.2461
13.879
11.6156
10.5692
10.1745
9.8762
9.49045
9.12515
9.12759
9.9891
11.8331
14.8489
19.9452
28.7667
40.0803
89.0723
562.752
139.464
92.1542
45.176
30.26
23.7236
19.8384
16.5901
13.8185
11.6286
10.302
9.83381
9.77428
9.78676
9.76175
9.99566
10.8094
12.6494
15.6285
20.2093
28.5682
52.9272
82.5574
599.879
136.235
59.8616
37.5574
28.6388
22.7274
18.4998
15.5242
13.2973
11.5958
10.3321
9.53878
9.36549
9.60149
9.92075
10.4223
11.4031
13.2261
16.1885
20.6125
28.8846
46.0363
95.0115
734.65
127.596
58.0727
36.7503
28.1901
22.3046
17.8863
14.711
12.572
11.1534
10.3195
9.72999
9.30237
9.33369
9.83723
10.5415
11.6588
13.512
16.3951
20.2465
27.9188
48.8599
82.3941
836.99
799.245
90.0058
53.0867
35.8282
27.8626
21.9934
17.4124
14.1457
12.0079
10.6877
9.98302
9.66553
9.53489
9.50402
9.76881
10.5316
11.7827
13.787
16.7862
21.04
27.4742
46.169
111.556
617.077
88.3576
60.7906
36.3879
27.4063
21.4701
16.8395
13.5685
11.5313
10.2986
9.63669
9.3765
9.36571
9.49039
9.81171
10.5176
11.773
13.8109
17.0103
21.8708
29.2397
48.8894
118.67
606.216
81.5377
43.6813
31.1661
25.1045
20.3726
16.101
12.8298
10.8629
9.7997
9.15735
8.85546
8.90156
9.22618
9.71383
10.4757
11.734
13.7612
16.8891
21.9263
32.044
50.7343
125.207
276.115
73.9248
41.7432
30.4871
24.0056
19.3205
15.4223
12.1096
9.96429
8.89235
8.32969
7.89118
7.87211
8.36992
9.27004
10.2968
11.6445
13.7333
16.8791
21.8592
32.4897
68.5856
169.875
168.732
62.8036
38.8549
28.901
23.0194
18.5776
14.8714
11.8025
9.27777
7.74608
7.10702
6.86513
6.74586
7.2008
8.29031
9.84018
11.5085
13.7563
17.1238
22.0979
32.9904
69.6038
537.275
172.731
63.3144
38.8304
28.1449
21.8688
17.6851
14.2999
11.6472
9.43984
7.43951
6.16881
5.7328
5.83581
6.38195
7.50046
9.23645
11.3781
13.9079
17.6142
23.1489
33.7332
72.003
572.011
141.481
62.6914
38.9616
27.596
20.9264
16.4864
13.4659
11.3111
9.6949
8.15236
6.44135
5.39268
5.2252
5.76955
7.05254
8.92983
11.2638
14.2341
18.2446
25.0917
35.3937
74.6308
600.799
128.674
59.0044
35.6126
25.5923
19.5552
15.4501
12.7464
10.9555
9.67797
8.6505
7.48361
6.09321
5.37501
5.56752
6.70913
8.66509
11.2112
14.4986
18.6342
26.3817
44.9621
75.0821
666.94
134.079
59.0575
34.209
23.7602
17.9498
14.3297
12.0787
10.6196
9.53163
8.6895
8.034
7.31365
6.42338
6.20892
6.9587
8.70766
11.1674
14.5092
19.3018
26.5402
47.4856
107.259
859.059
125.482
62.2743
36.655
23.9897
17.0805
13.4297
11.4829
10.3165
9.4066
8.50759
7.77782
7.51468
7.47968
7.399
7.91275
9.29865
11.5497
14.6543
19.2016
27.6192
48.6292
117.858
788.187
81.9356
53.9518
38.2955
23.8819
16.5514
12.8409
11.0309
10.0466
9.35055
8.6554
7.78346
7.21092
7.34188
8.03466
8.8817
10.134
12.1778
15.2143
19.3896
26.9426
48.8827
120.919
605.092
101.35
56.0663
31.0588
21.0434
14.7321
12.0301
10.6552
9.82679
9.2223
8.71249
8.20566
7.55653
7.29078
7.88407
9.15589
10.7036
12.8291
15.9103
20.4467
27.4523
47.2869
126.792
611.698
80.8695
43.4166
28.2244
19.6027
13.6523
10.9255
10.0335
9.54551
9.03986
8.51298
8.08946
7.92143
7.81733
8.1239
9.20665
10.9225
13.3549
16.7291
21.8078
31.5029
50.2707
118.106
285.251
76.67
42.4477
28.9613
19.9242
13.6128
10.5511
9.44676
9.09303
8.78054
8.2768
7.68529
7.43442
7.744
8.45351
9.46053
11.0948
13.7169
17.6115
23.335
34.136
65.8828
146.547
161.878
65.6087
41.8571
29.4527
21.1256
15.1616