/*--------------------------------*- C++ -*----------------------------------*\
| =========                 |                                                 |
| \\      /  F ield         | OpenFOAM: The Open Source CFD Toolbox           |
|  \\    /   O peration     | Version:  2312                                  |
|   \\  /    A nd           | Website:  www.openfoam.com                      |
|    \\/     M anipulation  |                                                 |
\*---------------------------------------------------------------------------*/
FoamFile
{
    version     2.0;
    format      ascii;
    arch        "LSB;label=64;scalar=64";
    class       volScalarField;
    location    "170";
    object      p;
}
// * * * * * * * * * * * * * * * * * * * * * * * * * * * * * * * * * * * * * //

dimensions      [0 2 -2 0 0 0 0];

internalField   nonuniform List<scalar> 
404911
(
6.78748
6.78753
6.78839
6.78833
6.78725
6.7876
6.7882
6.78833
6.78834
6.78834
6.78726
6.78663
6.78659
6.78728
6.78778
6.78818
6.78684
6.78691
6.78677
6.78691
6.78652
6.78663
6.78659
6.78656
6.78636
6.78443
6.78686
6.78676
6.78692
6.78722
6.78722
6.78704
6.78686
6.78708
6.7872
6.78718
6.78721
6.78728
6.78725
6.7872
6.78708
6.78727
6.78728
6.78728
6.78722
6.7869
6.7873
6.7873
6.78729
6.78724
6.78737
6.78734
6.78735
6.78741
6.78737
6.78735
6.7871
6.78662
6.78673
6.78705
6.78676
6.78703
6.78698
6.78683
6.78678
6.78669
6.78693
6.78686
6.78666
6.78653
6.78685
6.7867
6.78664
6.78706
6.78695
6.78693
6.78682
6.78717
6.78711
6.78724
6.78717
6.78728
6.78731
6.78723
6.78733
6.78734
6.78731
6.78733
6.78736
6.7873
6.78734
6.78714
6.78718
6.78714
6.78724
6.7872
6.78721
6.78728
6.78722
6.78718
6.78733
6.78733
6.78729
6.78736
6.78229
6.78232
6.78243
6.78246
6.78261
6.7822
6.7825
6.78234
6.78236
6.78236
6.78243
6.7825
6.78248
6.78253
6.78252
6.78244
6.78241
6.78241
6.78239
6.7824
6.78271
6.78265
6.78264
6.78259
6.78254
6.78254
6.78253
6.78252
6.78244
6.78242
6.78238
6.78238
6.78247
6.78249
6.78249
6.78248
6.78289
6.78284
6.78281
6.78273
6.78269
6.78265
6.78261
6.78259
6.78259
6.78253
6.78244
6.78243
6.78243
6.78242
6.78255
6.78305
6.78299
6.78301
6.78295
6.78289
6.78282
6.78277
6.78274
6.78271
6.78267
6.78266
6.78259
6.78252
6.78248
6.78243
6.78309
6.78318
6.78306
6.78307
6.78301
6.78299
6.78291
6.78286
6.78283
6.78277
6.78274
6.78271
6.78267
6.78261
6.78255
6.78257
6.78341
6.78323
6.78311
6.78318
6.78313
6.78309
6.78309
6.78308
6.78299
6.78295
6.78287
6.78282
6.78277
6.78273
6.78271
6.78268
6.78264
6.78353
6.78352
6.78345
6.7835
6.7834
6.78334
6.78335
6.78321
6.78312
6.78307
6.78312
6.78306
6.78297
6.78291
6.78284
6.78278
6.78277
6.7828
6.7836
6.78357
6.7835
6.78358
6.78358
6.78348
6.78342
6.78335
6.78333
6.78322
6.78316
6.78314
6.78307
6.78299
6.78292
6.78285
6.78287
6.78278
6.78385
6.78374
6.78361
6.78354
6.78357
6.78361
6.78363
6.78353
6.78344
6.78338
6.78332
6.78325
6.78319
6.78317
6.78312
6.78304
6.78293
6.7829
6.78399
6.78391
6.78381
6.78367
6.78362
6.78362
6.78365
6.7836
6.78354
6.78346
6.78343
6.78337
6.78329
6.78323
6.7832
6.78316
6.78302
6.78416
6.78411
6.78402
6.78392
6.78385
6.78381
6.78374
6.78369
6.78367
6.78363
6.78356
6.78351
6.78348
6.78343
6.78338
6.78334
6.78327
6.78424
6.78425
6.78416
6.78416
6.7841
6.78398
6.7839
6.78387
6.78382
6.78377
6.78374
6.78368
6.78363
6.78356
6.78348
6.78344
6.78342
6.78339
6.78433
6.78413
6.78418
6.78422
6.78422
6.78416
6.78412
6.78404
6.78396
6.7839
6.78387
6.78382
6.78379
6.78372
6.78367
6.78363
6.78355
6.78352
6.78454
6.78447
6.78439
6.78433
6.78423
6.78428
6.78425
6.78414
6.78407
6.78403
6.78399
6.78396
6.78391
6.78387
6.7838
6.78371
6.78367
6.78367
6.78458
6.78456
6.78451
6.78443
6.78432
6.78427
6.78433
6.78426
6.78414
6.78408
6.78403
6.78403
6.78398
6.78395
6.78389
6.78383
6.78381
6.78365
6.78479
6.78476
6.78461
6.78461
6.78455
6.78449
6.78439
6.78434
6.78435
6.78427
6.78416
6.78412
6.78407
6.78406
6.784
6.78395
6.78374
6.78372
6.78481
6.78485
6.78481
6.78474
6.78466
6.78462
6.78456
6.78446
6.78437
6.78432
6.78425
6.78416
6.78412
6.78407
6.78402
6.78403
6.78395
6.78391
6.78486
6.78477
6.78474
6.78483
6.78488
6.78482
6.78474
6.78469
6.78462
6.78454
6.78442
6.78434
6.78427
6.78419
6.78416
6.7841
6.78408
6.78404
6.78508
6.78494
6.78495
6.78481
6.78486
6.7849
6.78484
6.78479
6.78476
6.7847
6.78461
6.78449
6.78438
6.78429
6.78426
6.78423
6.78417
6.78523
6.78511
6.78508
6.78492
6.78493
6.78488
6.78489
6.78489
6.78487
6.78485
6.78479
6.78474
6.78466
6.78455
6.78444
6.78435
6.7843
6.78425
6.78528
6.78523
6.7851
6.7851
6.78504
6.78499
6.78496
6.78495
6.78493
6.78491
6.78488
6.78483
6.78477
6.7847
6.7846
6.78449
6.78438
6.78434
6.78544
6.78534
6.78528
6.7852
6.78514
6.7851
6.78505
6.78504
6.785
6.78498
6.78496
6.78491
6.78486
6.78479
6.78473
6.78472
6.78455
6.78445
6.78553
6.78548
6.78544
6.78539
6.78533
6.78525
6.78516
6.78518
6.78512
6.78509
6.78505
6.78501
6.78498
6.78495
6.78489
6.78489
6.78481
6.78472
6.78564
6.78561
6.78556
6.78548
6.78549
6.78543
6.78537
6.7853
6.78524
6.78519
6.78516
6.78512
6.7851
6.78505
6.785
6.78499
6.78491
6.78493
6.78566
6.78566
6.78565
6.78559
6.78555
6.78552
6.78547
6.7854
6.78534
6.78529
6.78524
6.78519
6.78514
6.78515
6.78512
6.78505
6.785
6.78493
6.78567
6.78572
6.78572
6.78572
6.78567
6.78563
6.78559
6.78555
6.78551
6.78544
6.78534
6.78532
6.78528
6.78525
6.78522
6.78519
6.78505
6.78516
6.78563
6.78569
6.78574
6.78577
6.78574
6.78569
6.78565
6.78562
6.78558
6.78555
6.7855
6.78542
6.78536
6.78533
6.78531
6.78533
6.78526
6.78519
6.78564
6.78567
6.78568
6.78574
6.78577
6.78574
6.7857
6.78566
6.78563
6.78561
6.78558
6.78554
6.78548
6.78543
6.78538
6.78536
6.78532
6.78526
6.78571
6.7856
6.78559
6.78567
6.78575
6.78577
6.78575
6.78572
6.78566
6.78563
6.78562
6.78559
6.78555
6.7855
6.78547
6.7854
6.78535
6.78534
6.78567
6.7858
6.78575
6.78562
6.78559
6.78572
6.78577
6.78578
6.78577
6.78573
6.78566
6.78563
6.78561
6.78558
6.78555
6.78551
6.78547
6.78542
6.78589
6.78576
6.78579
6.78579
6.78575
6.78573
6.78577
6.7858
6.78581
6.78578
6.78574
6.78569
6.78565
6.78562
6.78559
6.78554
6.78552
6.78549
6.78594
6.7859
6.78587
6.78585
6.78584
6.78581
6.78579
6.7858
6.78582
6.78583
6.78583
6.78578
6.78573
6.78569
6.78566
6.78564
6.78562
6.78553
6.78589
6.78595
6.78593
6.78589
6.78589
6.78588
6.78587
6.78584
6.78583
6.78584
6.78585
6.78584
6.78581
6.78577
6.78573
6.78569
6.78566
6.7861
6.78594
6.78598
6.78598
6.78596
6.78595
6.78594
6.78589
6.78589
6.78588
6.78586
6.78586
6.78586
6.78585
6.78583
6.78579
6.78576
6.78573
6.78606
6.78607
6.78602
6.78601
6.786
6.78599
6.78601
6.786
6.78594
6.7859
6.7859
6.78589
6.78588
6.78588
6.78587
6.78584
6.78581
6.78579
6.78611
6.78612
6.78606
6.78605
6.78604
6.78602
6.78603
6.78604
6.78605
6.786
6.78595
6.78595
6.78594
6.78592
6.78591
6.78589
6.78587
6.78584
6.78623
6.78614
6.78612
6.78611
6.78608
6.78605
6.78605
6.78602
6.78604
6.78605
6.78609
6.78604
6.78598
6.78594
6.78596
6.78595
6.78593
6.78591
6.78618
6.78615
6.78617
6.78615
6.78613
6.78609
6.78607
6.78606
6.78604
6.78604
6.78605
6.78609
6.78607
6.78603
6.786
6.78598
6.78597
6.78597
6.78622
6.78617
6.78616
6.78616
6.78616
6.78614
6.78611
6.78608
6.78607
6.78605
6.78604
6.78603
6.78607
6.78608
6.78605
6.78603
6.78601
6.78598
6.78614
6.7863
6.78621
6.78618
6.78618
6.78617
6.78615
6.78612
6.78609
6.78607
6.78606
6.78605
6.78603
6.78605
6.78607
6.78607
6.78604
6.78601
6.78633
6.78633
6.78629
6.78624
6.78619
6.78618
6.78617
6.78614
6.78611
6.78608
6.78606
6.78606
6.78605
6.78601
6.78604
6.78606
6.78605
6.78642
6.78632
6.78636
6.78629
6.78629
6.78626
6.78621
6.78619
6.78618
6.78615
6.78611
6.78606
6.786
6.78603
6.78605
6.78604
6.78605
6.78609
6.78634
6.78636
6.78635
6.78634
6.78632
6.78631
6.78629
6.78624
6.78621
6.7862
6.78618
6.78614
6.78609
6.786
6.786
6.78605
6.78607
6.78607
6.78638
6.78638
6.78638
6.78637
6.78634
6.78634
6.78634
6.78632
6.78628
6.78626
6.78625
6.78622
6.78618
6.78614
6.7861
6.78607
6.78608
6.78609
6.78634
6.78639
6.78643
6.78641
6.78639
6.78636
6.78636
6.78637
6.78636
6.78633
6.78632
6.7863
6.78627
6.78623
6.78618
6.78613
6.78612
6.7861
6.78639
6.78635
6.78641
6.78644
6.78644
6.78642
6.7864
6.78639
6.78639
6.78639
6.78638
6.78636
6.78633
6.7863
6.78626
6.78625
6.78619
6.78617
6.78645
6.78643
6.78642
6.78643
6.78645
6.78645
6.78644
6.78643
6.78642
6.78641
6.78641
6.7864
6.78637
6.78634
6.78631
6.78628
6.78625
6.78621
6.78645
6.78647
6.78646
6.78645
6.78644
6.78644
6.78645
6.78645
6.78644
6.78643
6.78642
6.78642
6.7864
6.78637
6.78634
6.78632
6.78628
6.78623
6.7865
6.78645
6.7865
6.78648
6.78647
6.78645
6.78644
6.78644
6.78645
6.78645
6.78645
6.78643
6.78642
6.7864
6.78637
6.78634
6.78631
6.78632
6.78655
6.78653
6.7865
6.78652
6.78651
6.78646
6.78648
6.78647
6.78646
6.78646
6.78646
6.78648
6.7865
6.78645
6.78641
6.78639
6.78636
6.78634
6.78631
6.78655
6.78658
6.78659
6.78653
6.78655
6.78654
6.7865
6.78649
6.78649
6.78648
6.78648
6.78647
6.78645
6.78644
6.78643
6.78641
6.78638
6.78636
6.78661
6.78659
6.78659
6.78658
6.78658
6.78658
6.78656
6.78651
6.78648
6.78646
6.78646
6.78644
6.78642
6.7864
6.7864
6.78638
6.78637
6.78662
6.7866
6.78662
6.78661
6.7866
6.78661
6.7866
6.7866
6.78658
6.78652
6.78648
6.78646
6.78645
6.78643
6.78642
6.7864
6.78638
6.78634
6.78665
6.78664
6.78665
6.78664
6.78664
6.78663
6.78663
6.78661
6.78659
6.78658
6.78652
6.78647
6.78645
6.78645
6.78643
6.78641
6.7864
6.78638
6.78661
6.7867
6.78668
6.78667
6.78666
6.78666
6.78666
6.78665
6.78662
6.7866
6.78657
6.78652
6.78645
6.78645
6.78644
6.78645
6.78641
6.78641
6.78673
6.78673
6.78671
6.78669
6.78668
6.78668
6.78668
6.78667
6.78665
6.78663
6.78656
6.78653
6.78649
6.78647
6.78647
6.78644
6.78642
6.78666
6.78672
6.78675
6.78672
6.7867
6.7867
6.78669
6.7867
6.78668
6.78662
6.78661
6.78657
6.78655
6.78652
6.78649
6.78648
6.78646
6.78678
6.78666
6.78668
6.78674
6.78675
6.78671
6.78669
6.78669
6.78669
6.78669
6.78666
6.78662
6.78661
6.78659
6.78657
6.78654
6.78652
6.78648
6.78686
6.78685
6.78676
6.78675
6.78677
6.78674
6.78671
6.78669
6.78669
6.78672
6.78673
6.78668
6.78664
6.78663
6.78661
6.78657
6.78656
6.78692
6.78694
6.78691
6.7869
6.78687
6.78683
6.78678
6.78673
6.7867
6.78667
6.7867
6.78673
6.78671
6.78668
6.78666
6.78662
6.7866
6.78695
6.78695
6.78695
6.78697
6.78697
6.78696
6.78695
6.78688
6.78681
6.78675
6.78671
6.7867
6.78668
6.78668
6.7867
6.78669
6.78667
6.78664
6.78696
6.78695
6.78694
6.78696
6.78697
6.787
6.78708
6.78709
6.7869
6.78682
6.78677
6.78674
6.78672
6.7867
6.78669
6.78669
6.78671
6.78668
6.78688
6.78691
6.78691
6.78694
6.78695
6.78696
6.78699
6.78713
6.78727
6.78693
6.78684
6.78677
6.78672
6.7867
6.78669
6.78668
6.78667
6.78669
6.7869
6.78692
6.78688
6.7869
6.78692
6.7869
6.78697
6.78698
6.78696
6.78697
6.78689
6.78683
6.78675
6.7867
6.78666
6.78664
6.78667
6.78666
6.78711
6.78709
6.78696
6.78697
6.78693
6.78691
6.78688
6.78688
6.78699
6.78707
6.787
6.78694
6.78689
6.78684
6.78677
6.78673
6.78667
6.78666
6.78668
6.78712
6.78712
6.78706
6.78702
6.78699
6.78696
6.78693
6.78691
6.78689
6.78693
6.78695
6.78696
6.78693
6.78691
6.78688
6.78684
6.78682
6.78676
6.78675
6.78694
6.78713
6.78708
6.78703
6.78696
6.78689
6.78689
6.78692
6.78694
6.78694
6.78697
6.78697
6.78696
6.78694
6.78692
6.78691
6.78689
6.78685
6.78709
6.78708
6.78714
6.7871
6.78698
6.78682
6.78677
6.78682
6.7869
6.78695
6.78699
6.78699
6.78699
6.78699
6.78697
6.78696
6.78693
6.78718
6.78713
6.78712
6.78711
6.78706
6.78692
6.78679
6.78674
6.78682
6.78692
6.78697
6.78701
6.78701
6.78701
6.78701
6.78701
6.78699
6.78727
6.78721
6.78718
6.78714
6.78712
6.78703
6.78694
6.7869
6.78692
6.78693
6.78699
6.78703
6.78703
6.78704
6.78706
6.78703
6.78703
6.78729
6.78732
6.78728
6.78725
6.78724
6.78719
6.78716
6.78709
6.78703
6.78704
6.78702
6.78702
6.78703
6.78706
6.78705
6.78705
6.78706
6.78705
6.78732
6.78737
6.78733
6.78732
6.7873
6.78726
6.7872
6.78718
6.78712
6.78708
6.78709
6.78705
6.78704
6.78706
6.78707
6.78707
6.78706
6.78719
6.78727
6.78732
6.78737
6.78737
6.78733
6.78725
6.78724
6.78722
6.78717
6.78713
6.78712
6.78712
6.7871
6.7871
6.78709
6.78708
6.78703
6.78717
6.78721
6.78727
6.78733
6.78735
6.78731
6.78731
6.7873
6.78727
6.78721
6.78718
6.78717
6.78716
6.78715
6.78713
6.78713
6.78709
6.78702
6.78708
6.78712
6.7872
6.78727
6.78726
6.78728
6.7873
6.78727
6.78726
6.78724
6.78723
6.78722
6.78721
6.78718
6.78716
6.78714
6.78716
6.78704
6.78701
6.78707
6.78717
6.7872
6.78721
6.78727
6.78725
6.78722
6.78723
6.78723
6.78723
6.78722
6.78717
6.78718
6.78738
6.7872
6.78711
6.78704
6.78704
6.78709
6.78714
6.78716
6.78717
6.7872
6.78719
6.78718
6.78719
6.7872
6.7872
6.78719
6.78715
6.78715
6.7873
6.78715
6.78709
6.78712
6.78716
6.78715
6.78717
6.78716
6.7872
6.78718
6.78718
6.78718
6.78718
6.78717
6.78716
6.78709
6.78726
6.78734
6.78721
6.78715
6.78718
6.7872
6.7872
6.78719
6.78717
6.78719
6.78719
6.78719
6.78717
6.78716
6.78731
6.78718
6.78716
6.78725
6.78733
6.78727
6.7872
6.78721
6.78727
6.78726
6.78724
6.78719
6.7872
6.7872
6.78718
6.78718
6.78752
6.78747
6.78728
6.78722
6.78727
6.78731
6.7873
6.78727
6.78722
6.78726
6.78729
6.78728
6.78722
6.7872
6.78721
6.78717
6.78788
6.78768
6.78755
6.78745
6.78739
6.78744
6.78745
6.78737
6.78735
6.78732
6.78731
6.78731
6.78732
6.78726
6.78727
6.78718
6.78835
6.78819
6.78802
6.78788
6.78769
6.78764
6.78759
6.78761
6.78762
6.78751
6.78745
6.78741
6.78735
6.78733
6.7873
6.78727
6.78851
6.78843
6.78827
6.78814
6.78802
6.78785
6.78781
6.78776
6.78775
6.78776
6.78775
6.78767
6.78758
6.7875
6.78738
6.78744
6.78887
6.78875
6.78852
6.78841
6.78826
6.78818
6.78807
6.788
6.78794
6.78792
6.78789
6.78793
6.78788
6.78776
6.78762
6.78752
6.78917
6.78899
6.78884
6.78867
6.7885
6.78838
6.78828
6.78824
6.78817
6.78812
6.78809
6.78803
6.78798
6.78786
6.78777
6.78775
6.78926
6.78901
6.78896
6.78891
6.7888
6.78866
6.78853
6.78845
6.78841
6.78832
6.78825
6.78815
6.78813
6.78806
6.78791
6.78791
6.78928
6.78918
6.78899
6.7889
6.78886
6.78881
6.78875
6.78863
6.78859
6.78851
6.78846
6.78836
6.78829
6.78819
6.78822
6.78934
6.7893
6.78913
6.78898
6.78891
6.78881
6.7888
6.78874
6.78868
6.78863
6.7886
6.78855
6.78844
6.78837
6.78828
6.78818
6.78954
6.78945
6.78932
6.78915
6.78904
6.78897
6.78886
6.78875
6.78873
6.78869
6.78859
6.78856
6.78851
6.78848
6.78839
6.78843
6.78963
6.78961
6.78953
6.78938
6.78918
6.78907
6.78903
6.78895
6.78885
6.78882
6.78875
6.78866
6.78863
6.78853
6.78852
6.78948
6.78956
6.78958
6.78941
6.78922
6.78911
6.78902
6.789
6.78896
6.78894
6.78886
6.78882
6.78873
6.78861
6.78946
6.7895
6.78956
6.78952
6.78946
6.78922
6.78917
6.78906
6.78904
6.78902
6.78899
6.78891
6.78889
6.78986
6.78971
6.7896
6.78954
6.78951
6.78943
6.78935
6.78924
6.78918
6.78909
6.78905
6.78902
6.78901
6.78896
6.79003
6.78992
6.78978
6.78966
6.78956
6.78948
6.78943
6.78935
6.78927
6.78926
6.78919
6.78912
6.78908
6.78906
6.79009
6.79003
6.78994
6.7898
6.78961
6.78949
6.78942
6.78937
6.7893
6.78936
6.78932
6.78927
6.78921
6.78919
6.79009
6.79006
6.79002
6.78988
6.78965
6.7895
6.78944
6.78941
6.78935
6.7893
6.78934
6.78921
6.78921
6.78929
6.79014
6.79007
6.79002
6.78994
6.78976
6.78942
6.78932
6.7894
6.78947
6.78939
6.78937
6.78941
6.78927
6.78916
6.79028
6.79018
6.79005
6.78993
6.78982
6.78963
6.78922
6.78907
6.78918
6.7893
6.78934
6.78941
6.7895
6.78978
6.78963
6.78946
6.78921
6.78894
6.78896
6.78906
6.78905
6.7892
6.78963
6.78948
6.78935
6.78916
6.78897
6.78885
6.78889
6.78894
6.78971
6.78968
6.78941
6.78938
6.78916
6.7889
6.78898
6.79017
6.78989
6.78966
6.7895
6.78941
6.78915
6.78887
6.78978
6.7897
6.7896
6.78944
6.78915
6.79004
6.7899
6.78963
6.78969
6.78952
6.7894
6.78962
6.78954
6.7901
6.79006
6.78959
6.79008
6.79015
6.79021
6.79023
6.79018
6.78909
6.7906
6.79044
6.79038
6.7902
6.78993
6.79078
6.791
6.79059
6.51532
6.42278
6.29042
6.72459
6.70742
6.6839
6.65981
6.6197
6.56233
6.48433
6.39204
6.08713
6.76174
6.75739
6.75078
6.74398
6.73252
6.71997
6.70304
6.68006
6.65187
6.61499
6.56944
6.50133
6.42593
6.34262
6.29143
6.77081
6.76913
6.76744
6.76473
6.7616
6.75657
6.74993
6.74186
6.7317
6.71791
6.70138
6.68841
6.6636
6.6278
6.58624
6.55095
6.50022
6.46756
6.40895
6.27415
5.88332
5.24668
6.77526
6.77433
6.77349
6.77249
6.7712
6.76957
6.76728
6.76429
6.76068
6.7561
6.74995
6.74274
6.73337
6.72451
6.71149
6.69501
6.68108
6.67284
6.65933
6.637
6.60794
6.55446
6.43194
6.77789
6.77728
6.77687
6.7761
6.77543
6.77456
6.77383
6.77292
6.7715
6.76963
6.76729
6.765
6.76222
6.75886
6.75513
6.74973
6.74362
6.73627
6.73307
6.73561
6.73152
6.72389
6.72165
6.71771
6.71712
6.77875
6.77834
6.77829
6.77795
6.77748
6.77655
6.77591
6.77544
6.77494
6.77451
6.77355
6.77204
6.77014
6.76848
6.76891
6.76841
6.76726
6.76404
6.75971
6.75915
6.76099
6.76443
6.76669
6.77129
6.78408
6.77943
6.77933
6.77904
6.77883
6.77864
6.77849
6.77829
6.77772
6.7771
6.77674
6.77643
6.77585
6.77532
6.7745
6.77277
6.77342
6.7747
6.7755
6.77369
6.77283
6.77282
6.77294
6.78104
6.78406
6.78849
6.77992
6.78
6.77982
6.77965
6.77943
6.77924
6.779
6.77893
6.77894
6.77859
6.77833
6.7781
6.77788
6.77766
6.77782
6.77778
6.77699
6.77803
6.7803
6.78177
6.78246
6.78379
6.78522
6.78821
6.79081
6.78103
6.78047
6.78003
6.78014
6.78011
6.78004
6.77996
6.77975
6.77965
6.7795
6.77952
6.77961
6.7796
6.77973
6.7799
6.78003
6.78012
6.78034
6.78039
6.7811
6.7821
6.78584
6.78642
6.78771
6.7897
6.7915
6.78163
6.78148
6.78143
6.7811
6.78083
6.78062
6.78039
6.78035
6.78025
6.78012
6.77998
6.78
6.77997
6.78017
6.7802
6.78035
6.78067
6.78101
6.78124
6.78124
6.78152
6.78216
6.78364
6.78597
6.78734
6.78884
6.79108
6.78178
6.78176
6.78162
6.78151
6.78135
6.78109
6.78082
6.78064
6.78051
6.78034
6.78027
6.78026
6.78031
6.78036
6.78058
6.78071
6.78095
6.78123
6.78149
6.78179
6.78178
6.78182
6.78287
6.78458
6.78684
6.78197
6.78186
6.78189
6.78194
6.78191
6.78182
6.78172
6.78157
6.78135
6.78114
6.78095
6.78078
6.78067
6.78059
6.78059
6.78064
6.78074
6.78103
6.7812
6.78148
6.78179
6.78209
6.78214
6.78176
6.78266
6.78188
6.78209
6.78214
6.78212
6.78205
6.78192
6.78191
6.7818
6.78173
6.78166
6.78149
6.78135
6.78114
6.78108
6.78099
6.78094
6.78102
6.7812
6.78151
6.78165
6.78196
6.78219
6.78239
6.78244
6.78214
6.78234
6.78205
6.78202
6.78212
6.78227
6.78222
6.78213
6.78204
6.78198
6.7819
6.78185
6.78181
6.78165
6.78156
6.78142
6.78139
6.78127
6.7813
6.78141
6.78161
6.78182
6.782
6.78222
6.78243
6.78265
6.78242
6.78233
6.7823
6.78216
6.78222
6.78232
6.78237
6.78229
6.78222
6.78211
6.78204
6.78199
6.78196
6.78188
6.78182
6.78167
6.78158
6.78148
6.78141
6.78144
6.78158
6.78183
6.78196
6.78216
6.78254
6.78256
6.78253
6.78252
6.78247
6.78236
6.7823
6.78229
6.78234
6.78236
6.78231
6.78225
6.78215
6.78211
6.78212
6.78206
6.78192
6.78188
6.78179
6.78171
6.78169
6.78167
6.78167
6.78171
6.78185
6.78264
6.78238
6.78261
6.78254
6.78254
6.78255
6.78251
6.78256
6.78245
6.78239
6.78236
6.78238
6.78235
6.78231
6.78231
6.78224
6.78221
6.78214
6.78215
6.78207
6.78198
6.78189
6.78182
6.78184
6.78188
6.78183
6.78277
6.78286
6.7827
6.7826
6.78261
6.78255
6.78254
6.78253
6.78254
6.78257
6.78253
6.78246
6.78242
6.7824
6.78234
6.78232
6.78238
6.78236
6.78236
6.78227
6.78223
6.78213
6.78202
6.78197
6.7819
6.78187
6.78337
6.78288
6.78274
6.78276
6.78275
6.78268
6.78263
6.78261
6.78259
6.78257
6.78258
6.78259
6.78256
6.78248
6.78244
6.7824
6.7824
6.78245
6.78251
6.7825
6.78251
6.78245
6.78233
6.7822
6.78201
6.78185
6.78187
6.7831
6.78328
6.78312
6.78298
6.78292
6.78288
6.78283
6.78278
6.78273
6.78269
6.78265
6.78263
6.78264
6.78264
6.7826
6.78252
6.78246
6.78243
6.78249
6.78256
6.78263
6.78262
6.78259
6.78252
6.78244
6.78236
6.7822
6.78315
6.78317
6.78308
6.78308
6.78302
6.78299
6.78298
6.78294
6.78288
6.78282
6.78277
6.78273
6.78271
6.7827
6.78269
6.78264
6.78257
6.78249
6.78245
6.78251
6.78255
6.78259
6.78265
6.78258
6.78253
6.78249
6.78354
6.78327
6.78325
6.78317
6.78315
6.7831
6.78309
6.78307
6.78304
6.78299
6.78294
6.78291
6.78286
6.78282
6.78278
6.78276
6.78273
6.78269
6.78264
6.78257
6.78256
6.78253
6.78256
6.7826
6.7826
6.78261
6.78372
6.78352
6.78355
6.78337
6.78332
6.78327
6.78323
6.7832
6.78319
6.78315
6.78309
6.78303
6.78298
6.78295
6.78293
6.78288
6.78283
6.78279
6.78276
6.78274
6.7827
6.78266
6.78263
6.7826
6.78264
6.78261
6.78372
6.78369
6.78359
6.78351
6.78346
6.78343
6.78338
6.78331
6.78329
6.78328
6.78323
6.78315
6.78307
6.78301
6.78299
6.78296
6.7829
6.78284
6.7828
6.78278
6.78277
6.78275
6.78274
6.7827
6.7827
6.78388
6.78396
6.78377
6.78373
6.78362
6.78355
6.78355
6.78354
6.78348
6.78341
6.78336
6.78333
6.78329
6.78322
6.78313
6.78305
6.78301
6.78296
6.78291
6.78286
6.78282
6.78281
6.7828
6.7828
6.78279
6.78278
6.78414
6.78412
6.78405
6.78398
6.78388
6.78377
6.78368
6.78362
6.78362
6.78362
6.78358
6.78349
6.78342
6.78337
6.78334
6.78328
6.7832
6.78312
6.78307
6.78301
6.78294
6.7829
6.78286
6.78287
6.78288
6.78292
6.78434
6.78418
6.78419
6.78411
6.78409
6.78402
6.78393
6.78383
6.78376
6.78371
6.78369
6.78369
6.78364
6.78356
6.78347
6.78343
6.7834
6.78335
6.78327
6.78321
6.78316
6.78311
6.78304
6.78295
6.78294
6.78294
6.78286
6.78419
6.78426
6.78422
6.78421
6.78416
6.78412
6.78405
6.78397
6.7839
6.78385
6.7838
6.78376
6.78375
6.78368
6.78359
6.7835
6.78346
6.78345
6.78341
6.78336
6.78332
6.78325
6.7832
6.78315
6.7831
6.78307
6.78449
6.78443
6.7843
6.78426
6.78424
6.78424
6.7842
6.78413
6.78405
6.78399
6.78393
6.78389
6.78386
6.78381
6.78378
6.78371
6.7836
6.78352
6.78348
6.78345
6.78343
6.78339
6.78337
6.78332
6.7832
6.78321
6.78446
6.78451
6.78442
6.78434
6.78428
6.78428
6.78428
6.78423
6.7841
6.78401
6.78397
6.78393
6.7839
6.78386
6.78382
6.78378
6.78371
6.78363
6.78359
6.78353
6.78348
6.78346
6.78343
6.78339
6.78336
6.78464
6.7846
6.78458
6.78451
6.78445
6.78438
6.78431
6.78431
6.78431
6.78425
6.7841
6.78398
6.78396
6.78396
6.78394
6.7839
6.78387
6.7838
6.78374
6.78367
6.78364
6.78358
6.78351
6.78347
6.78339
6.78473
6.78471
6.78465
6.78459
6.78456
6.7845
6.78443
6.78434
6.78432
6.78431
6.78424
6.78413
6.78403
6.78401
6.78401
6.78399
6.78397
6.78392
6.78386
6.78381
6.78372
6.78363
6.7836
6.78358
6.78352
6.78485
6.78485
6.78477
6.78474
6.78472
6.78465
6.78461
6.78457
6.7845
6.7844
6.78435
6.78431
6.78424
6.78414
6.78409
6.78408
6.78405
6.78401
6.78395
6.78387
6.78382
6.78377
6.78374
6.78368
6.78357
6.78498
6.78491
6.78486
6.78483
6.78481
6.78477
6.78471
6.78468
6.78465
6.78459
6.78449
6.78439
6.78432
6.78425
6.78416
6.78413
6.78412
6.78408
6.78404
6.78397
6.78389
6.78379
6.78375
6.7837
6.78366
6.78512
6.78511
6.78501
6.78494
6.78488
6.78486
6.78484
6.78482
6.78476
6.78474
6.78474
6.78468
6.78458
6.78445
6.78435
6.78428
6.78421
6.78416
6.78416
6.78413
6.78406
6.784
6.78393
6.78381
6.78377
6.78528
6.78515
6.78512
6.78504
6.78499
6.78492
6.78489
6.78486
6.78484
6.7848
6.7848
6.78479
6.78474
6.78464
6.78451
6.78439
6.78431
6.78426
6.78424
6.78421
6.78417
6.78409
6.784
6.78388
6.78546
6.78531
6.78529
6.7852
6.78514
6.78508
6.78503
6.78498
6.78492
6.78489
6.78484
6.78481
6.78482
6.78481
6.78477
6.78468
6.78456
6.78445
6.78435
6.7843
6.78427
6.78423
6.78419
6.78409
6.78402
6.78547
6.78543
6.78539
6.78532
6.78525
6.78518
6.78513
6.78508
6.78503
6.78498
6.78494
6.78487
6.78483
6.78481
6.78481
6.78477
6.78471
6.7846
6.7845
6.78441
6.78435
6.78431
6.78426
6.78419
6.78562
6.78553
6.78552
6.78546
6.78542
6.78536
6.7853
6.78524
6.78518
6.78513
6.78507
6.78504
6.785
6.78495
6.7849
6.78485
6.78482
6.78479
6.78474
6.78466
6.78456
6.78446
6.78439
6.78434
6.78428
6.78564
6.7856
6.78558
6.78553
6.7855
6.78546
6.78541
6.78536
6.7853
6.78523
6.78518
6.78512
6.78508
6.78505
6.78502
6.78498
6.78492
6.78489
6.78486
6.7848
6.7847
6.78461
6.78454
6.78445
6.78566
6.78565
6.78564
6.78562
6.7856
6.78557
6.78554
6.78551
6.78546
6.78541
6.78534
6.78528
6.78522
6.78517
6.78512
6.78509
6.78506
6.78503
6.78499
6.78495
6.78491
6.78484
6.78476
6.78469
6.78459
6.78562
6.78565
6.78566
6.78566
6.78566
6.78563
6.7856
6.78558
6.78555
6.78551
6.78545
6.78538
6.78533
6.78527
6.78521
6.78517
6.78514
6.78511
6.78507
6.78503
6.78499
6.78495
6.78488
6.7848
6.78564
6.78565
6.78567
6.78569
6.7857
6.78569
6.78566
6.78564
6.78561
6.78558
6.78554
6.78549
6.78542
6.78537
6.78533
6.78528
6.78523
6.78518
6.78514
6.78511
6.78506
6.785
6.78497
6.78494
6.78567
6.78563
6.78565
6.78566
6.78569
6.78572
6.78573
6.78571
6.78569
6.78566
6.78564
6.78561
6.78558
6.78553
6.78546
6.78541
6.78537
6.78532
6.78528
6.78523
6.78518
6.78514
6.7851
6.78505
6.78496
6.78573
6.78569
6.78566
6.78564
6.78566
6.78571
6.78574
6.78575
6.78573
6.7857
6.78567
6.78565
6.78562
6.7856
6.78555
6.7855
6.78544
6.78539
6.78535
6.7853
6.78525
6.7852
6.78516
6.78513
6.78582
6.78572
6.78572
6.78568
6.78565
6.78566
6.78571
6.78575
6.78576
6.78574
6.78571
6.78566
6.78564
6.78562
6.78559
6.78556
6.78551
6.78547
6.78542
6.78537
6.78533
6.78528
6.78524
6.78518
6.78585
6.78581
6.78577
6.78576
6.78573
6.78568
6.78568
6.78573
6.78577
6.78578
6.78576
6.78572
6.78566
6.78563
6.78561
6.78559
6.78555
6.78552
6.78548
6.78544
6.7854
6.78536
6.78532
6.78592
6.78591
6.78589
6.78584
6.78582
6.78579
6.78577
6.78574
6.78573
6.78576
6.78579
6.78581
6.7858
6.78575
6.78569
6.78566
6.78563
6.7856
6.78557
6.78553
6.78549
6.78546
6.78542
6.78533
6.78598
6.78596
6.78592
6.7859
6.78587
6.78585
6.78584
6.78582
6.78578
6.78576
6.78578
6.78581
6.78583
6.78583
6.78579
6.78573
6.78569
6.78566
6.78562
6.78559
6.78556
6.78552
6.78548
6.78542
6.78607
6.786
6.78599
6.78596
6.78593
6.78591
6.78589
6.78588
6.78586
6.78582
6.78579
6.78579
6.78582
6.78584
6.78584
6.78581
6.78577
6.78573
6.78569
6.78565
6.78562
6.78559
6.7855
6.78617
6.78608
6.78609
6.78604
6.78602
6.78599
6.78597
6.78595
6.78594
6.78593
6.7859
6.78585
6.78582
6.78581
6.78583
6.78584
6.78584
6.78582
6.78579
6.78576
6.78572
6.78568
6.78564
6.78557
6.78622
6.78614
6.78611
6.78609
6.78607
6.78604
6.78602
6.78601
6.78599
6.78599
6.78598
6.78593
6.78588
6.78585
6.78583
6.78584
6.78585
6.78585
6.78583
6.7858
6.78577
6.78574
6.78569
6.78569
6.78612
6.78616
6.78615
6.78613
6.7861
6.78608
6.78607
6.78606
6.78604
6.78603
6.78604
6.78603
6.78598
6.78593
6.7859
6.78589
6.78589
6.78589
6.78587
6.78585
6.78583
6.78578
6.78577
6.78571
6.7862
6.78617
6.78616
6.78615
6.78614
6.78612
6.78609
6.78608
6.78608
6.78607
6.78606
6.78607
6.78606
6.78603
6.78598
6.78595
6.78595
6.78593
6.78592
6.7859
6.78588
6.78586
6.7858
6.78623
6.78626
6.78619
6.78619
6.78616
6.78616
6.78615
6.78613
6.78611
6.78609
6.78609
6.78608
6.78607
6.78607
6.78607
6.78604
6.78601
6.78599
6.78599
6.78597
6.78595
6.78593
6.7859
6.78589
6.78637
6.78624
6.78626
6.78622
6.7862
6.78617
6.78617
6.78616
6.78614
6.78612
6.7861
6.78609
6.78609
6.78608
6.78607
6.78607
6.78605
6.78603
6.78602
6.78602
6.786
6.78597
6.78595
6.78591
6.78632
6.78636
6.78629
6.78626
6.78624
6.78621
6.78619
6.78618
6.78617
6.78615
6.78613
6.78611
6.78609
6.78609
6.78609
6.78608
6.78607
6.78607
6.78606
6.78604
6.78603
6.78603
6.786
6.78638
6.78634
6.78634
6.7863
6.78629
6.78627
6.78623
6.7862
6.78619
6.78618
6.78616
6.78614
6.78611
6.78608
6.78608
6.78609
6.78607
6.78607
6.78607
6.78607
6.78607
6.78605
6.78603
6.7863
6.78634
6.78635
6.78635
6.78632
6.78631
6.78629
6.78625
6.78621
6.78618
6.78618
6.78617
6.78614
6.78612
6.78609
6.78609
6.78609
6.78608
6.78608
6.78608
6.78607
6.78606
6.78611
6.78631
6.78633
6.78635
6.78635
6.78635
6.78634
6.78633
6.78632
6.78628
6.78623
6.78619
6.78619
6.78618
6.78617
6.78615
6.78611
6.7861
6.7861
6.7861
6.78609
6.78608
6.78608
6.78613
6.78636
6.78635
6.78635
6.78636
6.78636
6.78635
6.78635
6.78635
6.78635
6.78633
6.78628
6.78624
6.78622
6.78621
6.78619
6.78617
6.78614
6.78612
6.78612
6.78611
6.7861
6.78609
6.78606
6.78635
6.78637
6.78637
6.78638
6.78639
6.78638
6.78637
6.78636
6.78637
6.78638
6.78638
6.78635
6.78631
6.78627
6.78625
6.78622
6.78619
6.78616
6.78614
6.78613
6.78613
6.78612
6.78612
6.78636
6.78636
6.78636
6.78639
6.7864
6.78641
6.78641
6.78641
6.78639
6.78638
6.78639
6.7864
6.7864
6.78639
6.78635
6.78631
6.78628
6.78625
6.78622
6.78618
6.78617
6.78616
6.78615
6.78646
6.78642
6.78642
6.78641
6.78641
6.78642
6.78642
6.78643
6.78642
6.7864
6.78639
6.78639
6.78639
6.7864
6.78639
6.78636
6.78632
6.78629
6.78627
6.78624
6.78621
6.7862
6.7862
6.78644
6.78646
6.78646
6.78645
6.78645
6.78645
6.78644
6.78643
6.78642
6.78642
6.7864
6.78638
6.78636
6.78637
6.78638
6.78637
6.78635
6.78633
6.7863
6.78628
6.78625
6.78622
6.78622
6.78651
6.78649
6.78648
6.78648
6.78648
6.78648
6.78648
6.78645
6.78642
6.78641
6.78641
6.7864
6.78637
6.78636
6.78636
6.78636
6.78636
6.78634
6.78633
6.78631
6.78629
6.78626
6.78624
6.78648
6.78654
6.78653
6.78651
6.78651
6.78651
6.78652
6.78651
6.78648
6.78644
6.78642
6.78643
6.78642
6.7864
6.78638
6.78637
6.78636
6.78635
6.78634
6.78633
6.78632
6.78631
6.7863
6.78651
6.78654
6.78655
6.78655
6.78654
6.78653
6.78654
6.78656
6.78656
6.78653
6.78648
6.78645
6.78644
6.78643
6.78641
6.78639
6.78638
6.78637
6.78635
6.78633
6.78633
6.78632
6.7863
6.78663
6.78656
6.78658
6.78657
6.78657
6.78656
6.78656
6.78657
6.78659
6.7866
6.78656
6.78651
6.78647
6.78645
6.78642
6.78641
6.78639
6.78638
6.78636
6.78634
6.78633
6.78631
6.78631
6.78657
6.78662
6.7866
6.7866
6.7866
6.78659
6.78658
6.78658
6.78659
6.7866
6.78661
6.78657
6.78651
6.78647
6.78645
6.78643
6.78641
6.78639
6.78637
6.78635
6.78633
6.7863
6.78628
6.78659
6.78663
6.78664
6.78663
6.78662
6.78662
6.78662
6.78661
6.7866
6.78659
6.78659
6.78659
6.78656
6.78651
6.78648
6.78645
6.78644
6.78641
6.78639
6.78637
6.78635
6.78631
6.78627
6.78667
6.78666
6.78667
6.78668
6.78666
6.78664
6.78664
6.78665
6.78665
6.78663
6.78659
6.78657
6.78656
6.78654
6.7865
6.78648
6.78646
6.78644
6.78642
6.78639
6.78636
6.78633
6.78686
6.78672
6.78671
6.78671
6.78672
6.78671
6.78669
6.78666
6.78666
6.78667
6.78668
6.78667
6.78661
6.78657
6.78655
6.78653
6.78651
6.78649
6.78646
6.78644
6.78641
6.78638
6.78634
6.78681
6.78682
6.78675
6.78671
6.78671
6.78673
6.78673
6.7867
6.78668
6.78667
6.78668
6.78668
6.78667
6.78662
6.78657
6.78655
6.78654
6.78652
6.7865
6.78648
6.78645
6.78642
6.78636
6.78683
6.78686
6.78685
6.7868
6.78673
6.78673
6.78674
6.78673
6.7867
6.78668
6.78668
6.78667
6.78667
6.78666
6.78662
6.78659
6.78657
6.78655
6.78653
6.78651
6.78649
6.78646
6.78643
6.78687
6.78688
6.7869
6.78689
6.78685
6.78679
6.78677
6.78676
6.78673
6.7867
6.78669
6.78668
6.78668
6.78668
6.78667
6.78664
6.78662
6.78659
6.78657
6.78655