/*--------------------------------*- C++ -*----------------------------------*\
  =========                 |
  \\      /  F ield         | OpenFOAM: The Open Source CFD Toolbox
   \\    /   O peration     | Website:  https://openfoam.org
    \\  /    A nd           | Version:  8
     \\/     M anipulation  |
\*---------------------------------------------------------------------------*/
FoamFile
{
    version     2.0;
    format      ascii;
    class       volScalarField;
    location    "185";
    object      epsilon;
}
// * * * * * * * * * * * * * * * * * * * * * * * * * * * * * * * * * * * * * //

dimensions      [0 2 -3 0 0 0 0];

internalField   nonuniform List<scalar> 
12225
(
285.513
270.704
257.913
243.814
232.456
223.093
216.801
212.701
212.744
213.952
217.253
220.874
228.126
232.749
241.354
246.792
254.16
264.444
52.4928
91.8834
106.969
114.752
124.841
136.789
152.691
169.909
191.133
210.938
235.285
255.497
281.17
299.37
324.978
339.44
365.077
373.905
20.3228
34.8574
44.6743
50.4704
55.3961
59.6083
64.6656
69.6421
76.3251
83.1836
91.4559
99.3246
108.209
116.964
125.608
135.373
142.719
154.002
15.348
19.6977
24.1125
27.5687
30.4978
32.8693
35.1567
37.2926
39.5055
41.9171
44.3424
47.2039
49.6914
53.0485
55.4315
59.2634
61.4749
65.7117
14.6507
15.8627
17.3672
19.0735
20.6387
22.0256
23.2468
24.4308
25.4451
26.5947
27.5251
28.7593
29.635
30.9894
31.8193
33.2749
34.0921
35.6678
14.7068
14.8769
15.2015
15.8666
16.5669
17.2866
17.9239
18.5841
19.1195
19.7342
20.1938
20.7997
21.2095
21.8244
22.2007
22.8293
23.1848
23.8666
14.7421
14.6201
14.6248
14.737
14.9298
15.219
15.4914
15.8089
16.071
16.3827
16.6183
16.9206
17.1314
17.4279
17.617
17.9139
18.0839
18.4098
14.7626
14.5866
14.4638
14.3812
14.3669
14.39
14.4381
14.5337
14.6186
14.7367
14.8309
14.9566
15.0479
15.1766
15.2615
15.3925
15.471
15.6212
14.7667
14.5908
14.4346
14.2963
14.1849
14.1044
14.0398
14.0066
13.9815
13.9786
13.9809
13.9917
14.0041
14.0297
14.0474
14.0797
14.1037
14.1464
14.7663
14.594
14.432
14.282
14.143
14.0219
13.9115
13.8193
13.737
13.6698
13.6102
13.5633
13.5181
13.4872
13.4517
13.4343
13.4023
13.4011
14.7658
14.5945
14.4322
14.2803
14.1362
14.0032
13.8782
13.7644
13.6582
13.5629
13.4735
13.3952
13.3198
13.2561
13.1915
13.1408
13.0838
13.0452
14.7657
14.5943
14.4321
14.2798
14.1353
13.9999
13.8715
13.7518
13.6385
13.5336
13.4341
13.343
13.2557
13.177
13.1002
13.0328
12.9647
12.9074
14.7657
14.5941
14.432
14.2794
14.1349
13.9989
13.8699
13.7485
13.6331
13.5249
13.4219
13.3257
13.2338
13.1483
13.0662
12.9906
12.9172
12.8502
14.7657
14.5939
14.4318
14.279
14.1346
13.9983
13.8692
13.7472
13.6315
13.5223
13.4184
13.3203
13.227
13.1389
13.055
12.9759
12.9002
12.8291
14.7657
14.5938
14.4317
14.2787
14.1342
13.9977
13.8686
13.7464
13.6307
13.5211
13.4171
13.3185
13.2249
13.136
13.0516
12.9715
12.8952
12.8228
14.7657
14.5937
14.4316
14.2785
14.1339
13.9973
13.8681
13.7458
13.63
13.5202
13.4161
13.3174
13.2237
13.1347
13.0501
12.9697
12.8932
12.8205
14.7657
14.5937
14.4315
14.2783
14.1337
13.997
13.8677
13.7453
13.6294
13.5195
13.4154
13.3166
13.2227
13.1336
13.049
12.9685
12.8919
12.8191
14.7657
14.5937
14.4314
14.2782
14.1335
13.9968
13.8674
13.745
13.629
13.5191
13.4148
13.316
13.2221
13.1329
13.0481
12.9676
12.8909
12.818
14.7657
14.5937
14.4314
14.2782
14.1335
13.9967
13.8673
13.7448
13.6288
13.5189
13.4146
13.3157
13.2217
13.1325
13.0477
12.9671
12.8904
12.8175
14.7657
14.5937
14.4314
14.2782
14.1336
13.9968
13.8674
13.745
13.629
13.5191
13.4148
13.3159
13.222
13.1328
13.048
12.9674
12.8907
12.8178
14.7657
14.5937
14.4315
14.2784
14.1338
13.997
13.8677
13.7453
13.6294
13.5196
13.4155
13.3166
13.2229
13.1339
13.0494
12.969
12.8927
12.82
14.7657
14.5937
14.4316
14.2785
14.1341
13.9974
13.8685
13.7464
13.6312
13.522
13.419
13.3214
13.2293
13.1419
13.0595
12.9811
12.9074
12.8369
14.7658
14.5937
14.4318
14.2788
14.1353
14.0002
13.8742
13.756
13.6463
13.5435
13.4485
13.3592
13.277
13.1993
13.1282
13.0602
12.9989
12.9387
14.7655
14.5928
14.4328
14.2844
14.1515
14.0321
13.929
13.8375
13.7593
13.6894
13.6307
13.5769
13.5328
13.4905
13.4574
13.423
13.3989
13.3693
14.7592
14.5932
14.4603
14.3602
14.3029
14.2766
14.2805
14.2922
14.321
14.3531
14.3959
14.4345
14.4824
14.5217
14.5719
14.6089
14.6616
14.6938
14.7213
14.6911
14.754
14.9176
15.1828
15.4611
15.7476
16.012
16.2723
16.5038
16.736
16.9385
17.1506
17.3308
17.5308
17.6935
17.8887
18.0358
14.7477
15.5124
16.5473
17.6841
18.7044
19.5675
20.3372
20.9968
21.6194
22.166
22.7188
23.2107
23.7398
24.2041
24.7325
25.1824
25.7247
26.1656
15.9871
20.9921
25.0238
27.7604
29.7846
31.3584
32.7769
34.0577
35.3592
36.6161
37.9751
39.2967
40.761
42.1451
43.717
45.1728
46.8826
48.3573
29.9032
47.2182
54.8695
58.6733
61.6138
64.4316
67.5802
70.9769
74.7378
78.7134
82.9841
87.3429
91.9033
96.4479
101.098
105.619
110.172
114.573
165.798
160.075
154.899
149.564
144.479
139.677
135.614
132.109
129.27
126.973
125.319
124.044
123.34
122.824
122.841
122.959
123.283
123.826
0.635925
0.632004
1.10263
1.55371
2.0236
2.51462
3.02759
3.55795
4.09667
4.63359
5.15866
5.66359
6.14136
6.58675
6.99533
7.36363
7.68778
7.96299
8.18092
8.32831
8.39028
8.32048
8.05525
7.48501
7.61417
7.87187
8.08016
8.24303
8.51381
8.92478
40.7655
9.11388
8.63605
9.06505
40.3964
45.3321
47.8552
51.6147
55.1542
59.0026
62.9742
67.1313
71.4566
75.9598
80.6411
85.5072
90.5591
95.8042
101.243
106.884
112.726
118.778
125.04
131.518
138.212
145.129
152.267
159.632
167.223
175.044
183.091
191.371
199.877
208.613
217.573
226.76
236.164
245.789
255.622
265.667
275.908
286.348
296.97
307.773
318.74
329.868
341.136
352.541
364.061
375.69
387.403
399.192
411.03
422.907
434.792
446.67
458.507
470.284
481.963
493.516
504.905
516.116
527.169
538.11
548.791
559.289
569.548
579.571
589.331
598.813
607.997
616.869
625.412
633.613
641.459
648.937
656.037
662.751
669.07
674.988
680.502
685.608
690.307
694.598
698.486
701.975
705.07
707.782
710.123
712.108
713.74
715.013
715.883
716.212
715.964
716.93
716.106
716.399
714.996
714.175
713.425
712.524
711.65
710.791
710.035
709.665
708.058
706.786
706.107
705.212
704.627
704.09
704.172
703.828
702.844
702.957
701.996
701.838
701.087
700.47
699.419
697.784
695.878
693.742
691.02
687.692
683.696
678.959
673.222
666.615
659.436
650.373
645.704
644.776
643.376
640.988
637.55
633.059
627.544
621.125
613.649
605.216
595.945
585.989
575.235
563.685
551.318
536.769
523.657
477.762
2.48147
1.46298
1.45652
1.64287
1.92394
2.2692
2.66433
3.09636
3.55301
4.02307
4.49775
4.97054
5.43785
5.89807
6.35177
6.80052
7.2464
7.68976
8.12648
8.58675
9.0798
9.63887
10.3708
11.1114
12.0404
12.9828
13.5952
14.9799
16.1689
17.8607
19.3838
17.8944
20.4911
23.8833
27.6774
29.2893
30.9837
32.8188
34.6825
36.6244
38.6274
40.6998
42.841
45.0537
47.3389
49.6987
52.1342
54.6474
57.2389
59.9106
62.663
65.4976
68.4146
71.4155
74.5002
77.6699
80.924
84.2635
87.6875
91.1968
94.7898
98.467
102.227
106.069
109.991
113.992
118.071
122.225
126.452
130.75
135.115
139.546
144.037
148.587
153.19
157.843
162.54
167.277
172.049
176.849
181.672
186.512
191.361
196.211
201.055
205.884
210.689
215.461
220.192
224.876
229.514
234.117
238.721
243.345
247.879
252.338
256.709
260.988
265.166
269.235
273.19
277.023
280.729
284.301
287.734
291.024
294.164
297.153
299.986
302.66
305.174
307.525
309.714
311.741
313.605
315.309
316.854
318.244
319.482
320.571
321.513
322.305
322.943
323.43
323.82
324.26
324.4
324.594
324.513
324.484
324.424
324.327
324.236
324.169
324.115
324.06
323.812
323.68
323.659
323.638
323.716
323.852
324.093
324.233
324.328
324.649
324.776
325.026
325.151
325.4
325.466
325.262
325.045
324.744
324.248
323.527
322.546
321.273
319.643
317.641
315.337
312.462
310.006
308.123
306.024
303.497
300.496
297.033
293.12
288.815
284.106
279.031
273.577
267.847
261.839
255.617
249.264
242.675
237.552
229.913
4.80244
2.4264
2.14528
2.20058
2.392
2.66998
3.01218
3.40369
3.83202
4.28631
4.75814
5.24175
5.73461
6.23708
6.7525
7.28669
7.84793
8.44649
9.09548
9.78478
10.518
11.2931
12.0746
12.8987
13.7237
14.5419
15.3856
16.3772
17.4296
18.5298
19.6236
20.7346
22.3716
24.1182
25.7699
27.1978
28.655
30.1704
31.7387
33.3622
35.0396
36.7725
38.5617
40.4081
42.3126
44.2763
46.2999
48.3844
50.5302
52.7385
55.0095
57.344
59.7423
62.2051
64.7324
67.3248
69.9821
72.7046
75.492
78.3443
81.2609
84.2417
87.2859
90.3928
93.5615
96.7911
100.08
103.428
106.832
110.291
113.802
117.365
120.977
124.634
128.334
132.075
135.853
139.663
143.504
147.37
151.257
155.162
159.078
163.001
166.927
170.849
174.762
178.663
182.547
186.413
190.261
194.092
197.91
201.698
205.432
209.108
212.72
216.262
219.727
223.108
226.401
229.599
232.697
235.69
238.572
241.34
243.989
246.516
248.918
251.191
253.335
255.347
257.226
258.973
260.587
262.069
263.421
264.644
265.74
266.712
267.562
268.291
268.903
269.406
269.822
270.17
270.393
270.556
270.613
270.633
270.594
270.53
270.448
270.349
270.231
270.091
269.899
269.736
269.607
269.491
269.412
269.362
269.339
269.295
269.257
269.309
269.314
269.246
269.109
269.025
268.843
268.553
268.189
267.722
267.1
266.294
265.275
264.014
262.475
260.638
258.511
256.046
253.527
251.036
248.343
245.341
242.003
238.336
234.356
230.1
225.583
220.836
215.88
210.771
205.487
200.118
194.744
189.462
185.09
180.921
7.20263
3.45117
2.90104
2.85335
2.989
3.2289
3.54214
3.91205
4.32679
4.77673
5.25433
5.75425
6.27384
6.813
7.37424
7.9621
8.58258
9.24168
9.94347
10.6865
11.4665
12.2758
13.1082
13.9348
14.7596
15.5947
16.4672
17.3957
18.3684
19.4458
20.5999
21.8159
23.1392
24.5257
25.9145
27.296
28.7087
30.1651
31.6675
33.2197
34.8227
36.4777
38.1854
39.9469
41.7628
43.6342
45.5617
47.5463
49.5887
51.6895
53.8491
56.0683
58.3476
60.6874
63.0882
65.5503
68.0741
70.6597
73.3071
76.0166
78.7879
81.6208
84.515
87.4702
90.4856
93.5606
96.6944
99.8859
103.134
106.437
109.794
113.203
116.662
120.168
123.72
127.316
130.951
134.623
138.329
142.066
145.83
149.616
153.421
157.24
161.07
164.905
168.741
172.575
176.403
180.221
184.028
187.821
191.591
195.327
199.018
202.657
206.237
209.753
213.197
216.563
219.845
223.037
226.132
229.126
232.013
234.788
237.446
239.984
242.399
244.686
246.845
248.872
250.766
252.527
254.154
255.648
257.009
258.238
259.338
260.31
261.156
261.879
262.483
262.975
263.364
263.657
263.846
263.946
263.961
263.912
263.75
263.573
263.357
263.1
262.804
262.476
262.116
261.749
261.383
261.017
260.657
260.303
259.953
259.595
259.237
258.9
258.523
258.107
257.657
257.181
256.635
256.005
255.296
254.448
253.451
252.281
250.912
249.318
247.473
245.362
242.982
240.333
237.518
234.569
231.405
227.976
224.269
220.29
216.057
211.601
206.949
202.129
197.172
192.12
186.998
181.868
176.792
171.902
167.644
164.053
9.51865
4.47065
3.65636
3.51386
3.59779
3.80559
4.09599
4.44899
4.85215
5.29627
5.77424
6.28075
6.81248
7.36802
7.94788
8.55404
9.18947
9.85707
10.5586
11.2931
12.0565
12.8414
13.6455
14.4737
15.3227
16.1996
17.1185
18.092
19.1297
20.2161
21.3539
22.5437
23.7883
25.0803
26.4073
27.7677
29.1696
30.618
32.1162
33.6644
35.2635
36.9145
38.6183
40.3761
42.1887
44.0571
45.9824
47.9656
50.0079
52.1099
54.272
56.4951
58.7798
61.1269
63.5371
66.011
68.549
71.1518
73.8196
76.5528
79.3516
82.2161
85.1462
88.1419
91.2028
94.3286
97.5187
100.772
104.089
107.466
110.905
114.401
117.956
121.565
125.227
128.94
132.701
136.507
140.356
144.243
148.165
152.118
156.099
160.103
164.125
168.161
172.207
176.257
180.308
184.354
188.389
192.407
196.399
200.358
204.274
208.14
211.948
215.692
219.364
222.956
226.462
229.875
233.188
236.394
239.488
242.464
245.316
248.039
250.63
253.084
255.399
257.572
259.601
261.484
263.22
264.81
266.253
267.55
268.702
269.711
270.579
271.309
271.904
272.371
272.715
272.94
273.051
273.043
272.908
272.694
272.393
272.027
271.597
271.103
270.551
269.952
269.308
268.633
267.935
267.216
266.482
265.733
264.972
264.195
263.406
262.607
261.775
260.908
260.003
259.055
258.043
256.953
255.778
254.483
253.048
251.45
249.666
247.672
245.45
242.986
240.277
237.328
234.18
230.846
227.292
223.494
219.448
215.162
210.653
205.936
201.057
196.047
190.941
185.778
180.596
175.454
170.422
165.634
161.339
157.661
11.6857
5.4447
4.37728
4.1436
4.17765
4.35455
4.62268
4.95808
5.34704
5.78021
6.25068
6.75315
7.28392
7.84068
8.4226
9.02994
9.66392
10.326
11.0177
11.7394
12.491
13.2712
14.08
14.9189
15.7896
16.6961
17.644
18.6383
19.6817
20.7725
21.9104
23.0956
24.3286
25.608
26.9319
28.3003
29.7154
31.1794
32.694
34.2603
35.8795
37.5527
39.281
41.0658
42.908
44.809
46.7698
48.7915
50.875
53.0216
55.2328
57.5095
59.8531
62.2644
64.7446
67.2946
69.9153
72.6075
75.372
78.2094
81.1203
84.1051
87.1642
90.2977
93.5055
96.7877
100.144
103.573
107.076
110.65
114.295
118.009
121.79
125.638
129.549
133.522
137.552
141.639
145.777
149.964
154.196
158.469
162.778
167.119
171.486
175.875
180.28
184.695
189.115
193.533
197.942
202.334
206.7
211.033
215.323
219.562
223.742
227.855
231.891
235.844
239.704
243.464
247.115
250.65
254.062
257.344
260.489
263.492
266.348
269.051
271.597
273.985
276.21
278.27
280.164
281.892
283.451
284.844
286.069
287.13
288.026
288.762
289.341
289.768
290.05
290.18
290.158
289.974
289.683
289.278
288.762
288.149
287.444
286.651
285.779
284.836
283.829
282.767
281.66
280.51
279.324
278.106
276.858
275.583
274.283
272.957
271.598
270.2
268.762
267.277
265.731
264.112
262.405
260.59
258.647
256.556
254.295
251.846
249.192
246.323
243.231
239.92
236.406
232.69
228.758
224.598
220.212
215.61
210.809
205.827
200.713
195.492
190.2
184.877
179.564
174.322
169.219
164.378
159.956
156.043
13.6494
6.34296
5.03848
4.7155
4.70178
4.84703
5.09177
5.40766
5.77936
6.1971
6.65403
7.14501
7.66632
8.21543
8.79095
9.39247
10.0204
10.6757
11.3596
12.0734
12.8181
13.5948
14.4046
15.2491
16.1301
17.05
18.0114
19.0168
20.0678
21.1649
22.3085
23.4992
24.7377
26.0244
27.3595
28.7439
30.1788
31.6658
33.2063
34.8015
36.453
38.162
39.93
41.7585
43.6488
45.6025
47.6211
49.706
51.8588
54.0809
56.3741
58.7398
61.1796
63.6949
66.2871
68.9577
71.7079
74.539
77.4521
80.4483
83.5284
86.6933
89.9435
93.2796
96.7019
100.211
103.805
107.486
111.252
115.102
119.036
123.052
127.148
131.323
135.574
139.898
144.293
148.755
153.282
157.868
162.509
167.202
171.94
176.719
181.533
186.376
191.241
196.123
201.013
205.904
210.788
215.655
220.498
225.305
230.068
234.778
239.425
243.999
248.491
252.891
257.189
261.377
265.444
269.383
273.183
276.838
280.34
283.68
286.854
289.856
292.679
295.321
297.778
300.047
302.125
304.011
305.704
307.203
308.509
309.621
310.543
311.276
311.824
312.193
312.376
312.37
312.174
311.825
311.326
310.681
309.897
308.985
307.95
306.801
305.546
304.194
302.755
301.236
299.647
297.994
296.285
294.523
292.716
290.868
288.981
287.059
285.098
283.097
281.054
278.964
276.818
274.606
272.315
269.93
267.433
264.808
262.037
259.103
255.992
252.692
249.196
245.502
241.613
237.527
233.235
228.732
224.021
219.113
214.025
208.783
203.419
197.968
192.463
186.947
181.464
176.07
170.834
165.86
161.251
157.031
15.3696
7.1424
5.62132
5.21013
5.15175
5.26545
5.48594
5.78095
6.13343
6.53309
6.97305
7.44839
7.9556
8.49226
9.05692
9.64897
10.2686
10.9163
11.5935
12.3012
13.0411
13.8147
14.6235
15.4692
16.3536
17.2784
18.2454
19.2564
20.3127
21.4155
22.5658
23.7644
25.0126
26.3113
27.6617
29.0651
30.5228
32.0363
33.6072
35.2371
36.9275
38.6803
40.4972
42.3799
44.3303
46.3502
48.4416
50.6064
52.8466
55.1641
57.561
60.0393
62.6009
65.2478
67.9819
70.805
73.719
76.7255
79.826
83.0222
86.3151
89.7062
93.1962
96.786
100.476
104.267
108.159
112.151
116.244
120.436
124.726
129.113
133.595
138.17
142.836
147.589
152.426
157.343
162.337
167.403
172.536
177.73
182.98
188.279
193.622
199
204.407
209.834
215.274
220.716
226.153
231.573
236.967
242.324
247.633
252.883
258.065
263.166
268.176
273.084
277.878
282.548
287.084
291.474
295.709
299.78
303.676
307.39
310.915
314.243
317.368
320.286
322.992
325.482
327.754
329.805
331.634
333.239
334.619
335.776
336.71
337.424
337.922
338.197
338.248
338.077
337.706
337.142
336.393
335.464
334.364
333.101
331.686
330.126
328.431
326.61
324.675
322.634
320.497
318.274
315.971
313.598
311.161
308.668
306.125
303.535
300.902
298.227
295.509
292.748
289.938
287.073
284.143
281.138
278.046
274.85
271.537
268.092
264.501
260.752
256.837
252.749
248.484
244.037
239.4
234.571
229.551
224.353
218.992
213.494
207.889
202.21
196.492
190.776
185.109
179.544
174.144
169.001
164.177
159.643
16.8207
7.8275
6.11443
5.62104
5.51968
5.60236
5.79843
6.07206
6.40464
6.78526
7.20698
7.66504
8.15618
8.67818
9.22973
9.81023
10.4197
11.0587
11.7282
12.4294
13.1638
13.9331
14.7388
15.5827
16.4665
17.3918
18.3603
19.3737
20.4333
21.5407
22.697
23.9038
25.1624
26.4743
27.8412
29.2649
30.7472
32.2897
33.8944
35.5632
37.2981
39.1012
40.9746
42.9206
44.9413
47.0392
49.2167
51.4762
53.8202
56.2512
58.7717
61.3843
64.0915
66.8957
69.7995
72.8052
75.9151
79.1314
82.4561
85.8912
89.4384
93.0992
96.875
100.767
104.775
108.902
113.145
117.506
121.985
126.579
131.289
136.112
141.046
146.089
151.238
156.489
161.839
167.283
172.816
178.434
184.13
189.897
195.73
201.621
207.562
213.544
219.56
225.599
231.653
237.711
243.761
249.794
255.797
261.758
267.665
273.506
279.27
284.943
290.513
295.968
301.294
306.481
311.515
316.384
321.078
325.585
329.895
333.998
337.885
341.549
344.982
348.178
351.133
353.842
356.302
358.51
360.463
362.16
363.6
364.782
365.707
366.378
366.79
366.94
366.832
366.48
365.889
365.069
364.026
362.768
361.305
359.645
357.799
355.776
353.587
351.242
348.753
346.131
343.386
340.53
337.571
334.521
331.389
328.185
324.917
321.594
318.221
314.803
311.345
307.849
304.314
300.738
297.118
293.446
289.714
285.911
282.024
278.041
273.947
269.732
265.384
260.895
256.255
251.455
246.488
241.349
236.04
230.571
224.956
219.22
213.389
207.495
201.574
195.667
189.817
184.077
178.505
173.176
168.13
163.3
17.9904
8.39089
6.51417
5.94684
5.805
5.85793
6.03012
6.28272
6.59567
6.95749
7.36107
7.80177
8.2765
8.78322
9.32081
9.88885
10.4875
11.1165
11.7769
12.4701
13.1974
13.9607
14.7614
15.6013
16.4822
17.4059
18.3739
19.3881
20.4501
21.5616
22.7243
23.9397
25.2096
26.5353
27.9199
29.3659
30.8754
32.4505
34.0936
35.8069
37.593
39.4543
41.3935
43.4134
45.5167
47.7064
49.9853
52.3567
54.8234
57.3887
60.0556
62.8274
65.7072
68.698
71.8028
75.0247
78.3665
81.831
85.4205
89.1376
92.9844
96.9627
101.074
105.32
109.702
114.22
118.874
123.664
128.591
133.651
138.845
144.17
149.624
155.203
160.904
166.723
172.656
178.695
184.837
191.075
197.401
203.809
210.29
216.835
223.436
230.082
236.764
243.471
250.191
256.913
263.625
270.314
276.967
283.57
290.11
296.574
302.947
309.216
315.368
321.387
327.26
332.974
338.514
343.868
349.022
353.965
358.685
363.17
367.41
371.398
375.124
378.583
381.768
384.674
387.298
389.637
391.688
393.449
394.918
396.094
396.977
397.567
397.856
397.849
397.552
396.973
396.118
394.996
393.615
391.983
390.109
388.004
385.678
383.142
380.408
377.486
374.39
371.132
367.724
364.177
360.505
356.719
352.831
348.855
344.801
340.682
336.506
332.285
328.025
323.735
319.419
315.08
310.719
306.335
301.922
297.475
292.981
288.432
283.814
279.116
274.324
269.427
264.413
259.269
253.985
248.555
242.978
237.26
231.415
225.464
219.43
213.345
207.242
201.159
195.14
189.234
183.492
177.981
172.72
167.622
18.88
8.83188
6.82223
6.19099
6.01222
6.03748
6.18699
6.41948
6.71371
7.05764
7.444
7.86821
8.32735
8.81892
9.34226
9.8974
10.4851
11.1046
11.7566
12.4423
13.1631
13.9205
14.7162
15.5519
16.4295
17.351
18.3181
19.3328
20.3972
21.5131
22.6826
23.9077
25.1904
26.5325
27.9386
29.4113
30.9535
32.5678
34.2572
36.0244
37.8725
39.8045
41.8237
43.9333
46.1369
48.4379
50.84
53.3469
55.9624
58.6902
61.5341
64.4981
67.5858
70.8011
74.1475
77.6287
81.248
85.0088
88.9139
92.9663
97.1683
101.522
106.03
110.693
115.512
120.487
125.62
130.909
136.354
141.953
147.704
153.605
159.651
165.84
172.167
178.626
185.211
191.918
198.737
205.662
212.684
219.794
226.982
234.239
241.553
248.914
256.309
263.726
271.152
278.574
285.978
293.35
300.675
307.938
315.125
322.22
329.208
336.075
342.804
349.38
355.789
362.015
368.044
373.861
379.452
384.803
389.903
394.738
399.298
403.573
407.555
411.235
414.608
417.669
420.413
422.838
424.941
426.719
428.17
429.293
430.085
430.545
430.669
430.461
429.922
429.065
427.896
426.422
424.653
422.596
420.262
417.661
414.806
411.707
408.377
404.828
401.074
397.128
393.004
388.716
384.277
379.701
375.004
370.201
365.306
360.336
355.304
350.225
345.111
339.974
334.827
329.676
324.529
319.389
314.257
309.129
303.999
298.858
293.694
288.496
283.251
277.944
272.559
267.08
261.495
255.794
249.972
244.033
237.987
231.849
225.644
219.397
213.139
206.908
200.743
194.69
188.794
183.114
177.657
172.325
19.5
9.15465
7.04418
6.36048
6.14943
6.14991
6.27814
6.49184
6.76868
7.09613
7.46647
7.87552
8.32127
8.80063
9.31258
9.8566
10.4324
11.0399
11.6809
12.3566
13.0686
13.8186
14.6082
15.4394
16.3142
17.2347
18.2033
19.222
20.2933
21.4196
22.6035
23.848
25.1549
26.5267
27.9627
29.472
31.0577
32.7235
34.4736
36.3114
38.2402
40.2639
42.3861
44.611
46.9428
49.3857
51.9442
54.6227
57.4256
60.3577
63.4233
66.6271
69.9735
73.467
77.1117
80.9119
84.8714
88.9939
93.2829
97.7414
102.372
107.177
112.158
117.318
122.655
128.171
133.866
139.738
145.786
152.008
158.4
164.96
171.682
178.561
185.592
192.769
200.083
207.527
215.092
222.769
230.547
238.416
246.365
254.38
262.451
270.563
278.704
286.857
295.01
303.147
311.252
319.311
327.306
335.222
343.042
350.75
358.329
365.764
373.037
380.133
387.035
393.727
400.194
406.421
412.392
418.094
423.512
428.635
433.45
437.947
442.117
445.951
449.444
452.59
455.385
457.827
459.913
461.64
463.007
464.011
464.648
464.917
464.815
464.338
463.494
462.298
460.755
458.871
456.655
454.117
451.267
448.117
444.678
440.964
436.987
432.761
428.299
423.617
418.73
413.651
408.398
402.985
397.432
391.756
385.975
380.108
374.173
368.191
362.178
356.152
350.13
344.127
338.154
332.223
326.337
320.499
314.705
308.95
303.223
297.515
291.81
286.092
280.343
274.544
268.677
262.728
256.691
250.562
244.348
238.062
231.722
225.35
218.975
212.629
206.35
200.178
194.155
188.331
182.706
177.182
19.8819
9.37305
7.18962
6.46432
6.22449
6.20429
6.31409
6.51085
6.77226
7.08655
7.44438
7.84093
8.27253
8.73739
9.23548
9.76669
10.3313
10.9302
11.5642
12.2344
12.9425
13.6901
14.4793
15.312
16.1906
17.1176
18.0959
19.1286
20.2175
21.3652
22.5748
23.8495
25.1887
26.5986
28.0847
29.6522
31.3055
33.0489
34.887
36.8249
38.8672
41.0181
43.2824
45.6648
48.1705
50.8047
53.5726
56.4795
59.5307
62.7316
66.0873
69.6032
73.2843
77.1356
81.1619
85.3677
89.7573
94.3347
99.1031
104.066
109.225
114.584
120.143
125.902
131.864
138.026
144.387
150.946
157.7
164.646
171.778
179.092
186.582
194.241
202.062
210.035
218.153
226.404
234.778
243.264
251.849
260.522
269.267
278.072
286.922
295.801
304.694
313.585
322.457
331.295
340.08
348.796
357.425
365.95
374.354
382.618
390.726
398.661
406.405
413.942
421.254
428.326
435.142
441.685
447.941
453.895
459.534
464.845
469.814
474.432
478.689
482.577
486.09
489.222
491.971
494.333
496.307
497.892
499.084
499.882
500.281
500.275
499.862
499.03
497.809
496.201
494.211
491.847
489.117
486.033
482.604
478.844
474.764
470.379
465.702
460.747
455.53
450.064
444.368
438.455
432.346
426.056
419.607
413.019
406.314
399.514
392.641
385.72
378.774
371.825
364.897
358.009
351.181
344.43
337.765
331.195
324.72
318.336
312.037
305.813
299.649
293.529
287.43
281.33
275.206
269.042
262.823
256.544
250.206
243.815
237.384
230.934
224.485
218.069
211.716
205.465
199.351
193.418
187.662
181.99
20.0066
9.48451
7.26352
6.51096
6.24884
6.21185
6.30761
6.49175
6.74063
7.04022
7.38369
7.76696
8.18755
8.64386
9.13495
9.66067
10.2213
10.8177
11.4509
12.1225
12.8344
13.589
14.3879
15.2333
16.128
17.0748
18.0769
19.1368
20.2552
21.4375
22.6884
24.0122
25.4135
26.8972
28.4686
30.1331
31.8961
33.7629
35.7392
37.8312
40.0443
42.3841
44.8564
47.4674
50.2233
53.1303
56.1946
59.4223
62.8194
66.3919
70.1455
74.0861
78.2191
82.5498
87.0831
91.8237
96.7756
101.942
107.327
112.933
118.761
124.812
131.087
137.586
144.307
151.249
158.408
165.781
173.364
181.15
189.134
197.307
205.663
214.192
222.884
231.729
240.714
249.829
259.058
268.39
277.81
287.303
296.852
306.443
316.059
325.682
335.296
344.882
354.422
363.898
373.294
382.589
391.766
400.806
409.692
418.404
426.927
435.241
443.331
451.178
458.768
466.082
473.106
479.823
486.221
492.284
497.999
503.353
508.334
512.932
517.137
520.941
524.338
527.325
529.897
532.053
533.792
535.113
536.016
536.497
536.543
536.163
535.318
534.049
532.358
530.248
527.725
524.799
521.478
517.773
513.695
509.258
504.475
499.36
493.927
488.191
482.168
475.874
469.325
462.539
455.536
448.334
440.957
433.427
425.769
418.008
410.172
402.288
394.385
386.493
378.637
370.847
363.148
355.561
348.106
340.795
333.632
326.618
319.749
313.017
306.409
299.905
293.481
287.11
280.766
274.426
268.071
261.689
255.277
248.834
242.369
235.894
229.427
222.992
216.617
210.334
204.175
198.177
192.335
186.567
19.9657
9.50204
7.27479
6.50967
6.2353
6.18711
6.26933
6.43994
6.67691
6.96798
7.30525
7.68407
8.1018
8.55703
9.0493
9.57904
10.1463
10.7517
11.3969
12.0836
12.8141
13.5905
14.4122
15.2844
16.2108
17.1954
18.2422
19.3557
20.54
21.7998
23.1402
24.5667
26.0851
27.7014
29.4217
31.2526
33.2006
35.2723
37.4746
39.8147
42.2992
44.9354
47.7306
50.6924
53.8288
57.1472
60.6544
64.3568
68.2607
72.3724
76.6976
81.2421
86.011
91.0093
96.2411
101.71
107.42
113.372
119.569
126.011
132.698
139.63
146.805
154.22
161.872
169.756
177.867
186.198
194.743
203.493
212.439
221.572
230.88
240.352
249.975
259.736
269.621
279.616
289.705
299.872
310.102
320.377
330.68
340.992
351.297
361.576
371.81
381.979
392.065
402.05
411.913
421.637
431.203
440.592
449.787
458.769
467.521
476.027
484.269
492.232
499.9
507.256
514.287
520.979
527.317
533.29
538.884
544.088
548.89
553.281
557.251
560.793
563.901
566.572
568.804
570.595
571.945
572.856
573.329
573.345
572.922
572.004
570.635
568.814
566.543
563.827
560.674
557.091
553.091
548.682
543.878
538.692
533.138
527.23
520.983
514.413
507.536
500.368
492.927
485.231
477.301
469.158
460.826
452.331
443.7
434.962
426.148
417.289
408.421
399.576
390.789
382.093
373.521
365.101
356.86
348.817
340.98
333.352
325.934
318.72
311.697
304.846
298.138
291.542
285.027
278.565
272.13
265.707
259.284
252.852
246.418
239.984
233.562
227.171
220.834
214.578
208.428
202.419
196.543
190.736
19.7947
9.46454
7.24741
6.47573
6.18959
6.13145
6.20715
6.37446
6.61057
6.90327
7.24491
7.63076
8.05842
8.52673
9.03525
9.58386
10.1714
10.8009
11.4748
12.1958
12.9669
13.7916
14.6737
15.617
16.6261
17.7061
18.8622
20.1005
21.4268
22.8473
24.3687
25.998
27.7427
29.6103
31.6088
33.7465
36.0314
38.4717
41.0752
43.8491
46.8021
49.9437
53.2827
56.8288
60.5926
64.5834
68.8064
73.267
77.9702
82.9212
88.1243
93.5836
99.3024
105.284
111.529
118.039
124.815
131.855
139.159
146.723
154.544
162.619
170.94
179.503
188.3
197.323
206.563
216.011
225.656
235.486
245.489
255.654
265.965
276.408
286.97
297.634
308.384
319.204
330.077
340.986
351.912
362.839
373.746
384.617
395.432
406.173
416.821
427.356
437.759
448.011
458.094
467.99
477.68
487.148
496.376
505.347
514.045
522.456
530.564
538.354
545.812
552.924
559.677
566.059
572.059
577.665
582.869
587.658
592.023
595.955
599.446
602.489
605.08
607.215
608.892
610.114
610.874
611.183
611.034
610.419
609.312
607.734
605.683
603.162
600.17
596.714
592.802
588.444
583.649
578.43
572.799
566.769
560.354
553.571
546.433
538.958
531.161
523.06
514.671
506.015
497.113
487.988
478.666
469.176
459.547
449.809
439.999
430.153
420.311
410.513
400.794
391.197
381.761
372.522
363.505
354.723
346.212
337.981
330.036
322.373
314.982
307.841
300.916
294.172
287.568
281.071
274.648
268.277
261.937
255.615
249.29
242.973
236.671
230.396
224.165
218.001
211.925
205.966
200.114
194.331
19.4649
9.38292
7.18328
6.41235
6.12978
6.07795
6.16341
6.34316
6.5944
6.90475
7.26464
7.67227
8.12641
8.62681
9.17408
9.76977
10.416
11.115
11.8703
12.6859
13.5661
14.5164
15.5425
16.6503
17.8464
19.1379
20.5323
22.038
23.6633
25.4173
27.3092
29.3486
31.5456
33.9104
36.4531
39.184
42.1131
45.2501
48.6044
52.1847
56.0002
60.0602
64.3736
68.9488
73.794
78.9214
84.3327
90.0284
96.0093
102.276
108.828
115.664
122.782
130.181
137.856
145.802
154.015
162.488
171.215
180.187
189.396
198.833
208.487
218.349
228.408
238.651
249.066
259.64
270.361
281.214
292.185
303.259
314.423
325.658
336.951
348.285
359.643
371.01
382.367
393.698
404.985
416.212
427.36
438.411
449.349
460.156
470.814
481.305
491.611
501.715
511.6
521.25
530.647
539.777
548.625
557.176
565.416
573.333
580.914
588.146
595.017
601.516
607.631
613.352
618.673
623.585
628.079
632.147
635.78
638.973
641.717
644.005
645.835
647.206
648.107
648.558
648.523
648.06
647.08
645.649
643.741
641.352
638.482
635.131
631.298
626.992
622.219
616.991
611.317
605.21
598.682
591.747
584.417
576.71
568.639
560.222
551.477
542.419
533.065
523.437
513.556
503.447
493.14
482.665
472.051
461.334
450.552
439.747
428.945
418.19
407.54
397.048
386.76
376.727
367.003
357.623
348.579
339.886
331.545
323.558
315.914
308.589
301.547
294.744
288.136
281.68
275.342
269.092
262.904
256.756
250.637
244.546
238.471
232.413
226.385
220.392
214.465
208.629
202.871
197.182
19.0593
9.22798
7.08734
6.34835
6.09197
6.06528
6.17569
6.38078
6.66218
7.00959
7.41775
7.884
8.40797
8.9908
9.63488
10.3437
11.1214
11.9731
12.9045
13.9221
15.0334
16.247
17.5721
19.0184
20.5963
22.3167
24.1915
26.233
28.4537
30.8665
33.4842
36.3196
39.3855
42.6945
46.2582
50.0874
54.1924
58.5827
63.266
68.2488
73.5369
79.136
85.0503
91.2827
97.8371
104.715
111.912
119.418
127.222
135.316
143.691
152.337
161.243
170.4
179.795
189.418
199.257
209.299
219.533
229.945
240.525
251.258
262.132
273.135
284.253
295.474
306.784
318.171
329.619
341.118
352.652
364.209
375.773
387.331
398.869
410.373
421.828
433.22
444.534
455.755
466.867
477.857
488.709
499.408
509.939
520.286
530.437
540.374
550.083
559.547
568.753
577.686
586.333
594.68
602.715
610.427
617.805
624.837
631.515
637.828
643.766
649.319
654.479
659.238
663.592
667.537
671.066
674.169
676.842
679.082
680.882
682.228
683.131
683.584