/*--------------------------------*- C++ -*----------------------------------*\
  =========                 |
  \\      /  F ield         | OpenFOAM: The Open Source CFD Toolbox
   \\    /   O peration     | Website:  https://openfoam.org
    \\  /    A nd           | Version:  8
     \\/     M anipulation  |
\*---------------------------------------------------------------------------*/
FoamFile
{
    version     2.0;
    format      ascii;
    class       volScalarField;
    location    "185";
    object      k;
}
// * * * * * * * * * * * * * * * * * * * * * * * * * * * * * * * * * * * * * //

dimensions      [0 2 -2 0 0 0 0];

internalField   nonuniform List<scalar> 
12225
(
0.362825
0.343999
0.327742
0.309825
0.295392
0.283493
0.275499
0.270288
0.27034
0.271895
0.276053
0.280731
0.289876
0.295686
0.306841
0.312797
0.325893
0.323783
0.440272
0.468738
0.461615
0.448373
0.450348
0.458321
0.474511
0.4986
0.524376
0.552189
0.580768
0.606251
0.633942
0.653992
0.679993
0.693329
0.718971
0.724918
0.390407
0.417859
0.420243
0.41683
0.411634
0.407804
0.408015
0.41004
0.414546
0.421417
0.430738
0.439735
0.45123
0.461188
0.472956
0.483654
0.493811
0.50628
0.377043
0.387169
0.391466
0.391343
0.39026
0.387885
0.385658
0.384082
0.38288
0.382898
0.383359
0.384387
0.386292
0.388475
0.390944
0.39429
0.396629
0.40111
0.374434
0.376094
0.378427
0.378666
0.378275
0.377202
0.375487
0.373738
0.372009
0.370455
0.369256
0.36811
0.367383
0.36681
0.36645
0.366356
0.366383
0.366748
0.373779
0.372704
0.372659
0.372365
0.371772
0.370819
0.369553
0.368083
0.366571
0.364976
0.363527
0.362062
0.360755
0.35953
0.358397
0.357431
0.356447
0.355798
0.373775
0.37174
0.370388
0.369284
0.368235
0.367114
0.365915
0.364587
0.363238
0.361807
0.360421
0.359023
0.357677
0.356381
0.35512
0.353966
0.352794
0.351806
0.373818
0.371559
0.369635
0.367976
0.366501
0.365108
0.363775
0.362429
0.361107
0.359766
0.35845
0.357143
0.355862
0.354621
0.353399
0.352248
0.351096
0.350051
0.373832
0.371553
0.369449
0.367525
0.365777
0.364153
0.362645
0.361199
0.359817
0.358473
0.357169
0.355902
0.354666
0.353474
0.352306
0.351194
0.350095
0.349071
0.373831
0.37156
0.369418
0.367405
0.365529
0.363773
0.362133
0.360585
0.359122
0.357727
0.356394
0.355117
0.353887
0.352709
0.351568
0.35048
0.349418
0.348419
0.373829
0.37156
0.369413
0.367378
0.365458
0.363645
0.361937
0.360324
0.358798
0.357352
0.355979
0.354672
0.353424
0.352234
0.351093
0.350007
0.348958
0.347968
0.373828
0.371558
0.369409
0.367371
0.365439
0.363609
0.361876
0.360234
0.358677
0.357201
0.355799
0.354468
0.3532
0.351994
0.350841
0.349746
0.348694
0.3477
0.373827
0.371556
0.369405
0.367365
0.36543
0.363594
0.361851
0.360197
0.358626
0.357134
0.355715
0.354367
0.353084
0.351864
0.3507
0.349594
0.348535
0.347531
0.373826
0.371555
0.369401
0.36736
0.365422
0.363583
0.361837
0.360178
0.3586
0.357101
0.355674
0.354317
0.353024
0.351794
0.350622
0.349506
0.34844
0.347427
0.373826
0.371553
0.369398
0.367355
0.365416
0.363575
0.361826
0.360164
0.358584
0.357081
0.355651
0.35429
0.352993
0.351758
0.35058
0.349459
0.348388
0.347369
0.373826
0.371552
0.369396
0.367351
0.36541
0.363568
0.361817
0.360154
0.358572
0.357067
0.355634
0.354271
0.352972
0.351734
0.350554
0.34943
0.348357
0.347334
0.373825
0.371551
0.369394
0.367348
0.365406
0.363562
0.36181
0.360145
0.358562
0.357055
0.355621
0.354256
0.352956
0.351717
0.350535
0.349409
0.348334
0.347309
0.373825
0.371551
0.369393
0.367346
0.365403
0.363558
0.361805
0.360139
0.358555
0.357047
0.355612
0.354246
0.352944
0.351704
0.350521
0.349393
0.348318
0.347291
0.373825
0.37155
0.369393
0.367346
0.365402
0.363557
0.361804
0.360137
0.358552
0.357044
0.355608
0.354241
0.352939
0.351697
0.350514
0.349385
0.348309
0.347282
0.373825
0.371551
0.369393
0.367347
0.365404
0.363559
0.361806
0.36014
0.358555
0.357047
0.355612
0.354245
0.352942
0.351701
0.350518
0.349389
0.348313
0.347286
0.373825
0.371551
0.369395
0.367349
0.365407
0.363563
0.361811
0.360146
0.358562
0.357056
0.355622
0.354256
0.352955
0.351716
0.350535
0.349408
0.348334
0.347308
0.373826
0.371553
0.369397
0.367352
0.365412
0.363571
0.361822
0.360162
0.358584
0.357083
0.355657
0.354299
0.353007
0.351776
0.350603
0.349484
0.348418
0.347399
0.373826
0.371554
0.369399
0.36736
0.365429
0.363603
0.361875
0.36024
0.358691
0.357221
0.355823
0.354494
0.353228
0.352019
0.350866
0.349763
0.348711
0.347701
0.373828
0.371551
0.369412
0.367417
0.365556
0.36382
0.36219
0.360651
0.359189
0.357794
0.356457
0.355172
0.353936
0.352746
0.351601
0.350496
0.349437
0.348411
0.373823
0.371554
0.369605
0.367893
0.366339
0.364892
0.363495
0.362122
0.360761
0.359414
0.358081
0.35677
0.355489
0.354238
0.35303
0.351856
0.350735
0.349646
0.373781
0.37199
0.371113
0.370266
0.36936
0.368312
0.367048
0.36563
0.364121
0.362575
0.361031
0.359523
0.358074
0.356682
0.355382
0.354142
0.35301
0.351924
0.374297
0.375564
0.377778
0.377858
0.377291
0.375886
0.373835
0.371641
0.369505
0.367482
0.365664
0.364084
0.36271
0.361535
0.36061
0.359818
0.359289
0.3588
0.378732
0.394394
0.398293
0.396566
0.392559
0.387608
0.383642
0.380455
0.378266
0.376851
0.376496
0.376749
0.377398
0.378696
0.380441
0.38242
0.384824
0.387134
0.408344
0.427539
0.422424
0.41105
0.402226
0.397923
0.398556
0.401115
0.405983
0.413035
0.420992
0.429823
0.438828
0.448184
0.457297
0.466543
0.47531
0.484169
0.366033
0.353412
0.341988
0.33021
0.318982
0.308382
0.299409
0.291674
0.285403
0.280333
0.276681
0.273866
0.272309
0.271182
0.271174
0.271518
0.272152
0.273382
0.0021701
0.00986301
0.0171987
0.0242178
0.0315511
0.0392209
0.047245
0.0555382
0.063965
0.0723491
0.0805365
0.0883755
0.0957508
0.102545
0.108659
0.113978
0.118392
0.121768
0.123989
0.124871
0.124443
0.122459
0.119747
0.117261
0.120662
0.125437
0.129813
0.134579
0.140352
0.145745
0.147165
0.157988
0.152827
0.146053
0.145669
0.156297
0.162307
0.170703
0.178341
0.186538
0.194754
0.203192
0.211768
0.220517
0.22942
0.238492
0.247719
0.257118
0.266674
0.276403
0.28629
0.296351
0.306569
0.31696
0.327507
0.338226
0.349097
0.360135
0.371319
0.382666
0.394151
0.405789
0.417557
0.429468
0.441496
0.453655
0.465916
0.478293
0.490756
0.503317
0.515945
0.528652
0.541404
0.554214
0.567045
0.579909
0.592768
0.605632
0.618465
0.631272
0.644019
0.656708
0.669303
0.681805
0.694175
0.706409
0.718468
0.730342
0.741991
0.753398
0.764533
0.775388
0.785998
0.796392
0.806455
0.816251
0.825736
0.834917
0.843771
0.852292
0.860463
0.868277
0.875722
0.882792
0.889478
0.895774
0.901674
0.907173
0.91227
0.91696
0.921245
0.925123
0.928599
0.931674
0.934355
0.936646
0.938554
0.940089
0.941262
0.942088
0.942568
0.942693
0.942413
0.941617
0.940548
0.9399
0.939091
0.938221
0.936322
0.934933
0.932942
0.930909
0.928738
0.926348
0.923848
0.922174
0.919169
0.91665
0.914853
0.912286
0.910585
0.909297
0.906807
0.905363
0.904195
0.902073
0.900997
0.899083
0.89754
0.895926
0.894367
0.892331
0.890002
0.887481
0.884704
0.881462
0.87773
0.873472
0.868601
0.862868
0.856577
0.849508
0.841598
0.839087
0.837821
0.835925
0.833112
0.829406
0.824766
0.81924
0.812844
0.805502
0.79726
0.788225
0.778455
0.767775
0.756169
0.74254
0.729782
0.685925
0.00852239
0.0266836
0.0383129
0.0474159
0.0557654
0.0640804
0.0726023
0.0813513
0.0902411
0.0991367
0.107902
0.116409
0.124557
0.132254
0.139424
0.145989
0.151883
0.15704
0.161428
0.165069
0.168208
0.17147
0.176285
0.18489
0.193858
0.20209
0.210863
0.220073
0.229735
0.238393
0.245068
0.256857
0.269554
0.279948
0.290616
0.30322
0.315922
0.329308
0.342937
0.356905
0.371173
0.385754
0.400639
0.415832
0.431331
0.447142
0.463264
0.479704
0.496463
0.513547
0.530956
0.548696
0.566765
0.585171
0.603909
0.622986
0.642397
0.662147
0.682229
0.702646
0.723391
0.744466
0.765859
0.787573
0.809593
0.83192
0.854537
0.877442
0.900617
0.924058
0.947745
0.971669
0.99581
1.02016
1.04469
1.06938
1.09422
1.11919
1.14425
1.16939
1.19458
1.21979
1.245
1.27017
1.29526
1.32025
1.3451
1.36975
1.39418
1.41832
1.44212
1.4655
1.48835
1.51065
1.53256
1.55404
1.57506
1.5956
1.61562
1.63511
1.65401
1.67232
1.69
1.70703
1.72339
1.73906
1.75401
1.76823
1.78171
1.79444
1.80641
1.81761
1.82805
1.83771
1.84661
1.85476
1.86215
1.86881
1.87475
1.87999
1.88457
1.88849
1.89178
1.89446
1.89661
1.8983
1.89961
1.90039
1.90092
1.90115
1.90089
1.90023
1.89948
1.89858
1.89758
1.89643
1.89478
1.89384
1.89309
1.89246
1.89221
1.89224
1.89224
1.89245
1.89308
1.8938
1.89509
1.89633
1.89748
1.89875
1.9001
1.90099
1.90134
1.90129
1.90098
1.89996
1.89801
1.89496
1.89068
1.88499
1.8777
1.86902
1.85855
1.84682
1.83328
1.81761
1.79975
1.77979
1.75783
1.73399
1.70841
1.68101
1.65198
1.6216
1.59008
1.55743
1.52354
1.48879
1.45756
1.39175
0.0165051
0.0425791
0.0572505
0.0683916
0.0783224
0.0878609
0.0973579
0.106937
0.116601
0.126284
0.135902
0.145371
0.154624
0.163608
0.172293
0.180666
0.188741
0.196564
0.20424
0.211961
0.220036
0.228878
0.238895
0.250109
0.261653
0.273351
0.285411
0.297842
0.310587
0.323516
0.336891
0.351955
0.367485
0.382865
0.3986
0.414969
0.431732
0.448935
0.466533
0.484517
0.50288
0.521623
0.540743
0.560242
0.580122
0.600386
0.621036
0.642077
0.663509
0.685337
0.707564
0.730191
0.75322
0.776653
0.800489
0.824729
0.849372
0.874418
0.899861
0.925701
0.951932
0.97855
1.00555
1.03292
1.06065
1.08875
1.11718
1.14595
1.17504
1.20444
1.23413
1.26409
1.29431
1.32477
1.35544
1.3863
1.41733
1.44851
1.47981
1.51119
1.54263
1.5741
1.60556
1.63698
1.66832
1.69954
1.7306
1.76145
1.79206
1.82237
1.85235
1.88195
1.91112
1.93985
1.9681
1.99585
2.02305
2.04966
2.07563
2.10093
2.12552
2.14936
2.17242
2.19465
2.21604
2.23654
2.25615
2.27482
2.29255
2.30931
2.32509
2.33989
2.3537
2.36651
2.37833
2.38917
2.39903
2.40792
2.41588
2.42291
2.42906
2.43433
2.43878
2.44242
2.44532
2.44752
2.44909
2.45005
2.45052
2.45044
2.44969
2.44829
2.44689
2.44528
2.4435
2.4415
2.43937
2.43736
2.43545
2.43368
2.43216
2.43095
2.42984
2.42846
2.42764
2.42705
2.42691
2.4268
2.42631
2.42565
2.42509
2.42422
2.42289
2.42102
2.41846
2.41495
2.41027
2.40418
2.3965
2.38703
2.37554
2.36211
2.34668
2.32916
2.30933
2.28702
2.26224
2.23506
2.20563
2.17407
2.14057
2.10523
2.06826
2.02993
1.99048
1.94998
1.90855
1.8671
1.82831
1.76959
0.0247701
0.0571198
0.074661
0.0876501
0.0989323
0.109517
0.119866
0.130186
0.140555
0.150972
0.161403
0.171801
0.182129
0.192363
0.202503
0.212567
0.222601
0.232679
0.242908
0.253435
0.264437
0.276091
0.288508
0.301649
0.315294
0.329364
0.343891
0.358909
0.374437
0.390497
0.407181
0.424616
0.442582
0.460934
0.479699
0.4989
0.51851
0.538541
0.558993
0.579865
0.60116
0.622879
0.645025
0.667601
0.690609
0.714054
0.737939
0.762269
0.787045
0.812274
0.837956
0.864096
0.890694
0.917753
0.945273
0.973254
1.0017
1.0306
1.05996
1.08977
1.12003
1.15074
1.18188
1.21345
1.24545
1.27785
1.31066
1.34385
1.37742
1.41135
1.44561
1.4802
1.5151
1.55027
1.58571
1.62138
1.65726
1.69332
1.72953
1.76586
1.80228
1.83875
1.87523
1.91169
1.94809
1.98438
2.02052
2.05646
2.09217
2.12759
2.16269
2.19741
2.2317
2.26553
2.29884
2.33158
2.36371
2.39517
2.42591
2.45589
2.48506
2.51336
2.54076
2.56722
2.59269
2.61713
2.64052
2.66283
2.68402
2.70407
2.72298
2.74071
2.75727
2.77264
2.78683
2.79983
2.81167
2.82234
2.83186
2.84027
2.84757
2.85381
2.85902
2.86324
2.8665
2.86888
2.87043
2.87119
2.87117
2.87035
2.86869
2.86659
2.86413
2.86131
2.85817
2.85473
2.85109
2.84736
2.84362
2.83991
2.83632
2.83287
2.82943
2.82606
2.82291
2.81993
2.81716
2.81435
2.8114
2.80833
2.80509
2.80151
2.79743
2.7927
2.78713
2.78049
2.77254
2.76304
2.75177
2.73854
2.72317
2.70563
2.68589
2.66378
2.63916
2.61194
2.58214
2.54983
2.51517
2.4783
2.43942
2.39872
2.35642
2.31281
2.26818
2.22284
2.17712
2.13201
2.08902
2.03468
0.0327429
0.0704794
0.0906762
0.105429
0.118006
0.129586
0.140732
0.15173
0.162724
0.173774
0.184893
0.196075
0.20731
0.218596
0.229946
0.241389
0.252974
0.264767
0.276851
0.28932
0.302277
0.315811
0.329973
0.344761
0.36013
0.376051
0.392524
0.409561
0.42717
0.445364
0.464151
0.483527
0.503439
0.523843
0.544716
0.566045
0.587819
0.610041
0.632718
0.655853
0.679453
0.70352
0.72806
0.753078
0.778579
0.804567
0.831048
0.858026
0.885506
0.913494
0.941991
0.971004
1.00053
1.03058
1.06115
1.09225
1.12386
1.156
1.18866
1.22184
1.25552
1.28972
1.32442
1.35962
1.3953
1.43145
1.46807
1.50514
1.54265
1.58058
1.61891
1.65762
1.6967
1.73612
1.77584
1.81586
1.85614
1.89664
1.93735
1.97821
2.0192
2.06028
2.10141
2.14255
2.18365
2.22467
2.26556
2.30627
2.34676
2.38698
2.42686
2.46637
2.50543
2.544
2.58201
2.61942
2.65615
2.69216
2.72738
2.76176
2.79523
2.82776
2.85927
2.88972
2.91906
2.94725
2.97425
3
3.0245
3.04769
3.06956
3.09009
3.10926
3.12706
3.14348
3.15853
3.17221
3.18452
3.19548
3.2051
3.21342
3.22046
3.22626
3.23085
3.23429
3.23662
3.23789
3.23807
3.23716
3.23538
3.23277
3.22945
3.22552
3.22104
3.21603
3.21061
3.20482
3.19878
3.19257
3.18625
3.1799
3.17353
3.16715
3.16079
3.15451
3.14832
3.14219
3.13604
3.12977
3.12336
3.11672
3.10972
3.1022
3.094
3.08493
3.07475
3.06323
3.05015
3.03529
3.01846
2.9995
2.97832
2.95483
2.92891
2.90042
2.8693
2.83557
2.7993
2.76065
2.71977
2.67687
2.63217
2.58594
2.53847
2.49011
2.44127
2.39242
2.34456
2.29847
2.24579
0.0402003
0.0825003
0.105092
0.121485
0.135291
0.147824
0.159733
0.171366
0.182924
0.194518
0.206205
0.218016
0.229967
0.242076
0.254366
0.266871
0.279635
0.292712
0.306163
0.320055
0.33445
0.349403
0.364949
0.381102
0.397861
0.415219
0.433173
0.451722
0.470866
0.490602
0.510923
0.531816
0.55326
0.575237
0.597727
0.620717
0.644202
0.668182
0.69266
0.717642
0.743132
0.769138
0.795666
0.822721
0.85031
0.87844
0.907118
0.936349
0.966141
0.996499
1.02743
1.05893
1.09102
1.12369
1.15695
1.1908
1.22524
1.26027
1.29589
1.3321
1.3689
1.40628
1.44424
1.48276
1.52184
1.56148
1.60165
1.64234
1.68355
1.72524
1.76741
1.81003
1.85309
1.89654
1.94038
1.98456
2.02907
2.07386
2.1189
2.16415
2.20958
2.25514
2.3008
2.3465
2.39219
2.43784
2.48338
2.52877
2.57394
2.61885
2.66343
2.70762
2.75135
2.79457
2.8372
2.87918
2.92044
2.96093
3.00056
3.03929
3.07703
3.11372
3.14931
3.18373
3.21692
3.24883
3.27941
3.3086
3.33638
3.3627
3.38752
3.41082
3.43259
3.45279
3.47142
3.48847
3.50395
3.51784
3.53016
3.54093
3.55017
3.5579
3.56415
3.56898
3.57243
3.57452
3.57521
3.57453
3.57269
3.56973
3.56572
3.56077
3.55497
3.54839
3.54109
3.53316
3.52469
3.51577
3.5065
3.49696
3.48721
3.47731
3.46728
3.45718
3.44706
3.43692
3.42678
3.41657
3.40627
3.3958
3.38512
3.37409
3.36258
3.35042
3.33744
3.32342
3.30814
3.2914
3.27299
3.25272
3.23043
3.20599
3.17928
3.15017
3.11853
3.0843
3.0475
3.00819
2.9665
2.9226
2.8767
2.82904
2.7799
2.7296
2.67853
2.62714
2.576
2.52602
2.47758
2.42503
0.0469556
0.093047
0.11773
0.135591
0.15052
0.163942
0.176568
0.188796
0.20087
0.21294
0.225103
0.237418
0.24993
0.262672
0.275678
0.288984
0.302632
0.316667
0.331136
0.346087
0.361562
0.3776
0.394226
0.411457
0.429301
0.447759
0.466831
0.486514
0.506806
0.527701
0.549193
0.571271
0.593925
0.617143
0.640916
0.665236
0.6901
0.715507
0.741462
0.76797
0.795036
0.822669
0.850875
0.879663
0.909041
0.939017
0.9696
1.0008
1.03262
1.06507
1.09816
1.13189
1.16628
1.20132
1.23702
1.27339
1.31043
1.34813
1.38651
1.42555
1.46527
1.50564
1.54668
1.58837
1.63069
1.67366
1.71724
1.76143
1.80621
1.85156
1.89746
1.94389
1.99083
2.03824
2.08611
2.13439
2.18305
2.23207
2.28139
2.33099
2.38081
2.43082
2.48095
2.53118
2.58144
2.63167
2.68183
2.73186
2.78168
2.83125
2.88049
2.92933
2.97771
3.02554
3.07276
3.1193
3.16508
3.21003
3.25407
3.29713
3.33913
3.37999
3.41966
3.45805
3.4951
3.53074
3.56491
3.59756
3.62863
3.65808
3.68586
3.71195
3.7363
3.7589
3.77972
3.79876
3.816
3.83144
3.84509
3.85694
3.86702
3.87535
3.88196
3.88689
3.89019
3.89179
3.89176
3.89012
3.88709
3.88268
3.87698
3.87007
3.86205
3.85299
3.84299
3.83213
3.82051
3.80823
3.79539
3.78208
3.76838
3.75436
3.74008
3.72561
3.71101
3.6963
3.68152
3.66665
3.65168
3.63657
3.62126
3.60568
3.58969
3.57317
3.55595
3.53786
3.51869
3.49825
3.47634
3.45279
3.42741
3.40005
3.37056
3.3388
3.30464
3.268
3.22887
3.1873
3.14341
3.09736
3.04935
2.99962
2.94845
2.89619
2.84324
2.79008
2.7373
2.68572
2.63549
2.58245
0.052874
0.102035
0.128481
0.147602
0.163515
0.177737
0.191019
0.203796
0.216342
0.228839
0.241409
0.254141
0.267097
0.280328
0.293876
0.307782
0.322086
0.336827
0.352043
0.367771
0.384043
0.400887
0.418324
0.436368
0.455029
0.474312
0.494218
0.514748
0.535899
0.557669
0.580053
0.603046
0.626643
0.650838
0.675628
0.701011
0.726984
0.753553
0.780719
0.808491
0.836876
0.865882
0.895519
0.925796
0.956724
0.988312
1.02057
1.05351
1.08715
1.12148
1.15653
1.19229
1.22879
1.26602
1.30399
1.34272
1.38219
1.42242
1.46341
1.50516
1.54766
1.59092
1.63493
1.67968
1.72516
1.77137
1.81829
1.8659
1.91419
1.96313
2.01272
2.06291
2.11369
2.16503
2.21689
2.26924
2.32204
2.37526
2.42884
2.48276
2.53695
2.59137
2.64598
2.7007
2.7555
2.8103
2.86505
2.91968
2.97412
3.02831
3.08217
3.13563
3.18861
3.24102
3.2928
3.34385
3.39411
3.44349
3.49189
3.53925
3.58548
3.63049
3.67421
3.71655
3.75743
3.79678
3.83453
3.87061
3.90496
3.93753
3.96825
3.9971
4.02402
4.04899
4.07198
4.09297
4.11194
4.12889
4.1438
4.15667
4.16752
4.17637
4.18324
4.18818
4.19114
4.19214
4.19123
4.18853
4.1841
4.17802
4.17038
4.16124
4.15072
4.13889
4.12585
4.1117
4.09655
4.08049
4.06365
4.04612
4.02799
4.00937
3.99033
3.97096
3.95133
3.93152
3.91156
3.89148
3.87131
3.85102
3.83061
3.81002
3.78916
3.76794
3.74622
3.72387
3.7007
3.67654
3.65121
3.62451
3.59628
3.56632
3.53448
3.50057
3.46445
3.42603
3.38526
3.34217
3.29685
3.24944
3.20012
3.14912
3.09673
3.04329
2.9892
2.93496
2.88112
2.82843
2.77686
2.7232
0.057868
0.109436
0.137311
0.157473
0.174218
0.189131
0.202994
0.216265
0.229239
0.242116
0.255043
0.268123
0.281436
0.295046
0.309003
0.323351
0.33813
0.353377
0.369125
0.385405
0.402241
0.419658
0.437671
0.456296
0.475542
0.495416
0.515921
0.537061
0.558837
0.581248
0.604295
0.627977
0.652292
0.677242
0.702825
0.729045
0.755905
0.78341
0.811568
0.840386
0.869874
0.900043
0.930905
0.962471
0.994753
1.02777
1.06152
1.09603
1.13131
1.16736
1.20421
1.24186
1.28033
1.31962
1.35974
1.4007
1.4425
1.48516
1.52867
1.57303
1.61825
1.66432
1.71124
1.759
1.80759
1.85699
1.90721
1.95821
2.00998
2.0625
2.11574
2.16968
2.22429
2.27953
2.33537
2.39177
2.4487
2.50609
2.56392
2.62213
2.68066
2.73947
2.7985
2.85769
2.91697
2.97629
3.03557
3.09474
3.15372
3.21246
3.27086
3.32885
3.38634
3.44324
3.49948
3.55496
3.60959
3.6633
3.71597
3.76754
3.8179
3.86696
3.91463
3.96082
4.00545
4.04843
4.08968
4.12911
4.16667
4.20228
4.23588
4.26742
4.29685
4.32413
4.34923
4.37211
4.39275
4.41113
4.42723
4.44106
4.45261
4.46189
4.46892
4.47375
4.47627
4.47659
4.47472
4.47078
4.4648
4.45689
4.4471
4.43554
4.42229
4.40745
4.39112
4.3734
4.35441
4.33427
4.31309
4.29098
4.26806
4.24444
4.22022
4.19552
4.17044
4.14506
4.11947
4.09373
4.0679
4.04201
4.01607
3.99009
3.96403
3.93783
3.91139
3.88462
3.85736
3.82947
3.80076
3.77107
3.74019
3.70794
3.67411
3.63851
3.60097
3.56135
3.51958
3.47565
3.42962
3.3816
3.33173
3.28024
3.22738
3.17349
3.11896
3.06427
3.00995
2.95663
2.9042
2.85004
0.0618967
0.115276
0.144265
0.165253
0.182673
0.198159
0.212516
0.226216
0.239565
0.252777
0.26601
0.279381
0.29298
0.30688
0.321137
0.3358
0.350909
0.3665
0.382604
0.399249
0.416457
0.434249
0.452641
0.471647
0.491278
0.511542
0.532446
0.553997
0.576199
0.599056
0.622571
0.646748
0.671591
0.697105
0.723292
0.750161
0.777719
0.805975
0.834939
0.864622
0.895038
0.926199
0.95812
0.990815
1.0243
1.05859
1.0937
1.12964
1.16644
1.2041
1.24264
1.28207
1.32241
1.36367
1.40586
1.44899
1.49307
1.53809
1.58407
1.63101
1.67891
1.72777
1.77757
1.82832
1.88
1.9326
1.9861
2.04048
2.09573
2.15182
2.20872
2.2664
2.32483
2.38397
2.44377
2.5042
2.56522
2.62677
2.6888
2.75125
2.81408
2.87721
2.94059
3.00416
3.06784
3.13156
3.19526
3.25884
3.32225
3.38539
3.44818
3.51054
3.57237
3.63359
3.69411
3.75382
3.81265
3.87049
3.92725
3.98282
4.03712
4.09004
4.14148
4.19135
4.23955
4.28599
4.33057
4.3732
4.41382
4.45233
4.48867
4.52277
4.55458
4.58405
4.61114
4.6358
4.658
4.67772
4.69493
4.70961
4.72177
4.73139
4.73849
4.74307
4.74511
4.74467
4.74175
4.73644
4.7288
4.71891
4.70686
4.69272
4.67659
4.65857
4.63877
4.61729
4.59426
4.5698
4.54404
4.5171
4.4891
4.46019
4.43049
4.40013
4.36924
4.33795
4.30637
4.27461
4.24276
4.21092
4.17914
4.14747
4.11593
4.08451
4.05317
4.02184
3.99041
3.95876
3.92674
3.89416
3.86084
3.82656
3.79109
3.75422
3.71574
3.67547
3.6333
3.58919
3.54313
3.49521
3.44553
3.39428
3.34168
3.28806
3.23377
3.17926
3.12501
3.07158
3.01877
2.96444
0.0649632
0.119633
0.149446
0.171059
0.189
0.20494
0.219696
0.233749
0.247412
0.260904
0.27439
0.287994
0.301813
0.315925
0.33039
0.34526
0.360578
0.376379
0.392695
0.409551
0.426971
0.444974
0.463576
0.482794
0.502641
0.523126
0.544262
0.566056
0.588518
0.611655
0.635476
0.659988
0.6852
0.711119
0.737755
0.76512
0.793225
0.822084
0.851711
0.882121
0.91333
0.945356
0.978214
1.01192
1.0465
1.08197
1.11834
1.15564
1.19388
1.23308
1.27325
1.31442
1.3566
1.3998
1.44403
1.48931
1.53564
1.58303
1.63149
1.68101
1.7316
1.78325
1.83596
1.88971
1.94451
2.00032
2.05713
2.11492
2.17366
2.23333
2.29389
2.35531
2.41755
2.48056
2.54431
2.60874
2.6738
2.73944
2.8056
2.87222
2.93923
3.00658
3.07418
3.14198
3.2099
3.27786
3.34577
3.41357
3.48117
3.54848
3.61542
3.68189
3.7478
3.81306
3.87757
3.94123
4.00395
4.06562
4.12615
4.18543
4.24336
4.29983
4.35475
4.408
4.45948
4.50909
4.55674
4.60232
4.64574
4.68692
4.72577
4.76223
4.79622
4.82769
4.85659
4.88286
4.90648
4.92739
4.94557
4.96099
4.97363
4.98348
4.99054
4.99481
4.99629
4.99501
4.99093
4.98416
4.97476
4.96281
4.94839
4.93158
4.91248
4.89118
4.8678
4.84244
4.81524
4.78632
4.75582
4.72388
4.69063
4.65623
4.62084
4.5846
4.54767
4.51023
4.47241
4.43437
4.39626
4.35821
4.32034
4.28275
4.24553
4.20871
4.17231
4.1363
4.10064
4.06522
4.02991
3.99456
3.95896
3.92289
3.88611
3.84836
3.80939
3.76898
3.72699
3.6833
3.63788
3.59074
3.54196
3.49167
3.44006
3.3874
3.33402
3.28032
3.22673
3.17373
3.12107
3.06701
0.0671041
0.122624
0.153
0.175052
0.193369
0.209645
0.224702
0.239026
0.25293
0.266639
0.280317
0.294092
0.308064
0.322314
0.336906
0.351892
0.367318
0.383219
0.399627
0.416568
0.434067
0.452145
0.470821
0.490113
0.510035
0.530604
0.551834
0.573736
0.596325
0.619613
0.643612
0.668334
0.693794
0.720002
0.746974
0.774724
0.803271
0.832632
0.862828
0.893877
0.925799
0.958616
0.992349
1.02702
1.06265
1.09925
1.13686
1.17549
1.21517
1.25591
1.29773
1.34065
1.38469
1.42986
1.47618
1.52365
1.57229
1.62211
1.6731
1.72527
1.77862
1.83313
1.88881
1.94564
2.0036
2.06268
2.12284
2.18408
2.24634
2.30961
2.37384
2.43899
2.50502
2.57188
2.63951
2.70787
2.77689
2.84651
2.91667
2.9873
3.05834
3.1297
3.20132
3.27312
3.34502
3.41694
3.48879
3.56048
3.63194
3.70307
3.77379
3.84399
3.91358
3.98246
4.05054
4.11772
4.18389
4.24895
4.31281
4.37535
4.43647
4.49606
4.55401
4.61022
4.66457
4.71696
4.76728
4.81543
4.8613
4.90481
4.94585
4.98436
5.02025
5.05345
5.08391
5.11157
5.13637
5.15828
5.17725
5.19323
5.20621
5.21616
5.22306
5.22693
5.22773
5.22554
5.2202
5.21189
5.20067
5.1866
5.16976
5.15022
5.12808
5.10345
5.07643
5.04714
5.01571
4.98227
4.94697
4.90995
4.87137
4.83139
4.7902
4.74797
4.7049
4.66117
4.61698
4.57253
4.52801
4.4836
4.43949
4.39583
4.35277
4.31043
4.26886
4.22811
4.18816
4.14897
4.11043
4.0724
4.03469
3.99707
3.95927
3.92099
3.88196
3.84192
3.80064
3.75797
3.71381
3.66814
3.62096
3.57233
3.52241
3.47142
3.41963
3.36739
3.31506
3.26305
3.21112
3.15784
0.0684251
0.124415
0.155102
0.177425
0.195981
0.212475
0.227733
0.242239
0.256307
0.270159
0.283963
0.297845
0.311906
0.326225
0.340867
0.355888
0.371331
0.387235
0.403634
0.420557
0.438029
0.456076
0.474719
0.493978
0.513875
0.534427
0.555653
0.577572
0.600201
0.623558
0.647658
0.67252
0.698159
0.724591
0.751836
0.779917
0.808859
0.838687
0.869424
0.901095
0.933725
0.967339
1.00196
1.03762
1.07433
1.11213
1.15104
1.19108
1.23227
1.27465
1.31821
1.363
1.40902
1.45629
1.50482
1.55463
1.60572
1.65809
1.71176
1.76671
1.82294
1.88045
1.93921
1.99922
2.06045
2.12287
2.18646
2.25119
2.31701
2.38389
2.45178
2.52063
2.5904
2.66101
2.73243
2.80457
2.87739
2.9508
3.02475
3.09915
3.17393
3.24901
3.32431
3.39975
3.47524
3.55071
3.62605
3.70119
3.77603
3.85048
3.92444
3.99783
4.07055
4.14249
4.21356
4.28365
4.35268
4.42054
4.48712
4.55231
4.61602
4.67813
4.73854
4.79712
4.85378
4.90841
4.96088
5.01109
5.05894
5.10432
5.14713
5.18728
5.22468
5.25927
5.29096
5.31969
5.34541
5.36805
5.38757
5.40391
5.41703
5.4269
5.4335
5.43683
5.43686
5.43362
5.42694
5.41703
5.40392
5.38768
5.36838
5.34609
5.32091
5.29294
5.26228
5.22906
5.19341
5.15546
5.11537
5.07329
5.02938
4.98384
4.93686
4.88864
4.8394
4.78938
4.73879
4.68789
4.63692
4.5861
4.53569
4.48591
4.43697
4.38905
4.34228
4.29675
4.25252
4.20959
4.16788
4.12729
4.08765
4.04871
4.01019
3.97175
3.93307
3.89386
3.85382
3.81276
3.77049
3.72694
3.68204
3.63578
3.58826
3.53964
3.49013
3.44
3.38956
3.33917
3.28856
3.23662
0.0688656
0.125
0.155878
0.17835
0.197033
0.213641
0.229004
0.243605
0.257758
0.271681
0.285538
0.299454
0.31353
0.327844
0.342464
0.357445
0.372831
0.388665
0.40498
0.42181
0.439183
0.457128
0.475672
0.494839
0.514653
0.535139
0.556322
0.578224
0.600868
0.624277
0.64847
0.67347
0.699297
0.725969
0.753498
0.781935
0.811315
0.841666
0.873018
0.9054
0.938843
0.973373
1.00902
1.04581
1.08378
1.12295
1.16334
1.205
1.24793
1.29216
1.33771
1.3846
1.43285
1.48247
1.53347
1.58586
1.63964
1.69482
1.75138
1.80934
1.86866
1.92934
1.99136
2.05469
2.11931
2.18517
2.25225
2.32051
2.38989
2.46035
2.53183
2.60428
2.67764
2.75185
2.82683
2.90252
2.97884
3.05572
3.13308
3.21085
3.28893
3.36725
3.44573
3.52427
3.6028
3.68121
3.75943
3.83735
3.91489
3.99195
4.06846
4.1443
4.21938
4.29361
4.3669
4.43913
4.51023
4.58009
4.6486
4.71567
4.7812
4.84506
4.90717
4.9674
5.02566
5.08182
5.13578
5.18742
5.23664
5.28332
5.32735
5.36863
5.40707
5.44259
5.4751
5.50453
5.53081
5.55386
5.57364
5.59007
5.6031
5.61269
5.61879
5.62139
5.62057
5.61613
5.60802
5.59643
5.58139
5.56295
5.54117
5.51614
5.48793
5.45664
5.4224
5.38531
5.3455
5.30312
5.25832
5.21126
5.16213
5.11112
5.05844
5.00433
4.94903
4.8928
4.8359
4.77864
4.72128
4.66412
4.60747
4.55161
4.49674
4.44306
4.3909
4.34044
4.29181
4.24506
4.20021
4.15718
4.11581
4.07586
4.03701
3.99891
3.96118
3.92344
3.88537
3.84668
3.80713
3.76644
3.72451
3.68132
3.6369
3.59136
3.54483
3.49751
3.44962
3.40147
3.35282
3.30284
0.0687178
0.124757
0.155608
0.178077
0.196761
0.213373
0.228739
0.243339
0.257484
0.271393
0.285227
0.299112
0.313144
0.327404
0.341957
0.356858
0.372156
0.387891
0.404101
0.420822
0.438087
0.455927
0.474375
0.493458
0.513206
0.533649
0.554814
0.576732
0.599432
0.622946
0.647297
0.672513
0.698623
0.725661
0.753621
0.782583
0.812586
0.843667
0.875863
0.909212
0.943746
0.979493
1.01648
1.05475
1.09432
1.13523
1.17751
1.22118
1.26626
1.31277
1.36074
1.41016
1.46106
1.51345
1.56732
1.62268
1.67953
1.73786
1.79766
1.85891
1.92159
1.98568
2.05114
2.11794
2.18605
2.25541
2.32599
2.39773
2.47058
2.54448
2.61936
2.69516
2.77181
2.84925
2.92739
3.00616
3.08548
3.16528
3.24546
3.32595
3.40665
3.4875
3.56839
3.64924
3.72996
3.81047
3.89067
3.97047
4.04978
4.12852
4.20659
4.2839
4.36037
4.4359
4.5104
4.58377
4.65594
4.7268
4.79627
4.86424
4.93062
4.9953
5.05818
5.11916
5.17813
5.235
5.28964
5.34194
5.39179
5.43907
5.48367
5.52547
5.56438
5.6003
5.63314
5.66282
5.68924
5.71234
5.73203
5.74824
5.76091
5.76996
5.77535
5.77703
5.77523
5.76942
5.7598
5.74646
5.72944
5.70877
5.68452
5.65676
5.62557
5.59104
5.55329
5.51243
5.46859
5.42191
5.37255
5.32069
5.26649
5.21018
5.15199
5.09218
5.03101
4.96877
4.9057
4.84205
4.77824
4.71464
4.65164
4.5896
4.5289
4.47002
4.41306
4.35823
4.30572
4.25565
4.20807
4.16296
4.12018
4.07951
4.04062
4.00311
3.96657
3.93058
3.89473
3.85869
3.82219
3.78505
3.74698
3.70778
3.66741
3.62576
3.58293
3.5391
3.49444
3.44921
3.40317
3.3558
0.0681907
0.123962
0.154555
0.176878
0.195444
0.211949
0.227216
0.24172
0.255772
0.269586
0.283321
0.297101
0.311022
0.325162
0.339589
0.354358
0.36952
0.385119
0.401196
0.417791
0.434944
0.452693
0.471077
0.490133
0.509902
0.530417
0.551717
0.573845
0.596842
0.620758
0.645596
0.671391
0.698178
0.725985
0.754813
0.784766
0.815902
0.848264
0.88189
0.916813
0.953066
0.990684
1.0297
1.07014
1.11204
1.15544
1.20037
1.24684
1.29487
1.34445
1.39559
1.44831
1.5026
1.55846
1.61588
1.67485
1.73535
1.79737
1.86087
1.92582
1.9922
2.05997
2.12907
2.19948
2.27112
2.34395
2.41792
2.49296
2.569
2.64599
2.72385
2.8025
2.88188
2.96191
3.04251
3.1236
3.2051
3.28692
3.36899
3.45121
3.53351
3.6158
3.698
3.78001
3.86176
3.94316
4.02412
4.10456
4.18439
4.26354
4.3419
4.41941
4.49599
4.57154
4.64598
4.71923
4.79122
4.86185
4.93105
4.99872
5.06478
5.12913
5.19166
5.2523
5.31095
5.3675
5.42186
5.47389
5.5235
5.57055
5.61494
5.65654
5.69525
5.73094
5.76353
5.79291
5.819
5.84169
5.86088
5.87649
5.88844
5.89665
5.90106
5.9016
5.89854
5.8912
5.87992
5.86471
5.84561
5.82265
5.79588
5.76538
5.73121
5.69347
5.65226
5.60769
5.55991
5.50903
5.45515
5.39847
5.3392
5.27757
5.21385
5.1483
5.08122
5.01296
4.94396
4.87457
4.80505
4.73581
4.66727
4.59989
4.53419
4.4702
4.40844
4.34927
4.29293
4.23962
4.18946
4.14247
4.09858
4.05755
4.01906
3.98269
3.94797
3.91439
3.88151
3.84891
3.81625
3.7833
3.74941
3.71453
3.67856
3.64147
3.60324
3.5638
3.52321
3.4816
3.43882
3.3947
0.0670194
0.122175
0.152396
0.174458
0.192801
0.209102
0.22418
0.23851
0.252402
0.26607
0.279673
0.29333
0.307137
0.321176
0.335515
0.350214
0.365327
0.380907
0.397001
0.413658
0.430924
0.448843
0.467465
0.486845
0.507049
0.52809
0.550012
0.572866
0.596689
0.621498
0.647322
0.674243
0.702326
0.731636
0.762232
0.794161
0.827472
0.862208
0.898407
0.936102
0.975321
1.01609
1.05844
1.10238
1.14794
1.19513
1.24395
1.29442
1.34651
1.40023
1.45557
1.5125
1.57101
1.63109
1.69269
1.75579
1.82035
1.88634
1.95372
2.02243
2.09243
2.16368
2.2361
2.30965
2.38428
2.4599
2.53648
2.61392
2.69218
2.77118
2.85085
2.93112
3.01191
3.09314
3.17475
3.25665
3.33877
3.42104
3.50336
3.58566
3.66787
3.74991
3.83169
3.91314
3.99418
4.07474
4.15475
4.23412
4.31277
4.39064
4.46764
4.5437
4.61877
4.69275
4.76557
4.83716
4.90747
4.97641
5.04392
5.10992