/*--------------------------------*- C++ -*----------------------------------*\
  =========                 |
  \\      /  F ield         | OpenFOAM: The Open Source CFD Toolbox
   \\    /   O peration     | Website:  https://openfoam.org
    \\  /    A nd           | Version:  8
     \\/     M anipulation  |
\*---------------------------------------------------------------------------*/
FoamFile
{
    version     2.0;
    format      ascii;
    class       volScalarField;
    location    "185";
    object      nut;
}
// * * * * * * * * * * * * * * * * * * * * * * * * * * * * * * * * * * * * * //

dimensions      [0 2 -1 0 0 0 0];

internalField   nonuniform List<scalar> 
12225
(
4.14965e-05
3.93425e-05
3.74829e-05
3.54337e-05
3.37831e-05
3.24222e-05
3.1508e-05
3.09119e-05
3.09177e-05
3.10976e-05
3.1569e-05
3.21129e-05
3.31508e-05
3.38077e-05
3.51087e-05
3.5681e-05
3.76085e-05
3.56792e-05
0.000332342
0.000215212
0.000179285
0.000157674
0.000146212
0.000138207
0.000132715
0.000131683
0.000129477
0.000130096
0.000129019
0.000129468
0.000128639
0.000128582
0.000128055
0.000127455
0.000127433
0.000126491
0.000674987
0.000450824
0.000355785
0.00030983
0.000275287
0.000251096
0.000231698
0.000217281
0.000202638
0.000192145
0.000182581
0.000175214
0.000169346
0.000163661
0.000160275
0.000155517
0.000153774
0.000149796
0.000833628
0.000684899
0.00057199
0.000499968
0.000449451
0.000411963
0.00038075
0.000356015
0.000333973
0.000314787
0.000298287
0.00028171
0.000270267
0.000256032
0.000248151
0.000236095
0.000230311
0.000220357
0.000861259
0.000802525
0.000742126
0.000676586
0.000623987
0.000581385
0.000545845
0.000514564
0.000489492
0.000464427
0.000445829
0.000424051
0.000409899
0.00039076
0.000379822
0.000363021
0.000354371
0.000339392
0.00085498
0.000840348
0.000822203
0.000786499
0.000750852
0.000715907
0.000685746
0.000656131
0.000632532
0.000607507
0.000588976
0.000567222
0.00055225
0.000533053
0.000520722
0.000503656
0.000493205
0.000477373
0.000852908
0.000850686
0.000844239
0.000832829
0.000817407
0.000797003
0.00077788
0.000756734
0.000738891
0.000719135
0.000703519
0.000685599
0.000672096
0.000655886
0.000644258
0.00062947
0.000619429
0.000605061
0.000851922
0.000851814
0.000850172
0.000847396
0.000841451
0.000833727
0.000824894
0.000813413
0.000802803
0.000790463
0.000779706
0.000767525
0.000757406
0.000745757
0.000736505
0.000725486
0.000717096
0.000705975
0.00085175
0.000851542
0.000851034
0.000850339
0.00084888
0.000846167
0.000843034
0.000838303
0.0008334
0.000827357
0.000821211
0.000814764
0.000808398
0.000801511
0.00079522
0.000788391
0.000782136
0.000775215
0.000851769
0.00085139
0.000851046
0.000850633
0.000850248
0.000849368
0.000848405
0.00084678
0.000844955
0.000842528
0.000839921
0.000836795
0.000833788
0.000830144
0.000826959
0.000822912
0.000819882
0.000815276
0.000851787
0.000851359
0.000851012
0.000850613
0.000850329
0.000849905
0.000849526
0.000848928
0.000848303
0.000847392
0.000846464
0.000845175
0.000843987
0.000842348
0.000840991
0.000839025
0.000837631
0.000835351
0.000851789
0.000851359
0.000850996
0.000850605
0.000850292
0.000849938
0.000849646
0.00084928
0.000848955
0.000848504
0.000848098
0.000847507
0.000846996
0.000846242
0.000845639
0.000844717
0.000844054
0.000842971
0.000851786
0.000851363
0.000850986
0.000850604
0.000850269
0.000849926
0.00084963
0.000849313
0.000849042
0.000848728
0.000848462
0.000848125
0.000847843
0.000847465
0.000847155
0.000846724
0.000846385
0.0008459
0.000851783
0.000851364
0.000850978
0.000850602
0.000850256
0.000849916
0.000849607
0.0008493
0.000849022
0.00084874
0.000848488
0.000848224
0.000847988
0.000847734
0.000847508
0.000847257
0.000847033
0.000846783
0.000851781
0.000851364
0.000850973
0.000850598
0.000850246
0.000849909
0.000849592
0.000849286
0.000849
0.000848723
0.000848463
0.000848211
0.000847975
0.000847745
0.000847528
0.000847316
0.000847115
0.00084692
0.00085178
0.000851363
0.000850969
0.000850594
0.000850239
0.000849901
0.00084958
0.000849275
0.000848984
0.000848707
0.000848443
0.000848191
0.000847951
0.000847721
0.000847503
0.000847293
0.000847093
0.000846902
0.000851779
0.000851362
0.000850967
0.000850591
0.000850234
0.000849895
0.000849572
0.000849265
0.000848973
0.000848694
0.000848429
0.000848175
0.000847933
0.000847702
0.000847481
0.00084727
0.000847068
0.000846875
0.000851779
0.000851362
0.000850965
0.000850588
0.000850231
0.00084989
0.000849567
0.000849259
0.000848965
0.000848685
0.000848418
0.000848164
0.00084792
0.000847688
0.000847465
0.000847253
0.000847049
0.000846855
0.000851779
0.000851362
0.000850965
0.000850588
0.00085023
0.000849889
0.000849565
0.000849256
0.000848962
0.000848682
0.000848414
0.000848158
0.000847914
0.000847681
0.000847457
0.000847244
0.00084704
0.000846844
0.000851779
0.000851362
0.000850966
0.000850589
0.000850231
0.000849891
0.000849568
0.000849259
0.000848965
0.000848685
0.000848417
0.000848162
0.000847917
0.000847684
0.00084746
0.000847247
0.000847041
0.000846845
0.000851779
0.000851363
0.000850967
0.000850592
0.000850235
0.000849897
0.000849573
0.000849267
0.000848973
0.000848694
0.000848424
0.000848169
0.00084792
0.000847684
0.000847451
0.000847232
0.000847013
0.000846807
0.000851778
0.000851366
0.000850968
0.000850599
0.00085024
0.000849907
0.00084958
0.000849274
0.000848965
0.000848671
0.000848365
0.000848072
0.000847757
0.000847456
0.000847123
0.000846812
0.000846458
0.000846136
0.000851777
0.000851374
0.000850972
0.000850615
0.000850241
0.00084989
0.000849478
0.000849054
0.00084853
0.000847978
0.000847301
0.000846605
0.000845767
0.00084494
0.000843955
0.00084303
0.000841918
0.00084094
0.000851802
0.00085141
0.00085097
0.000850549
0.000849861
0.000848967
0.000847607
0.00084598
0.000843904
0.000841636
0.000838955
0.000836215
0.000833117
0.000830114
0.000826764
0.000823681
0.000820185
0.000817179
0.000852138
0.000851403
0.000850234
0.000848253
0.000844472
0.000839356
0.000832712
0.000825764
0.000817914
0.000810002
0.000801617
0.000793628
0.000785333
0.000777708
0.000769745
0.000762702
0.000755126
0.000748797
0.000854142
0.000847718
0.000840126
0.000827123
0.000808708
0.000789647
0.000769973
0.000751418
0.000733305
0.000716896
0.000700935
0.000686782
0.000672832
0.000660673
0.000648381
0.000637944
0.000626957
0.000618024
0.00085497
0.000818336
0.00077623
0.000726635
0.000684939
0.000649858
0.000618461
0.000592023
0.000568383
0.000548313
0.00052969
0.000513995
0.000498752
0.00048602
0.000473206
0.000462712
0.000451627
0.00044281
0.000807487
0.00066688
0.000570552
0.000509855
0.000465649
0.000431195
0.000404134
0.000382502
0.000364195
0.000349068
0.000335942
0.00032508
0.000314482
0.00030625
0.000297965
0.000291371
0.000284285
0.000278936
0.000501854
0.000348405
0.00029269
0.000259174
0.000236323
0.000221177
0.000211544
0.000204016
0.00019848
0.00019506
0.000192218
0.000190368
0.000188582
0.00018744
0.000186165
0.000185474
0.000184554
0.000184143
7.27285e-05
7.02231e-05
6.79539e-05
6.56136e-05
6.33827e-05
6.12765e-05
5.94929e-05
5.79572e-05
5.67102e-05
5.57028e-05
5.49773e-05
5.44181e-05
5.41082e-05
5.38866e-05
5.38762e-05
5.39612e-05
5.40707e-05
5.43211e-05
6.66492e-07
1.38529e-05
2.41438e-05
3.39737e-05
4.42739e-05
5.50563e-05
6.63523e-05
7.80237e-05
8.98867e-05
0.00010167
0.000113159
0.000124112
0.000134358
0.00014368
0.000151903
0.00015878
0.000164091
0.000167584
0.000169125
0.000168503
0.000166113
0.00016221
0.000160211
0.000165333
0.000172093
0.000179893
0.000187697
0.000197748
0.000208235
0.000214206
4.78144e-05
0.000246483
0.000243405
0.000211785
4.72752e-05
4.84996e-05
4.95437e-05
5.08102e-05
5.18997e-05
5.30772e-05
5.42065e-05
5.53515e-05
5.64835e-05
5.76161e-05
5.8742e-05
5.98669e-05
6.09861e-05
6.21045e-05
6.32176e-05
6.43304e-05
6.54378e-05
6.65452e-05
6.76472e-05
6.87491e-05
6.98457e-05
7.0942e-05
7.20327e-05
7.31227e-05
7.42067e-05
7.52897e-05
7.6366e-05
7.74404e-05
7.85077e-05
7.95724e-05
8.06291e-05
8.16823e-05
8.27265e-05
8.37662e-05
8.47959e-05
8.58199e-05
8.68329e-05
8.78389e-05
8.88329e-05
8.98185e-05
9.07908e-05
9.17533e-05
9.27011e-05
9.36375e-05
9.4558e-05
9.54655e-05
9.63557e-05
9.72311e-05
9.80877e-05
9.89276e-05
9.97467e-05
0.000100547
0.000101324
0.000102079
0.000102808
0.000103512
0.00010419
0.000104842
0.000105472
0.000106078
0.000106659
0.000107215
0.000107744
0.000108249
0.000108726
0.000109176
0.000109599
0.000109993
0.000110359
0.000110697
0.000111005
0.000111285
0.000111536
0.000111757
0.000111948
0.000112111
0.000112244
0.000112348
0.000112423
0.00011247
0.000112489
0.000112479
0.000112442
0.000112378
0.000112287
0.000112171
0.000112028
0.000111859
0.000111656
0.000111417
0.000111202
0.000110899
0.000110836
0.000110585
0.000110354
0.000110154
0.0001098
0.000109461
0.000109084
0.000108655
0.000108184
0.000107849
0.00010739
0.000106995
0.000106678
0.000106215
0.000105907
0.000105688
0.000105098
0.000104814
0.000104691
0.000104183
0.000104077
0.000103658
0.000103414
0.000103133
0.000102929
0.000102701
0.000102445
0.000102179
0.000101941
0.000101685
0.000101415
0.000101134
0.000100862
0.000100521
0.000100139
9.98655e-05
9.8723e-05
9.82759e-05
9.81929e-05
9.81132e-05
9.79794e-05
9.77987e-05
9.75572e-05
9.72492e-05
9.69031e-05
9.64861e-05
9.59923e-05
9.54232e-05
9.48122e-05
9.41182e-05
9.33422e-05
9.24474e-05
9.15339e-05
8.86307e-05
2.63425e-06
4.38018e-05
9.07022e-05
0.000123165
0.000145473
0.000162862
0.000178056
0.000192363
0.000206279
0.000219864
0.000232973
0.000245366
0.000256775
0.000266902
0.000275436
0.000282061
0.000286507
0.000288637
0.000288601
0.000285592
0.000280452
0.000274533
0.000269687
0.000276887
0.000280911
0.000283116
0.000294344
0.000290981
0.000293776
0.000286372
0.000278854
0.000331825
0.000319132
0.000295326
0.000274635
0.00028252
0.000289915
0.000297389
0.000305183
0.000313023
0.000320996
0.000329058
0.000337202
0.000345421
0.000353709
0.000362066
0.000370489
0.000378983
0.000387547
0.000396186
0.0004049
0.000413695
0.000422572
0.000431534
0.000440583
0.000449725
0.000458958
0.000468287
0.000477711
0.000487233
0.000496853
0.000506572
0.000516389
0.000526305
0.000536316
0.000546425
0.000556625
0.000566917
0.000577296
0.00058776
0.000598304
0.000608924
0.000619614
0.000630371
0.000641187
0.000652057
0.000662972
0.000673927
0.000684911
0.00069592
0.000706943
0.000717973
0.000729
0.000740014
0.000751006
0.000761964
0.000772873
0.000783718
0.000794473
0.0008051
0.000815524
0.000825616
0.000835141
0.00084401
0.00085278
0.000861354
0.000869749
0.000877948
0.000885943
0.000893721
0.000901273
0.000908587
0.000915653
0.000922463
0.000929008
0.00093528
0.000941273
0.00094698
0.000952397
0.000957518
0.000962341
0.000966863
0.000971083
0.000975
0.000978614
0.000981929
0.000984945
0.000987667
0.000990105
0.000992272
0.000994188
0.000995877
0.000997372
0.000998695
0.000999757
0.00100018
0.00100113
0.00100135
0.00100217
0.0010025
0.00100241
0.00100201
0.0010015
0.00100076
0.000999872
0.00099883
0.000997852
0.000997276
0.00099654
0.000995949
0.00099545
0.000995055
0.000994322
0.000994109
0.000994477
0.000994257
0.000995216
0.000995749
0.000996574
0.000997153
0.000998365
0.000999931
0.00100096
0.00100184
0.00100305
0.0010042
0.00100519
0.00100593
0.0010065
0.00100675
0.00100629
0.00100617
0.00100281
0.000996247
0.000988429
0.000979694
0.000970127
0.000959788
0.000948748
0.000936952
0.000924588
0.00091145
0.000897781
0.000883574
0.000869055
0.000854022
0.000838087
0.000822028
0.00080489
0.000758232
5.10528e-06
6.72469e-05
0.000137505
0.000191299
0.00023081
0.00026021
0.000283207
0.000302379
0.000319312
0.000334852
0.000349348
0.000362848
0.000375225
0.00038625
0.000395651
0.000403149
0.000408525
0.000411692
0.000412759
0.000413241
0.000414282
0.000417483
0.000425385
0.000436471
0.000448976
0.000462448
0.000476508
0.000487499
0.000498107
0.00050835
0.000520527
0.000537676
0.000543281
0.000547004
0.000554886
0.000569822
0.000585424
0.000601215
0.000617188
0.000633296
0.000649551
0.000665935
0.000682445
0.000699077
0.000715832
0.00073271
0.000749715
0.000766851
0.000784124
0.000801538
0.000819099
0.000836812
0.000854681
0.000872711
0.000890905
0.000909265
0.000927795
0.000946495
0.000965368
0.000984412
0.00100363
0.00102301
0.00104257
0.00106228
0.00108216
0.0011022
0.00112239
0.00114272
0.00116319
0.00118379
0.00120451
0.00122535
0.00124629
0.00126731
0.00128842
0.00130959
0.00133082
0.00135208
0.00137337
0.00139467
0.00141596
0.00143722
0.00145843
0.00147958
0.00150063
0.00152157
0.00154236
0.00156297
0.00158333
0.0016034
0.00162308
0.00164228
0.00166092
0.0016791
0.00169696
0.00171446
0.0017316
0.00174834
0.00176466
0.00178054
0.00179596
0.00181089
0.00182532
0.00183922
0.00185258
0.00186538
0.00187761
0.00188926
0.0019003
0.00191074
0.00192056
0.00192976
0.00193833
0.00194628
0.00195359
0.00196028
0.00196635
0.00197181
0.00197667
0.00198096
0.00198469
0.00198791
0.00199064
0.00199286
0.00199451
0.00199552
0.00199644
0.0019968
0.00199714
0.00199687
0.00199594
0.00199413
0.00199246
0.00199056
0.00198852
0.00198631
0.00198426
0.00198218
0.00198002
0.001978
0.00197611
0.00197451
0.00197287
0.00197095
0.00196989
0.00196856
0.0019683
0.00196862
0.00196882
0.00196837
0.00196879
0.00196951
0.00197001
0.00197041
0.00197083
0.00197106
0.00197096
0.00197038
0.00196929
0.00196752
0.00196467
0.00196121
0.0019549
0.00194494
0.00193269
0.00191873
0.00190326
0.00188639
0.00186823
0.00184874
0.00182807
0.00180623
0.00178337
0.00175951
0.00173529
0.00171009
0.0016834
0.00165598
0.00162539
0.00155775
7.66666e-06
8.50844e-05
0.000172933
0.000242321
0.000294709
0.000334314
0.000365061
0.000389912
0.000410932
0.000429444
0.000446219
0.00046164
0.000475845
0.000488819
0.000500482
0.000510749
0.000519613
0.000527236
0.000534058
0.000540929
0.000548851
0.000558853
0.000571499
0.000587686
0.000606177
0.000626064
0.000646348
0.000666451
0.000686958
0.00070575
0.000724356
0.000743811
0.000761873
0.000779649
0.000799167
0.000820673
0.000842835
0.000865317
0.000888055
0.000910964
0.000934029
0.000957245
0.000980614
0.00100414
0.00102782
0.00105167
0.00107568
0.00109987
0.00112424
0.0011488
0.00117356
0.00119853
0.0012237
0.00124909
0.0012747
0.00130053
0.00132658
0.00135285
0.00137935
0.00140606
0.00143299
0.00146014
0.0014875
0.00151506
0.00154282
0.00157077
0.0015989
0.00162721
0.00165567
0.00168429
0.00171304
0.00174192
0.00177091
0.00179999
0.00182915
0.00185837
0.00188763
0.00191691
0.00194619
0.00197544
0.00200466
0.0020338
0.00206285
0.00209177
0.00212053
0.0021491
0.00217744
0.00220549
0.00223322
0.00226055
0.00228742
0.00231377
0.00233959
0.00236494
0.00238983
0.00241425
0.00243816
0.00246154
0.00248434
0.00250655
0.00252812
0.00254904
0.00256926
0.00258877
0.00260754
0.00262554
0.00264276
0.00265917
0.00267475
0.00268949
0.00270337
0.00271639
0.00272854
0.00273981
0.0027502
0.00275972
0.00276835
0.00277613
0.00278305
0.00278914
0.00279443
0.00279894
0.0028027
0.00280571
0.00280796
0.00280949
0.00281051
0.00281095
0.00281075
0.00280965
0.00280812
0.0028059
0.00280339
0.0028006
0.0027976
0.00279437
0.00279108
0.00278768
0.00278424
0.0027809
0.00277769
0.00277469
0.0027717
0.00276892
0.00276655
0.00276432
0.00276291
0.00276185
0.00276087
0.00275993
0.00275943
0.00275917
0.00275878
0.00275862
0.00275844
0.00275804
0.00275724
0.00275589
0.00275384
0.00275089
0.00274675
0.00274137
0.00273351
0.00272251
0.00270896
0.00269327
0.00267567
0.00265626
0.00263516
0.00261236
0.00258794
0.00256196
0.00253457
0.00250581
0.00247607
0.00244513
0.00241294
0.00237981
0.00234282
0.00227118
1.01368e-05
9.99992e-05
0.000202386
0.000284692
0.000348351
0.000397136
0.000435179
0.000465717
0.000491146
0.000513145
0.00053283
0.000550903
0.000567776
0.00058368
0.000598743
0.000613064
0.000626766
0.000640064
0.000653323
0.000667096
0.000682076
0.000699009
0.000718142
0.000739093
0.000761773
0.000785654
0.000810048
0.000834434
0.000858493
0.00088303
0.000907999
0.000933381
0.000958901
0.000984716
0.00101125
0.0010385
0.0010661
0.00109392
0.00112186
0.00114997
0.00117825
0.0012067
0.00123533
0.00126415
0.00129316
0.00132236
0.00135177
0.00138138
0.00141119
0.00144123
0.0014715
0.00150201
0.00153277
0.00156378
0.00159504
0.00162655
0.00165832
0.00169034
0.00172261
0.00175512
0.00178787
0.00182087
0.00185408
0.00188752
0.00192117
0.00195503
0.00198907
0.00202329
0.00205767
0.0020922
0.00212686
0.00216164
0.00219652
0.00223147
0.00226649
0.00230155
0.00233662
0.00237169
0.00240672
0.00244171
0.0024766
0.00251139
0.00254604
0.00258051
0.00261477
0.00264879
0.00268252
0.00271592
0.00274894
0.00278155
0.0028137
0.00284536
0.00287652
0.00290717
0.00293729
0.00296686
0.00299584
0.0030242
0.00305189
0.00307889
0.00310515
0.00313065
0.00315534
0.00317919
0.00320218
0.00322426
0.00324542
0.00326562
0.00328485
0.00330307
0.00332028
0.00333645
0.00335158
0.00336566
0.00337867
0.00339062
0.00340151
0.00341134
0.00342013
0.0034279
0.00343466
0.00344044
0.00344528
0.00344917
0.00345215
0.0034543
0.0034556
0.00345609
0.00345585
0.00345477
0.003453
0.00345055
0.00344762
0.00344429
0.0034406
0.00343661
0.00343242
0.00342808
0.00342368
0.00341932
0.00341508
0.003411
0.00340706
0.00340336
0.00340001
0.00339699
0.00339453
0.00339249
0.00339071
0.00338918
0.00338802
0.00338712
0.00338626
0.00338553
0.00338478
0.00338385
0.00338255
0.00338071
0.00337816
0.00337468
0.00336998
0.00336384
0.00335551
0.00334451
0.00333105
0.00331534
0.00329755
0.00327775
0.00325609
0.00323277
0.00320759
0.00318061
0.00315194
0.0031217
0.00309009
0.0030571
0.00302268
0.00298686
0.00294702
0.00287909
1.24464e-05
0.000112507
0.000227078
0.000320561
0.00039432
0.000451639
0.000496748
0.000533063
0.000563212
0.000589137
0.000612229
0.000633449
0.000653446
0.000672655
0.000691378
0.000709839
0.000728235
0.000746774
0.000765701
0.000785316
0.000805952
0.000827913
0.000851343
0.000876173
0.000902266
0.000929354
0.000957121
0.000985321
0.00101385
0.00104282
0.00107227
0.00110214
0.00113236
0.00116295
0.00119394
0.00122529
0.00125691
0.00128874
0.00132073
0.0013529
0.00138525
0.00141779
0.00145051
0.00148343
0.00151656
0.00154989
0.00158345
0.00161724
0.00165128
0.00168556
0.00172008
0.00175485
0.00178987
0.00182514
0.00186066
0.00189644
0.00193247
0.00196874
0.00200526
0.00204202
0.00207902
0.00211624
0.00215368
0.00219133
0.00222918
0.00226722
0.00230543
0.00234381
0.00238233
0.00242099
0.00245976
0.00249863
0.00253759
0.0025766
0.00261566
0.00265473
0.00269381
0.00273286
0.00277187
0.0028108
0.00284963
0.00288833
0.00292687
0.00296522
0.00300335
0.00304123
0.0030788
0.00311605
0.00315292
0.00318939
0.00322542
0.00326099
0.00329605
0.00333059
0.00336458
0.00339799
0.00343078
0.0034629
0.00349433
0.00352501
0.00355491
0.00358399
0.00361221
0.00363953
0.00366591
0.00369132
0.00371572
0.00373907
0.00376136
0.00378254
0.0038026
0.00382151
0.00383925
0.00385582
0.00387119
0.00388536
0.00389833
0.0039101
0.00392068
0.00393007
0.0039383
0.00394539
0.00395135
0.00395622
0.00396001
0.00396288
0.00396471
0.00396572
0.0039656
0.00396459
0.00396276
0.00396018
0.00395696
0.00395321
0.00394898
0.00394434
0.00393938
0.00393419
0.00392886
0.00392352
0.00391823
0.00391307
0.00390807
0.00390331
0.00389888
0.00389482
0.00389124
0.0038881
0.00388536
0.00388299
0.00388104
0.00387943
0.00387806
0.00387689
0.00387579
0.00387463
0.00387322
0.00387141
0.00386899
0.00386574
0.00386139
0.00385566
0.00384806
0.00383824
0.00382619
0.00381197
0.00379566
0.00377731
0.003757
0.0037349
0.00371071
0.00368461
0.0036567
0.00362709
0.00359595
0.00356334
0.00352927
0.00349359
0.00345382
0.00339183
1.4538e-05
0.000122844
0.000247579
0.000350894
0.000433678
0.000499054
0.000551058
0.000593226
0.000628337
0.00065852
0.00068536
0.000710017
0.00073332
0.000755859
0.000778057
0.000800223
0.000822599
0.000845381
0.000868747
0.000892862
0.000917877
0.000943914
0.000971025
0.000999188
0.00102832
0.00105829
0.00108896
0.0011202
0.00115193
0.00118414
0.00121681
0.00124989
0.00128335
0.00131715
0.00135126
0.00138564
0.00142025
0.00145506
0.00149005
0.00152522
0.00156057
0.0015961
0.00163183
0.00166775
0.00170387
0.00174021
0.00177676
0.00181354
0.00185055
0.00188779
0.00192528
0.001963
0.00200097
0.00203918
0.00207763
0.00211633
0.00215526
0.00219444
0.00223385
0.00227349
0.00231335
0.00235343
0.00239372
0.0024342
0.00247487
0.00251572
0.00255673
0.00259789
0.00263919
0.0026806
0.00272213
0.00276374
0.00280543
0.00284717
0.00288895
0.00293074
0.00297253
0.00301429
0.003056
0.00309763
0.00313917
0.00318058
0.00322183
0.00326291
0.00330377
0.00334439
0.00338473
0.00342477
0.00346445
0.00350376
0.00354267
0.00358113
0.00361912
0.0036566
0.00369355
0.00372992
0.00376568
0.00380078
0.00383518
0.00386884
0.00390171
0.00393375
0.00396492
0.00399517
0.00402445
0.00405272
0.00407995
0.00410609
0.00413111
0.00415496
0.00417762
0.00419905
0.00421923
0.00423814
0.00425575
0.00427206
0.00428705
0.00430073
0.00431308
0.00432411
0.00433385
0.00434228
0.00434945
0.00435535
0.00436021
0.00436389
0.00436654
0.00436776
0.00436793
0.00436708
0.00436527
0.00436258
0.0043591
0.00435494
0.00435015
0.00434482
0.00433905
0.00433294
0.00432659
0.00432012
0.00431363
0.0043072
0.00430089
0.0042948
0.004289
0.00428358
0.00427861
0.00427412
0.00427009
0.00426656
0.00426352
0.00426094
0.00425878
0.00425696
0.00425539
0.00425394
0.00425246
0.0042508
0.00424875
0.0042461
0.0042426
0.00423795
0.00423181
0.00422387
0.00421402
0.00420222
0.00418846
0.00417274
0.00415509
0.00413554
0.00411401
0.00409053
0.0040652
0.00403811
0.0040094
0.00397915
0.00394743
0.00391401
0.0038767
0.00382226
1.63705e-05
0.000131189
0.000264289
0.000376338
0.000467095
0.000539959
0.000598609
0.0006466
0.000686788
0.000721411
0.00075219
0.000780421
0.000807063
0.000832821
0.000858205
0.000883586
0.000909237
0.000935359
0.000962102
0.000989576
0.00101786
0.001047
0.001077
0.00110785
0.00113949
0.00117184
0.00120483
0.00123839
0.00127245
0.00130697
0.00134192
0.00137726
0.00141294
0.00144893
0.00148518
0.00152167
0.00155836
0.00159524
0.0016323
0.00166953
0.00170693
0.0017445
0.00178224
0.00182018
0.0018583
0.00189661
0.00193513
0.00197386
0.00201281
0.00205197
0.00209135
0.00213096
0.00217079
0.00221085
0.00225113
0.00229164
0.00233238
0.00237334
0.00241452
0.00245592
0.00249752
0.00253932
0.00258132
0.00262351
0.00266587
0.0027084
0.00275109
0.00279392
0.00283688
0.00287997
0.00292316
0.00296644
0.00300979
0.00305321
0.00309667
0.00314015
0.00318364
0.00322712
0.00327057
0.00331396
0.00335728
0.0034005
0.00344359
0.00348653
0.0035293
0.00357186
0.00361419
0.00365625
0.00369802
0.00373946
0.00378054
0.00382123
0.0038615
0.00390131
0.00394062
0.00397939
0.00401759
0.00405517
0.00409209
0.00412829
0.00416374
0.00419837
0.00423215
0.00426502
0.00429693
0.00432784
0.00435769
0.00438643
0.00441402
0.00444042
0.00446558
0.00448946
0.00451202
0.00453325
0.00455309
0.00457155
0.00458858
0.00460419
0.00461837
0.0046311
0.0046424
0.00465226
0.0046607
0.00466791
0.00467382
0.00467841
0.00468152
0.0046833
0.00468382
0.00468316
0.00468138
0.00467856
0.00467478
0.00467014
0.00466471
0.0046586
0.00465189
0.0046447
0.00463714
0.00462933
0.00462139
0.0046134
0.00460548
0.00459771
0.0045902
0.00458304
0.00457632
0.00457011
0.00456443
0.00455933
0.00455484
0.00455097
0.00454769
0.00454495
0.0045427
0.00454083
0.00453921
0.00453772
0.00453616
0.00453434
0.00453202
0.00452892
0.00452475
0.00451923
0.00451218
0.0045035
0.0044931
0.00448093
0.00446696
0.00445115
0.00443346
0.00441387
0.00439244
0.00436923
0.00434436
0.00431792
0.00428999
0.00426036
0.00422708
0.00418072
1.79175e-05
0.000137701
0.000277522
0.000397044
0.000494899
0.00057464
0.000639583
0.000693231
0.000738453
0.000777542
0.000812296
0.000844102
0.000874009
0.000902804
0.000931062
0.000959205
0.000987539
0.00101628
0.00104559
0.00107554
0.0011062
0.00113759
0.00116971
0.00120253
0.00123601
0.0012701
0.00130475
0.00133992
0.00137554
0.00141158
0.00144801
0.00148478
0.00152186
0.00155921
0.00159679
0.00163457
0.00167252
0.00171063
0.00174889
0.0017873
0.00182586
0.00186457
0.00190344
0.00194246
0.00198165
0.00202102
0.00206056
0.00210029
0.00214022
0.00218033
0.00222065
0.00226117
0.00230189
0.00234282
0.00238396
0.00242532
0.00246688
0.00250865
0.00255062
0.0025928
0.00263518
0.00267776
0.00272052
0.00276347
0.0028066
0.0028499
0.00289335
0.00293696
0.00298072
0.0030246
0.00306861
0.00311272
0.00315694
0.00320123
0.0032456
0.00329002
0.00333449
0.00337897
0.00342346
0.00346794
0.00351239
0.00355679
0.00360111
0.00364533
0.00368944
0.0037334
0.00377719
0.00382078
0.00386414
0.00390724
0.00395005
0.00399254
0.00403468
0.00407642
0.00411773
0.00415857
0.0041989
0.00423866
0.00427782
0.00431632
0.00435411
0.00439114
0.00442736
0.0044627
0.00449712
0.00453055
0.00456294
0.00459423
0.00462436
0.00465329
0.00468095
0.0047073
0.00473229
0.00475588
0.00477803
0.00479869
0.00481786
0.00483549
0.00485158
0.00486612
0.00487908
0.00489047
0.00490038
0.00490896
0.00491595
0.00492138
0.00492522
0.00492758
0.0049285
0.00492806
0.00492632
0.00492335
0.00491923
0.00491405
0.00490791
0.00490089
0.0048931
0.00488466
0.00487569
0.00486632
0.00485667
0.00484685
0.00483699
0.00482721
0.00481762
0.00480835
0.0047995
0.00479117
0.00478344
0.00477638
0.00477006
0.00476453
0.00475978
0.00475583
0.00475265
0.00475016
0.00474828
0.00474691
0.00474589
0.00474503
0.00474411
0.00474288
0.00474106
0.00473838
0.00473462
0.00472961
0.00472322
0.00471532
0.00470584
0.00469469
0.00468179
0.00466709
0.00465059
0.00463233
0.0046124
0.00459088
0.00456784
0.00454307
0.00451491
0.00447671
1.91662e-05
0.000142532
0.000287544
0.00041329
0.000517355
0.000603292
0.000674061
0.000733061
0.000783121
0.000826543
0.000865162
0.000900413
0.00093341
0.000964996
0.000995794
0.00102626
0.00105671
0.00108748
0.00111869
0.00115044
0.00118275
0.00121567
0.00124918
0.00128326
0.00131789
0.00135304
0.00138865
0.0014247
0.00146114
0.00149795
0.00153508
0.00157251
0.00161023
0.00164822
0.00168638
0.00172468
0.00176309
0.00180162
0.00184026
0.00187901
0.00191787
0.00195685
0.00199595
0.00203518
0.00207456
0.00211407
0.00215374
0.00219357
0.00223356
0.00227373
0.00231408
0.00235461
0.00239533
0.00243624
0.00247735
0.00251866
0.00256017
0.00260189
0.00264382
0.00268594
0.00272828
0.00277082
0.00281356
0.00285649
0.00289963
0.00294295
0.00298646
0.00303015
0.00307402
0.00311805
0.00316223
0.00320657
0.00325105
0.00329565
0.00334038
0.00338521
0.00343013
0.00347514
0.00352021
0.00356532
0.00361047
0.00365563
0.00370079
0.00374592
0.00379101
0.00383602
0.00388094
0.00392575
0.0039704
0.00401488
0.00405915
0.00410318
0.00414694
0.00419039
0.00423349
0.0042762
0.00431847
0.00436026
0.00440151
0.00444219
0.00448222
0.00452156
0.00456014
0.0045979
0.00463478
0.00467072
0.00470565
0.0047395
0.00477221
0.00480372
0.00483395
0.00486285
0.00489036
0.00491642
0.00494098
0.00496399
0.00498541
0.0050052
0.00502335
0.00503982
0.0050546
0.00506768
0.00507922
0.00508914
0.00509732
0.0051038
0.00510852
0.00511155
0.00511296
0.00511281
0.00511114
0.00510805
0.00510359
0.00509786
0.00509094
0.00508295
0.00507399
0.00506418
0.00505365
0.00504253
0.00503096
0.00501907
0.00500701
0.00499492
0.00498294
0.00497121
0.00495988
0.00494908
0.00493892
0.00492954
0.00492102
0.00491346
0.00490693
0.00490146
0.00489707
0.00489375
0.00489145
0.0048901
0.00488958
0.00488974
0.00489037
0.00489122
0.00489202
0.0048925
0.00489242
0.00489153
0.00488966
0.00488663
0.0048823
0.00487654
0.0048692
0.0048602
0.00484949
0.00483706
0.00482295
0.00480721
0.00478991
0.00477081
0.00474853
0.00471844
2.01175e-05
0.000145846
0.000294635
0.000425376
0.000534724
0.000626096
0.000702116
0.000766026
0.000820581
0.000868053
0.000910278
0.00094871
0.000984494
0.00101858
0.00105159
0.00108396
0.00111601
0.00114813
0.00118051
0.00121327
0.00124647
0.00128014
0.00131429
0.00134891
0.00138399
0.00141949
0.00145538
0.00149164
0.00152824
0.00156514
0.00160232
0.00163975
0.00167742
0.00171533
0.00175333
0.00179138
0.00182947
0.00186761
0.00190579
0.00194403
0.00198232
0.00202069
0.00205915
0.0020977
0.00213636
0.00217514
0.00221404
0.00225309
0.00229227
0.00233162
0.00237113
0.00241082
0.0024507
0.00249077
0.00253104
0.00257151
0.00261221
0.00265312
0.00269426
0.00273563
0.00277723
0.00281907
0.00286115
0.00290346
0.00294602
0.00298881
0.00303184
0.0030751
0.00311859
0.0031623
0.00320624
0.00325039
0.00329474
0.00333929
0.00338403
0.00342895
0.00347403
0.00351926
0.00356464
0.00361014
0.00365575
0.00370145
0.00374723
0.00379307
0.00383894
0.00388483
0.00393072
0.00397656
0.00402236
0.00406806
0.00411365
0.00415909
0.00420435
0.00424938
0.00429416
0.00433864
0.00438276
0.0044265
0.00446979
0.00451257
0.0045548
0.00459641
0.00463734
0.00467752
0.00471688
0.00475535
0.00479286
0.00482933
0.00486469
0.00489886
0.00493176
0.00496333
0.00499348
0.00502215
0.00504928
0.00507479
0.00509863
0.00512076
0.00514113
0.00515971
0.00517648
0.00519146
0.00520468
0.00521612
0.00522574
0.0052335
0.00523923
0.00524307
0.00524509
0.00524534
0.00524386
0.00524072
0.005236
0.00522976
0.00522211
0.00521316
0.005203
0.00519177
0.0051796
0.00516663
0.00515301
0.0051389
0.00512445
0.00510984
0.00509523
0.00508079
0.0050667
0.00505313
0.00504025
0.00502821
0.00501717
0.00500728
0.00499864
0.00499136
0.00498551
0.00498112
0.00497821
0.00497675
0.00497666
0.00497782
0.00498004
0.00498309
0.0049867
0.00499058
0.00499446
0.00499805
0.00500112
0.00500344
0.00500479
0.00500501
0.00500389
0.00500126
0.00499703
0.00499113
0.00498356
0.00497431
0.00496341
0.00495063
0.00493478
0.00491275
2.07829e-05
0.000147827
0.000299084
0.000433599
0.000547247
0.000643195
0.000723814
0.00079207
0.00085063
0.000901712
0.000947166
0.000988391
0.00102644
0.0010624
0.00109696
0.00113067
0.00116397
0.00119721
0.00123049
0.00126391
0.00129756
0.00133148
0.00136571
0.00140024
0.00143508
0.00147021
0.0015056
0.00154123
0.00157709
0.00161314
0.00164936
0.00168569
0.00172219
0.00175885
0.00179586
0.00183285
0.00186981
0.00190673
0.00194359
0.00198041
0.00201723
0.00205408
0.00209097
0.00212793
0.00216496
0.0022021
0.00223935
0.00227673
0.00231425
0.00235194
0.0023898
0.00242785
0.00246611
0.0025046
0.00254331
0.00258227
0.00262149
0.00266098
0.00270075
0.00274081
0.00278116
0.00282181
0.00286277
0.00290405
0.00294563