/*--------------------------------*- C++ -*----------------------------------*\
  =========                 |
  \\      /  F ield         | OpenFOAM: The Open Source CFD Toolbox
   \\    /   O peration     | Website:  https://openfoam.org
    \\  /    A nd           | Version:  8
     \\/     M anipulation  |
\*---------------------------------------------------------------------------*/
FoamFile
{
    version     2.0;
    format      ascii;
    class       volScalarField;
    location    "185";
    object      p;
}
// * * * * * * * * * * * * * * * * * * * * * * * * * * * * * * * * * * * * * //

dimensions      [0 2 -2 0 0 0 0];

internalField   nonuniform List<scalar> 
12225
(
-1.38967
-3.57761
-4.67751
-4.99806
-5.17921
-5.34809
-5.47949
-5.57444
-5.65082
-5.71793
-5.77757
-5.83196
-5.88111
-5.92654
-5.96839
-6.00142
-6.04224
-6.00258
-4.55205
-5.3208
-5.48124
-5.38889
-5.37623
-5.44395
-5.52135
-5.58689
-5.64629
-5.70345
-5.75772
-5.80816
-5.85542
-5.8996
-5.94156
-5.97723
-6.01848
-6.04133
-4.95268
-4.93843
-5.06577
-5.14404
-5.23882
-5.35886
-5.46592
-5.55058
-5.62218
-5.68727
-5.74704
-5.80152
-5.8521
-5.899
-5.94369
-5.98363
-6.02942
-6.06835
-4.8313
-4.77462
-5.01617
-5.1744
-5.27601
-5.38208
-5.47961
-5.55947
-5.62799
-5.69082
-5.74907
-5.80269
-5.8528
-5.8997
-5.94479
-5.98722
-6.03376
-6.08071
-4.82138
-4.84571
-5.07368
-5.21512
-5.29861
-5.39052
-5.48158
-5.55911
-5.62645
-5.68842
-5.74624
-5.79986
-5.85022
-5.89778
-5.94383
-5.9885
-6.03602
-6.08651
-4.87949
-4.92824
-5.1024
-5.22618
-5.30756
-5.39524
-5.48312
-5.55944
-5.6262
-5.68767
-5.74518
-5.7988
-5.84933
-5.89738
-5.94411
-5.99009
-6.03806
-6.08904
-4.93982
-4.9839
-5.11897
-5.23517
-5.31878
-5.40276
-5.48652
-5.56097
-5.62686
-5.68764
-5.74467
-5.79813
-5.8487
-5.89705
-5.94417
-5.9908
-6.03869
-6.08873
-4.9933
-5.03084
-5.1407
-5.24886
-5.33172
-5.41118
-5.49043
-5.56273
-5.62759
-5.68761
-5.74407
-5.79728
-5.8478
-5.89627
-5.94354
-5.99031
-6.03768
-6.08615
-5.04299
-5.07606
-5.16688
-5.26471
-5.34466
-5.41988
-5.49489
-5.56484
-5.62847
-5.68759
-5.74338
-5.79621
-5.84653
-5.89492
-5.94207
-5.98854
-6.03504
-6.0817
-5.09
-5.11921
-5.19464
-5.28173
-5.35781
-5.42921
-5.50018
-5.56752
-5.62967
-5.68772
-5.74269
-5.79497
-5.8449
-5.89298
-5.93973
-5.98559
-6.03096
-6.07576
-5.13429
-5.15974
-5.22286
-5.29992
-5.37148
-5.43917
-5.50625
-5.5708
-5.63124
-5.68807
-5.74207
-5.79361
-5.84297
-5.8905
-5.93662
-5.98161
-6.02571
-6.0687
-5.17229
-5.1946
-5.24872
-5.31744
-5.38444
-5.44871
-5.5124
-5.57432
-5.63302
-5.68858
-5.74157
-5.79228
-5.84094
-5.8878
-5.93316
-5.9772
-6.02005
-6.06146
-5.20738
-5.22707
-5.27382
-5.3351
-5.39749
-5.45837
-5.51886
-5.57817
-5.63503
-5.68924
-5.74112
-5.7909
-5.83874
-5.8848
-5.92928
-5.97229
-6.0139
-6.05384
-5.24414
-5.26131
-5.30126
-5.35519
-5.41241
-5.46948
-5.5265
-5.58289
-5.63758
-5.69014
-5.74064
-5.78923
-5.83599
-5.88101
-5.92438
-5.96615
-6.00634
-6.04474
-5.28133
-5.2961
-5.33004
-5.37705
-5.42886
-5.48176
-5.53514
-5.58839
-5.64059
-5.69118
-5.74003
-5.78716
-5.83257
-5.87628
-5.9183
-5.95864
-5.9973
-6.03409
-5.31698
-5.32959
-5.35848
-5.39938
-5.44589
-5.49454
-5.54423
-5.59425
-5.64376
-5.69214
-5.73909
-5.78451
-5.82833
-5.87049
-5.91097
-5.94974
-5.98679
-6.02198
-5.34819
-5.35905
-5.38398
-5.41989
-5.46174
-5.50643
-5.55266
-5.59958
-5.6464
-5.69247
-5.73738
-5.78094
-5.823
-5.86349
-5.90232
-5.93946
-5.97488
-6.00853
-5.37059
-5.38024
-5.40249
-5.43494
-5.47338
-5.51501
-5.55846
-5.60283
-5.64733
-5.69129
-5.73428
-5.77603
-5.81638
-5.85519
-5.8924
-5.92796
-5.96185
-5.99404
-5.3773
-5.38646
-5.40768
-5.43883
-5.47592
-5.51621
-5.55828
-5.60125
-5.64436
-5.68694
-5.72854
-5.76891
-5.80786
-5.8453
-5.88114
-5.91536
-5.94796
-5.97895
-5.36112
-5.3709
-5.3935
-5.42659
-5.4656
-5.50731
-5.55029
-5.59383
-5.63723
-5.67984
-5.72124
-5.76122
-5.79965
-5.83646
-5.87161
-5.9051
-5.93693
-5.96717
-5.33424
-5.34504
-5.37031
-5.40734
-5.45012
-5.49465
-5.53975
-5.58501
-5.62967
-5.67305
-5.71486
-5.755
-5.79343
-5.83009
-5.86499
-5.89816
-5.92964
-5.95951
-5.299
-5.31082
-5.34018
-5.38377
-5.43206
-5.48006
-5.52789
-5.57563
-5.6222
-5.66682
-5.70937
-5.74996
-5.78861
-5.82532
-5.86014
-5.89315
-5.92442
-5.95405
-5.25845
-5.27034
-5.3048
-5.35808
-5.41363
-5.4656
-5.5165
-5.56696
-5.6155
-5.66139
-5.70484
-5.74605
-5.78507
-5.82195
-5.8568
-5.88977
-5.92094
-5.95046
-5.21475
-5.22571
-5.26749
-5.33191
-5.3941
-5.45079
-5.50642
-5.5603
-5.61058
-5.65741
-5.70155
-5.74325
-5.78253
-5.81949
-5.85434
-5.88724
-5.91831
-5.9477
-5.16785
-5.17331
-5.23597
-5.31418
-5.37613
-5.43439
-5.49554
-5.55391
-5.60645
-5.65452
-5.69955
-5.74182
-5.78137
-5.81841
-5.85322
-5.88604
-5.91702
-5.94635
-5.12459
-5.08815
-5.19768
-5.30866
-5.37092
-5.42622
-5.48844
-5.54819
-5.60143
-5.65016
-5.69589
-5.7387
-5.77857
-5.8158
-5.85072
-5.88358
-5.91458
-5.94391
-5.13869
-4.9797
-5.10864
-5.26273
-5.35285
-5.42423
-5.49317
-5.5541
-5.60691
-5.65521
-5.7005
-5.74277
-5.78206
-5.81872
-5.85308
-5.88544
-5.91603
-5.94508
-5.26142
-5.08142
-5.09563
-5.1678
-5.25618
-5.35541
-5.44612
-5.51991
-5.58163
-5.63678
-5.6871
-5.73288
-5.77469
-5.81317
-5.84885
-5.88217
-5.91358
-5.9437
-4.96873
-5.56031
-5.64917
-5.52494
-5.47061
-5.49779
-5.54478
-5.58803
-5.6296
-5.6718
-5.71331
-5.75264
-5.7896
-5.82432
-5.85687
-5.8874
-5.91612
-5.94482
-1.98048
-3.74325
-4.74795
-5.0471
-5.19629
-5.33992
-5.45396
-5.53494
-5.59918
-5.65606
-5.70732
-5.75337
-5.79504
-5.83326
-5.86854
-5.90067
-5.92949
-5.95325
-6.87286
-6.87289
-6.87346
-6.87478
-6.87669
-6.8791
-6.88198
-6.88531
-6.88908
-6.89332
-6.89805
-6.90329
-6.9091
-6.91555
-6.92272
-6.93068
-6.93942
-6.94885
-6.95899
-6.96992
-6.98115
-6.99176
-7.00139
-7.0114
-7.02409
-7.04005
-7.05893
-7.08034
-7.10344
-7.12665
-7.14928
-7.17177
-7.19206
-7.21112
-7.23133
-7.25336
-7.27733
-7.30212
-7.32771
-7.35389
-7.38055
-7.40758
-7.43489
-7.46239
-7.48999
-7.51763
-7.54521
-7.57268
-7.59993
-7.6269
-7.65349
-7.67962
-7.70517
-7.73006
-7.75417
-7.7774
-7.79961
-7.8207
-7.8405
-7.8589
-7.87572
-7.89085
-7.90408
-7.91528
-7.92426
-7.93085
-7.93485
-7.93609
-7.93435
-7.92947
-7.9212
-7.90938
-7.89377
-7.8742
-7.85041
-7.82226
-7.78949
-7.75193
-7.70936
-7.66162
-7.60849
-7.54985
-7.48546
-7.41524
-7.33899
-7.25664
-7.16804
-7.07314
-6.97184
-6.86412
-6.75002
-6.62953
-6.5026
-6.36904
-6.22878
-6.08195
-5.92869
-5.76916
-5.60352
-5.43195
-5.25456
-5.07153
-4.88305
-4.68935
-4.49064
-4.28717
-4.07917
-3.86688
-3.65055
-3.43042
-3.20673
-2.97972
-2.74963
-2.51668
-2.28109
-2.04309
-1.80286
-1.56055
-1.3163
-1.07031
-0.822715
-0.573662
-0.32317
-0.071288
0.182029
0.436732
0.692904
0.950538
1.20979
1.4707
1.73349
1.99828
2.26537
2.53493
2.80731
3.08274
3.36162
3.64423
3.93096
4.22209
4.51797
4.81896
5.12547
5.43785
5.75639
6.08135
6.4129
6.75112
7.09594
7.44719
7.80455
8.16753
8.53544
8.90743
9.28241
9.65913
10.0362
10.4119
10.7848
11.1531
11.515
11.8689
12.2131
12.546
12.866
13.1718
13.4621
13.7362
13.9933
14.233
14.4551
14.6598
14.8475
15.019
15.1757
15.3198
15.4559
15.5898
15.7506
15.9349
-6.87019
-6.87081
-6.8717
-6.87273
-6.87373
-6.87485
-6.87633
-6.87832
-6.88087
-6.884
-6.88772
-6.89202
-6.8969
-6.90236
-6.90839
-6.91494
-6.92198
-6.92945
-6.93746
-6.94579
-6.95413
-6.96294
-6.97376
-6.98788
-7.00372
-7.01915
-7.03432
-7.04928
-7.06431
-7.08035
-7.09895
-7.11994
-7.14429
-7.17185
-7.19973
-7.22692
-7.25278
-7.27862
-7.3047
-7.33107
-7.35773
-7.38466
-7.41179
-7.43908
-7.46645
-7.49384
-7.52119
-7.54842
-7.57545
-7.60222
-7.62862
-7.65459
-7.68001
-7.7048
-7.72884
-7.75203
-7.77425
-7.79537
-7.81526
-7.83378
-7.85078
-7.86612
-7.87963
-7.89115
-7.9005
-7.90751
-7.91199
-7.91377
-7.91263
-7.90839
-7.90083
-7.88978
-7.875
-7.85631
-7.83349
-7.80635
-7.77465
-7.73823
-7.69686
-7.65037
-7.59856
-7.54127
-7.47832
-7.40958
-7.33486
-7.25408
-7.16709
-7.0738
-6.97412
-6.86798
-6.75534
-6.63612
-6.51024
-6.37775
-6.2388
-6.09343
-5.94172
-5.78374
-5.61961
-5.44945
-5.27344
-5.09176
-4.9046
-4.71216
-4.51466
-4.31233
-4.1054
-3.89411
-3.6787
-3.45943
-3.23653
-3.01024
-2.7808
-2.54843
-2.31337
-2.07583
-1.836
-1.59403
-1.3501
-1.10438
-0.857052
-0.608209
-0.357929
-0.106223
0.146876
0.401387
0.657309
0.914693
1.17361
1.43417
1.69652
1.96082
2.2273
2.49619
2.76776
3.04229
3.32011
3.60155
3.88694
4.17659
4.47082
4.77001
5.07458
5.38489
5.70123
6.02387
6.35301
6.68874
7.03104
7.37973
7.73456
8.09503
8.46052
8.83018
9.203
9.57773
9.95302
10.3273
10.699
11.0663
11.4275
11.7808
12.1245
12.4571
12.7773
13.0837
13.3751
13.6507
13.9096
14.1515
14.3761
14.5836
14.7744
14.9493
15.1099
15.2582
15.3989
15.5367
15.6959
15.8632
-6.86338
-6.86529
-6.86794
-6.87
-6.87132
-6.87238
-6.87359
-6.87518
-6.87727
-6.87991
-6.88313
-6.88694
-6.89134
-6.89632
-6.90189
-6.908
-6.91457
-6.92157
-6.929
-6.93688
-6.9453
-6.95474
-6.96601
-6.97971
-6.99537
-7.01204
-7.02921
-7.04652
-7.06368
-7.08079
-7.09843
-7.11719
-7.13788
-7.16077
-7.18494
-7.20975
-7.23474
-7.26002
-7.28561
-7.31152
-7.33769
-7.36409
-7.39068
-7.41742
-7.44423
-7.47108
-7.49789
-7.52461
-7.55115
-7.57744
-7.60341
-7.62897
-7.65402
-7.67847
-7.70222
-7.72515
-7.74716
-7.76811
-7.78788
-7.80633
-7.82331
-7.83868
-7.85228
-7.86394
-7.8735
-7.88078
-7.8856
-7.88777
-7.8871
-7.88339
-7.87644
-7.86606
-7.85204
-7.83417
-7.81225
-7.78608
-7.75544
-7.72014
-7.67997
-7.63475
-7.58429
-7.52841
-7.46695
-7.39974
-7.32664
-7.24751
-7.16223
-7.07069
-6.97277
-6.86842
-6.75758
-6.64016
-6.51613
-6.38553
-6.24845
-6.10495
-5.95512
-5.79901
-5.63675
-5.46843
-5.2942
-5.11424
-4.92874
-4.7379
-4.54194
-4.34109
-4.13558
-3.92565
-3.71154
-3.49349
-3.27176
-3.04657
-2.81818
-2.58679
-2.35265
-2.11596
-1.87693
-1.63572
-1.39252
-1.1475
-0.900847
-0.652646
-0.403008
-0.151929
0.100509
0.354347
0.609536
0.866163
1.12424
1.38391
1.64527
1.90853
2.17381
2.4414
2.7115
2.98443
3.26046
3.53991
3.82313
4.1104
4.40204
4.69841
4.99995
5.307
5.6199
5.9389
6.26422
6.59597
6.93416
7.27868
7.62927
7.98551
8.34683
8.71246
9.08143
9.45265
9.82482
10.1965
10.5662
10.9323
11.2929
11.6464
11.991
12.3253
12.6477
12.9568
13.2513
13.5304
13.7933
14.0394
14.2686
14.4809
14.6767
14.8569
15.023
15.177
15.3234
15.4651
15.6216
15.7639
-6.85317
-6.85651
-6.86157
-6.86544
-6.8679
-6.86968
-6.87128
-6.87298
-6.87498
-6.87739
-6.88029
-6.88372
-6.88769
-6.89222
-6.89731
-6.90294
-6.9091
-6.91579
-6.92302
-6.93088
-6.93951
-6.94921
-6.96038
-6.9733
-6.98789
-7.00383
-7.02078
-7.03845
-7.05659
-7.07507
-7.09398
-7.11354
-7.1341
-7.15581
-7.17849
-7.20193
-7.22594
-7.25043
-7.27535
-7.30064
-7.32624
-7.35211
-7.37818
-7.40441
-7.43074
-7.45713
-7.4835
-7.5098
-7.53595
-7.56189
-7.58754
-7.6128
-7.6376
-7.66183
-7.6854
-7.7082
-7.7301
-7.751
-7.77075
-7.78923
-7.80629
-7.82178
-7.83555
-7.84743
-7.85725
-7.86484
-7.87002
-7.8726
-7.87239
-7.86919
-7.86281
-7.85305
-7.8397
-7.82255
-7.8014
-7.77605
-7.74628
-7.7119
-7.67271
-7.62851
-7.57911
-7.52433
-7.464
-7.39797
-7.32607
-7.24817
-7.16414
-7.07386
-6.97723
-6.87416
-6.76461
-6.64851
-6.52583
-6.39659
-6.26087
-6.11871
-5.97019
-5.81538
-5.65439
-5.48733
-5.31434
-5.13559
-4.95126
-4.76156
-4.5667
-4.3669
-4.16239
-3.95342
-3.74023
-3.52306
-3.30216
-3.07776
-2.85011
-2.61943
-2.38595
-2.14989
-1.91144
-1.67079
-1.42812
-1.18362
-0.937465
-0.689746
-0.440561
-0.189952
0.0620169
0.315347
0.570012
0.826069
1.08354
1.34255
1.6032
1.86567
2.1301
2.39674
2.66579
2.93755
3.21229
3.49032
3.77193
4.05743
4.34712
4.64138
4.94059
5.24512
5.55531
5.87144
6.19368
6.52216
6.85691
7.19786
7.54476
7.89725
8.25477
8.61665
8.98199
9.34978
9.71881
10.0878
10.4551
10.8194
11.1788
11.5317
11.8764
12.2114
12.535
12.8459
13.1427
13.4244
13.6903
13.9397
14.1725
14.3887
14.5886
14.7731
14.9434
15.1014
15.2511
15.3935
15.5434
15.6626
-6.84221
-6.84703
-6.85466
-6.86058
-6.86448
-6.86732
-6.86969
-6.87191
-6.87421
-6.87679
-6.87975
-6.88317
-6.88709
-6.89155
-6.89657
-6.90217
-6.90836
-6.91519
-6.9227
-6.93097
-6.94015
-6.95039
-6.96188
-6.97474
-6.98893
-7.0043
-7.02068
-7.03791
-7.05587
-7.07449
-7.09377
-7.11376
-7.13451
-7.15606
-7.17833
-7.20122
-7.22466
-7.24859
-7.27296
-7.29772
-7.32282
-7.3482
-7.37381
-7.39961
-7.42553
-7.45154
-7.47755
-7.50352
-7.52937
-7.55504
-7.58044
-7.60549
-7.63011
-7.6542
-7.67765
-7.70037
-7.72223
-7.74312
-7.7629
-7.78145
-7.79861
-7.81424
-7.82818
-7.84027
-7.85034
-7.85821
-7.86371
-7.86664
-7.86682
-7.86406
-7.85814
-7.84887
-7.83604
-7.81946
-7.7989
-7.77417
-7.74505
-7.71135
-7.67286
-7.62938
-7.58073
-7.52672
-7.46718
-7.40194
-7.33084
-7.25375
-7.17053
-7.08107
-6.98524
-6.883
-6.77427
-6.65901
-6.53718
-6.4088
-6.27391
-6.13256
-5.98482
-5.83076
-5.67049
-5.50413
-5.33182
-5.15373
-4.97005
-4.78098
-4.58672
-4.38751
-4.18357
-3.97516
-3.76249
-3.54585
-3.32545
-3.10156
-2.87439
-2.64421
-2.41121
-2.17562
-1.93763
-1.69747
-1.45528
-1.2113
-0.965627
-0.718439
-0.469756
-0.219721
0.031693
0.284378
0.538414
0.793738
1.05049
1.30867
1.56849
1.83002
2.09351
2.3591
2.62707
2.89764
3.17114
3.44781
3.72798
4.01191
4.29997
4.59251
4.8899
5.19251
5.50069
5.81472
6.13478
6.46097
6.79335
7.13186
7.47628
7.82625
8.18127
8.54068
8.90365
9.26919
9.63616
10.0032
10.3691
10.732
11.0906
11.4431
11.7878
12.1232
12.4477
12.7598
13.0582
13.3419
13.6099
13.8618
14.0973
14.3162
14.519
14.7063
14.8793
15.0395
15.19
15.3306
15.4725
15.5725
-6.83269
-6.83888
-6.84872
-6.85651
-6.86185
-6.86587
-6.86918
-6.87213
-6.875
-6.878
-6.8813
-6.88499
-6.88915
-6.89385
-6.89912
-6.905
-6.91153
-6.91876
-6.92675
-6.93558
-6.94533
-6.95612
-6.96803
-6.98109
-6.99529
-7.01053
-7.0267
-7.0437
-7.06145
-7.07991
-7.09907
-7.11892
-7.13948
-7.16073
-7.18263
-7.20511
-7.22813
-7.25163
-7.27557
-7.29991
-7.32459
-7.34958
-7.37481
-7.40026
-7.42586
-7.45156
-7.4773
-7.50302
-7.52865
-7.55413
-7.57937
-7.60429
-7.62881
-7.65283
-7.67625
-7.69896
-7.72085
-7.74179
-7.76166
-7.78032
-7.79762
-7.81343
-7.82757
-7.83989
-7.85022
-7.85838
-7.86418
-7.86745
-7.86799
-7.86559
-7.86007
-7.85122
-7.83883
-7.8227
-7.80261
-7.77836
-7.74973
-7.71653
-7.67855
-7.63559
-7.58746
-7.53397
-7.47494
-7.41022
-7.33963
-7.26303
-7.1803
-7.09131
-6.99595
-6.89415
-6.78587
-6.67105
-6.54965
-6.42169
-6.28719
-6.14621
-5.9988
-5.84505
-5.68507
-5.51898
-5.34693
-5.16908
-4.98563
-4.79678
-4.60275
-4.40376
-4.20005
-3.99186
-3.77944
-3.56305
-3.34292
-3.11931
-2.89245
-2.66259
-2.42994
-2.19472
-1.95715
-1.71741
-1.47572
-1.23225
-0.987147
-0.740542
-0.492519
-0.243168
0.00747505
0.259359
0.512499
0.766887
1.0226
1.27971
1.53836
1.79867
2.06086
2.32509
2.59163
2.86071
3.13263
3.40766
3.68609
3.96824
4.25447
4.54515
4.84067
5.14138
5.44765
5.75974
6.07787
6.40213
6.73263
7.06926
7.41188
7.76011
8.11353
8.47144
8.83309
9.19747
9.5635
9.92987
10.2952
10.658
11.0166
11.3694
11.7148
12.0511
12.3768
12.6903
12.9904
13.2759
13.546
13.8
14.0376
14.2587
14.4637
14.653
14.8277
14.9888
15.1388
15.2761
15.4104
15.4942
-6.82614
-6.83345
-6.84495
-6.85424
-6.86086
-6.86598
-6.87023
-6.87398
-6.87753
-6.8811
-6.88489
-6.88903
-6.8936
-6.8987
-6.90438
-6.91068
-6.91767
-6.92539
-6.9339
-6.94325
-6.95351
-6.96473
-6.97695
-6.9902
-7.00444
-7.01963
-7.0357
-7.05258
-7.0702
-7.08854
-7.10755
-7.12724
-7.14758
-7.16856
-7.19015
-7.21231
-7.23499
-7.25815
-7.28176
-7.30576
-7.33013
-7.35482
-7.37978
-7.40497
-7.43033
-7.45582
-7.48138
-7.50695
-7.53245
-7.55783
-7.583
-7.60788
-7.63238
-7.65642
-7.67988
-7.70266
-7.72464
-7.7457
-7.76572
-7.78455
-7.80204
-7.81806
-7.83244
-7.84501
-7.85561
-7.86405
-7.87015
-7.87373
-7.87459
-7.87254
-7.86736
-7.85885
-7.84682
-7.83104
-7.81131
-7.78742
-7.75915
-7.72629
-7.68865
-7.64603
-7.59822
-7.54504
-7.48631
-7.42186
-7.35153
-7.27517
-7.19266
-7.10386
-7.00866
-6.90702
-6.79887
-6.68415
-6.56284
-6.43494
-6.30048
-6.15951
-6.01208
-5.85829
-5.69825
-5.53207
-5.35994
-5.182
-4.99846
-4.80952
-4.61542
-4.41636
-4.2126
-4.00439
-3.79198
-3.57561
-3.35556
-3.13205
-2.90536
-2.67568
-2.44328
-2.20834
-1.97111
-1.73176
-1.49054
-1.24756
-1.00305
-0.757059
-0.509767
-0.261171
-0.0114054
0.23958
0.491679
0.744996
0.999498
1.25537
1.51264
1.77155
2.0322
2.29487
2.55974
2.8271
3.09719
3.37032
3.64679
3.92692
4.21111
4.49975
4.79321
5.09188
5.3961
5.70621
6.02236
6.34474
6.6734
7.00835
7.34939
7.69626
8.04848
8.40545
8.76637
9.13031
9.49613
9.86259
10.2283
10.5916
10.9511
11.305
11.6517
11.9895
12.3168
12.6321
12.934
13.2215
13.4936
13.7497
13.9893
14.2124
14.4191
14.6099
14.7855
14.9468
15.0954
15.2289
15.3562
15.4264
-6.82341
-6.83148
-6.84402
-6.85438
-6.862
-6.86805
-6.87316
-6.87767
-6.8819
-6.88608
-6.89043
-6.89507
-6.90013
-6.9057
-6.91184
-6.91861
-6.92606
-6.93426
-6.94323
-6.95302
-6.96368
-6.97523
-6.98769
-7.00107
-7.01536
-7.03052
-7.0465
-7.06327
-7.08078
-7.09899
-7.11787
-7.13741
-7.15759
-7.17837
-7.19973
-7.22165
-7.24408
-7.267
-7.29036
-7.31414
-7.3383
-7.36279
-7.38757
-7.4126
-7.43784
-7.46322
-7.48869
-7.5142
-7.53967
-7.56504
-7.59023
-7.61516
-7.63974
-7.66387
-7.68744
-7.71036
-7.73251
-7.75375
-7.77396
-7.79301
-7.81073
-7.827
-7.84163
-7.85447
-7.86534
-7.87406
-7.88045
-7.88432
-7.88547
-7.8837
-7.8788
-7.87058
-7.85882
-7.8433
-7.82383
-7.80017
-7.77213
-7.73948
-7.70203
-7.65958
-7.61191
-7.55886
-7.50022
-7.43584
-7.36555
-7.28921
-7.20667
-7.11782
-7.02255
-6.92079
-6.8125
-6.69762
-6.57611
-6.44799
-6.31327
-6.17201
-6.02427
-5.87015
-5.70976
-5.54324
-5.37074
-5.19246
-5.00857
-4.81931
-4.62488
-4.42555
-4.22154
-4.01312
-3.80054
-3.58406
-3.36394
-3.14044
-2.91379
-2.68423
-2.452
-2.2173
-1.98037
-1.74141
-1.50063
-1.25819
-1.01426
-0.768958
-0.522413
-0.274674
-0.0258151
0.224143
0.47515
0.727251
0.980479
1.23497
1.49079
1.74814
2.00718
2.26816
2.53127
2.79678
3.06495
3.33608
3.61046
3.88849
4.17056
4.45707
4.7484
5.04494
5.34706
5.6551
5.96927
6.28976
6.61667
6.95003
7.28967
7.63537
7.98665
8.34298
8.70354
9.06743
9.4335
9.80052
10.167
10.5315
10.8923
11.2478
11.5962
11.9359
12.2652
12.5826
12.8866
13.1762
13.4504
13.7085
13.95
14.1748
14.3829
14.5748
14.7509
14.9117
15.0585
15.1879
15.309
15.3677
-6.82475
-6.8332
-6.8462
-6.85716
-6.86547
-6.87222
-6.878
-6.88316
-6.88799
-6.89274
-6.89761
-6.90274
-6.90827
-6.91429
-6.92086
-6.92806
-6.93592
-6.94451
-6.95385
-6.96399
-6.97494
-6.98673
-6.99936
-7.01284
-7.02716
-7.0423
-7.05822
-7.0749
-7.0923
-7.11041
-7.12918
-7.14859
-7.16863
-7.18927
-7.21048
-7.23224
-7.25451
-7.27727
-7.3005
-7.32414
-7.34818
-7.37258
-7.39728
-7.42226
-7.44746
-7.47283
-7.49831
-7.52385
-7.54939
-7.57484
-7.60013
-7.62519
-7.64991
-7.6742
-7.69796
-7.72108
-7.74344
-7.76491
-7.78536
-7.80465
-7.82263
-7.83916
-7.85405
-7.86716
-7.8783
-7.88728
-7.89393
-7.89805
-7.89944
-7.89791
-7.89323
-7.88522
-7.87364
-7.8583
-7.83897
-7.81544
-7.7875
-7.75493
-7.71753
-7.67508
-7.6274
-7.57429
-7.51558
-7.45108
-7.38063
-7.30409
-7.22133
-7.13221
-7.03663
-6.93454
-6.82587
-6.71058
-6.58864
-6.46005
-6.32483
-6.18305
-6.03476
-5.88008
-5.71912
-5.55203
-5.37896
-5.20011
-5.01568
-4.82591
-4.631
-4.43122
-4.22681
-4.01806
-3.8052
-3.58852
-3.36825
-3.14469
-2.91805
-2.68858
-2.4565
-2.22206
-1.98544
-1.74691
-1.50659
-1.26474
-1.02144
-0.776919
-0.531188
-0.284404
-0.036537
0.21227
0.462092
0.712855
0.964725
1.2177
1.47199
1.72767
1.98502
2.24418
2.50544
2.76901
3.03519
3.30423
3.57649
3.85236
4.13225
4.41659
4.70577
5.00018
5.30025
5.60627
5.91855
6.23726
6.56257
6.89449
7.23296
7.5777
7.92835
8.2843
8.64484
9.00899
9.37568
9.74359
10.1113
10.4773
10.8398
11.1972
11.5477
11.8896
12.2211
12.5407
12.8471
13.1389
13.4151
13.6751
13.9184
14.1447
14.3541
14.5466
14.7229
14.8828
15.0274
15.1528
15.2683
15.3174
-6.82995
-6.83843
-6.85137
-6.86249
-6.87115
-6.87833
-6.88459
-6.89022
-6.89552
-6.90072
-6.90603
-6.91158
-6.9175
-6.92389
-6.93082
-6.93835
-6.94653
-6.95541
-6.96503
-6.9754
-6.98655
-6.99849
-7.01124
-7.02478
-7.03912
-7.05423
-7.07011
-7.08672
-7.10404
-7.12206
-7.14074
-7.16007
-7.18002
-7.20056
-7.22169
-7.24336
-7.26555
-7.28825
-7.31142
-7.33503
-7.35904
-7.38343
-7.40815
-7.43317
-7.45842
-7.48387
-7.50945
-7.53511
-7.56078
-7.58639
-7.61186
-7.63711
-7.66203
-7.68655
-7.71054
-7.7339
-7.75651
-7.77824
-7.79895
-7.8185
-7.83674
-7.85353
-7.86868
-7.88203
-7.89341
-7.90262
-7.90948
-7.9138
-7.91538
-7.914
-7.90947
-7.90157
-7.89009
-7.87481
-7.85552
-7.83199
-7.80402
-7.77139
-7.73389
-7.69131
-7.64346
-7.59014
-7.53117
-7.46637
-7.39559
-7.31868
-7.23549
-7.14591
-7.04984
-6.94721
-6.83797
-6.72208
-6.59949
-6.47023
-6.33432
-6.19181
-6.0428
-5.88737
-5.72566
-5.55781
-5.38402
-5.20445
-5.01934
-4.82891
-4.63341
-4.43307
-4.22819
-4.01901
-3.80582
-3.58887
-3.36845
-3.14481
-2.91818
-2.68881
-2.45693
-2.22277
-1.98654
-1.74845
-1.50871
-1.26748
-1.02495
-0.781254
-0.536486
-0.290735
-0.0440366
0.203536
0.451993
0.701333
0.951666
1.20305
1.45565
1.70957
1.96506
2.22231
2.48158
2.74309
3.00713
3.27399
3.54405
3.81771
4.09542
4.37757
4.66461
4.95694
5.25499
5.5591
5.86959
6.18667
6.51055
6.84125
7.17875
7.5228
7.87306
8.22893
8.58973
8.95446
9.32205
9.69118
10.0604
10.4282
10.7927
11.1523
11.5051
11.8494
12.1834
12.5054
12.8141
13.1081
13.3865
13.6484
13.8934
14.121
14.3313
14.5244
14.7004
14.8592
15.0015
15.123
15.2336
15.2744
-6.83853
-6.84674
-6.85917
-6.87006
-6.87875
-6.88609
-6.89258
-6.8985
-6.9041
-6.90961
-6.91522
-6.92106
-6.92726
-6.93391
-6.94109
-6.94885
-6.95725
-6.96632
-6.97611
-6.98662
-6.99789
-7.00991
-7.02271
-7.03628
-7.05061
-7.06571
-7.08154
-7.0981
-7.11536
-7.13332
-7.15195
-7.17123
-7.19114
-7.21166
-7.23276
-7.25441
-7.27661
-7.29932
-7.32251
-7.34617
-7.37025
-7.39472
-7.41954
-7.44466
-7.47005
-7.49565
-7.52141
-7.54725
-7.57312
-7.59895
-7.62464
-7.65013
-7.6753
-7.70007
-7.72432
-7.74794
-7.7708
-7.79279
-7.81375
-7.83355
-7.85204
-7.86905
-7.88441
-7.89797
-7.90952
-7.9189
-7.92591
-7.93035
-7.93202
-7.93072
-7.92623
-7.91834
-7.90684
-7.89151
-7.87212
-7.84848
-7.82034
-7.78751
-7.74977
-7.70691
-7.65873
-7.60505
-7.54567
-7.48042
-7.40914
-7.33168
-7.24791
-7.15771
-7.06097
-6.95764
-6.84767
-6.731
-6.60761
-6.47752
-6.34076
-6.19738
-6.04749
-5.89118
-5.72859
-5.55988
-5.38524
-5.20486
-5.01897
-4.82781
-4.63163
-4.43069
-4.22528
-4.01565
-3.80211
-3.58491
-3.36435
-3.14065
-2.91408
-2.68487
-2.45326
-2.21944
-1.98368
-1.74613
-1.50705
-1.26655
-1.02488
-0.782113
-0.53843
-0.29382
-0.0484272
0.197793
0.444729
0.692515
0.94113
1.19077
1.44149
1.69351
1.94699
2.20219
2.45931
2.71862
2.9804
3.245
3.51279
3.7842
4.05967
4.33964
4.62455
4.91485
5.21095
5.51326
5.82207
6.13771
6.46031
6.79003
7.12677
7.47041
7.82052
8.17663
8.53794
8.90357
9.27235
9.643
10.014
10.3838
10.7506
11.1126
11.468
11.8149
12.1514
12.476
12.7871
13.0834
13.3639
13.6276
13.8741
14.1029
14.314
14.5073
14.6829
14.8405
14.9804
15.0981
15.2043
15.2383
-6.8498
-6.8575
-6.86906
-6.87938
-6.88782
-6.89507
-6.90157
-6.90756
-6.91328
-6.91893
-6.92468
-6.93068
-6.93703
-6.94382
-6.95112
-6.959
-6.9675
-6.97666
-6.98651
-6.99709
-7.00839
-7.02045
-7.03325
-7.04682
-7.06113
-7.0762
-7.092
-7.10853
-7.12577
-7.14371
-7.16232
-7.1816
-7.20151
-7.22204
-7.24317
-7.26488
-7.28715
-7.30994
-7.33324
-7.35701
-7.38123
-7.40584
-7.43083
-7.45614
-7.48172
-7.50752
-7.53349
-7.55957
-7.58568
-7.61174
-7.63769
-7.66342
-7.68885
-7.71386
-7.73836
-7.76222
-7.78532
-7.80753
-7.8287
-7.84869
-7.86736
-7.88453
-7.90003
-7.9137
-7.92535
-7.9348
-7.94185
-7.94631
-7.94796
-7.94661
-7.94204
-7.93403
-7.92238
-7.90687
-7.88726
-7.86335
-7.83492
-7.80174
-7.76362
-7.72033
-7.67169
-7.61749
-7.55756
-7.49171
-7.4198
-7.34166
-7.25718
-7.16621
-7.06868
-6.96451
-6.85367
-6.7361
-6.6118
-6.48077
-6.34305
-6.19871
-6.04785
-5.89057
-5.72703
-5.55739
-5.38184
-5.2006
-5.0139
-4.82198
-4.62511
-4.42356
-4.21762
-4.00758
-3.79371
-3.57631
-3.35563
-3.13194
-2.90549
-2.67651
-2.44523
-2.21188
-1.97666
-1.73977
-1.50143
-1.26182
-1.02111
-0.779452
-0.536953
-0.293672
-0.0496916
0.194965
0.440261
0.686276
0.933051
1.18074
1.42943
1.67935
1.93067
2.18363
2.43846
2.69544
2.95486
3.2171
3.48256
3.75168
4.02489
4.30267
4.58546
4.87376
5.16798
5.46857
5.77584
6.09015
6.41166
6.74055
7.07677
7.42019
7.77043
8.127
8.48912
8.85589
9.22612
9.59853
9.97158
10.3437
10.7129
11.0776
11.4356
11.7852
12.1245
12.4517
12.7653
13.0639
13.3464
13.6119
13.8598
14.0897
14.3014
14.4948
14.6697
14.8259
14.9634
15.0776
15.1798
15.208
-6.86302
-6.87003
-6.88047
-6.88997
-6.89789
-6.90481
-6.91109
-6.91695
-6.9226
-6.92821
-6.93395
-6.93994
-6.94628
-6.95307
-6.96038
-6.96825
-6.97675
-6.9859
-6.99575
-7.00631
-7.0176
-7.02963
-7.04242
-7.05597
-7.07027
-7.08532
-7.10111
-7.11763
-7.13487
-7.15281
-7.17143
-7.19073
-7.21068
-7.23127
-7.25248
-7.27429
-7.29668
-7.31962
-7.34308
-7.36702
-7.39142
-7.41624
-7.44142
-7.46694
-7.49274
-7.51877
-7.54496
-7.57127
-7.59761
-7.6239
-7.65007
-7.67603
-7.70166
-7.72688
-7.75157
-7.7756
-7.79885
-7.8212
-7.84248
-7.86257
-7.88131
-7.89852
-7.91405
-7.92771
-7.93933
-7.94871
-7.95567
-7.95999
-7.96149
-7.95995
-7.95515
-7.94689
-7.93495
-7.9191
-7.89913
-7.87481
-7.84594
-7.81228
-7.77364
-7.7298
-7.68056
-7.62572
-7.56512
-7.49856
-7.4259
-7.34698
-7.26167
-7.16985
-7.07142
-6.96634
-6.85455
-6.73602
-6.61073
-6.4787
-6.33998
-6.19463
-6.04276
-5.88449
-5.71996
-5.54937
-5.3729
-5.1908
-5.00328
-4.81061
-4.61307
-4.41095
-4.20452
-3.99411
-3.77997
-3.56242
-3.3417
-3.11812
-2.89189
-2.66326
-2.43244
-2.19967
-1.96512
-1.72904
-1.49158
-1.25301
-1.01343
-0.773062
-0.531914
-0.290165
-0.0477813
0.195094
0.438569
0.682596
0.927359
1.17288
1.4194
1.66703
1.91604
2.16661
2.41903
2.67354
2.93052
3.19033
3.45341
3.72018
3.99114
4.26673
4.54747
4.8338
5.12625
5.42519
5.73108
6.04418
6.3648
6.69304
7.02897
7.37238
7.723
8.08026
8.44346
8.81159
9.18354
9.55791
9.93322
10.3077
10.6797
11.047
11.4079
11.7603
12.1023
12.4322
12.7482
13.0491
13.3336
13.6008
13.85
14.0808
14.293
14.4862
14.6605
14.8151
14.9503
15.0612
15.1598
15.1831
-6.87747
-6.88366
-6.89283
-6.90131
-6.90851
-6.91489
-6.92074
-6.92626
-6.93163
-6.93701
-6.94255
-6.94837
-6.95456
-6.96122
-6.9684
-6.97617
-6.98458
-6.99365
-7.00342
-7.01392
-7.02515
-7.03714
-7.04989
-7.0634
-7.07766
-7.09269
-7.10846
-7.12497
-7.14221
-7.16017
-7.17883
-7.19818
-7.21821
-7.23889
-7.26022
-7.28217
-7.30471
-7.32782
-7.35146
-7.3756
-7.40019
-7.42519
-7.45057
-7.47628
-7.50227
-7.52848
-7.55486
-7.58134
-7.60784
-7.63429
-7.6606
-7.68668
-7.71242
-7.73773
-7.76247
-7.78655
-7.80982
-7.83215
-7.8534
-7.87343
-7.89207
-7.90917
-7.92455
-7.93804
-7.94945
-7.9586
-7.96529
-7.96933
-7.9705
-7.96861
-7.96343
-7.95476
-7.94238
-7.92606
-7.90559
-7.88075
-7.85131
-7.81707
-7.7778
-7.7333
-7.68337
-7.62782
-7.56646
-7.49912
-7.42564
-7.34588
-7.2597
-7.16698
-7.06762
-6.96158
-6.84882
-6.72929
-6.603
-6.46995
-6.33021
-6.18384
-6.03096
-5.8717
-5.70621
-5.53468
-5.35733
-5.17438
-4.9861
-4.79273
-4.59459
-4.39195
-4.18513
-3.97442
-3.76014
-3.54256
-3.32197
-3.09864
-2.8728
-2.6447
-2.41453
-2.18252
-1.94885
-1.71375
-1.47741
-1.24005
-1.00183
-0.762896
-0.523349
-0.283294
-0.0427666
0.198169
0.43957
0.681462
0.923974
1.16719
1.41133
1.65654
1.90307
2.15112
2.40099
2.65295
2.90741
3.16475
3.42542
3.68985
3.95855
4.23199
4.51069
4.79516
5.0859
5.38334
5.68795
6.00003
6.3199
6.64769
6.98349
7.32713
7.67833
8.03652
8.40097
8.7707
9.14453
9.52106
9.89876
10.2759
10.6506
11.0208
11.3845
11.7397
12.0845
12.417
12.7355
13.0385
13.3249
13.5937
13.8441
14.0757
14.2881
14.4812
14.6546
14.8077
14.9406
15.0484
15.1437
15.1629
-6.89249
-6.89783
-6.90564
-6.91297
-6.91928
-6.92492
-6.93013
-6.93509
-6.93997
-6.94492
-6.95008
-6.95556
-6.96146
-6.96786
-6.97481
-6.98238
-6.99061
-6.99953
-7.00916
-7.01954
-7.03067
-7.04256
-7.05523
-7.06867
-7.08288
-7.09786
-7.11361
-7.13012
-7.14737
-7.16536
-7.18407
-7.2035
-7.22361
-7.2444
-7.26584
-7.28791
-7.31058
-7.33382
-7.3576
-7.38186
-7.40658
-7.4317
-7.45718
-7.48298
-7.50904
-7.53533
-7.56176
-7.58827
-7.61479
-7.64124
-7.66752
-7.69355
-7.71922
-7.74442
-7.76904
-7.79295
-7.81604
-7.83816
-7.85918
-7.87895
-7.8973
-7.91408
-7.92913
-7.94226
-7.95329
-7.96203
-7.96829
-7.97188
-7.97258
-7.97019
-7.9645
-7.95529
-7.94234
-7.92544
-7.90437
-7.8789
-7.84882
-7.8139
-7.77394
-7.72872
-7.67805
-7.62173
-7.55958
-7.49143
-7.41712
-7.33649
-7.24943
-7.15579
-7.05552
-6.94854
-6.83482
-6.71433
-6.58707
-6.45305
-6.31234
-6.16501
-6.01119
-5.85101
-5.68464
-5.51228
-5.33414
-5.15047
-4.96153
-4.7676
-4.56899
-4.36599
-4.15894
-3.94811
-3.73385
-3.51644
-3.29617
-3.07329
-2.84806
-2.62067
-2.39138
-2.16033
-1.92778
-1.69386
-1.45885
-1.2229
-0.986238
-0.748947
-0.511227
-0.273061
-0.0346057
0.204212
0.443334
0.68293
0.923003
1.16379
1.40538
1.64804
1.89195
2.13739
2.38461
2.63399
2.88588
3.14075
3.399
3.66113
3.92761
4.19897
4.47571
4.75843
5.04756
5.34366
5.64711
5.95835
6.27762
6.60517
6.94101
7.28507
7.63699
7.99628
8.36213
8.73359
9.10942
9.48823
9.8684
10.2482
10.6256
10.9987
11.3652
11.7232
12.0707
12.4058
12.7266
13.0317
13.3199
13.5901
13.8416
14.0738
14.2865
14.4792
14.6517
14.8033
14.9339
15.0389
15.1311
15.147
-6.9082
-6.91267
-6.91915
-6.92524
-6.93047
-6.93513
-6.93943
-6.94357
-6.9477
-6.95198
-6.95653
-6.96147
-6.96689
-6.97285
-6.97943
-6.98667
-6.9946
-7.00325
-7.01266
-7.02282
-7.03377
-7.0455
-7.05802
-7.07134
-7.08545
-7.10035
-7.11602
-7.13248
-7.14969
-7.16765
-7.18634
-7.20576
-7.22588
-7.24669
-7.26814
-7.29023
-7.31289
-7.33612
-7.35986
-7.38409
-7.40875
-7.43381
-7.45921
-7.4849
-7.51084
-7.53697
-7.56323
-7.58955
-7.61585
-7.64205
-7.66805
-7.69378
-7.71911
-7.74396
-7.7682
-7.79171
-7.81437
-7.83604
-7.85659
-7.87587
-7.89371
-7.90998
-7.92449
-7.93707
-7.94753
-7.95571
-7.96138
-7.96437
-7.96447
-7.96146
-7.95514
-7.9453
-7.93171
-7.91415
-7.89241
-7.86626
-7.83549
-7.79986
-7.7592
-7.71324
-7.66184
-7.60477
-7.54187
-7.47293
-7.39782
-7.31638
-7.22848
-7.13402
-7.03288
-6.92505
-6.81047
-6.68911
-6.56098
-6.42611
-6.28456
-6.13641
-5.9818
-5.82086
-5.65377
-5.48074
-5.30199
-5.11779
-4.9284
-4.73411
-4.53524
-4.3321
-4.12502
-3.91433
-3.70032
-3.48332
-3.26361
-3.04143
-2.81704
-2.59065
-2.36246
-2.13266
-1.90142
-1.66896
-1.43548
-1.20119
-0.966295
-0.730931
-0.495217
-0.259205
-0.0229832
0.213467
0.450173
0.687243
0.924763
1.16292
1.40186
1.64184
1.88305
2.12577
2.37031
2.61705
2.86639
3.11878