/*--------------------------------*- C++ -*----------------------------------*\
  =========                 |
  \\      /  F ield         | OpenFOAM: The Open Source CFD Toolbox
   \\    /   O peration     | Website:  https://openfoam.org
    \\  /    A nd           | Version:  8
     \\/     M anipulation  |
\*---------------------------------------------------------------------------*/
FoamFile
{
    version     2.0;
    format      ascii;
    class       surfaceScalarField;
    location    "185";
    object      phi;
}
// * * * * * * * * * * * * * * * * * * * * * * * * * * * * * * * * * * * * * //

dimensions      [0 3 -1 0 0 0 0];

internalField   nonuniform List<scalar> 
24170
(
3.12889e-06
5.95174e-08
3.04663e-06
8.22535e-08
2.97353e-06
7.30981e-08
2.90488e-06
6.86479e-08
2.84054e-06
6.43353e-08
2.7832e-06
5.73358e-08
2.73387e-06
4.9335e-08
2.6919e-06
4.19661e-08
2.6562e-06
3.56927e-08
2.62573e-06
3.04715e-08
2.59949e-06
2.6233e-08
2.57665e-06
2.28381e-08
2.55653e-06
2.01176e-08
2.53855e-06
1.79835e-08
2.52226e-06
1.62857e-08
2.50666e-06
1.55992e-08
2.49199e-06
1.46657e-08
2.10967e-08
2.47089e-06
3.45314e-06
2.3627e-08
3.45702e-06
7.83748e-08
3.45054e-06
7.95699e-08
3.43908e-06
8.01052e-08
3.42429e-06
7.91177e-08
3.40704e-06
7.45882e-08
3.38781e-06
6.8561e-08
3.36727e-06
6.25014e-08
3.34611e-06
5.68515e-08
3.32491e-06
5.16692e-08
3.30415e-06
4.69853e-08
3.28412e-06
4.28731e-08
3.26499e-06
3.92399e-08
3.24681e-06
3.61656e-08
3.22967e-06
3.34215e-08
3.21346e-06
3.18099e-08
3.19855e-06
2.95751e-08
3.24121e-08
3.18723e-06
3.66826e-06
1.78831e-08
3.67918e-06
6.74503e-08
3.68541e-06
7.33391e-08
3.68945e-06
7.60668e-08
3.69104e-06
7.75243e-08
3.69007e-06
7.55589e-08
3.68692e-06
7.17047e-08
3.68207e-06
6.73517e-08
3.6759e-06
6.30159e-08
3.66875e-06
5.88246e-08
3.66088e-06
5.4855e-08
3.65254e-06
5.12108e-08
3.64391e-06
4.78647e-08
3.63515e-06
4.49224e-08
3.62633e-06
4.22456e-08
3.61778e-06
4.0355e-08
3.609e-06
3.83512e-08
3.84897e-08
3.60292e-06
3.92587e-06
1.73987e-08
3.93592e-06
5.74048e-08
3.94256e-06
6.66917e-08
3.9481e-06
7.05281e-08
3.95251e-06
7.31141e-08
3.95545e-06
7.26164e-08
3.95711e-06
7.00424e-08
3.95773e-06
6.67279e-08
3.9575e-06
6.3242e-08
3.95657e-06
5.97545e-08
3.95506e-06
5.63559e-08
3.95311e-06
5.3162e-08
3.95079e-06
5.01781e-08
3.94822e-06
4.74966e-08
3.94541e-06
4.50485e-08
3.94265e-06
4.31151e-08
3.9397e-06
4.12976e-08
4.02451e-08
3.93795e-06
4.20819e-06
1.63327e-08
4.21598e-06
4.96149e-08
4.22168e-06
6.09956e-08
4.22677e-06
6.5429e-08
4.23152e-06
6.83716e-08
4.23548e-06
6.86524e-08
4.23864e-06
6.68835e-08
4.2411e-06
6.42628e-08
4.24297e-06
6.13651e-08
4.24435e-06
5.83786e-08
4.2453e-06
5.54021e-08
4.24591e-06
5.2549e-08
4.24624e-06
4.98502e-08
4.24636e-06
4.73768e-08
4.2463e-06
4.51026e-08
4.24625e-06
4.31631e-08
4.24618e-06
4.13664e-08
3.98141e-08
4.24661e-06
4.51069e-06
1.47323e-08
4.51688e-06
4.34202e-08
4.52213e-06
5.57482e-08
4.52693e-06
6.06176e-08
4.53164e-06
6.36646e-08
4.53588e-06
6.4411e-08
4.53954e-06
6.32189e-08
4.54269e-06
6.11131e-08
4.5454e-06
5.86567e-08
4.54772e-06
5.60504e-08
4.54972e-06
5.34029e-08
4.55145e-06
5.08195e-08
4.55295e-06
4.83482e-08
4.55428e-06
4.60412e-08
4.55549e-06
4.38937e-08
4.55669e-06
4.19586e-08
4.55793e-06
4.01293e-08
3.83438e-08
4.5594e-06
4.83431e-06
1.31458e-08
4.83962e-06
3.81005e-08
4.84475e-06
5.06261e-08
4.84944e-06
5.59196e-08
4.85407e-06
5.90382e-08
4.85838e-06
6.01018e-08
4.86224e-06
5.93567e-08
4.86569e-06
5.76603e-08
4.86879e-06
5.55563e-08
4.87158e-06
5.32564e-08
4.8741e-06
5.08776e-08
4.87641e-06
4.85177e-08
4.87852e-06
4.62334e-08
4.88049e-06
4.4064e-08
4.88237e-06
4.20132e-08
4.88424e-06
4.00916e-08
4.88614e-06
3.82302e-08
3.63384e-08
4.88814e-06
5.18103e-06
1.16963e-08
5.18575e-06
3.33798e-08
5.19075e-06
4.56259e-08
5.19539e-06
5.12726e-08
5.19997e-06
5.44585e-08
5.20432e-06
5.57504e-08
5.2083e-06
5.53701e-08
5.21194e-06
5.40213e-08
5.21528e-06
5.22173e-08
5.21835e-06
5.01804e-08
5.2212e-06
4.80324e-08
5.22385e-06
4.58665e-08
5.22634e-06
4.37423e-08
5.22871e-06
4.16923e-08
5.231e-06
3.97225e-08
5.23326e-06
3.78259e-08
5.23554e-06
3.59529e-08
3.40296e-08
5.23784e-06
5.55268e-06
1.03512e-08
5.55688e-06
2.9178e-08
5.56169e-06
4.08215e-08
5.56629e-06
4.66686e-08
5.57085e-06
4.99008e-08
5.57524e-06
5.13537e-08
5.57933e-06
5.12753e-08
5.58312e-06
5.02327e-08
5.58664e-06
4.86961e-08
5.58993e-06
4.68954e-08
5.593e-06
4.49549e-08
5.5959e-06
4.2965e-08
5.59866e-06
4.09848e-08
5.6013e-06
3.90449e-08
5.60387e-06
3.71517e-08
5.6064e-06
3.52947e-08
5.60892e-06
3.34373e-08
3.15326e-08
5.61141e-06
5.95103e-06
9.09375e-09
5.95478e-06
2.543e-08
5.95935e-06
3.62506e-08
5.9639e-06
4.2117e-08
5.96844e-06
4.53596e-08
5.97287e-06
4.69167e-08
5.97706e-06
4.70811e-08
5.98099e-06
4.63073e-08
5.98467e-06
4.50131e-08
5.98813e-06
4.34292e-08
5.99141e-06
4.16814e-08
5.99451e-06
3.98567e-08
5.99748e-06
3.80134e-08
6.00034e-06
3.61816e-08
6.00312e-06
3.43697e-08
6.00585e-06
3.25695e-08
6.00853e-06
3.07563e-08
2.89075e-08
6.01115e-06
6.37798e-06
7.92561e-09
6.38134e-06
2.20695e-08
6.38566e-06
3.19251e-08
6.39014e-06
3.76357e-08
6.39466e-06
4.08414e-08
6.39912e-06
4.24521e-08
6.4034e-06
4.28004e-08
6.40745e-06
4.22563e-08
6.41128e-06
4.11806e-08
6.41491e-06
3.97968e-08
6.41836e-06
3.82304e-08
6.42165e-06
3.65646e-08
6.42481e-06
3.48561e-08
6.42785e-06
3.31359e-08
6.43081e-06
3.1415e-08
6.43368e-06
2.96907e-08
6.43649e-06
2.79486e-08
2.61849e-08
6.43921e-06
5.74176e-06
7.0011e-09
5.74434e-06
1.94887e-08
5.7478e-06
2.84578e-08
5.75153e-06
3.39109e-08
5.75532e-06
3.70432e-08
5.75911e-06
3.86653e-08
5.76278e-06
3.91242e-08
5.76629e-06
3.87419e-08
5.76964e-06
3.78324e-08
5.77283e-06
3.66059e-08
5.77587e-06
3.5185e-08
5.77879e-06
3.36505e-08
5.78159e-06
3.20573e-08
5.78428e-06
3.04363e-08
5.7869e-06
2.88024e-08
5.78943e-06
2.71571e-08
5.79188e-06
2.54938e-08
2.38207e-08
5.79424e-06
6.99914e-06
6.01879e-09
7.00187e-06
1.67582e-08
7.00563e-06
2.46959e-08
7.00979e-06
2.97472e-08
7.0141e-06
3.27273e-08
7.01845e-06
3.43162e-08
7.02272e-06
3.48561e-08
7.02683e-06
3.46226e-08
7.03078e-06
3.38802e-08
7.03457e-06
3.28192e-08
7.0382e-06
3.15573e-08
7.04167e-06
3.01706e-08
7.04502e-06
2.87114e-08
7.04824e-06
2.72123e-08
7.05135e-06
2.56896e-08
7.05436e-06
2.41517e-08
7.05725e-06
2.25969e-08
2.10454e-08
7.06003e-06
8.53188e-06
4.98677e-09
8.53473e-06
1.39046e-08
8.53876e-06
2.06668e-08
8.54335e-06
2.51516e-08
8.5482e-06
2.78749e-08
8.55315e-06
2.93669e-08
8.55806e-06
2.99413e-08
8.56286e-06
2.98297e-08
8.56749e-06
2.92456e-08
8.57195e-06
2.8354e-08
8.57625e-06
2.72618e-08
8.58037e-06
2.60406e-08
8.58435e-06
2.47382e-08
8.58817e-06
2.33873e-08
8.59185e-06
2.20071e-08
8.59539e-06
2.06099e-08
8.59879e-06
1.92004e-08
1.78029e-08
8.60203e-06
1.04003e-05
3.91378e-09
1.04032e-05
1.09474e-08
1.04075e-05
1.63918e-08
1.04125e-05
2.01323e-08
1.04179e-05
2.24692e-08
1.04235e-05
2.37797e-08
1.04291e-05
2.43251e-08
1.04347e-05
2.42928e-08
1.04401e-05
2.38477e-08
1.04453e-05
2.31218e-08
1.04504e-05
2.22089e-08
1.04552e-05
2.117e-08
1.04599e-05
2.00502e-08
1.04644e-05
1.88786e-08
1.04688e-05
1.76772e-08
1.04729e-05
1.64593e-08
1.04769e-05
1.52346e-08
1.40286e-08
1.04806e-05
1.26779e-05
2.80493e-09
1.2681e-05
7.88023e-09
1.26855e-05
1.1869e-08
1.26909e-05
1.46827e-08
1.26969e-05
1.64815e-08
1.27032e-05
1.75047e-08
1.27096e-05
1.79423e-08
1.27159e-05
1.79339e-08
1.27222e-05
1.75965e-08
1.27283e-05
1.70277e-08
1.27342e-05
1.6299e-08
1.27399e-05
1.54618e-08
1.27454e-05
1.45513e-08
1.27507e-05
1.35949e-08
1.27557e-05
1.2611e-08
1.27606e-05
1.16155e-08
1.27652e-05
1.06164e-08
9.64135e-09
1.27696e-05
1.54543e-05
1.64898e-09
1.54576e-05
4.65704e-09
1.54624e-05
7.03985e-09
1.54683e-05
8.742e-09
1.5475e-05
9.83716e-09
1.5482e-05
1.04505e-08
1.54893e-05
1.06914e-08
1.54966e-05
1.0644e-08
1.55038e-05
1.03781e-08
1.55108e-05
9.95342e-09
1.55177e-05
9.41588e-09
1.55244e-05
8.79963e-09
1.55308e-05
8.12983e-09
1.5537e-05
7.42598e-09
1.55429e-05
6.70299e-09
1.55485e-05
5.97335e-09
1.55539e-05
5.24458e-09
4.53987e-09
1.5559e-05
1.88389e-05
4.05882e-10
1.88424e-05
1.15248e-09
1.88477e-05
1.72975e-09
1.88543e-05
2.11815e-09
1.88618e-05
2.33735e-09
1.88698e-05
2.41494e-09
1.88782e-05
2.3728e-09
1.88866e-05
2.23053e-09
1.88949e-05
2.00805e-09
1.89032e-05
1.72337e-09
1.89112e-05
1.39148e-09
1.8919e-05
1.02471e-09
1.89265e-05
6.3355e-10
1.89337e-05
2.27033e-10
1.89405e-05
-1.87125e-10
1.89471e-05
-6.01772e-10
1.89534e-05
-1.0127e-09
-1.40224e-09
1.89593e-05
2.29648e-05
-1.02593e-09
2.29688e-05
-2.92299e-09
2.2975e-05
-4.48151e-09
2.29828e-05
-5.66556e-09
2.29917e-05
-6.49628e-09
2.30011e-05
-7.05949e-09
2.30109e-05
-7.44341e-09
2.30209e-05
-7.70186e-09
2.30308e-05
-7.87268e-09
2.30405e-05
-7.98625e-09
2.30499e-05
-8.06753e-09
2.30591e-05
-8.13023e-09
2.30679e-05
-8.1833e-09
2.30763e-05
-8.2303e-09
2.30844e-05
-8.27409e-09
2.30921e-05
-8.31398e-09
2.30995e-05
-8.35114e-09
-8.37403e-09
2.31064e-05
1.68118e-05
-2.15012e-09
1.6815e-05
-6.0975e-09
1.68198e-05
-9.31779e-09
1.68258e-05
-1.16723e-08
1.68326e-05
-1.32197e-08
1.68397e-05
-1.41891e-08
1.6847e-05
-1.47667e-08
1.68544e-05
-1.50581e-08
1.68616e-05
-1.51404e-08
1.68687e-05
-1.50879e-08
1.68756e-05
-1.49513e-08
1.68822e-05
-1.47657e-08
1.68886e-05
-1.45498e-08
1.68947e-05
-1.43196e-08
1.69005e-05
-1.40816e-08
1.6906e-05
-1.38424e-08
1.69113e-05
-1.3603e-08
-1.33587e-08
1.69163e-05
1.46356e-05
-3.22967e-09
1.46387e-05
-9.18734e-09
1.46435e-05
-1.40384e-08
1.46492e-05
-1.74246e-08
1.46555e-05
-1.95179e-08
1.46621e-05
-2.07678e-08
1.46687e-05
-2.14454e-08
1.46754e-05
-2.16859e-08
1.46819e-05
-2.16214e-08
1.46881e-05
-2.13675e-08
1.46942e-05
-2.10007e-08
1.47e-05
-2.0565e-08
1.47055e-05
-2.00915e-08
1.47108e-05
-1.96003e-08
1.47158e-05
-1.91056e-08
1.47206e-05
-1.86138e-08
1.47251e-05
-1.81305e-08
-1.76505e-08
1.47294e-05
1.27411e-05
-4.24022e-09
1.27443e-05
-1.23168e-08
1.27491e-05
-1.88749e-08
1.27548e-05
-2.30787e-08
1.27607e-05
-2.55082e-08
1.27669e-05
-2.69379e-08
1.27731e-05
-2.76306e-08
1.27791e-05
-2.77359e-08
1.2785e-05
-2.7461e-08
1.27906e-05
-2.6971e-08
1.27959e-05
-2.6356e-08
1.2801e-05
-2.56669e-08
1.28059e-05
-2.49417e-08
1.28105e-05
-2.42048e-08
1.28149e-05
-2.3473e-08
1.2819e-05
-2.27529e-08
1.28229e-05
-2.20507e-08
-2.1362e-08
1.28266e-05
1.10918e-05
-5.08335e-09
1.1095e-05
-1.55404e-08
1.11001e-05
-2.40064e-08
1.11058e-05
-2.87106e-08
1.11115e-05
-3.12519e-08
1.11173e-05
-3.27609e-08
1.11231e-05
-3.3369e-08
1.11286e-05
-3.32586e-08
1.11338e-05
-3.27319e-08
1.11389e-05
-3.19866e-08
1.11436e-05
-3.1114e-08
1.11481e-05
-3.01715e-08
1.11524e-05
-2.92012e-08
1.11564e-05
-2.82328e-08
1.11602e-05
-2.72801e-08
1.11638e-05
-2.63526e-08
1.11672e-05
-2.54527e-08
-2.45793e-08
1.11704e-05
9.65581e-06
-5.68382e-09
9.65924e-06
-1.89711e-08
9.66459e-06
-2.93576e-08
9.6701e-06
-3.42138e-08
9.67566e-06
-3.68162e-08
9.68122e-06
-3.83267e-08
9.68656e-06
-3.87089e-08
9.69159e-06
-3.82941e-08
9.69635e-06
-3.74848e-08
9.70083e-06
-3.64753e-08
9.70506e-06
-3.53443e-08
9.70904e-06
-3.41515e-08
9.71278e-06
-3.29446e-08
9.7163e-06
-3.17525e-08
9.71961e-06
-3.05906e-08
9.72272e-06
-2.94657e-08
9.72565e-06
-2.838e-08
-2.73299e-08
9.7284e-06
8.4053e-06
-5.63109e-09
8.40964e-06
-2.33106e-08
8.41488e-06
-3.45988e-08
8.41991e-06
-3.92458e-08
8.42528e-06
-4.21861e-08
8.43069e-06
-4.37391e-08
8.43578e-06
-4.37994e-08
8.44049e-06
-4.30056e-08
8.44486e-06
-4.18597e-08
8.44892e-06
-4.05379e-08
8.45269e-06
-3.91103e-08
8.45617e-06
-3.7639e-08
8.4594e-06
-3.61735e-08
8.46239e-06
-3.47414e-08
8.46515e-06
-3.33578e-08
8.46772e-06
-3.2029e-08
8.47009e-06
-3.07568e-08
-2.95374e-08
8.4723e-06
7.3145e-06
-2.84885e-09
7.32119e-06
-3.00021e-08
7.32675e-06
-4.01557e-08
7.3317e-06
-4.41975e-08
7.3371e-06
-4.75867e-08
7.34242e-06
-4.90635e-08
7.3473e-06
-4.8681e-08
7.35172e-06
-4.74226e-08
7.3557e-06
-4.58422e-08
7.35926e-06
-4.40979e-08
7.36242e-06
-4.22708e-08
7.36521e-06
-4.04343e-08
7.36768e-06
-3.86397e-08
7.36984e-06
-3.69114e-08
7.37175e-06
-3.52647e-08
7.37342e-06
-3.37025e-08
7.37489e-06
-3.2225e-08
-3.08225e-08
7.37617e-06
6.36243e-06
4.78288e-09
6.3719e-06
-3.94669e-08
6.37932e-06
-4.75834e-08
6.38596e-06
-5.08377e-08
6.39225e-06
-5.38711e-08
6.39756e-06
-5.43797e-08
6.40186e-06
-5.29786e-08
6.40534e-06
-5.09066e-08
6.40814e-06
-4.8646e-08
6.41033e-06
-4.6286e-08
6.41197e-06
-4.39071e-08
6.41312e-06
-4.15846e-08
6.41384e-06
-3.93696e-08
6.41421e-06
-3.72804e-08
6.41428e-06
-3.53294e-08
6.41409e-06
-3.35148e-08
6.4137e-06
-3.18366e-08
-3.02745e-08
6.41315e-06
5.54129e-06
8.9535e-09
5.55032e-06
-4.8498e-08
5.55834e-06
-5.5599e-08
5.56605e-06
-5.8547e-08
5.57251e-06
-6.03349e-08
5.57684e-06
-5.8708e-08
5.57908e-06
-5.52229e-08
5.57964e-06
-5.14693e-08
5.57889e-06
-4.78961e-08
5.57711e-06
-4.45043e-08
5.57451e-06
-4.13168e-08
5.5713e-06
-3.83744e-08
5.56762e-06
-3.56848e-08
5.56358e-06
-3.32421e-08
5.55929e-06
-3.1038e-08
5.55483e-06
-2.90615e-08
5.55031e-06
-2.73131e-08
-2.57388e-08
5.54577e-06
4.86019e-06
-2.36298e-08
4.86538e-06
-5.36906e-08
4.86523e-06
-5.54522e-08
4.86217e-06
-5.54868e-08
4.857e-06
-5.51656e-08
4.8495e-06
-5.12084e-08
4.83981e-06
-4.55334e-08
4.82842e-06
-4.00797e-08
4.81584e-06
-3.53222e-08
4.80257e-06
-3.12296e-08
4.78897e-06
-2.77223e-08
4.77533e-06
-2.474e-08
4.76185e-06
-2.22033e-08
4.74866e-06
-2.00466e-08
4.73583e-06
-1.82138e-08
4.72345e-06
-1.66812e-08
4.71162e-06
-1.54857e-08
-1.51378e-08
4.70102e-06
4.17905e-06
4.12536e-06
4.0699e-06
4.01442e-06
3.95925e-06
3.90804e-06
3.86251e-06
3.82243e-06
3.78711e-06
3.75588e-06
3.72815e-06
3.70341e-06
3.68121e-06
3.66116e-06
3.64295e-06
3.62627e-06
3.61078e-06
3.59564e-06
1.58501e-08
-1.58474e-08
2.99017e-08
-1.40277e-08
3.65806e-08
-6.68986e-09
3.58471e-08
7.5456e-10
2.87118e-08
7.11655e-09
1.67178e-08
1.20131e-08
1.12488e-09
1.55634e-08
-1.69507e-08
1.8092e-08
-3.6876e-08
1.98926e-08
-5.80455e-08
2.11843e-08
-8.02292e-08
2.21512e-08
-1.03133e-07
2.29153e-08
-1.26708e-07
2.3544e-08
-1.50779e-07
2.4077e-08
-1.7534e-07
2.45299e-08
-2.00256e-07
2.49155e-08
-2.25528e-07
2.52413e-08
-2.51057e-07
2.55244e-08
-2.76868e-07
2.57828e-08
-3.03044e-07
2.61682e-08
-3.30042e-07
2.69707e-08
-3.58981e-07
2.89294e-08
-3.92256e-07
3.32418e-08
-4.23337e-07
3.10615e-08
-4.49344e-07
2.59632e-08
-4.80362e-07
3.0991e-08
-5.159e-07
3.54907e-08
-5.54503e-07
3.85713e-08
-5.94106e-07
3.95604e-08
-6.29086e-07
3.49529e-08
-6.7085e-07
4.17325e-08
-7.23146e-07
5.22681e-08
-7.70033e-07
4.68493e-08
-8.06306e-07
3.62351e-08
-8.44236e-07
3.78933e-08
-8.84826e-07
4.05495e-08
-9.26983e-07
4.21257e-08
-9.69405e-07
4.23798e-08
-1.01208e-06
4.26473e-08
-1.05492e-06
4.2796e-08
-1.09779e-06
4.28516e-08
-1.14066e-06
4.28283e-08
-1.18343e-06
4.27576e-08
-1.22612e-06
4.26494e-08
-1.26865e-06
4.25182e-08
-1.31105e-06
4.23658e-08
-1.35326e-06
4.22013e-08
-1.39532e-06
4.20214e-08
-1.43716e-06
4.18326e-08
-1.47883e-06
4.16287e-08
-1.52026e-06
4.14156e-08
-1.5615e-06
4.11848e-08
-1.60246e-06
4.09416e-08
-1.64319e-06
4.06774e-08
-1.68361e-06
4.03974e-08
-1.72375e-06
4.00909e-08
-1.76354e-06
3.97636e-08
-1.803e-06
3.94057e-08
-1.84204e-06
3.90229e-08
-1.8807e-06
3.8604e-08
-1.91887e-06
3.81553e-08
-1.95659e-06
3.76668e-08
-1.99375e-06
3.71449e-08
-2.03037e-06
3.65782e-08
-2.06635e-06
3.59745e-08
-2.10171e-06
3.53226e-08
-2.13635e-06
3.46307e-08
-2.17028e-06
3.38882e-08
-2.20339e-06
3.31036e-08
-2.23569e-06
3.22664e-08
-2.26708e-06
3.13858e-08
-2.29757e-06
3.04515e-08
-2.32705e-06
2.94725e-08
-2.35552e-06
2.84393e-08
-2.3829e-06
2.73613e-08
-2.40917e-06
2.6229e-08
-2.43424e-06
2.50523e-08
-2.45812e-06
2.38238e-08
-2.48069e-06
2.25523e-08
-2.50196e-06
2.12295e-08
-2.52185e-06
1.98643e-08
-2.54034e-06
1.84502e-08
-2.55735e-06
1.69952e-08
-2.57289e-06
1.54914e-08
-2.58685e-06
1.3946e-08
-2.59925e-06
1.23514e-08
-2.60998e-06
1.07117e-08
-2.61903e-06
9.01497e-09
-2.62631e-06
7.2613e-09
-2.63176e-06
5.42977e-09
-2.63531e-06
3.51281e-09
-2.63688e-06
1.50771e-09
-2.63648e-06
-4.82548e-10
-2.63429e-06
-2.27041e-09
-2.63052e-06
-3.86543e-09
-2.62521e-06
-5.40448e-09
-2.61839e-06
-6.90635e-09
-2.61009e-06
-8.38739e-09
-2.60033e-06
-9.84432e-09
-2.58914e-06
-1.12777e-08
-2.57653e-06
-1.26811e-08
-2.56254e-06
-1.40528e-08
-2.5472e-06
-1.53887e-08
-2.53055e-06
-1.66855e-08
-2.51264e-06
-1.79422e-08
-2.49351e-06
-1.91541e-08
-2.47322e-06
-2.03224e-08
-2.4518e-06
-2.14416e-08
-2.42931e-06
-2.25137e-08
-2.40581e-06
-2.35336e-08
-2.38135e-06
-2.45033e-08
-2.35598e-06
-2.54187e-08
-2.32975e-06
-2.62819e-08
-2.30273e-06
-2.70908e-08
-2.27496e-06
-2.78475e-08
-2.24649e-06
-2.85523e-08
-2.21739e-06
-2.92035e-08
-2.18769e-06
-2.98021e-08
-2.15744e-06
-3.03465e-08
-2.12671e-06
-3.08466e-08
-2.09554e-06
-3.13051e-08
-2.06398e-06
-3.17334e-08
-2.03204e-06
-3.21229e-08
-1.99978e-06
-3.24934e-08
-1.96714e-06
-3.28463e-08
-1.93422e-06
-3.31631e-08
-1.90098e-06
-3.34433e-08
-1.86748e-06
-3.37338e-08
-1.83367e-06
-3.39952e-08
-1.79958e-06
-3.42981e-08
-1.76514e-06
-3.45878e-08
-1.73038e-06
-3.49199e-08
-1.6952e-06
-3.52568e-08
-1.65962e-06
-3.56637e-08
-1.62348e-06
-3.61109e-08
-1.58681e-06
-3.66389e-08
-1.54943e-06
-3.72153e-08
-1.51128e-06
-3.79176e-08
-1.4722e-06
-3.86647e-08
-1.43215e-06
-3.9527e-08
-1.39103e-06
-4.05184e-08
-1.34873e-06
-4.16723e-08
-1.30515e-06
-4.29738e-08
-1.26013e-06
-4.44144e-08
-1.21349e-06
-4.60427e-08
-1.16507e-06
-4.78161e-08
-1.11475e-06
-4.97464e-08
-1.06231e-06
-5.18607e-08
-1.00765e-06
-5.4105e-08
-9.50625e-07
-5.64826e-08
-8.91121e-07
-5.89916e-08
-8.28994e-07
-6.16239e-08
-7.64149e-07
-6.4375e-08
-6.96475e-07
-6.72203e-08
-6.2591e-07
-7.01487e-08
-5.52382e-07
-7.31368e-08
-4.75861e-07
-7.61699e-08
-3.96333e-07
-7.92105e-08
-3.13805e-07
-8.22533e-08
-2.28402e-07
-8.51702e-08
-1.40196e-07
-8.80189e-08
-4.89787e-08
-9.10775e-08
4.57866e-08
-9.4673e-08
1.43841e-07
-9.80138e-08
2.44318e-07
-1.00473e-07
3.4659e-07
-1.02309e-07
4.50079e-07
-1.03551e-07
5.54167e-07
-1.04181e-07
6.58267e-07
-1.04206e-07
7.6176e-07
-1.03619e-07
8.64055e-07
-1.02427e-07
9.64523e-07
-1.00612e-07
1.06253e-06
-9.81473e-08
1.15733e-06
-9.49554e-08
1.24805e-06
-9.08703e-08
1.33339e-06
-8.54959e-08
1.41086e-06
-7.76332e-08
1.47574e-06
-6.5036e-08
1.51181e-06
-3.61981e-08
3.60031e-08
1.47574e-06
7.79397e-09
-2.36445e-08
7.38979e-09
-1.36184e-08
2.05984e-09
-1.36651e-09
-6.60673e-09
9.42729e-09
-1.82305e-08
1.87325e-08
-3.2704e-08
2.6492e-08
-4.98986e-08
3.27476e-08
-6.94754e-08
3.76739e-08
-9.1116e-08
4.15208e-08
-1.14476e-07
4.45491e-08
-1.39329e-07
4.69911e-08
-1.65444e-07
4.90331e-08
-1.92727e-07
5.08128e-08
-2.21081e-07
5.24313e-08
-2.50532e-07
5.39655e-08
-2.81106e-07
5.5485e-08
-3.12943e-07
5.7063e-08
-3.46206e-07
5.87815e-08
-3.81177e-07
6.07376e-08
-4.18074e-07
6.30575e-08
-4.56973e-07
6.58514e-08
-4.97113e-07
6.90583e-08
-5.36012e-07
7.21197e-08
-5.78291e-07
7.33251e-08
-6.25748e-07
7.33959e-08
-6.70043e-07
7.52672e-08
-7.12091e-07
7.75154e-08
-7.52914e-07
7.93742e-08
-7.93927e-07
8.05516e-08
-8.40289e-07
8.12974e-08
-8.82614e-07
8.40373e-08
-9.18111e-07
8.7746e-08
-9.58294e-07
8.70113e-08
-1.00619e-06
8.41135e-08
-1.05155e-06
8.32264e-08
-1.09431e-06
8.32888e-08
-1.13567e-06
8.3468e-08
-1.17667e-06
8.33609e-08
-1.21718e-06
8.31356e-08
-1.25726e-06
8.28556e-08
-1.29695e-06
8.25294e-08
-1.33631e-06
8.21615e-08
-1.37532e-06
8.17617e-08
-1.41403e-06
8.13361e-08
-1.45241e-06
8.08908e-08
-1.49049e-06
8.04276e-08
-1.52825e-06
7.99486e-08
-1.5657e-06
7.94522e-08
-1.60281e-06
7.89382e-08
-1.6396e-06
7.84027e-08
-1.67605e-06
7.7844e-08
-1.71214e-06
7.72569e-08
-1.74786e-06
7.66394e-08
-1.78319e-06
7.59858e-08
-1.8181e-06
7.52932e-08
-1.8526e-06
7.45557e-08
-1.88662e-06
7.37711e-08
-1.92018e-06
7.29331e-08
-1.95321e-06
7.20397e-08
-1.98572e-06
7.10847e-08
-2.01765e-06
7.0067e-08
-2.04899e-06
6.89807e-08
-2.07969e-06
6.78248e-08
-2.10972e-06
6.65938e-08
-2.13905e-06
6.52872e-08
-2.16765e-06
6.39001e-08
-2.19546e-06
6.24331e-08
-2.22248e-06
6.08818e-08
-2.24863e-06
5.92474e-08
-2.27391e-06
5.75262e-08
-2.29825e-06
5.57198e-08
-2.32164e-06
5.38252e-08
-2.34403e-06
5.18447e-08
-2.36538e-06
4.97753e-08
-2.38565e-06
4.76204e-08
-2.40482e-06
4.53778e-08
-2.42284e-06
4.3052e-08
-2.43968e-06
4.06417e-08
-2.4553e-06
3.81511e-08
-2.46967e-06
3.55792e-08
-2.48275e-06
3.2931e-08
-2.49453e-06
3.02064e-08
-2.50496e-06
2.74101e-08
-2.51404e-06
2.45425e-08
-2.52172e-06
2.16088e-08
-2.528e-06
1.861e-08
-2.53286e-06
1.5552e-08
-2.5363e-06
1.24391e-08
-2.53833e-06
9.27677e-09
-2.53899e-06
6.0805e-09
-2.53837e-06
2.86582e-09
-2.53658e-06
-3.24761e-10
-2.53367e-06
-3.44426e-09
-2.5295e-06
-6.49647e-09
-2.52391e-06
-9.51159e-09
-2.51688e-06
-1.24954e-08
-2.5084e-06
-1.54429e-08
-2.49848e-06
-1.83551e-08
-2.48715e-06
-2.12246e-08
-2.47443e-06
-2.40456e-08
-2.46035e-06
-2.68087e-08
-2.44493e-06
-2.95082e-08
-2.42821e-06
-3.2137e-08
-2.41022e-06
-3.46895e-08
-2.39102e-06
-3.7161e-08
-2.37064e-06
-3.95464e-08
-2.34913e-06
-4.18428e-08
-2.32654e-06
-4.40454e-08
-2.30292e-06
-4.61524e-08
-2.27832e-06
-4.81598e-08
-2.25278e-06
-5.00673e-08
-2.22635e-06
-5.18715e-08
-2.1991e-06
-5.35739e-08
-2.17105e-06
-5.51726e-08
-2.14228e-06
-5.66711e-08
-2.11282e-06
-5.80683e-08
-2.08271e-06
-5.93668e-08
-2.05201e-06
-6.0564e-08
-2.02075e-06
-6.16668e-08
-1.98898e-06
-6.26827e-08
-1.95675e-06
-6.36251e-08
-1.92408e-06
-6.45022e-08
-1.89101e-06
-6.53203e-08
-1.85754e-06
-6.60869e-08
-1.82371e-06
-6.68092e-08
-1.78952e-06
-6.74865e-08
-1.75497e-06
-6.81348e-08
-1.72005e-06
-6.87756e-08
-1.68475e-06
-6.94134e-08
-1.64908e-06
-7.008e-08
-1.61299e-06
-7.07773e-08
-1.57645e-06
-7.1534e-08
-1.53942e-06
-7.23523e-08
-1.50183e-06
-7.32758e-08
-1.46362e-06
-7.43206e-08
-1.4247e-06
-7.55133e-08
-1.38497e-06
-7.6854e-08
-1.34435e-06
-7.83699e-08
-1.30269e-06
-8.00687e-08
-1.25991e-06
-8.19793e-08
-1.21592e-06
-8.41635e-08
-1.17059e-06
-8.66432e-08
-1.12377e-06
-8.94542e-08
-1.07527e-06
-9.25709e-08
-1.02495e-06
-9.60352e-08
-9.7261e-07
-9.98139e-08
-9.1809e-07
-1.03944e-07
-8.6122e-07
-1.08406e-07
-8.01826e-07
-1.13193e-07
-7.39747e-07
-1.18258e-07
-6.74827e-07
-1.23627e-07
-6.06915e-07
-1.29258e-07
-5.35905e-07
-1.35127e-07
-4.61692e-07
-1.41189e-07
-3.84201e-07
-1.47414e-07
-3.03387e-07
-1.53747e-07
-2.19237e-07
-1.60135e-07
-1.31796e-07
-1.66496e-07
-4.10981e-08
-1.72816e-07
5.2859e-08
-1.79027e-07
1.49928e-07
-1.85007e-07
2.4968e-07
-1.90786e-07
3.51239e-07
-1.96205e-07
4.54038e-07
-2.0082e-07
5.5793e-07
-2.04384e-07
6.625e-07
-2.06931e-07
7.67303e-07
-2.08412e-07
8.71854e-07
-2.08819e-07
9.75682e-07
-2.08125e-07
1.07829e-06
-2.06343e-07
1.1792e-06
-2.03447e-07
1.27788e-06
-1.99428e-07
1.3738e-06
-1.94193e-07
1.46631e-06
-1.87605e-07
1.55461e-06
-1.79299e-07
1.63753e-06
-1.68566e-07
1.71323e-06
-1.53468e-07
1.77868e-06
-1.30636e-07
1.83058e-06
-8.82115e-08
-4.68468e-10
1.86697e-06
-4.16475e-09
-1.94869e-08
-1.4419e-08
-3.36484e-09
-2.69468e-08
1.11551e-08
-4.10116e-08
2.34942e-08
-5.65205e-08
3.4236e-08
-7.35731e-08
4.35478e-08
-9.23333e-08
5.15012e-08
-1.12854e-07
5.81984e-08
-1.3514e-07
6.37992e-08
-1.59089e-07
6.85013e-08
-1.84615e-07
7.25091e-08
-2.11592e-07
7.60113e-08
-2.39957e-07
7.91688e-08
-2.69641e-07
8.21144e-08
-3.00642e-07
8.49567e-08
-3.3295e-07
8.77891e-08
-3.66592e-07
9.06952e-08
-4.01562e-07
9.37464e-08
-4.37832e-07
9.6997e-08
-4.75241e-07
1.00461e-07
-5.13471e-07
1.04069e-07
-5.5203e-07
1.0761e-07
-5.90639e-07
1.10715e-07
-6.30305e-07
1.1298e-07
-6.71427e-07
1.14503e-07
-7.12161e-07
1.1599e-07
-7.52094e-07
1.17434e-07
-7.91421e-07
1.18688e-07
-8.3058e-07
1.19697e-07
-8.69907e-07
1.20612e-07
-9.07673e-07
1.21791e-07
-9.42884e-07
1.22944e-07
-9.78757e-07
1.22871e-07
-1.01656e-06
1.21907e-07
-1.05438e-06
1.21034e-07
-1.09155e-06
1.20444e-07
-1.12804e-06
1.19941e-07
-1.16409e-06
1.19395e-07
-1.19979e-06
1.18822e-07
-1.23517e-06
1.18228e-07
-1.27027e-06
1.17616e-07
-1.30511e-06
1.16986e-07
-1.3397e-06
1.16341e-07
-1.37405e-06
1.15681e-07
-1.40818e-06
1.15005e-07
-1.44207e-06
1.14313e-07
-1.47573e-06
1.13602e-07
-1.50916e-06
1.12869e-07
-1.54234e-06
1.12109e-07
-1.57527e-06
1.11319e-07
-1.60792e-06
1.10492e-07
-1.6403e-06
1.09623e-07
-1.67238e-06
1.08707e-07
-1.70415e-06
1.07738e-07
-1.73558e-06
1.06709e-07
-1.76665e-06
1.05614e-07
-1.79734e-06
1.04448e-07
-1.82763e-06
1.03204e-07
-1.85748e-06
1.01878e-07
-1.88688e-06
1.00464e-07
-1.91578e-06
9.89567e-08
-1.94417e-06
9.73515e-08
-1.972e-06
9.56442e-08
-1.99925e-06
9.38301e-08
-2.02588e-06
9.19059e-08
-2.05186e-06
8.98678e-08
-2.07715e-06
8.77134e-08
-2.10173e-06
8.54397e-08
-2.12553e-06
8.30455e-08
-2.14855e-06
8.05283e-08
-2.17072e-06
7.78878e-08
-2.19203e-06
7.51224e-08
-2.21243e-06
7.22325e-08
-2.23188e-06
6.92176e-08
-2.25035e-06
6.60789e-08
-2.2678e-06
6.2817e-08
-2.28419e-06
5.94346e-08
-2.2995e-06
5.59335e-08
-2.31367e-06
5.23167e-08
-2.32669e-06
4.85869e-08
-2.33852e-06
4.47485e-08
-2.34913e-06
4.08054e-08
-2.3585e-06
3.67628e-08
-2.3666e-06
3.26259e-08
-2.3734e-06
2.84017e-08
-2.3789e-06
2.40973e-08
-2.38309e-06
1.9723e-08
-2.38595e-06
1.52886e-08
-2.38749e-06
1.08109e-08
-2.38772e-06
6.30435e-09
-2.38667e-06
1.79461e-09
-2.38433e-06
-2.69296e-09
-2.38066e-06
-7.14485e-09
-2.37562e-06
-1.15689e-08
-2.3692e-06
-1.59758e-08
-2.36137e-06
-2.03524e-08
-2.35216e-06
-2.46904e-08
-2.34157e-06
-2.89783e-08
-2.32962e-06
-3.3207e-08
-2.31633e-06
-3.73633e-08
-2.30172e-06
-4.14366e-08
-2.28583e-06
-4.54154e-08
-2.26869e-06
-4.92902e-08
-2.25034e-06
-5.30528e-08
-2.23081e-06
-5.6695e-08
-2.21015e-06
-6.02114e-08
-2.1884e-06
-6.35948e-08
-2.16562e-06
-6.68416e-08
-2.14183e-06
-6.99463e-08
-2.1171e-06
-7.29067e-08
-2.09146e-06
-7.57196e-08
-2.06497e-06
-7.83845e-08
-2.03766e-06
-8.09002e-08
-2.0096e-06
-8.3268e-08
-1.98081e-06
-8.54895e-08
-1.95135e-06
-8.75669e-08
-1.92125e-06
-8.95017e-08
-1.89056e-06
-9.12962e-08
-1.85931e-06
-9.29575e-08
-1.82754e-06
-9.44974e-08
-1.79529e-06
-9.59312e-08
-1.7626e-06
-9.72707e-08
-1.72948e-06
-9.85285e-08
-1.69594e-06
-9.97118e-08
-1.66201e-06
-1.00836e-07
-1.62767e-06
-1.01911e-07
-1.59294e-06
-1.02962e-07
-1.5578e-06
-1.04007e-07
-1.52224e-06
-1.05067e-07
-1.48623e-06
-1.06164e-07
-1.44976e-06
-1.07329e-07
-1.41276e-06
-1.08585e-07
-1.37521e-06
-1.09959e-07
-1.33702e-06
-1.11487e-07
-1.29813e-06
-1.1321e-07
-1.25847e-06
-1.15152e-07
-1.21793e-06
-1.17335e-07
-1.17641e-06
-1.19782e-07
-1.13379e-06
-1.22524e-07
-1.08997e-06
-1.25607e-07
-1.04484e-06
-1.29085e-07
-9.98282e-07
-1.33019e-07
-9.5013e-07
-1.37433e-07
-9.00212e-07
-1.42339e-07
-8.48354e-07
-1.47742e-07
-7.94387e-07
-1.53647e-07
-7.38136e-07
-1.60061e-07
-6.79439e-07
-1.66989e-07
-6.1811e-07
-1.74407e-07
-5.53997e-07
-1.82275e-07
-4.86946e-07
-1.90583e-07
-4.1683e-07
-1.99295e-07
-3.43539e-07
-2.08339e-07
-2.66997e-07
-2.17667e-07
-1.87149e-07
-2.27199e-07
-1.03998e-07
-2.36848e-07
-1.75696e-08
-2.46518e-07
7.20802e-08
-2.5611e-07
1.64803e-07
-2.65508e-07
2.60361e-07
-2.74563e-07
3.5844e-07
-2.83068e-07
4.58588e-07
-2.90921e-07
5.60259e-07
-2.97865e-07
6.63009e-07
-3.03561e-07
7.66478e-07
-3.07849e-07
8.70239e-07
-3.10687e-07
9.73842e-07
-3.12014e-07
1.07683e-06
-3.11804e-07
1.17874e-06
-3.1004e-07
1.27913e-06
-3.06726e-07
1.37753e-06
-3.01844e-07
1.47346e-06
-2.95363e-07
1.56644e-06
-2.87172e-07
1.65589e-06
-2.77054e-07
1.74113e-06
-2.64532e-07
1.82122e-06
-2.4866e-07
1.89497e-06
-2.27228e-07
1.96075e-06
-1.96425e-07
2.01863e-06
-1.46089e-07
-5.71196e-08
2.07531e-06
-1.3236e-08
-6.26036e-09
-2.98661e-08
1.32616e-08
-4.73745e-08
2.86571e-08
-6.54635e-08
4.1584e-08
-8.42052e-08
5.29726e-08
-1.0376e-07
6.31045e-08
-1.24345e-07
7.20807e-08
-1.46119e-07
7.99749e-08
-1.69214e-07
8.68881e-08
-1.93665e-07
9.29545e-08
-2.1949e-07
9.83275e-08
-2.46641e-07
1.03163e-07
-2.75084e-07
1.07605e-07
-3.0475e-07
1.11779e-07
-3.35591e-07
1.15789e-07
-3.67521e-07
1.19717e-07
-4.00456e-07
1.23622e-07
-4.34251e-07
1.27539e-07
-4.6873e-07
1.31468e-07
-5.03641e-07
1.35367e-07
-5.38719e-07
1.39138e-07
-5.73737e-07
1.42621e-07
-6.08662e-07
1.45631e-07
-6.43722e-07
1.48031e-07
-6.79076e-07
1.49847e-07
-7.14385e-07
1.5129e-07
-7.49431e-07
1.52469e-07
-7.84166e-07
1.53414e-07
-8.18621e-07
1.54143e-07
-8.52721e-07
1.54703e-07
-8.86082e-07
1.55141e-07
-9.18513e-07
1.55365e-07
-9.50786e-07
1.55134e-07
-9.83397e-07
1.54508e-07
-1.01611e-06
1.5374e-07
-1.04866e-06
1.52979e-07
-1.08096e-06
1.5223e-07
-1.11304e-06
1.51468e-07
-1.14492e-06
1.50697e-07
-1.17663e-06
1.49918e-07
-1.20815e-06
1.49131e-07
-1.23951e-06
1.48336e-07
-1.27071e-06
1.47531e-07
-1.30175e-06
1.46713e-07
-1.33263e-06
1.4588e-07
-1.36335e-06
1.45027e-07
-1.39391e-06
1.4415e-07
-1.42429e-06
1.43243e-07
-1.45448e-06
1.423e-07
-1.48449e-06
1.41314e-07
-1.51428e-06
1.40279e-07
-1.54385e-06
1.39186e-07
-1.57318e-06
1.38028e-07
-1.60225e-06
1.36797e-07
-1.63103e-06
1.35487e-07
-1.65952e-06
1.34089e-07
-1.68768e-06
1.32596e-07
-1.71549e-06
1.31001e-07
-1.74292e-06
1.29297e-07
-1.76994e-06
1.27477e-07
-1.79653e-06
1.25535e-07
-1.82266e-06
1.23465e-07
-1.84829e-06
1.21262e-07
-1.87339e-06
1.18919e-07
-1.89793e-06
1.16433e-07
-1.92187e-06
1.13799e-07
-1.94518e-06
1.11014e-07
-1.96782e-06
1.08073e-07
-1.98976e-06
1.04976e-07
-2.01096e-06
1.0172e-07
-2.03139e-06
9.83026e-08
-2.05099e-06
9.47236e-08
-2.06975e-06
9.09826e-08
-2.08762e-06
8.70796e-08
-2.10456e-06
8.30157e-08
-2.12054e-06
7.87926e-08
-2.13553e-06
7.44127e-08
-2.14948e-06
6.98791e-08
-2.16237e-06
6.51956e-08
-2.17416e-06
6.03666e-08
-2.18482e-06
5.53978e-08
-2.19432e-06
5.02951e-08
-2.20263e-06
4.50658e-08
-2.20973e-06
3.97181e-08
-2.2156e-06
3.42616e-08
-2.22022e-06
2.87073e-08
-2.22358e-06
2.30678e-08
-2.22566e-06
1.73586e-08
-2.22645e-06
1.15945e-08
-2.22594e-06
5.79911e-09
-2.22415e-06
-1.34315e-11
-2.22104e-06
-5.82101e-09
-2.21659e-06
-1.16152e-08
-2.21079e-06
-1.73935e-08
-2.20364e-06
-2.31535e-08
-2.19514e-06
-2.88801e-08
-2.18529e-06
-3.45599e-08
-2.17411e-06
-4.01762e-08
-2.16162e-06
-4.57151e-08
-2.14784e-06
-5.11599e-08
-2.13279e-06
-5.64961e-08
-2.11651e-06
-6.1709e-08
-2.09901e-06
-6.67857e-08
-2.08035e-06
-7.17155e-08
-2.06056e-06
-7.64876e-08
-2.03968e-06
-8.10945e-08
-2.01775e-06
-8.55272e-08
-1.99481e-06
-8.97809e-08
-1.97092e-06
-9.38488e-08
-1.94611e-06
-9.77291e-08
-1.92042e-06
-1.01417e-07
-1.89391e-06
-1.04915e-07
-1.8666e-06
-1.08219e-07
-1.83856e-06
-1.11334e-07
-1.80981e-06
-1.14261e-07
-1.7804e-06