/*--------------------------------*- C++ -*----------------------------------*\
  =========                 |
  \\      /  F ield         | OpenFOAM: The Open Source CFD Toolbox
   \\    /   O peration     | Website:  https://openfoam.org
    \\  /    A nd           | Version:  8
     \\/     M anipulation  |
\*---------------------------------------------------------------------------*/
FoamFile
{
    version     2.0;
    format      ascii;
    class       volVectorField;
    location    "185";
    object      U;
}
// * * * * * * * * * * * * * * * * * * * * * * * * * * * * * * * * * * * * * //

dimensions      [0 1 -1 0 0 0 0];

internalField   nonuniform List<vector> 
12225
(
(9.85699 -0.88663 0)
(9.66629 -0.740717 0)
(9.45576 -0.429419 0)
(9.22447 -0.222143 0)
(9.00642 -0.106391 0)
(8.81427 -0.0458039 0)
(8.6473 -0.0151181 0)
(8.50508 0.000506482 0)
(8.38331 0.00843871 0)
(8.28047 0.0123341 0)
(8.19189 0.0140479 0)
(8.11555 0.0150708 0)
(8.04851 0.0154669 0)
(7.98913 0.0156804 0)
(7.93526 0.0159122 0)
(7.88816 0.0158265 0)
(7.83174 0.0188014 0)
(7.82227 0.0137088 0)
(10.0545 0.227705 0)
(10.1213 0.326969 0)
(10.1196 0.261656 0)
(10.0856 0.1866 0)
(10.0434 0.134708 0)
(9.99667 0.101149 0)
(9.94394 0.0793214 0)
(9.88514 0.0646004 0)
(9.82374 0.0543009 0)
(9.76115 0.0467233 0)
(9.69963 0.0409754 0)
(9.6397 0.0364508 0)
(9.58228 0.0328388 0)
(9.52774 0.0300465 0)
(9.47565 0.0276593 0)
(9.42785 0.0270305 0)
(9.37961 0.0241629 0)
(9.34576 0.035118 0)
(10.0035 0.0581563 0)
(10.0305 0.0559536 0)
(10.056 0.0337832 0)
(10.0703 0.0328992 0)
(10.0769 0.0406539 0)
(10.0778 0.0465587 0)
(10.0725 0.0493804 0)
(10.0613 0.0503358 0)
(10.046 0.0502482 0)
(10.0275 0.0495538 0)
(10.0069 0.0485377 0)
(9.98461 0.0474137 0)
(9.96136 0.0462879 0)
(9.93756 0.0453183 0)
(9.91342 0.0444193 0)
(9.88975 0.0443247 0)
(9.86605 0.0439163 0)
(9.84428 0.0471781 0)
(9.99772 0.0109508 0)
(10.0111 0.0266256 0)
(10.035 0.0371327 0)
(10.0525 0.0480821 0)
(10.0643 0.0554596 0)
(10.0734 0.0582014 0)
(10.0794 0.0583831 0)
(10.0823 0.0576557 0)
(10.0826 0.0566261 0)
(10.081 0.0554567 0)
(10.0779 0.0542216 0)
(10.0734 0.0530466 0)
(10.0679 0.051935 0)
(10.0617 0.0510134 0)
(10.0547 0.0502076 0)
(10.0476 0.0499846 0)
(10.0404 0.0497626 0)
(10.0335 0.0509501 0)
(9.99935 0.00710293 0)
(10.009 0.031703 0)
(10.0275 0.0439217 0)
(10.0418 0.0499303 0)
(10.0527 0.0536294 0)
(10.0628 0.0552641 0)
(10.0715 0.0555577 0)
(10.0782 0.055285 0)
(10.0833 0.0547649 0)
(10.0871 0.0540928 0)
(10.0898 0.0533283 0)
(10.0917 0.0525736 0)
(10.0927 0.0518541 0)
(10.0932 0.051265 0)
(10.0933 0.0507852 0)
(10.0931 0.0506593 0)
(10.0929 0.0506106 0)
(10.093 0.0510308 0)
(10.0003 0.00915289 0)
(10.0083 0.0312213 0)
(10.0227 0.0409625 0)
(10.0349 0.0454132 0)
(10.045 0.0490662 0)
(10.0547 0.0514117 0)
(10.0637 0.0524073 0)
(10.0713 0.0526598 0)
(10.0777 0.0525521 0)
(10.0832 0.0522251 0)
(10.088 0.0517594 0)
(10.0921 0.05125 0)
(10.0957 0.0507421 0)
(10.0988 0.0503063 0)
(10.1016 0.0499474 0)
(10.1042 0.049778 0)
(10.1069 0.0496601 0)
(10.1098 0.0495964 0)
(10.0004 0.00892815 0)
(10.0071 0.0271241 0)
(10.0191 0.0364373 0)
(10.0301 0.04142 0)
(10.0395 0.0454509 0)
(10.0486 0.0481276 0)
(10.0572 0.0494124 0)
(10.0648 0.049903 0)
(10.0716 0.0500045 0)
(10.0776 0.049866 0)
(10.0831 0.04957 0)
(10.0881 0.0492002 0)
(10.0926 0.0488087 0)
(10.0968 0.0484462 0)
(10.1008 0.0481239 0)
(10.1047 0.0478826 0)
(10.1085 0.0476352 0)
(10.1125 0.0472764 0)
(10.0004 0.00790608 0)
(10.006 0.023403 0)
(10.0161 0.0327625 0)
(10.0262 0.0381367 0)
(10.0351 0.0421403 0)
(10.0435 0.0448361 0)
(10.0517 0.046264 0)
(10.0591 0.0469201 0)
(10.0658 0.047172 0)
(10.0719 0.0471676 0)
(10.0776 0.04699 0)
(10.0829 0.0467147 0)
(10.0879 0.0463945 0)
(10.0926 0.0460666 0)
(10.097 0.045741 0)
(10.1014 0.0454214 0)
(10.1058 0.0450418 0)
(10.1102 0.0444918 0)
(10.0004 0.00695719 0)
(10.005 0.0204425 0)
(10.0137 0.0294817 0)
(10.0228 0.0349001 0)
(10.0311 0.038762 0)
(10.0391 0.041438 0)
(10.0468 0.0429883 0)
(10.0539 0.0437859 0)
(10.0605 0.0441565 0)
(10.0666 0.0442533 0)
(10.0723 0.0441608 0)
(10.0777 0.0439493 0)
(10.0828 0.0436688 0)
(10.0876 0.0433489 0)
(10.0923 0.0429957 0)
(10.0969 0.0425979 0)
(10.1014 0.0421019 0)
(10.106 0.0414241 0)
(10.0004 0.00613083 0)
(10.0043 0.0178743 0)
(10.0116 0.0263048 0)
(10.0198 0.0316233 0)
(10.0276 0.0353613 0)
(10.0351 0.0380033 0)
(10.0423 0.0396348 0)
(10.0492 0.0405369 0)
(10.0556 0.0409958 0)
(10.0616 0.0411668 0)
(10.0672 0.041135 0)
(10.0726 0.0409654 0)
(10.0777 0.0407042 0)
(10.0826 0.0403765 0)
(10.0873 0.0399861 0)
(10.0919 0.0395182 0)
(10.0965 0.0389302 0)
(10.101 0.0381698 0)
(10.0003 0.00537357 0)
(10.0036 0.0155654 0)
(10.0099 0.023268 0)
(10.0172 0.0283904 0)
(10.0245 0.0319879 0)
(10.0315 0.0345547 0)
(10.0383 0.0362126 0)
(10.0449 0.0371797 0)
(10.0511 0.0376999 0)
(10.0569 0.0379233 0)
(10.0625 0.0379337 0)
(10.0677 0.0377906 0)
(10.0728 0.0375365 0)
(10.0776 0.037194 0)
(10.0823 0.0367666 0)
(10.0869 0.0362417 0)
(10.0914 0.0355882 0)
(10.0957 0.03478 0)
(10.0003 0.00470999 0)
(10.0032 0.0136263 0)
(10.0086 0.0206232 0)
(10.0152 0.0254811 0)
(10.0219 0.0289138 0)
(10.0285 0.031376 0)
(10.035 0.0330154 0)
(10.0413 0.0340095 0)
(10.0473 0.0345631 0)
(10.053 0.0348166 0)
(10.0584 0.0348509 0)
(10.0636 0.0347213 0)
(10.0685 0.0344669 0)
(10.0733 0.0341088 0)
(10.0779 0.0336521 0)
(10.0824 0.0330883 0)
(10.0868 0.0323963 0)
(10.091 0.0315694 0)
(10.0003 0.00409613 0)
(10.0028 0.0118586 0)
(10.0075 0.0181253 0)
(10.0134 0.0226424 0)
(10.0196 0.0258755 0)
(10.0258 0.0282073 0)
(10.032 0.0297953 0)
(10.038 0.0307884 0)
(10.0438 0.0313563 0)
(10.0493 0.0316254 0)
(10.0546 0.0316728 0)
(10.0597 0.0315497 0)
(10.0646 0.0312921 0)
(10.0693 0.0309204 0)
(10.0738 0.0304417 0)
(10.0782 0.0298527 0)
(10.0824 0.0291399 0)
(10.0865 0.0283122 0)
(10.0002 0.00346192 0)
(10.0024 0.0100217 0)
(10.0064 0.0154463 0)
(10.0117 0.0194975 0)
(10.0174 0.0224471 0)
(10.0232 0.0245882 0)
(10.029 0.0260736 0)
(10.0347 0.0270274 0)
(10.0402 0.0275838 0)
(10.0456 0.0278507 0)
(10.0507 0.0278986 0)
(10.0556 0.0277745 0)
(10.0604 0.0275104 0)
(10.065 0.0271268 0)
(10.0694 0.0266323 0)
(10.0736 0.0260294 0)
(10.0776 0.0253119 0)
(10.0816 0.0244997 0)
(10.0002 0.00280326 0)
(10.002 0.00811378 0)
(10.0055 0.0125959 0)
(10.0101 0.0160511 0)
(10.0153 0.0186147 0)
(10.0206 0.0204894 0)
(10.026 0.0218073 0)
(10.0314 0.0226691 0)
(10.0367 0.0231761 0)
(10.0418 0.0234144 0)
(10.0467 0.023445 0)
(10.0515 0.0233088 0)
(10.0561 0.0230346 0)
(10.0605 0.0226413 0)
(10.0648 0.0221403 0)
(10.0689 0.0215377 0)
(10.0728 0.0208345 0)
(10.0765 0.0200557 0)
(10.0002 0.00211938 0)
(10.0017 0.00613636 0)
(10.0047 0.00958226 0)
(10.0087 0.0123074 0)
(10.0134 0.0143653 0)
(10.0183 0.01588 0)
(10.0233 0.0169507 0)
(10.0283 0.0176533 0)
(10.0333 0.0180597 0)
(10.0382 0.018233 0)
(10.0429 0.0182215 0)
(10.0475 0.0180586 0)
(10.0519 0.0177687 0)
(10.0562 0.0173688 0)
(10.0603 0.0168711 0)
(10.0642 0.0162846 0)
(10.0679 0.0156136 0)
(10.0715 0.0148866 0)
(10.0002 0.0014072 0)
(10.0015 0.00407504 0)
(10.0041 0.00638833 0)
(10.0076 0.00824854 0)
(10.0118 0.00966916 0)
(10.0163 0.0107145 0)
(10.0209 0.0114455 0)
(10.0257 0.0119108 0)
(10.0304 0.0121553 0)
(10.035 0.0122195 0)
(10.0395 0.0121358 0)
(10.0439 0.0119287 0)
(10.0482 0.0116158 0)
(10.0522 0.0112114 0)
(10.0561 0.010726 0)
(10.0599 0.0101695 0)
(10.0634 0.00954652 0)
(10.0668 0.00888524 0)
(10.0001 0.000650133 0)
(10.0013 0.00187757 0)
(10.0036 0.00294118 0)
(10.0069 0.00379323 0)
(10.0107 0.00443431 0)
(10.0149 0.00488674 0)
(10.0192 0.00517337 0)
(10.0237 0.00531401 0)
(10.0282 0.00532766 0)
(10.0326 0.0052322 0)
(10.0369 0.00504259 0)
(10.0411 0.00477083 0)
(10.0452 0.00442657 0)
(10.0491 0.00401818 0)
(10.0528 0.00355282 0)
(10.0564 0.00303776 0)
(10.0598 0.002477 0)
(10.063 0.00189403 0)
(10.0001 -0.000195049 0)
(10.0012 -0.00057858 0)
(10.0035 -0.000933271 0)
(10.0066 -0.00125179 0)
(10.0103 -0.00153352 0)
(10.0143 -0.00179242 0)
(10.0185 -0.0020467 0)
(10.0228 -0.00230833 0)
(10.0272 -0.00258525 0)
(10.0314 -0.00288305 0)
(10.0356 -0.0032068 0)
(10.0397 -0.00355897 0)
(10.0436 -0.00394099 0)
(10.0474 -0.0043523 0)
(10.051 -0.00479205 0)
(10.0544 -0.00525749 0)
(10.0577 -0.00574795 0)
(10.0608 -0.00624628 0)
(10.0001 -0.0010039 0)
(10.0013 -0.00293622 0)
(10.0037 -0.00465892 0)
(10.007 -0.00609378 0)
(10.0108 -0.00723727 0)
(10.015 -0.00814958 0)
(10.0193 -0.00889195 0)
(10.0237 -0.00950692 0)
(10.0281 -0.0100285 0)
(10.0324 -0.010489 0)
(10.0366 -0.0109128 0)
(10.0406 -0.0113175 0)
(10.0444 -0.0117139 0)
(10.0482 -0.0121102 0)
(10.0517 -0.0125108 0)
(10.0551 -0.0129189 0)
(10.0583 -0.0133361 0)
(10.0613 -0.0137524 0)
(10.0002 -0.00170146 0)
(10.0015 -0.00499536 0)
(10.0041 -0.00791523 0)
(10.0078 -0.0102601 0)
(10.012 -0.0120511 0)
(10.0165 -0.0134385 0)
(10.021 -0.0145285 0)
(10.0256 -0.0153784 0)
(10.0301 -0.0160449 0)
(10.0344 -0.0165872 0)
(10.0387 -0.0170494 0)
(10.0427 -0.0174608 0)
(10.0466 -0.0178402 0)
(10.0503 -0.0182021 0)
(10.0538 -0.0185552 0)
(10.0572 -0.0189056 0)
(10.0603 -0.019257 0)
(10.0633 -0.0196027 0)
(10.0002 -0.00236372 0)
(10.0016 -0.00702947 0)
(10.0047 -0.0111688 0)
(10.009 -0.014334 0)
(10.0137 -0.0166258 0)
(10.0185 -0.0183548 0)
(10.0234 -0.0196815 0)
(10.0282 -0.0206766 0)
(10.0329 -0.0214219 0)
(10.0374 -0.0219983 0)
(10.0417 -0.022463 0)
(10.0458 -0.022852 0)
(10.0497 -0.0231928 0)
(10.0534 -0.023504 0)
(10.0569 -0.0237997 0)
(10.0603 -0.0240866 0)
(10.0634 -0.0243712 0)
(10.0664 -0.0246478 0)
(10.0002 -0.00298302 0)
(10.0018 -0.00908927 0)
(10.0054 -0.0144451 0)
(10.0105 -0.0183316 0)
(10.0159 -0.0210721 0)
(10.0212 -0.023091 0)
(10.0263 -0.0245435 0)
(10.0314 -0.0255549 0)
(10.0363 -0.0262796 0)
(10.041 -0.0268275 0)
(10.0454 -0.0272553 0)
(10.0495 -0.0275986 0)
(10.0535 -0.0278869 0)
(10.0572 -0.0281427 0)
(10.0608 -0.02838 0)
(10.0641 -0.0286074 0)
(10.0673 -0.0288303 0)
(10.0702 -0.0290463 0)
(10.0001 -0.00352737 0)
(10.0018 -0.0115479 0)
(10.0063 -0.0178865 0)
(10.0123 -0.0219816 0)
(10.0183 -0.0250451 0)
(10.0241 -0.0274517 0)
(10.0297 -0.0290874 0)
(10.0351 -0.0300956 0)
(10.0402 -0.0307466 0)
(10.045 -0.0312055 0)
(10.0495 -0.0315396 0)
(10.0537 -0.03179 0)
(10.0577 -0.0319901 0)
(10.0615 -0.0321644 0)
(10.065 -0.0323257 0)
(10.0683 -0.0324821 0)
(10.0714 -0.0326363 0)
(10.0744 -0.0327858 0)
(9.99991 -0.00337178 0)
(10.0016 -0.0149814 0)
(10.0073 -0.0227318 0)
(10.0142 -0.0262379 0)
(10.0206 -0.0288204 0)
(10.0269 -0.0311831 0)
(10.0331 -0.0329024 0)
(10.039 -0.0339891 0)
(10.0445 -0.034688 0)
(10.0495 -0.0351514 0)
(10.0541 -0.0354497 0)
(10.0584 -0.0356373 0)
(10.0624 -0.0357602 0)
(10.0661 -0.0358493 0)
(10.0695 -0.0359226 0)
(10.0727 -0.0359902 0)
(10.0756 -0.0360568 0)
(10.0783 -0.036121 0)
(9.99859 -0.000379575 0)
(9.99904 -0.0157935 0)
(10.0076 -0.0274313 0)
(10.0166 -0.0324853 0)
(10.0238 -0.0348592 0)
(10.0307 -0.0362136 0)
(10.0376 -0.0369643 0)
(10.0441 -0.0374309 0)
(10.0499 -0.0377794 0)
(10.055 -0.0380265 0)
(10.0596 -0.0381719 0)
(10.0637 -0.0382411 0)
(10.0673 -0.0382634 0)
(10.0704 -0.0382603 0)
(10.0732 -0.0382469 0)
(10.0756 -0.0382318 0)
(10.0778 -0.038219 0)
(10.0796 -0.0382059 0)
(9.99487 0.0014072 0)
(9.99287 -0.00812071 0)
(10.006 -0.0203266 0)
(10.0202 -0.0322575 0)
(10.0307 -0.0404631 0)
(10.0393 -0.0441363 0)
(10.0467 -0.0450493 0)
(10.0529 -0.0449058 0)
(10.0578 -0.0444396 0)
(10.0617 -0.0438438 0)
(10.0647 -0.0432 0)
(10.0668 -0.0425645 0)
(10.0683 -0.0419714 0)
(10.0691 -0.041429 0)
(10.0695 -0.0409464 0)
(10.0693 -0.0405215 0)
(10.0689 -0.0401507 0)
(10.0681 -0.0398081 0)
(9.9947 -0.0305763 0)
(9.99943 -0.0228478 0)
(10.0146 -0.00261594 0)
(10.0304 -0.00189573 0)
(10.0434 -0.011647 0)
(10.0533 -0.0209125 0)
(10.0594 -0.0272712 0)
(10.0619 -0.0314985 0)
(10.0615 -0.0342737 0)
(10.0591 -0.0359703 0)
(10.0551 -0.036903 0)
(10.0498 -0.0373372 0)
(10.0435 -0.0374636 0)
(10.0365 -0.0374025 0)
(10.029 -0.0372426 0)
(10.021 -0.0370419 0)
(10.0129 -0.0368636 0)
(10.0047 -0.0366755 0)
(10.0274 -0.183006 0)
(10.0766 -0.288323 0)
(10.0871 -0.247819 0)
(10.0777 -0.186556 0)
(10.0664 -0.140319 0)
(10.0538 -0.108237 0)
(10.0365 -0.0858889 0)
(10.0146 -0.0704295 0)
(9.9894 -0.0596574 0)
(9.96237 -0.0518805 0)
(9.9344 -0.0460576 0)
(9.90609 -0.0415596 0)
(9.87792 -0.0380033 0)
(9.85023 -0.0351275 0)
(9.82324 -0.032765 0)
(9.79708 -0.0308423 0)
(9.77199 -0.0293251 0)
(9.748 -0.0285109 0)
(9.93575 0.689541 0)
(9.86828 0.609596 0)
(9.76459 0.380607 0)
(9.62663 0.217413 0)
(9.4859 0.119245 0)
(9.35722 0.0631632 0)
(9.24272 0.0315515 0)
(9.14115 0.0136004 0)
(9.0515 0.0032471 0)
(8.97253 -0.00281344 0)
(8.90263 -0.00636681 0)
(8.84047 -0.00848508 0)
(8.78477 -0.00973181 0)
(8.73467 -0.01049 0)
(8.68925 -0.0109715 0)
(8.64791 -0.0112488 0)
(8.60972 -0.0114742 0)
(8.57437 -0.012114 0)
(0.00755022 -0.0174125 -7.31985e-19)
(0.0222052 -0.0202146 5.4313e-19)
(0.0307719 -0.011991 0)
(0.0335181 -0.00178059 0)
(0.0297949 0.00703312 0)
(0.0210213 0.0134181 -2.35031e-19)
(0.00853406 0.0175651 0)
(-0.00662379 0.0200611 0)
(-0.0236726 0.0214941 0)
(-0.0420536 0.0223202 0)
(-0.061432 0.0228346 1.28459e-19)
(-0.0815777 0.0232031 0)
(-0.102344 0.0234974 0)
(-0.123639 0.0237524 0)
(-0.145398 0.0240012 0)
(-0.167574 0.0243226 8.82386e-20)
(-0.190097 0.0248515 0)
(-0.212899 0.0257956 0)
(-0.236009 0.0273979 0)
(-0.259508 0.0303149 0)
(-0.283553 0.0352823 0)
(-0.30818 0.0431922 0)
(-0.333074 0.0548954 0)
(-0.362167 0.0363885 1.14327e-19)
(-0.392578 0.000478561 -1.28369e-19)
(-0.415949 0.000546847 1.22263e-19)
(-0.44601 0.00323468 1.16142e-19)
(-0.479873 0.00577851 0)
(-0.515052 0.00701574 0)
(-0.552213 0.000412503 -8.36498e-20)
(-0.588816 0.0400499 -6.13279e-20)
(-0.625022 0.0866385 0)
(-0.668786 0.0714821 0)
(-0.710925 0.0288681 -8.22801e-20)
(-0.744341 0.0271711 0)
(-0.779223 0.0328287 0)
(-0.816693 0.0360296 7.30193e-20)
(-0.855965 0.0355227 0)
(-0.894747 0.0356167 6.82196e-20)
(-0.933947 0.0356056 1.32121e-19)
(-0.97326 0.0355124 0)
(-1.01264 0.0353259 0)
(-1.05202 0.0350948 0)
(-1.09137 0.0348294 0)
(-1.13066 0.0345462 0)
(-1.16987 0.0342483 1.11522e-19)
(-1.20899 0.0339444 1.0879e-19)
(-1.24801 0.0336324 1.06214e-19)
(-1.28692 0.0333182 0)
(-1.32571 0.032997 -1.01476e-19)
(-1.36437 0.0326737 0)
(-1.40288 0.0323417 9.72175e-20)
(-1.44124 0.0320053 9.52443e-20)
(-1.47943 0.0316577 0)
(-1.51743 0.0313031 0)
(-1.55523 0.0309333 0)
(-1.59279 0.0305526 8.82141e-20)
(-1.6301 0.0301539 0)
(-1.66714 0.0297412 0)
(-1.70386 0.0293063 0)
(-1.74025 0.0288542 0)
(-1.77626 0.0283778 0)
(-1.81188 0.0278815 0)
(-1.84705 0.0273576 0)
(-1.88174 0.0268116 0)
(-1.91591 0.0262362 -7.59764e-20)
(-1.94953 0.0256369 0)
(-1.98255 0.0250071 0)
(-2.01493 0.0243525 7.26236e-20)
(-2.04661 0.0236666 7.15607e-20)
(-2.07757 0.0229555 0)
(-2.10775 0.0222128 -6.95022e-20)
(-2.1371 0.0214443 6.85017e-20)
(-2.16558 0.0206443 0)
(-2.19314 0.0198186 -6.6547e-20)
(-2.21975 0.0189616 0)
(-2.24534 0.0180796 0)
(-2.26987 0.017168 6.36982e-20)
(-2.29329 0.0162319 0)
(-2.31556 0.0152665 -6.18301e-20)
(-2.33664 0.0142769 0)
(-2.35646 0.0132589 5.99688e-20)
(-2.375 0.0122159 5.90361e-20)
(-2.39221 0.0111427 5.80997e-20)
(-2.40804 0.0100423 1.14316e-19)
(-2.42244 0.00890978 -1.12419e-19)
(-2.43538 0.00774675 0)
(-2.4468 0.00654668 0)
(-2.45663 0.00530968 0)
(-2.46481 0.00402706 -1.0464e-19)
(-2.47129 0.00270396 -1.02641e-19)
(-2.47599 0.00136178 1.00618e-19)
(-2.4788 9.03882e-05 0)
(-2.47974 -0.00101693 -9.64264e-20)
(-2.47927 -0.00200309 -9.42501e-20)
(-2.47732 -0.0029508 -9.2025e-20)
(-2.47395 -0.00387127 0)
(-2.46919 -0.00477526 0)
(-2.46304 -0.00565795 0)
(-2.45553 -0.00651531 -8.25737e-20)
(-2.44667 -0.00734314 0)
(-2.43648 -0.00814281 0)
(-2.425 -0.00891409 7.48651e-20)
(-2.41226 -0.00965502 0)
(-2.39828 -0.0103654 0)
(-2.38311 -0.0110421 6.66046e-20)
(-2.36679 -0.0116858 0)
(-2.34937 -0.0122929 0)
(-2.33088 -0.0128647 -5.77961e-20)
(-2.31137 -0.0133977 -5.47407e-20)
(-2.2909 -0.0138935 0)
(-2.26951 -0.0143487 4.84569e-20)
(-2.24724 -0.0147649 0)
(-2.22415 -0.0151397 -4.19496e-20)
(-2.20028 -0.0154741 0)
(-2.17569 -0.0157662 -3.52299e-20)
(-2.15043 -0.0160153 -3.17946e-20)
(-2.12452 -0.016221 0)
(-2.09802 -0.0163842 0)
(-2.07098 -0.0165094 0)
(-2.04345 -0.0165978 0)
(-2.01548 -0.0166526 0)
(-1.98709 -0.016673 0)
(-1.95831 -0.0166796 0)
(-1.92914 -0.0166963 -2.71432e-21)
(-1.89959 -0.0166293 -1.09934e-21)
(-1.8697 -0.0164985 0)
(-1.83947 -0.0163557 0)
(-1.80891 -0.0161673 0)
(-1.778 -0.0160119 0)
(-1.74672 -0.0158326 -4.14091e-20)
(-1.71506 -0.0156547 0)
(-1.68296 -0.0154674 5.76384e-20)
(-1.6504 -0.0152939 -6.58922e-20)
(-1.6173 -0.0151242 0)
(-1.58359 -0.0149511 0)
(-1.5492 -0.0148071 0)
(-1.514 -0.0147658 1.00201e-19)
(-1.47788 -0.01473 1.09207e-19)
(-1.44073 -0.0147535 0)
(-1.40249 -0.0148698 1.27941e-19)
(-1.36304 -0.0150848 1.3775e-19)
(-1.32227 -0.0153664 -1.47935e-19)
(-1.28004 -0.0157224 0)
(-1.23618 -0.0162718 0)
(-1.19049 -0.0169416 -1.81824e-19)
(-1.14285 -0.017743 0)
(-1.09302 -0.018729 0)
(-1.04092 -0.0198378 0)
(-0.986326 -0.021129 0)
(-0.929125 -0.0225786 2.57066e-19)
(-0.869193 -0.0242104 2.76687e-19)
(-0.806359 -0.0260392 0)
(-0.740501 -0.0280567 3.22732e-19)
(-0.671533 -0.0302659 0)
(-0.59936 -0.0326708 0)
(-0.523915 -0.0352677 4.1514e-19)
(-0.445147 -0.0380566 0)
(-0.363024 -0.041061 4.99223e-19)
(-0.277667 -0.0443044 0)
(-0.189041 -0.0477063 0)
(-0.0974547 -0.0510043 6.7198e-19)
(-0.00218019 -0.0528766 0)
(0.0974727 -0.0531644 6.60861e-19)
(0.200174 -0.0531796 0)
(0.305438 -0.0530245 0)
(0.412651 -0.0526951 0)
(0.521205 -0.0521793 -5.82307e-19)
(0.630471 -0.0514651 0)
(0.739848 -0.0505504 5.55734e-19)
(0.848699 -0.0494385 0)
(0.956388 -0.0481192 0)
(1.06226 -0.0465766 0)
(1.1656 -0.0447857 0)
(1.26563 -0.0426922 0)
(1.36094 -0.0401686 0)
(1.45069 -0.0367782 0)
(1.52688 -0.0318177 -9.97969e-19)
(1.59866 -0.0216154 0)
(1.58099 0.00304824 0)
(0.00417667 -0.0433457 1.63938e-18)
(0.00798578 -0.0316697 -8.63546e-19)
(0.00480231 -0.0117787 0)
(-0.00136436 0.00623253 2.5782e-19)
(-0.0103184 0.0214722 0)
(-0.0219736 0.0335701 9.51024e-20)
(-0.036142 0.0426778 -1.72255e-19)
(-0.0525928 0.04928 -1.58222e-19)
(-0.0710299 0.0539732 0)
(-0.0911547 0.0573168 -1.36695e-19)
(-0.112713 0.0597521 -6.42087e-20)
(-0.1355 0.0615966 0)
(-0.159378 0.063057 0)
(-0.184268 0.0642681 0)
(-0.210143 0.0653152 0)
(-0.237027 0.0662647 -5.09513e-20)
(-0.264977 0.0671707 0)
(-0.294119 0.0680803 9.70723e-20)
(-0.324653 0.0690257 0)
(-0.356748 0.0700542 0)
(-0.39046 0.0712555 -1.00205e-19)
(-0.425501 0.0728159 0)
(-0.460759 0.0751186 1.13675e-19)
(-0.499651 0.0776218 -6.20971e-20)
(-0.540332 0.0799839 6.1706e-20)
(-0.581414 0.0842358 -5.89283e-20)
(-0.620461 0.0882299 -5.56323e-20)
(-0.658096 0.0910717 0)
(-0.695268 0.0924867 0)
(-0.735067 0.092258 4.35808e-20)
(-0.772733 0.0912778 -3.93423e-20)
(-0.808155 0.0921563 0)
(-0.845222 0.0915324 0)
(-0.885203 0.0910752 3.93839e-20)
(-0.927305 0.0918674 0)
(-0.967363 0.0924569 0)
(-1.00596 0.0928441 -3.62268e-20)
(-1.04372 0.0927032 0)
(-1.08109 0.0921777 3.43899e-20)
(-1.11812 0.0914966 -6.7566e-20)
(-1.15483 0.090703 0)
(-1.19127 0.0898267 0)
(-1.22746 0.0888964 -1.26516e-19)
(-1.2634 0.0879285 -1.24029e-19)
(-1.29911 0.0869384 -1.21663e-19)
(-1.33458 0.0859313 5.9543e-20)
(-1.36982 0.0849152 -5.87883e-20)
(-1.40483 0.0838885 -1.72957e-19)
(-1.4396 0.0828551 1.13228e-19)
(-1.47412 0.0818097 5.58281e-20)
(-1.50838 0.0807544 0)
(-1.54238 0.0796821 -5.40459e-20)
(-1.5761 0.0785942 5.28908e-20)
(-1.60953 0.077483 0)
(-1.64264 0.0763496 0)
(-1.67543 0.0751854 0)
(-1.70786 0.0739922 -5.01063e-20)
(-1.73992 0.0727619 0)
(-1.77158 0.0714964 9.7093e-20)
(-1.80281 0.0701874 0)
(-1.83359 0.068838 9.4421e-20)
(-1.86389 0.0674406 0)
(-1.89367 0.0659985 -9.18721e-20)
(-1.92291 0.0645042 0)
(-1.95158 0.0629619 8.94253e-20)
(-1.97964 0.0613648 -4.39899e-20)
(-2.00705 0.059718 0)
(-2.03379 0.0580155 -8.59043e-20)
(-2.05981 0.0562629 -4.24964e-20)
(-2.08509 0.0544549 -4.19267e-20)
(-2.10958 0.0525976 0)
(-2.13324 0.0506861 -4.05952e-20)
(-2.15606 0.048727 -4.02414e-20)
(-2.17797 0.0467158 0)
(-2.19896 0.0446595 3.91279e-20)
(-2.21899 0.0425544 -7.69794e-20)
(-2.23801 0.0404081 0)
(-2.256 0.0382184 -3.74538e-20)
(-2.27292 0.035992 0)
(-2.28873 0.0337263 1.08859e-19)
(-2.30341 0.0314285 0)
(-2.31691 0.0290971 -1.05442e-19)
(-2.32922 0.0267385 -3.45932e-20)
(-2.3403 0.0243505 3.39459e-20)
(-2.35013 0.0219389 6.67271e-20)
(-2.35869 0.0195013 -6.55466e-20)
(-2.36596 0.017042 0)
(-2.37193 0.0145582 0)
(-2.3766 0.0120515 0)
(-2.37998 0.00952107 1.81773e-19)
(-2.38213 0.0069718 5.92596e-20)
(-2.38313 0.00442969 -5.79344e-20)
(-2.3831 0.00196982 0)
(-2.38207 -0.000322255 -5.53441e-20)
(-2.37971 -0.00247309 5.37309e-20)
(-2.37601 -0.00455301 5.22785e-20)
(-2.37095 -0.00656915 0)
(-2.36454 -0.00853153 0)
(-2.35679 -0.010438 0)
(-2.34771 -0.0122873 4.6212e-20)
(-2.33732 -0.014073 0)
(-2.32565 -0.0157923 -8.64979e-20)
(-2.31273 -0.0174412 -1.24663e-19)
(-2.29857 -0.0190168 7.9988e-20)
(-2.28323 -0.0205181 0)
(-2.26673 -0.0219421 3.69247e-20)
(-2.24912 -0.0232894 0)
(-2.23044 -0.0245568 6.64246e-20)
(-2.21072 -0.025746 -3.17794e-20)
(-2.19002 -0.0268542 -3.00256e-20)
(-2.16837 -0.0278839 0)
(-2.14583 -0.028833 -7.80448e-20)
(-2.12243 -0.0297049 4.86392e-20)
(-2.09821 -0.0304989 2.21467e-20)
(-2.07324 -0.0312192 0)
(-2.04754 -0.0318661 1.84666e-20)
(-2.02116 -0.0324419 5.05782e-20)
(-1.99415 -0.032946 0)
(-1.96653 -0.0333832 2.65422e-20)
(-1.93835 -0.0337606 2.28236e-20)
(-1.90965 -0.0340874 1.91038e-20)
(-1.88046 -0.0343706 0)
(-1.85082 -0.0346114 0)
(-1.82074 -0.0348146 0)
(-1.79024 -0.034979 -2.48845e-21)
(-1.75932 -0.035117 4.65211e-23)
(-1.728 -0.0352351 0)
(-1.69626 -0.0353451 6.70621e-21)
(-1.66409 -0.0354468 1.03223e-20)
(-1.6315 -0.035558 0)
(-1.59845 -0.0356719 1.80755e-20)
(-1.56491 -0.0358159 4.20237e-20)
(-1.53084 -0.0359825 -2.5067e-20)
(-1.49617 -0.0362049 -2.74562e-20)
(-1.46085 -0.0364805 0)
(-1.4248 -0.036834 0)
(-1.38793 -0.0372493 0)
(-1.35012 -0.0377457 -4.19915e-20)
(-1.31127 -0.0383215 4.44765e-20)
(-1.27126 -0.0389991 9.6369e-20)
(-1.22999 -0.0398022 -5.18328e-20)
(-1.18735 -0.0407496 5.4368e-20)
(-1.14321 -0.0418554 5.834e-20)
(-1.09737 -0.0431044 0)
(-1.04965 -0.0445012 0)
(-0.999897 -0.0460418 -6.77225e-20)
(-0.947891 -0.0477451 0)
(-0.893465 -0.0495984 0)
(-0.836441 -0.0515925 1.58036e-19)
(-0.77662 -0.0537035 0)
(-0.713835 -0.055961 8.67661e-20)
(-0.647914 -0.0583424 -9.23291e-20)
(-0.578697 -0.0608324 0)
(-0.506067 -0.0634187 1.01243e-19)
(-0.429916 -0.0660975 0)
(-0.350154 -0.0688501 0)
(-0.266738 -0.0716729 -1.21523e-19)
(-0.179656 -0.0745454 2.55608e-19)
(-0.0889497 -0.0774284 -1.36487e-19)
(0.00538878 -0.0801662 0)
(0.103424 -0.0827952 0)
(0.204817 -0.0855177 1.45725e-19)
(0.308816 -0.08782 0)
(0.414712 -0.0893405 1.53494e-19)
(0.522187 -0.090294 0)
(0.63098 -0.0907623 0)
(0.740648 -0.0907511 0)
(0.850714 -0.0902688 1.73229e-19)
(0.960686 -0.0893224 0)
(1.07007 -0.087927 -1.81102e-19)
(1.17835 -0.0860891 0)
(1.285 -0.0838143 0)
(1.38948 -0.0810806 3.80723e-19)
(1.49116 -0.0778474 -3.87477e-19)
(1.58933 -0.0739826 0)
(1.68284 -0.0692195 0)
(1.77067 -0.0627134 0)
(1.84836 -0.053185 1.24747e-18)
(1.91916 -0.034552 0)
(1.956 0.00521091 -8.87515e-19)
(-0.0033071 -0.0440309 -1.12473e-21)
(-0.00864898 -0.018439 8.23915e-19)
(-0.0181184 0.00700769 0)
(-0.0297234 0.0286991 -3.28453e-19)
(-0.0428881 0.0472163 0)
(-0.0573827 0.062754 0)
(-0.0733191 0.0754616 6.72501e-23)
(-0.0908194 0.0856121 1.02111e-19)
(-0.109917 0.0936027 9.62237e-20)
(-0.130565 0.0998849 9.1472e-20)
(-0.152676 0.104894 0)
(-0.176151 0.109005 0)
(-0.200906 0.112517 -8.04257e-20)
(-0.226885 0.115662 -1.55283e-19)
(-0.254059 0.11862 1.50451e-19)
(-0.282423 0.121538 0)
(-0.311978 0.124548 1.42976e-19)
(-0.342729 0.127771 -7.04326e-20)
(-0.374667 0.131323 0)
(-0.407715 0.135302 1.38303e-19)
(-0.441663 0.139711 6.96068e-20)
(-0.4762 0.144332 -1.40346e-19)
(-0.511116 0.148563 -7.10923e-20)
(-0.546931 0.151216 0)
(-0.583666 0.152624 1.39731e-19)
(-0.6207 0.154598 1.34868e-19)
(-0.657246 0.156658 0)
(-0.693188 0.158203 1.23352e-19)
(-0.728697 0.158853 0)
(-0.764049 0.158714 1.12209e-19)
(-0.798628 0.159407 5.40134e-20)
(-0.832005 0.160531 0)
(-0.864863 0.158834 0)
(-0.898588 0.155367 0)
(-0.933098 0.152768 0)
(-0.967444 0.151033 0)
(-1.00125 0.149513 0)
(-1.03454 0.14789 9.29239e-20)
(-1.06752 0.146234 -1.366e-19)
(-1.10025 0.144552 0)
(-1.13276 0.142849 0)
(-1.16507 0.141126 0)
(-1.19719 0.139391 1.58112e-22)
(-1.22914 0.137647 8.29518e-20)
(-1.26092 0.1359 1.62879e-19)
(-1.29254 0.134149 -1.60133e-19)
(-1.324 0.132395 -7.86632e-20)
(-1.35529 0.130635 7.75639e-20)
(-1.38641 0.128868 -1.71678e-22)
(-1.41735 0.127086 7.49904e-20)
(-1.4481 0.125287 0)
(-1.47865 0.123464 7.27465e-20)
(-1.50898 0.121614 -1.74067e-22)
(-1.53908 0.119728 0)
(-1.56893 0.117804 0)
(-1.59851 0.115835 -6.86477e-20)
(-1.62781 0.113817 0)
(-1.65679 0.111743 0)
(-1.68544 0.109612 6.56745e-20)
(-1.71374 0.107418 1.29896e-19)
(-1.74164 0.105158 -6.42343e-20)
(-1.76914 0.102829 0)
(-1.79619 0.100429 6.25211e-20)
(-1.82276 0.0979535 0)
(-1.84884 0.0954036 6.05577e-20)
(-1.87438 0.0927758 6.00427e-20)
(-1.89935 0.0900712 -1.18186e-19)
(-1.92372 0.087288 -5.81596e-20)
(-1.94746 0.0844282 0)
(-1.97052 0.0814906 1.13447e-19)
(-1.99288 0.078478 0)
(-2.0145 0.0753903 1.65612e-19)
(-2.03533 0.0722308 1.08777e-19)
(-2.05536 0.0690001 1.07224e-19)
(-2.07454 0.0657023 -1.0567e-19)
(-2.09283 0.0623391 1.56259e-19)
(-2.11021 0.0589158 0)
(-2.12663 0.0554348 0)
(-2.14206 0.0519015 -9.93939e-20)
(-2.15646 0.0483186 -1.46761e-19)
(-2.16982 0.0446923 0)
(-2.18208 0.0410263 4.73281e-20)
(-2.19324 0.0373271 0)
(-2.20325 0.0335989 -1.36925e-19)
(-2.2121 0.0298491 -3.51039e-23)
(-2.21977 0.0260834 1.66356e-23)
(-2.22624 0.0223109 8.61554e-20)
(-2.2315 0.0185403 0)
(-2.23554 0.0147848 -8.26304e-20)
(-2.23837 0.0110606 5.90256e-23)
(-2.24001 0.00738988 0)
(-2.24046 0.00380211 0)
(-2.23971 0.000313695 0)
(-2.2377 -0.00309569 7.31089e-20)
(-2.2344 -0.00644188 0)
(-2.2298 -0.00971244 0)
(-2.22388 -0.0129023 0)
(-2.21666 -0.0160068 0)
(-2.20815 -0.0190203 0)
(-2.19836 -0.0219364 6.093e-20)
(-2.18732 -0.0247484 0)
(-2.17503 -0.0274506 5.63082e-20)
(-2.16153 -0.0300377 5.40887e-20)
(-2.14685 -0.032506 -5.18459e-20)
(-2.13102 -0.0348519 0)
(-2.11408 -0.0370736 -4.72968e-20)
(-2.09606 -0.0391689 0)
(-2.07701 -0.041137 -4.26746e-20)
(-2.05696 -0.042977 4.03405e-20)
(-2.03595 -0.0446894 1.14794e-19)
(-2.01403 -0.0462746 0)
(-1.99124 -0.0477341 1.00658e-19)
(-1.96761 -0.04907 3.17607e-20)
(-1.9432 -0.050285 0)
(-1.91803 -0.0513831 5.31633e-20)
(-1.89216 -0.0523674 4.84092e-20)
(-1.86561 -0.0532413 -6.50324e-20)
(-1.83842 -0.0540073 0)
(-1.81063 -0.0546726 -1.66302e-20)
(-1.78227 -0.0552467 -1.42676e-20)
(-1.75338 -0.0557421 -3.66484e-20)
(-1.724 -0.0561676 0)
(-1.69413 -0.0565315 0)
(-1.6638 -0.0568395 0)
(-1.63302 -0.0571011 -3.50704e-21)
(-1.6018 -0.057322 0)
(-1.57012 -0.0575182 0)
(-1.53799 -0.0577017 -4.11671e-21)
(-1.50539 -0.0578837 -6.32212e-21)
(-1.47229 -0.0580804 0)
(-1.43869 -0.0583041 0)
(-1.40453 -0.0585692 -2.55567e-20)
(-1.36976 -0.0588878 0)
(-1.33433 -0.0592846 3.38744e-20)
(-1.29817 -0.0597791 3.73001e-20)
(-1.2612 -0.0603835 0)
(-1.22333 -0.0611019 0)
(-1.18445 -0.0619462 -4.923e-20)
(-1.14445 -0.0629304 -5.27327e-22)
(-1.10321 -0.0640746 -5.04433e-22)
(-1.06062 -0.0654116 0)
(-1.01656 -0.0669654 -1.2911e-19)
(-0.970898 -0.06875 0)
(-0.923433 -0.0707578 0)
(-0.873985 -0.0729938 0)
(-0.822382 -0.0754481 7.94791e-20)
(-0.768424 -0.0781291 0)
(-0.711949 -0.0810335 -1.73282e-19)
(-0.65275 -0.0841495 -9.11181e-20)
(-0.590648 -0.0874405 0)
(-0.525476 -0.0909113 -9.96862e-20)
(-0.457067 -0.0945426 0)
(-0.385282 -0.0983038 0)
(-0.310009 -0.102167 -3.42101e-19)
(-0.231166 -0.10611 2.38658e-19)
(-0.148693 -0.110099 0)
(-0.0625997 -0.11407 2.62427e-19)
(0.0271012 -0.117952 -1.37496e-19)
(0.120349 -0.12174 0)
(0.216956 -0.125411 0)
(0.316665 -0.128837 0)
(0.419083 -0.131953 -4.66786e-19)
(0.523712 -0.134657 0)
(0.630029 -0.136762 -1.67933e-19)
(0.737655 -0.138179 0)
(0.8462 -0.138911 0)
(0.955217 -0.138948 0)
(1.06424 -0.13829 0)
(1.1728 -0.136945 0)
(1.28041 -0.134927 0)
(1.38661 -0.132242 -4.13335e-19)
(1.49091 -0.128891 0)
(1.5928 -0.124839 -2.19722e-19)
(1.69172 -0.120008 6.70871e-19)
(1.78702 -0.114209 0)
(1.87778 -0.107044 0)
(1.96321 -0.0975198 -4.76887e-19)
(2.04054 -0.0838737 -4.91073e-19)
(2.11271 -0.060985 5.00976e-19)
(2.1659 -0.0183338 5.26285e-19)
(-0.00960828 -0.0260801 -2.47044e-18)
(-0.0207951 0.00737606 -9.83964e-19)
(-0.034268 0.0354013 -3.56068e-19)
(-0.0497669 0.0587881 -1.28004e-19)
(-0.0661918 0.0789395 0)
(-0.0832392 0.0963332 1.855e-19)
(-0.101085 0.111184 -8.47049e-20)
(-0.119935 0.123696 0)
(-0.139931 0.134141 -7.49873e-20)
(-0.161148 0.14285 0)
(-0.183608 0.150176 1.37306e-19)
(-0.207294 0.156457 0)
(-0.23217 0.161989 6.4039e-20)
(-0.258189 0.167021 1.24159e-19)
(-0.285301 0.171752 -1.20638e-19)
(-0.313448 0.176343 0)
(-0.342555 0.18092 -1.14602e-19)
(-0.372521 0.185567 0)
(-0.403207 0.19032 0)
(-0.434427 0.195139 -1.07785e-19)
(-0.465956 0.199875 0)
(-0.49759 0.204238 2.34493e-23)
(-0.529239 0.207821 0)
(-0.560994 0.21026 0)
(-0.592937 0.211653 1.85497e-23)
(-0.624964 0.212567 -9.63811e-20)
(-0.656861 0.213138 -9.3629e-20)
(-0.688506 0.21332 -9.09611e-20)
(-0.719871 0.2131 0)
(-0.750941 0.21262 -1.71572e-19)
(-0.781573 0.212142 0)
(-0.811597 0.211382 -8.17084e-20)
(-0.841232 0.209546 0)
(-0.870944 0.206886 0)
(-0.900867 0.204155 7.64323e-20)
(-0.930807 0.201611 0)
(-0.960596 0.19918 -7.32765e-20)
(-0.990203 0.196764 -3.41115e-23)
(-1.01966 0.194365 1.4089e-19)
(-1.04898 0.191984 -1.38201e-19)
(-1.07818 0.189618 0)
(-1.10727 0.187267 0)
(-1.13625 0.184927 -6.54141e-20)
(-1.16512 0.182597 0)
(-1.1939 0.180274 -6.3361e-20)
(-1.22257 0.177955 6.23397e-20)
(-1.25114 0.175634 6.13558e-20)
(-1.27959 0.173306 0)
(-1.30792 0.170964 -5.94899e-20)
(-1.33613 0.168602 -5.86028e-20)
(-1.36419 0.166213 1.15337e-19)
(-1.3921 0.163788 -5.69087e-20)
(-1.41984 0.161322 -5.60978e-20)
(-1.4474 0.158805 0)
(-1.47476 0.156233 0)
(-1.50189 0.153597 5.37888e-20)
(-1.52878 0.150891 0)
(-1.55541 0.148109 0)
(-1.58175 0.145247 -1.03267e-19)