/*--------------------------------*- C++ -*----------------------------------*\
| =========                 |                                                 |
| \\      /  F ield         | OpenFOAM: The Open Source CFD Toolbox           |
|  \\    /   O peration     | Version:  2312                                  |
|   \\  /    A nd           | Website:  www.openfoam.com                      |
|    \\/     M anipulation  |                                                 |
\*---------------------------------------------------------------------------*/
FoamFile
{
    version     2.0;
    format      ascii;
    arch        "LSB;label=64;scalar=64";
    class       volScalarField;
    location    "30";
    object      Ndy;
}
// * * * * * * * * * * * * * * * * * * * * * * * * * * * * * * * * * * * * * //

dimensions      [0 0 0 0 0 0 0];

internalField   nonuniform List<scalar> 
404911
(
0.388434
0.889141
0.0423465
0.0461209
1.01477
0.947788
0.66516
0.0936257
0.126192
0.130029
0.444389
0.307109
1.05562
0.470106
0.272517
0.0981609
0.481389
1.03768
1.2088
0.461351
0.448064
1.07348
0.455682
0.440909
1.02412
0.199985
0.452415
1.06608
1.05546
0.146029
0.456099
1.04413
0.968758
0.510912
0.451422
1.00959
0.80866
0.258893
0.423334
0.969696
0.571587
0.145407
0.386526
0.891303
1.11678
0.279317
0.297255
0.865013
1.04491
0.321414
0.221666
0.293318
0.578871
0.13524
0.226756
0.195715
0.0201066
1.27577
0.284504
0.355494
1.47732
1.65907
0.412156
2.23845
1.18493
0.552013
2.31857
0.380275
1.14689
2.35852
1.15866
2.78449
1.15344
1.78571
2.01436
0.199324
0.0787466
0.368581
1.43778
1.06172
1.54592
0.810993
2.3879
1.20225
1.71827
1.37976
0.42708
1.49358
0.128867
1.40655
0.689612
0.0766646
1.94856
1.26878
1.06278
1.85253
1.24974
1.47466
2.35248
0.3765
0.209552
1.92968
1.82708
0.260786
0.193233
0.346263
0.548726
0.310691
0.439538
0.522828
0.618311
0.640858
0.678474
0.622385
0.129857
0.328136
0.619836
0.0826143
0.280857
0.687209
0.671249
0.702384
0.686252
0.484785
0.190733
0.451187
0.609067
0.642792
0.72765
0.30742
0.337423
0.312369
0.735601
0.72351
0.738307
0.798045
0.579519
0.586908
0.689807
0.465606
0.210201
0.483658
0.675695
0.706516
0.671103
0.665601
0.663211
0.736942
0.320013
0.348167
0.747651
0.759302
0.68283
0.162471
0.44206
0.237386
0.546257
0.73653
0.761018
0.702384
0.670839
0.64623
0.64197
0.651101
0.702508
0.7499
0.769199
0.793525
0.745749
0.504842
0.394342
0.30763
0.343279
0.324046
0.329206
0.326654
0.305761
0.629787
0.636465
0.682472
0.710655
0.738352
0.71332
0.679251
0.653404
0.616756
0.488853
0.274914
0.320231
0.317543
0.323821
0.475066
0.336505
0.285726
0.312096
0.691566
0.6774
0.700944
0.692347
0.686743
0.66856
0.609762
0.204374
0.235586
0.537861
0.304879
0.451487
0.416583
0.388099
0.418754
0.304364
0.348747
0.351154
0.308563
0.310758
0.70748
0.679056
0.674029
0.688815
0.634598
0.346075
0.259783
0.309111
0.441284
0.836497
1.07179
0.713265
0.439914
0.434091
0.501589
0.449209
0.502034
0.636194
0.766878
0.651915
0.670654
0.626849
0.468625
0.19801
0.208787
0.502567
0.908043
0.889773
1.13083
1.09509
1.08642
1.04426
0.582362
0.590061
0.410904
0.961676
1.02195
0.38757
0.329858
0.698374
0.593737
0.206402
0.365676
0.725571
0.939737
0.742162
1.14412
1.06757
1.21581
1.2014
1.19356
1.02367
1.14718
1.07883
0.504959
0.325454
0.325047
0.311293
0.351217
0.346277
0.623523
0.758426
0.596207
1.06978
1.16059
1.08954
1.28173
1.24981
1.0347
1.23358
1.14854
0.726184
0.339109
0.318858
0.322282
0.163405
0.408228
0.677073
0.725327
1.39967
1.3482
1.13647
1.16138
1.17799
1.19577
1.17533
1.22099
1.2223
1.24134
0.628887
0.333378
0.322765
0.55795
0.22723
0.220239
0.247162
0.430547
0.974153
1.92439
2.1915
1.13969
1.16797
1.18734
1.18139
1.14341
1.26507
1.22921
1.21483
0.99791
0.367937
0.683903
0.331045
0.202947
0.504169
0.762144
0.587492
1.24254
1.28569
1.24417
2.14668
1.19942
1.19449
1.21155
1.83274
1.98407
1.2768
1.16952
1.05474
0.491254
0.538313
0.347445
0.735344
1.05002
1.69255
2.11424
1.36014
1.43152
1.33529
2.11501
1.89254
2.28477
2.37697
1.707
1.35283
1.09868
1.06418
0.645624
0.225309
0.203023
0.503652
0.778581
1.11862
2.14253
2.43459
1.78986
1.42708
1.69124
1.7692
2.48091
1.69337
1.57887
1.53721
0.822574
0.84573
0.40162
0.229701
0.419736
0.784262
0.86643
1.47943
1.53251
1.8078
1.22144
1.74918
2.2134
2.45795
2.37814
1.80742
1.74403
1.23496
1.11628
0.811068
0.481463
0.272033
0.206796
0.244956
0.449563
1.1842
1.5811
1.69792
1.52848
1.62049
1.6596
1.74087
2.29957
2.44533
2.57236
1.99096
1.1911
0.912998
0.836583
0.388469
0.350871
0.682434
0.629669
1.44768
1.74142
1.8615
1.69643
1.54256
1.69107
1.33865
1.51799
2.40843
2.38801
2.29738
1.48254
0.814122
0.508899
0.21684
0.637082
0.889193
1.26168
2.342
1.76656
1.58683
1.78868
1.4301
1.39454
1.33905
1.54801
1.73328
2.07962
2.11559
1.08164
0.745403
0.445092
0.35409
0.809007
1.28606
1.64603
2.50638
2.42393
1.58265
1.91362
1.57765
1.61029
1.27845
1.51643
1.79182
1.31137
1.8599
0.981064
0.703417
0.220092
0.507441
0.93986
1.76553
2.71378
2.58034
2.3546
2.03585
1.295
2.23799
2.28017
1.869
1.79846
1.53577
1.18737
1.03789
0.737465
0.498108
0.203661
0.335025
0.680102
1.12754
2.22394
2.75752
2.65286
1.8324
1.75458
2.1742
2.25379
2.31722
2.38761
2.47973
2.37572
1.20991
0.976411
0.723831
0.236505
0.193489
0.52858
0.915801
1.34716
2.35682
2.81618
2.69294
2.40361
2.1696
1.72953
2.24273
1.80056
2.04211
2.17828
2.18603
1.52665
0.780764
0.487125
0.343037
0.736394
1.16404
2.27022
2.72242
2.81807
2.65015
2.52652
1.87525
2.22116
2.24956
2.29399
1.66752
2.33191
1.63527
0.984257
0.68708
0.225675
0.190003
0.525587
0.895264
1.66565
2.61848
2.80985
2.78055
2.68253
2.51269
2.38181
1.73504
1.79204
1.75073
2.23631
2.35968
1.89962
0.681859
0.480086
0.21897
0.720427
1.13528
2.35656
2.77349
2.72594
2.68608
2.5935
2.61072
2.57274
2.46949
2.38982
2.4479
2.47162
2.51352
0.997477
0.630724
0.431843
0.465213
0.824882
1.48852
2.41441
2.73871
2.61638
2.41643
2.40717
2.54829
2.58056
2.68268
2.67223
2.64185
2.5753
1.79272
1.02248
0.704529
0.331978
0.508936
0.735927
1.57552
2.24321
2.5337
2.70925
2.55364
2.36188
2.30896
2.57199
2.74574
2.7094
2.6855
2.35907
1.44624
0.855824
0.509716
0.200799
0.197358
0.652704
1.18672
1.80713
1.70877
2.44026
2.61707
2.60577
1.78097
1.8187
2.38127
2.69837
2.67638
2.65037
2.36711
1.15483
0.701597
0.34516
0.220891
0.712584
1.13469
2.31718
2.60492
2.53847
2.65254
2.60936
2.41749
1.91598
2.06251
2.63935
2.59439
2.61286
2.24636
1.08614
0.676582
0.204017
0.44866
0.785766
1.1316
2.30792
2.50541
2.48172
2.39798
2.47883
2.53952
2.56547
2.63173
2.82586
2.75906
2.7162
1.71518
0.94517
0.668312
0.197764
0.462924
0.888138
1.62
2.43798
2.80376
2.06218
1.8229
2.18371
2.24773
2.51388
2.71672
2.6584
2.69919
2.55184
1.65031
0.858336
0.463716
0.204472
0.602338
0.896642
1.71817
2.60993
2.70462
2.51288
1.87017
1.91002
2.26615
2.27408
2.61419
2.67545
2.66106
2.45541
1.18818
0.747487
0.346509
0.342971
0.73951
1.09078
1.74021
2.60604
2.70592
2.491
2.27928
1.77377
1.7894
2.42471
2.35203
2.37968
2.59339
2.41413
1.14673
0.679158
0.207091
0.442038
0.869056
1.67535
2.46745
2.69496
2.62357
1.85636
1.83423
1.75778
2.19487
1.82987
2.14528
2.27451
2.45224
2.29239
1.05572
0.550961
0.193111
0.198943
0.626975
0.911862
1.70141
2.53438
2.77587
2.62038
1.89745
1.98831
1.71881
1.76546
2.43435
2.15226
1.85525
2.5566
1.72202
0.908366
0.486142
0.199546
0.665675
1.0886
2.21427
2.6644
2.74469
2.73683
2.46806
1.95007
1.75621
1.79344
1.92313
2.28503
2.47077
2.55992
1.70829
0.811112
0.358766
0.201583
0.676915
1.09637
2.35058
2.72005
2.76365
2.72803
2.65064
2.46331
2.22484
2.46961
2.05844
2.04743
2.3304
2.22099
1.17536
0.748961
0.224614
0.201942
0.689413
1.11892
2.38933
2.76021
2.72078
2.71935
2.68653
2.58459
2.38459
2.42547
2.55603
1.89642
1.76166
2.39199
1.05083
0.549941
0.197922
0.451726
0.756701
1.139
2.42283
2.71754
2.61962
2.60823
2.66655
2.66777
2.6353
2.51605
2.56426
2.21779
1.76121
2.30476
1.18223
0.498527
0.184282
0.47645
0.881722
1.60235
2.46888
2.71686
2.62496
2.65869
2.6729
2.57917
2.61454
2.59226
2.16289
1.92947
2.36431
2.43174
1.16905
0.509599
0.192765
0.660122
1.01724
1.65762
2.51437
2.70965
2.6612
2.47038
2.41033
2.46863
2.49148
2.63036
2.4335
1.90346
1.83129
1.84052
0.932628
0.483302
0.2051
0.681498
1.07862
2.23801
2.62442
2.72804
2.69209
2.63669
1.97708
1.98192
2.30944
2.60898
2.57101
2.49966
2.53288
1.75485
0.873648
0.471302
0.197526
0.676461
1.08477
2.31049
2.73295
2.6241
2.69588
2.62014
2.46538
1.88515
1.99182
2.5978
2.49027
2.52241
2.60207
1.61438
0.837136
0.443113
0.198169
0.671348
1.06461
2.31027
2.78681
2.59329
2.62212
2.60981
2.53013
2.47194
2.52652
2.84171
2.69884
2.61583
2.42474
1.3887
0.763181
0.346649
0.209879
0.699735
1.07653
2.28024
2.80844
2.64868
2.69442
2.61989
2.53808
2.50276
2.62261
2.7292
2.66048
2.70743
2.41141
1.13678
0.680308
0.205213
0.44423
0.712699
1.06077
2.28142
2.72475
2.67281
2.6992
2.65504
2.55191
2.47202
2.44978
2.63309
2.62926
2.65761
2.40386
1.12162
0.668943
0.196934
0.422408
0.728595
1.15648
2.42308
2.47212
2.33394
2.48395
2.6502
2.62263
2.55882
2.53203
2.3928
2.42294
2.60277
2.34576
1.12654
0.675697
0.199822
0.186873
0.569726
0.733376
1.1103
2.42285
2.00073
1.86657
2.58847
2.56416
2.58085
2.15052
2.23191
2.20237
2.4475
2.57272
2.31691
1.10566
0.653032
0.20245
0.19704
0.66697
0.912115
1.28409
2.37274
2.70489
1.98452
2.1154
2.25892
2.24549
2.30424
2.39896
2.27589
2.07101
2.5177
2.20661
1.02648
0.510054
0.665767
1.07056
2.12414
2.68768
2.75734
2.578
2.51674
2.66049
2.2697
2.15296
2.41382
2.59151
2.59387
2.71505
1.71378
0.920488
0.499048
0.203104
0.644874
1.11149
2.3119
2.80689
2.6664
2.55223
2.51779
2.50934
2.26682
2.31328
2.41866
2.19972
2.46169
2.64793
1.66012
0.859156
0.441798
0.196118
0.661982
1.12423
2.37264
2.81273
2.68488
2.6723
2.49317
2.39696
2.47541
2.28938
2.35246
2.16406
2.44353
2.68649
1.64413
0.810234
0.350161
0.181961
0.66557
1.10888
2.36445
2.74937
2.73723
2.74868
2.72105
2.54985
2.51565
2.47046
2.29106
2.087
2.46641
2.64239
1.41124
0.757499
0.222844
0.682579
1.003
2.25739
2.70051
2.70064
2.65284
2.54286
2.5767
2.1903
2.05934
2.44775
2.5089
2.59832
2.44221
1.1581
0.684271
0.2101
0.221018
0.724308
2.18594
2.64952
2.76799
2.63925
2.4765
2.51009
2.57268
2.18694
2.25809
2.40918
2.60466
2.31575
1.06788
0.658908
0.1953
0.123645
0.434633
1.37495
1.75368
2.42991
2.74312
2.73298
2.60466
2.45009
2.43124
2.4728
2.13021
2.35961
2.50872
1.71929
0.918357
0.627465
0.190816
0.437164
1.25548
1.56764
1.78353
2.60488
2.64894
2.70351
2.67548
2.52485
2.19701
2.16237
2.33575
2.44704
2.68274
1.64842
0.857458
0.46023
0.467086
0.753413
1.7183
2.31187
2.62251
2.47598
2.36905
2.33295
2.62395
2.11889
2.28126
1.8758
2.38594
2.47093
1.58836
0.819741
0.442562
0.185724
0.516861
1.01336
1.88273
1.90939
1.85581
1.8448
1.84968
2.39235
2.40494
2.50615
2.48097
2.3783
2.57766
2.36347
1.12979
0.730822
0.22659
0.210656
0.643491
1.07825
2.47997
1.86515
1.76564
1.85004
1.88389
2.04111
2.49568
2.23769
2.09177
2.27477
2.22084
2.1669
1.11453
0.683441
0.207066
0.240588
0.827782
1.22393
1.83924
1.80911
1.72838
2.10895
3.41312
2.36984
2.21048
2.28037
2.11106
1.79907
1.76261
1.79074
1.05748
0.677554
0.202108
0.340889
0.900042
1.44158
1.70723
1.75255
1.82138
1.90799
2.5168
2.60126
2.3108
2.02432
1.77994
1.76195
1.74518
1.70933
1.37224
0.626855
0.197675
0.207475
0.526218
0.909688
1.74372
1.76028
1.76704
1.8767
3.2943
2.9401
1.96411
1.7477
1.69639
1.75269
1.77768
2.34352
2.18168
1.24821
0.407002
0.203773
0.230975
0.796348
1.29871
2.17528
1.83233
1.76011
2.24354
3.74499
2.74351
1.83348
1.69823
2.2211
2.41035
2.50299
2.59524
2.28337
1.11608
0.630074
0.202103
0.598894
1.73176
2.36913
1.76493
1.81631
2.41336
3.59808
2.82921
2.20849
1.87787
2.51331
2.57366
2.64955
2.72428
1.77953
0.929548
0.516667
0.188647
0.5273
1.34514
1.84759
1.78251
1.8444
3.18386
3.6255
2.25875
2.2857
1.94172
2.043
2.46955
2.67889
2.72821
1.72737
0.865696
0.455882
0.531866
1.2472
1.78646
1.73762
1.8977
2.60674
4.16404
2.73158
1.91501
2.18404
1.89454
2.54357
2.64063
2.72389
1.62687
0.81236
0.356133
0.567544
1.17831
1.8083
1.7055
1.76287
3.50947
3.39794
2.58607
2.61647
2.19061
2.02025
2.4348
2.67927
2.49161
1.40814
0.771603
0.225823
0.23256
0.77152
1.56274
1.87747
1.6866
1.85026
2.42035
3.09506
2.32558
2.21559
1.88714
1.75829
1.92493
2.49507
2.29114
1.07395
0.674845
0.212176
0.231719
0.739298
1.53755
1.82209
1.6876
1.90737
3.19235
2.93618
2.27517
2.05693
1.77763
1.82023
1.77481
2.59726
1.80872
0.936187
0.499691
0.240127
0.84367
1.81987
1.89637
1.71541
1.80508
2.51188
3.25483
2.68454
2.16733
1.63776
1.74543
2.44468
2.68421
1.82404
0.900086
0.452325
0.237633
0.858524
1.80547
1.91138
1.68538
1.98699
3.4633
2.40694
1.69641
1.65238
1.76813
1.75305
2.66537
2.68142
1.74111
0.852832
0.45341
0.236238
0.837033
1.81819
2.42887
1.72486
1.89157
3.20049
2.39509
1.93853
1.86225
1.85062
1.77448
2.65258
2.56331
1.52025
0.799132
0.233981
0.236715
0.793063
1.7209
1.88245
1.75969
1.74751
1.82875
2.83964
2.48449
1.75407
1.69359
1.76773
2.66014
2.51481
1.24851
0.723364
0.221375
0.485631
0.815076
0.890119
1.79647
1.72437
2.0627
2.10242
1.99164
1.75236
1.81594
1.7829
2.50214
2.73224
2.41278
1.19667
0.705929
0.214539
0.413799
0.826883
1.61442
1.64196
1.92879
3.78142
2.76893
1.94149
1.84492
1.77972
2.54964
2.65746
1.90272
0.994703
0.57497
0.201438
0.419237
1.20759
1.39353
1.59522
3.19968
3.58037
2.96833
1.7947
1.6741
1.70748
1.72397
2.43388
1.79646
0.889412
0.483106
0.510674
0.464944
1.23815
1.2974
1.63809
3.22843
3.34263
2.24784
2.0261
1.62664
1.71494
2.35939
2.44858
1.60899
0.851792
0.448903
0.500175
0.926971
1.50786
1.15078
1.42777
1.96711
3.63592
2.94167
1.86372
1.64248
1.75403
1.78607
2.0732
1.05918
0.750142
0.234761
0.500657
0.963848
0.962158
1.20791
1.18728
1.52696
1.99281
1.77258
1.70319
1.6765
1.86508
1.7562
1.46305
1.10387
0.634544
0.206101
0.220711
0.516055
0.797165
1.50363
1.34929
1.23892
1.20137
1.44913
2.00952
1.31143
1.38317
1.57342
1.8909
1.15712
0.905615
0.327593
0.220454
0.699427
0.9762
1.5131
2.4661
1.29446
1.20348
1.35514
2.28302
1.56185
1.63954
1.42069
1.32886
1.2435
0.567702
0.559244
0.250616
0.699062
0.830535
1.35024
2.68044
1.63797
1.5574
1.54935
1.58974
1.62253
1.27162
1.2483
1.28968
1.22155
0.481764
0.24378
0.524956
0.917158
0.578399
1.10123
1.76232
2.60587
1.78333
1.74851
1.6912
1.78379
1.9225
2.21059
1.46663
1.00382
0.428163
0.0921454
0.501846
0.330981
0.612679
1.26923
1.30216
1.94381
1.74178
1.32438
1.3341
1.54153
1.87521
1.40686
1.0555
0.704386
0.5104
0.267536
0.227695
0.308358
0.383919
1.11647
1.69663
1.43131
1.95737
1.69774
1.6734
1.53428
1.16525
0.931392
0.64051
0.701656
0.461383
0.209313
0.737599
0.348749
0.805831
1.45628
1.59178
1.80566
1.7666
1.26147
1.23699
1.24009
1.21119
0.868634
0.701304
0.615105
0.188736
0.205119
0.624019
0.781425
0.403299
0.834804
1.16567
1.77076
1.77833
1.28062
1.1933
1.17575
1.18434
1.15136
0.848128
0.489027
0.205965
0.292918
0.622737
0.75353
0.296993
0.352381
1.0655
1.65427
1.46532
1.15752
1.18379
1.13751
0.841003
0.9375
0.865987
0.493339
0.202613
0.315684
0.300379
0.328556
0.604085
1.33126
1.26027
1.19523
1.06399
1.1057
0.813735
0.792242
0.655539
0.226522
0.247013
0.338965
0.333028
0.331204
0.612283
0.363083
1.13581
1.20862
1.13589
0.860705
0.914995
0.769667
0.479079
0.208205
0.713114
0.770809
0.316861
0.375259
1.06902
0.367423
0.36678
1.06245
0.984745
0.781
0.775494
0.675105
0.360193
0.212035
0.646153
0.768436
0.312711
0.29978
0.409009
0.986076
0.603286
0.534686
0.298876
0.41387
0.773594
0.651817
0.211209
0.218264
0.659768
0.329939
0.313568
0.284316
0.331662
0.838927
0.433393
1.01559
0.362966
0.305881
0.793896
0.637677
0.20448
0.203711
0.661636
0.331152
0.30408
0.299521
0.286992
0.765829
0.960372
1.0739
0.600332
0.307853
0.784811
0.503703
0.201195
0.201908
0.588916
0.723608
0.304623
0.306472
0.304338
0.348273
1.02964
1.02813
0.360536
0.740079
0.751091
0.501767
0.185184
0.176282
0.204444
0.619792
0.712166
0.303264
0.310687
0.274065
0.361037
0.742296
0.375615
0.318329
0.691529
0.461633
0.62277
0.29933
0.315977
0.297405
0.714414
0.319372
0.333367
0.337763
0.362453
0.627867
0.711939
0.320906
0.300557
0.730955
0.74867
0.589133
0.229757
0.0605067
0.281617
0.710545
0.325959
0.33767
0.680706
0.435432
0.0996754
0.123135
0.342355
0.256762
0.704337
0.636501
0.224634
0.317659
0.260952
0.731436
0.684071
0.345953
0.253008
0.308689
0.551487
0.751265
0.638727
0.226351
0.188034
0.473011
0.142677
0.249544
0.365787
0.438019
0.628147
0.649746
0.585736
0.616909
0.32719
0.520775
0.618544
0.415391
0.284535
0.190745
0.201826
0.0611079
0.333221
0.216246
0.388049
0.389387
0.230701
0.398355
0.535443
0.701981
0.729676
0.786115
0.812658
0.760591
0.582522
0.228208
0.392757
0.553529
0.708968
0.750575
0.789232
0.813507
0.821535
0.819547
0.838651
0.816394
0.813857
0.846426
0.872428
0.805343
0.243454
0.412114
0.68228
0.74634
0.793703
0.787427
0.796399
0.808673
0.802722
0.809261
0.81991
0.83652
0.854409
0.851627
0.795564
0.79972
0.852141
0.84715
0.866451
0.705148
0.565827
0.324901
0.286098
0.429504
0.701145
0.772261
0.783826
0.804205
0.819794
0.806923
0.803355
0.805231
0.79705
0.79055
0.796592
0.903829
0.387401
0.383346
0.774
0.74249
0.802985
0.832268
0.864041
0.763582
0.406812
0.381536
0.556702
0.706536
0.805716
0.83735
0.858975
0.829696
0.807055
0.800826
0.830702
0.845197
0.83077
0.816445
0.792634
0.77871
0.808969
0.892992
0.394942
0.3741
0.860762
0.758705
0.814623
0.794958
0.709062
0.249129
0.439494
0.816225
0.964678
0.969311
0.791843
0.864956
0.6707
0.659048
0.574946
0.819792
0.820771
0.866171
0.92713
0.871648
0.814309
0.769153
0.773774
0.821904
0.902782
0.40583
0.383816
0.848985
0.744507
0.693348
0.376988
0.182739
0.426485
1.35177
1.63268
2.53944
2.61014
2.66908
2.03297
1.45449
1.4675
1.44155
1.06113
0.817599
0.860937
0.527605
1.21014
0.654907
0.794904
0.76265
0.76438
0.83051
0.388601
0.383047
0.712204
0.378173
0.200628
0.512384
1.19751
1.61198
2.56843
2.91166
2.88941
2.04858
2.58989
2.36173
1.46661
1.43802
1.504
1.45134
1.26504
0.930039
0.645857
1.53575
0.846051
0.772368
0.774768
0.809632
0.831178
0.769357
0.426008
0.428609
0.198791
0.492503
1.38399
1.73017
1.93901
2.8641
2.89839
2.72067
2.61043
1.86999
2.52398
2.7143
1.30501
1.47881
1.46468
1.4655
2.33604
1.41496
1.08232
0.890688
0.936375
0.787825
0.752011
0.545157
0.378626
0.232344
0.434384
0.817512
1.1257
1.29575
2.24718
1.96259
2.43432
2.70001
2.87477
2.15067
2.06865
2.36893
2.56033
2.80849
2.84923
3.02619
3.07563
2.57437
1.85999
0.795853
0.911351
0.910145
0.872648
0.741934
0.410903
0.250154
0.611904
0.986269
1.32045
1.9483
2.61049
1.85439
2.39342
1.98609
2.00107
1.9115
1.96765
1.83466
1.83914
1.69846
2.52229
2.77143
2.88311
2.93554
2.78528
1.58737
0.927339
0.373165
0.378432
0.327054
0.106434
0.247767
0.170631
0.463916
1.72475
2.75354
2.72594
2.82045
2.17272
1.98851
1.89938
1.87078
1.74743
1.84797
1.70196
1.76587
1.82432
1.81622
2.57063
2.61268
2.74106
2.51169
1.58932
0.997616
0.350518
0.186946
0.199001
0.487911
1.73017
2.89802
2.84203
2.3108
2.27127
2.32857
2.3305
2.18635
2.01668
2.02178
1.78208
2.03489
2.07704
1.71323
1.76836
1.84759
2.58034
2.21613
1.45303
1.0197
0.761486
0.413057
0.392324
0.760214
0.525087
1.5424
1.958
2.97044
2.97356
2.3796
2.2695
2.35279
2.38425
2.39003
2.31222
2.6579
2.19354
2.3872
2.44921
1.94305
1.97547
1.74238
1.69846
1.28182
0.947542
0.740963
0.400758
0.403346
0.762457
1.14904
1.83422
2.86588
2.71587
2.94696
2.65749
2.779
2.27205
2.33177
2.38403
2.45197
2.76186
2.82229
2.445
2.32747
2.09678
1.96024
1.87309
1.7714
1.81493
1.08539
0.768234
0.399518
0.429055
0.863427
1.36675
1.94132
3.00711
3.20537
3.1121
3.26117
3.4011
3.43023
2.98628
2.42819
2.50955
2.27021
2.94696
2.92898
2.46671
2.27226
1.90047
1.92274
1.76877
1.64572
1.33991
0.80396
0.27538
0.21815
0.437217
0.879702
1.45358
2.85271
2.95731
3.04122
3.35074
3.41617
3.67935
3.60045
3.5832
3.40454
3.12095
2.49163
2.33914
2.4963
2.45993
2.3182
2.19997
2.46737
2.05127
1.79303
1.70749
0.890175
0.378266
0.224702
0.44547
0.929203
1.54032
2.9836
3.44438
3.56326
3.71055
3.26737
3.24686
3.41787
3.51409
3.66854
3.6787
3.65233
3.28694
3.20179
2.92786
2.8001
2.32855
2.70535
2.69247
1.98111
1.72676
0.852352
0.378458
0.236405
0.616644
0.972011
1.55841
3.09013
3.57664
3.71558
3.76098
3.65152
3.70627
3.45916
3.3983
3.38842
3.4691
3.79997
3.61819
3.56888
3.43922
3.28333
3.64358
2.87295
3.06213
2.75153
1.77302
1.37693
0.446045
0.189428
0.216949
0.576036
0.983866
1.8475
3.30585
3.54502
3.80714
3.89636
3.88418
3.74372
3.68545
3.64147
3.49831
3.44769
3.54637
3.61301
3.75412
3.59831
3.1706
2.51493
2.88572
3.07205
3.02881
1.82738
1.00753
0.73453
0.189018
0.431048
0.948041
1.51206
2.91865
3.50268
3.71581
3.7663
3.74419
3.64415
3.7723
3.70544
3.66917
3.69692
3.68644
3.75927
3.75305
3.79235
3.64102
3.20255
2.56135
2.42182
2.23086
2.09248
0.997806
0.764746
0.408381
0.396132
0.790004
1.31646
2.88977
3.43489
3.53005
3.63301
3.59032
3.56309
3.48273
3.61188
3.45355
3.54324
3.64942
3.70814
3.74059
3.79507
3.69465
3.59067
3.56408
3.49402
2.70765
2.56574
1.59235
0.79813
0.409344
0.241323
0.637876
1.27072
2.16287
3.22693
3.45294
3.52595
3.59083
3.58468
3.53202
3.60284
3.48143
3.40624
3.57403
3.60612
3.73808
3.77362
3.69393
3.60866
3.63486
3.6463
3.42714
3.09759
1.63855
0.924834
0.454104
0.431539
0.951008
1.9413
3.47241
3.69067
3.62048
3.79634
3.74193
3.69767
3.63805
3.55145
3.58557
3.47393
3.56433
3.63536
3.75255
3.74635
3.66149
3.72653
3.61837
3.54565
3.44409
2.05829
1.02377
0.537941
0.389246
0.840752
1.48843
3.02822
3.64051
3.69454
3.75368
3.91587
3.92772
3.74511
3.67605
3.70795
3.86245
3.63601
3.60446
3.79834
3.64333
3.63617
3.66754
3.60486
3.66022
3.39091
2.97431
1.50232
0.798508
0.262694
0.245186
0.646013
1.23046
2.1369
3.49727
3.96609
3.91884
3.95904
4.09413
4.09078
4.00624
3.9702
3.91073
3.67367
3.75273
3.91583
3.80697
3.50502
3.5197
3.61566
3.70305
3.33626
3.08159
1.6482
0.898606
0.41809
0.242133
0.611088
1.14189
1.98608
3.32868
3.64423
3.90258
3.98683
4.04268
4.03743
4.20954
4.21171
4.09075
4.05238
3.86968
4.03784
3.86281
3.65492
3.58993
3.55098
3.40554
3.44447
3.23114
1.85758
1.00954
0.575804
0.221543
0.407272
1.08383
1.96766
3.26518
3.5912
3.91458
3.84612
4.05656
4.15883
4.12626
3.96731
4.20477
3.9815
3.94214
4.20505
4.09692
3.71674
3.6021
3.54603
3.44143
3.41317
3.34828
2.04448
1.07524
0.622409
0.246229
0.264905
0.695573
1.47044
3.03383
3.4538
3.92078
3.91539
4.00724
4.16392
4.14624
4.06688
4.21117
4.18683
4.2748
4.21818
4.2377
4.00632
3.71592
3.5885
3.56357
3.3838
3.41173
2.15568
1.13038
0.663529
0.25647
0.576197
1.20939
2.96364
3.37375
3.64562
3.73471
3.90632
4.4244
4.42993
4.14084
4.11648
4.19754
4.32645
4.29185
4.32479
4.15686
4.073
3.80038
3.60872
3.54419
3.22037
3.23666
1.63263
0.693597
0.261497
0.269875
0.846461
1.87858
3.35359
3.63628
4.01641
4.08287
4.06756
4.30947
4.23078
4.57347
4.18048
4.29535
4.34799
4.27177
4.36415
4.0569
3.99229
3.93714
3.67647
3.70292
3.34068
1.98303
1.01395
0.452987
0.560337
1.2554
3.1231
3.59917
3.99064
4.36581
4.5817
4.50037
4.40544
4.43377
4.42979
4.49181
4.22189
4.56444
4.57832
4.43434
4.13087
3.99615
3.7519
3.53432
3.36961
2.2777
1.11253
0.638413
0.252234
0.241253
0.691669
1.83803
3.44755
3.93292
4.13796
4.4265
4.56206
4.59076
4.34225
4.46048
4.55536
4.69884
4.73347
4.59628
4.54236
4.10148
3.92188
3.94235
3.73675
3.49324
3.25343
1.71287
0.875354
0.269209
0.443279
1.1179
2.24869
3.51887
3.96431
4.11868
4.36343
4.40666
4.34184
4.34864
4.70113
4.68452
4.73927
4.69676
4.63158
4.37814
4.16754
4.03574
3.91723
3.77172
3.15575
2.11257
1.10108
0.590375
0.216101
0.264414
0.854322
1.84178
3.3303
3.6482
3.80788
4.0587
4.5476
4.5538
4.29898
4.66377
4.65363
4.80822
4.77278
4.79693
4.74467
4.32854
4.0462
3.98127
3.69381
3.54151
3.21623
1.30988
0.654956
0.260593
0.614701
1.38579
3.00669
3.45859
3.8793
4.08834
4.29605
4.59745
4.94081
4.70827
4.50337
4.59842
4.22454
4.57523
4.75428
4.64097
4.52975
4.38299
3.99206
3.84253
3.28176
1.93156
0.943525
0.413329
0.264943
0.832233
1.87936
3.4343
4.03879
4.17018
4.42994
4.6044
4.65358
4.62446
4.60424
4.40296
4.30204
4.23428
4.41763
4.49616
4.28624
4.48453
4.34695
3.97549
3.73397
3.14529
1.30643
0.624076
0.237381
0.543957
1.19582
3.05779
3.48842
4.01931
4.50496
4.56035
4.69509
4.70869
4.60123
4.87618
4.62062
4.50017
4.31863
4.35331
4.42426
4.17191
4.28017
4.11348
3.84313
3.29197
2.11171
0.997074
0.413977
0.261622
0.82821
1.78021
3.19027
3.80073
4.23906
4.62242
4.75459
4.75808
4.74269
4.64351
4.46421
4.8366
4.80468
4.79112
4.56098
4.24978
4.18959
4.06051
3.95288
3.7638
3.23704
1.66603
0.776786
0.238962
0.537514
1.17508
2.99138
3.42474
4.07332
4.28063
4.63507
4.78168
4.81563
4.73571
4.75504
4.62914
4.71145
4.94978
4.83784
4.63872
4.42737
4.18186
3.91158
3.92931
3.34121
2.12382
1.05622
0.537512
0.255339
0.815225
1.77373
3.26876
3.62376
4.10934
4.5405
4.67175
4.73964
4.85535
4.80201
4.75363
4.78203
4.80578
4.84272
4.47629
4.54204
4.50505
4.31497
3.84167
3.82591
3.27675
1.72395
0.842965
0.251017
0.514679
1.18187
2.96176
3.47843
3.89725
4.32142
4.7043
4.71723
4.81106
4.76766
4.74763
4.82058
4.81524
4.85758
4.88801
4.56323
4.47523
4.41029
4.20693
3.89171
3.33248
3.08429
1.18608
0.566186
0.603088
1.42997
3.14823
3.73553
4.07359
4.44641
4.79928
4.80856
4.82944
4.80077
4.75392
4.75541
4.74353
4.90776
4.67749
4.59441
4.43141
4.08501
3.85636
3.79323
3.19965
1.81621
0.911561
0.27786
0.249778
0.841806
1.94367
3.40119
3.84644
4.22001
4.78422
4.80672
4.86055
4.85727
4.74118
4.74695
4.81388
4.85824
4.86944
4.8431
4.67075
4.55369
4.17938
3.79638
3.74491
3.13566
1.21776
0.596583
0.225757
0.260548
1.08413
2.95849
3.67405
4.05199
4.40008
4.7596
4.82821
4.91207
4.85335
4.82009
4.81476
4.81164
4.92897
4.93717
4.83018
4.66121
4.53976
4.24083
3.82786
3.35586
3.05325
1.06035
0.276817
0.393433
1.17832
3.03348
3.77814
4.08892
4.48553
4.59839
4.86191
4.94471
4.8952
4.85149
4.85112
4.94373
4.98781
4.9248
4.75478
4.59741
4.42404
4.00171
3.75612
3.19098
1.77164
0.696902
0.249555
0.602511
1.4233
3.29165
4.02036
4.28439
4.65655
4.62673
4.8327
4.89279
4.92887
4.84407
4.86183
4.98952
5.03402
4.84696
4.67808
4.64276
4.27436
3.78387
3.4332
3.14356
1.14182
0.540448
0.257982
0.951499
1.98722
3.40688
3.90206
4.36354
4.76735
4.78198
4.88392
4.93674
4.88734
4.85513
5.03803
5.05789
5.09737
4.83996
4.70397
4.571
4.18204
3.74183
3.24869
1.87329
0.881986
0.25684
0.383701
1.11428
3.01256
3.71873
4.12651
4.37051
4.6541
4.74227
4.83928
4.89368
4.85387
4.86226
4.97453
5.07435
5.03321
4.80714
4.74383
4.58234
4.12288
3.81507
3.26086
1.71129
0.65849
0.219121
0.608975
1.38551
3.03645
3.7595
4.12532
4.55409
4.61195
4.83252
4.86901
4.73503
4.69742
4.83712
4.85302
4.98757
4.93229
4.7504
4.70746
4.38645
3.95211
3.63772
3.09869
1.27192
0.549445
0.243505
0.806409
1.82003
3.35368
3.82114
4.1439
4.5961
4.68841
4.85407
4.86715
4.91277
4.92281
4.82573
5.00314
5.01893
4.92131
4.72717
4.68659
4.27162
3.83061
3.38334
3.00331
1.06017
0.394328
0.377264
1.06935
2.95199
3.50452
3.94287
4.30768
4.56423
4.63642
4.87111
4.92745
4.85868
4.86516
4.88266
5.04247
5.08446
4.78915
4.69447
4.68125
4.15383
3.71457
3.2415
1.87618
0.863289
0.251963
0.49366
1.24669
2.97632
3.73043
4.03192
4.46
4.6376
4.76356
4.91119
4.91234
4.95416
4.85576
4.82743
4.82989
5.10566
4.81847
4.75869
4.6908
4.12439
3.72573
3.21458
1.72661
0.637734
0.211758
0.575506
1.39693
3.22747
3.93332
4.22424
4.57722
4.59258
4.81643
4.92692
4.92171
4.90955
4.84718
4.87099
5.05061
5.04671
4.85544
4.80491
4.448
3.99723
3.68068
3.07052
1.45119
0.579753
0.218016
0.783383
1.75607
3.42146
3.89282
4.31692
4.66546
4.76631
4.82281
4.89714
4.90436
5.05352
4.89283
4.88136
5.03488
4.88038
4.79747
4.7536
4.28449
3.88319
3.35562
3.05659
1.06591
0.3994
0.248535
0.833403
1.86987
3.37205
3.86462
4.25918
4.69879
4.73295
4.90152
4.91373
4.92709
4.88779
4.83248
5.12075
5.14234
4.94316
4.82335
4.71999
4.23103
3.80529
3.19515
1.78656
0.847486
0.249611
0.258565
1.06957
2.83093
3.49098
3.89592
4.281
4.6933
4.76883
4.82826
4.90649
4.90881
4.9164
4.90235
5.11418
5.20907
4.9079
4.85987
4.66827
4.13257
3.6624
3.17099
1.59808
0.607584
0.488314
1.14961
2.96665
3.69203
3.94089
4.31264
4.76093
4.77426
4.82952
4.86989
4.8947
4.942
4.98529
5.08237
5.21499
4.90836
4.83803
4.67355
4.07692
3.66258
3.0711
1.18162
0.513943
0.501287
1.27302
3.17858
3.74621
4.13154
4.47989
4.64883
4.73615
4.87944
4.90765
4.89074
4.80989
5.03705
5.14134
5.06073
4.89781
4.83441
4.65047
4.07442
3.60149
3.02795
1.05876
0.269529
0.570675
1.41927
3.31313
3.89849
4.28231
4.49221
4.56156
4.68963
4.8594
4.91136
4.94149
4.95879
4.80305
5.06248
5.04642
4.88702
4.77603
4.53136
3.99313
3.55886
2.17006
0.957706
0.256503
0.584013
1.75578
3.40042
3.88877
4.26694
4.63055
4.68122
4.78432
4.87768
4.92924
4.96723
4.86482
5.02175
5.04034
4.97971
4.83981
4.76521
4.44178
3.95292
3.43234
2.13274
0.904187
0.233103
0.610492
1.78477
3.50457
3.94329
4.30332
4.69343
4.78113
4.77823
4.90365
4.92438
4.90138
4.90674
4.99085
5.12954
4.91893
4.76505
4.76486
4.42194
3.89969
3.69097
1.99187
0.798125
0.218511
0.225231
0.777718
1.82606
3.43949
3.89562
4.2856
4.67615
4.80642
4.74208
4.91011
4.95276
4.87205
4.89075
4.97607
5.12303
4.89785
4.80044
4.72713
4.24413
3.84423
3.2421
1.95644
0.622682
0.254201
0.982714
1.98907
3.43302
3.96002
4.29946
4.65668
4.85223
4.80192
4.92647
4.90134
4.93587
4.83127
4.98305
5.07698
4.89725
4.79105
4.73055
4.19355
3.75093
3.14033
1.73735
0.593582
0.256202
1.08649
2.98377
3.70307
3.96029
4.30734
4.68027
4.90825
4.92415
4.97184
4.97398
4.90001
4.98671
4.9697
5.04802
4.91103
4.76128
4.70847
4.21563
3.74293
3.1269
1.57755
0.572928
0.380075
1.17137
3.04085
3.8281
3.94822
4.28235
4.59431
4.91554
5.01407
5.08213
5.0437
5.11451
5.09492
5.14702
5.08719
4.82915
4.77065
4.66777
4.17621
3.77065
3.1391
1.20141
0.493363
0.503714
1.26753
3.30447
3.81677
3.99358
4.30532
4.64492
4.92133
4.96933
5.21053
5.21605
5.16964
5.18009
5.30095
5.09977
4.96186
4.79507
4.696
4.18294
3.7733
3.12988
1.155
0.265492
0.498518
1.2365
3.27277
3.89764
4.1864
4.40984
4.6848
4.93467
5.03304
5.21502
5.29827
5.31974
5.3543
5.45001
5.20639
5.01021
4.86722
4.59623
4.14851
3.59362
3.07643
1.08018
0.256179
0.555345
1.27042
3.04229
3.93142
4.33354
4.59384
4.76612
4.90979
4.9507
5.09206
5.26487
5.33067
5.2044
5.45854
5.2632
5.0489
4.85134
4.45725
3.99834
3.55174
3.03429
0.991728
0.249857
0.608596
1.69205
3.37582
3.91342
4.23207
4.64285
4.8344
4.85607
4.94767
5.00101
5.1094
5.29417
5.35522
5.57326
5.20305
5.0199
4.84571
4.46987
3.89678