/*--------------------------------*- C++ -*----------------------------------*\
| =========                 |                                                 |
| \\      /  F ield         | OpenFOAM: The Open Source CFD Toolbox           |
|  \\    /   O peration     | Version:  2312                                  |
|   \\  /    A nd           | Website:  www.openfoam.com                      |
|    \\/     M anipulation  |                                                 |
\*---------------------------------------------------------------------------*/
FoamFile
{
    version     2.0;
    format      ascii;
    arch        "LSB;label=64;scalar=64";
    class       volScalarField;
    location    "30";
    object      nut_ML_ND;
}
// * * * * * * * * * * * * * * * * * * * * * * * * * * * * * * * * * * * * * //

dimensions      [0 0 0 0 0 0 0];

internalField   nonuniform List<scalar> 
404911
(
0.578639
0.583088
0.377032
0.403855
0.625628
0.596172
0.579646
0.530098
0.537312
0.537986
0.622292
0.596764
0.611321
0.64173
0.586193
0.521738
0.619282
0.586849
0.598483
0.627219
0.599318
0.601447
0.611943
0.568975
0.588161
0.559084
0.616334
0.585672
0.594429
0.521674
0.61006
0.593168
0.650333
0.605071
0.686631
0.605136
0.671556
0.581922
0.640977
0.593101
0.651002
0.527933
0.617612
0.582078
0.595756
0.598906
0.592523
0.587817
0.627349
0.53491
0.562538
0.485399
0.632884
0.514569
0.560024
0.552145
0.30617
0.586695
0.577094
0.579131
0.580298
0.584993
0.578394
0.570029
0.582276
0.565521
0.577237
0.572603
0.58175
0.574798
0.579266
0.547951
0.580655
0.585476
0.581044
0.553344
0.511703
0.576882
0.579743
0.579209
0.58551
0.577127
0.558828
0.581147
0.581891
0.581773
0.579063
0.586354
0.527718
0.585818
0.582798
0.499692
0.586244
0.585088
0.581454
0.58452
0.584146
0.581113
0.585294
0.585198
0.558324
0.58617
0.585596
0.575818
0.556894
0.632976
0.655858
0.62881
0.682366
0.660315
0.62856
0.641625
0.640489
0.62535
0.506831
0.634667
0.654405
0.472392
0.600591
0.619768
0.652688
0.643775
0.646717
0.601859
0.556033
0.650789
0.637242
0.641041
0.614055
0.595043
0.608759
0.606968
0.631248
0.666394
0.645301
0.644514
0.662008
0.641608
0.652064
0.638542
0.574486
0.658294
0.661202
0.663659
0.646917
0.636671
0.627781
0.613282
0.613329
0.626525
0.637837
0.676983
0.672478
0.527955
0.640501
0.59407
0.656143
0.637406
0.635394
0.632914
0.642474
0.63967
0.640082
0.638616
0.626236
0.63197
0.643971
0.638771
0.646208
0.640204
0.64547
0.625023
0.608356
0.60191
0.593094
0.605218
0.599344
0.632528
0.637791
0.626369
0.630896
0.627933
0.637314
0.636886
0.638303
0.6397
0.632748
0.607894
0.602383
0.588023
0.600149
0.594485
0.60432
0.595045
0.603812
0.614027
0.627573
0.627219
0.626477
0.632448
0.640177
0.646156
0.566238
0.589387
0.648094
0.62271
0.64562
0.622678
0.638234
0.629814
0.588548
0.598652
0.592452
0.600163
0.597533
0.636128
0.627574
0.630489
0.642007
0.646453
0.635975
0.606992
0.630309
0.641583
0.599816
0.586077
0.594167
0.611648
0.609803
0.590608
0.600612
0.603988
0.644842
0.622625
0.621065
0.630825
0.639321
0.660085
0.561084
0.573319
0.663638
0.633471
0.606798
0.586004
0.584398
0.585522
0.584052
0.586557
0.604542
0.598869
0.588668
0.59005
0.659425
0.606013
0.619078
0.647942
0.56834
0.661071
0.646701
0.636922
0.614301
0.583842
0.582059
0.585876
0.583911
0.585286
0.582845
0.585014
0.588768
0.589604
0.596777
0.587384
0.605053
0.639461
0.650373
0.647578
0.644752
0.625721
0.590146
0.584134
0.581596
0.584684
0.582085
0.582858
0.584247
0.582915
0.595874
0.589195
0.587236
0.611201
0.531113
0.650132
0.641166
0.633064
0.625897
0.61112
0.587539
0.583523
0.582816
0.583857
0.586526
0.587212
0.582235
0.585722
0.588466
0.59001
0.603754
0.648931
0.58169
0.576424
0.603543
0.662857
0.599433
0.589144
0.590647
0.584753
0.583527
0.583118
0.58427
0.58752
0.588676
0.583454
0.584542
0.586179
0.615911
0.633696
0.624104
0.564398
0.6434
0.654685
0.630382
0.590198
0.588728
0.591641
0.589205
0.585051
0.584917
0.585945
0.590003
0.587661
0.588482
0.582499
0.588122
0.630787
0.653776
0.643704
0.655086
0.669667
0.62151
0.584604
0.581393
0.57993
0.585627
0.587112
0.590489
0.588641
0.586554
0.603437
0.592605
0.586667
0.592518
0.640959
0.580868
0.565614
0.652372
0.661113
0.650795
0.610444
0.587054
0.584471
0.585464
0.581786
0.584879
0.585491
0.586024
0.582425
0.585963
0.603337
0.617366
0.580157
0.585575
0.654012
0.64229
0.651309
0.607101
0.601597
0.585349
0.585622
0.58652
0.589166
0.590037
0.588707
0.582265
0.583429
0.584839
0.589084
0.642874
0.651264
0.607812
0.567889
0.602725
0.595222
0.59137
0.590306
0.585661
0.586201
0.582202
0.583902
0.585256
0.585338
0.59264
0.592966
0.585331
0.598631
0.610479
0.657432
0.643728
0.638179
0.645724
0.625212
0.587539
0.583487
0.585675
0.58462
0.58308
0.584672
0.58337
0.586074
0.585203
0.593214
0.607248
0.622255
0.652559
0.664397
0.573403
0.651021
0.674626
0.634117
0.591909
0.581945
0.583726
0.584037
0.585989
0.585443
0.585574
0.582887
0.584864
0.586883
0.610851
0.667972
0.654889
0.658796
0.644318
0.674455
0.645255
0.618946
0.596742
0.585679
0.583682
0.58631
0.585389
0.582075
0.583106
0.585468
0.582263
0.58948
0.624879
0.649111
0.654528
0.578274
0.645376
0.661245
0.634329
0.599636
0.587183
0.586448
0.584888
0.584276
0.586125
0.58614
0.584276
0.582611
0.581875
0.587272
0.616979
0.666375
0.663712
0.566292
0.6325
0.657628
0.670697
0.621542
0.598703
0.590989
0.583838
0.584971
0.585997
0.586151
0.587675
0.592455
0.592641
0.591136
0.599653
0.639329
0.645605
0.595294
0.55596
0.64761
0.665208
0.644288
0.61133
0.596375
0.592857
0.588575
0.584076
0.584031
0.585743
0.585743
0.584682
0.593669
0.607905
0.631808
0.658497
0.673362
0.633349
0.66302
0.657975
0.618132
0.599591
0.596066
0.593607
0.586232
0.586438
0.584141
0.58511
0.586009
0.585563
0.585756
0.618523
0.660297
0.64688
0.585748
0.55323
0.640971
0.652629
0.632531
0.604581
0.596692
0.595012
0.594795
0.593194
0.585252
0.584596
0.585495
0.583854
0.585744
0.585051
0.612629
0.634875
0.656345
0.572042
0.654773
0.651181
0.614101
0.598111
0.594872
0.594707
0.594801
0.594547
0.593699
0.589536
0.58555
0.58562
0.585676
0.597085
0.654358
0.642894
0.656396
0.632745
0.639532
0.617922
0.601991
0.595724
0.593192
0.592091
0.593461
0.594749
0.594515
0.594339
0.594193
0.593938
0.597156
0.621165
0.658215
0.661036
0.627786
0.630457
0.644107
0.592524
0.585676
0.593342
0.592232
0.586586
0.585414
0.589896
0.59367
0.593984
0.594598
0.59616
0.605973
0.631328
0.672693
0.654072
0.562675
0.560186
0.653446
0.632148
0.591878
0.586231
0.586401
0.592146
0.58669
0.584813
0.585476
0.588679
0.593241
0.594394
0.596006
0.609013
0.65621
0.657462
0.623758
0.576524
0.6635
0.664143
0.61261
0.592662
0.59103
0.592419
0.592988
0.586478
0.584858
0.5803
0.589038
0.593044
0.597602
0.609303
0.661467
0.650333
0.565319
0.637232
0.667146
0.659698
0.613937
0.5924
0.590997
0.59172
0.593052
0.594832
0.592365
0.590252
0.58935
0.592824
0.597482
0.623963
0.644584
0.642754
0.560088
0.63857
0.667656
0.641191
0.603802
0.592059
0.587786
0.58618
0.585314
0.590337
0.594077
0.594435
0.594389
0.594509
0.603666
0.62912
0.666405
0.64409
0.564366
0.653504
0.668275
0.638505
0.599919
0.593429
0.589372
0.584268
0.584577
0.585461
0.590578
0.594223
0.594913
0.595648
0.606822
0.64885
0.655507
0.617722
0.634599
0.658723
0.654019
0.626486
0.596942
0.589252
0.58662
0.58705
0.584012
0.585178
0.58537
0.586825
0.592706
0.595407
0.607183
0.653288
0.648765
0.567235
0.631465
0.661662
0.634123
0.603544
0.595024
0.585842
0.585703
0.585309
0.586724
0.586667
0.583209
0.571755
0.584031
0.594204
0.60803
0.658254
0.6329
0.555726
0.560032
0.656883
0.652176
0.628657
0.599123
0.594414
0.590742
0.58434
0.585847
0.586008
0.586315
0.58653
0.581602
0.585473
0.586215
0.618628
0.645941
0.639183
0.560448
0.648469
0.656319
0.614465
0.5982
0.594235
0.592862
0.590144
0.584259
0.58582
0.585758
0.58608
0.586287
0.58937
0.595223
0.621154
0.656728
0.618097
0.561558
0.648504
0.657692
0.61162
0.59617
0.594328
0.593286
0.592941
0.591713
0.585461
0.585147
0.58007
0.584087
0.585492
0.600096
0.641138
0.654422
0.579394
0.5621
0.64444
0.654885
0.611174
0.595948
0.594004
0.593479
0.593151
0.59174
0.591055
0.589863
0.585288
0.581685
0.585883
0.587972
0.642165
0.63625
0.560587
0.630006
0.65773
0.650006
0.610943
0.596503
0.593573
0.593208
0.592456
0.592725
0.587879
0.585819
0.585969
0.58551
0.586358
0.585587
0.641189
0.632747
0.548434
0.636619
0.66073
0.634908
0.605526
0.595665
0.593358
0.592772
0.592077
0.59186
0.592387
0.585802
0.563905
0.585407
0.586465
0.593639
0.641077
0.636707
0.555245
0.650181
0.65959
0.623561
0.599346
0.594403
0.5922
0.588878
0.589474
0.592551
0.592498
0.592881
0.588236
0.583454
0.585239
0.599743
0.647671
0.639374
0.564085
0.649398
0.658109
0.611775
0.597193
0.594745
0.592903
0.586672
0.585374
0.584948
0.588456
0.592448
0.593628
0.592927
0.592131
0.607232
0.650276
0.649494
0.558094
0.650565
0.659558
0.611961
0.596224
0.594133
0.593901
0.592923
0.586601
0.58606
0.586001
0.589554
0.5921
0.594194
0.598282
0.61912
0.652769
0.642177
0.558684
0.651717
0.661526
0.61279
0.595908
0.593474
0.593209
0.593375
0.593061
0.591853
0.590014
0.589348
0.591966
0.594121
0.604635
0.622418
0.661286
0.615074
0.56754
0.661047
0.661514
0.612965
0.595955
0.593237
0.592912
0.592152
0.592429
0.592485
0.594024
0.593805
0.59332
0.594914
0.606319
0.649116
0.646079
0.564993
0.634728
0.667189
0.652716
0.608991
0.595812
0.593449
0.592844
0.591338
0.590937
0.590784
0.591954
0.594037
0.594535
0.595545
0.606408
0.651514
0.646969
0.55894
0.628724
0.658377
0.64809
0.590653
0.585891
0.589768
0.592126
0.590313
0.585773
0.585728
0.585217
0.589697
0.591855
0.595365
0.606616
0.649244
0.647855
0.561164
0.550953
0.647892
0.654472
0.64937
0.600556
0.584871
0.584446
0.585857
0.585915
0.585337
0.573521
0.553981
0.57082
0.588625
0.594211
0.60696
0.650145
0.63195
0.563183
0.558888
0.660565
0.660344
0.630444
0.605721
0.591682
0.585128
0.580079
0.559579
0.556119
0.56591
0.558387
0.561746
0.586007
0.591136
0.608825
0.65929
0.629451
0.642403
0.657296
0.615102
0.598563
0.594725
0.59294
0.588588
0.584797
0.552089
0.559103
0.550601
0.5829
0.588021
0.591492
0.62033
0.650284
0.638153
0.563048
0.645383
0.657028
0.611128
0.59602
0.593541
0.592968
0.592609
0.588301
0.58169
0.550344
0.5498
0.560222
0.585198
0.593848
0.623452
0.656018
0.634881
0.556999
0.643438
0.653489
0.610599
0.595827
0.593211
0.592153
0.590712
0.590283
0.587333
0.577048
0.551626
0.556495
0.584755
0.59297
0.624897
0.653949
0.612714
0.546117
0.630656
0.651138
0.609429
0.595849
0.593788
0.5929
0.587797
0.58568
0.585892
0.586199
0.582162
0.579481
0.584742
0.592628
0.621894
0.661149
0.575531
0.61516
0.632775
0.605978
0.595065
0.593687
0.593258
0.592156
0.585871
0.558821
0.570585
0.587868
0.588642
0.589468
0.598579
0.642737
0.64723
0.568399
0.566898
0.599775
0.588669
0.594438
0.593261
0.592737
0.592385
0.591429
0.585471
0.553208
0.573276
0.588356
0.594995
0.604952
0.646485
0.645476
0.556938
0.5075
0.61837
0.584994
0.585109
0.589144
0.593588
0.592733
0.590391
0.588167
0.58803
0.585951
0.571854
0.584955
0.594492
0.618557
0.631927
0.640496
0.553469
0.630188
0.597119
0.586697
0.585589
0.589317
0.593523
0.593467
0.59115
0.585322
0.58041
0.579469
0.586366
0.585841
0.591057
0.621827
0.657667
0.637403
0.645271
0.675287
0.598918
0.590354
0.588668
0.58638
0.588103
0.590478
0.588381
0.583929
0.561186
0.585691
0.58867
0.599648
0.62467
0.659565
0.637092
0.550004
0.629269
0.648693
0.600141
0.588421
0.586615
0.586523
0.585372
0.586003
0.585926
0.584001
0.580525
0.585953
0.586624
0.600145
0.641302
0.652123
0.578555
0.56844
0.628379
0.628873
0.592111
0.586888
0.586161
0.586106
0.584917
0.584795
0.585112
0.576802
0.575085
0.585949
0.587638
0.597482
0.642671
0.6395
0.566429
0.586122
0.6242
0.592978
0.588115
0.586916
0.585916
0.5649
0.542698
0.557029
0.55683
0.554467
0.578781
0.586108
0.585356
0.585534
0.618526
0.631962
0.561824
0.629131
0.630024
0.58857
0.585549
0.58619
0.584521
0.580745
0.549693
0.547193
0.562527
0.58137
0.586068
0.586158
0.585483
0.583426
0.590727
0.634595
0.558436
0.567133
0.646215
0.619778
0.582472
0.584414
0.586125
0.56987
0.540737
0.542569
0.570445
0.585931
0.586084
0.584997
0.584956
0.584197
0.582252
0.598248
0.647974
0.562767
0.583956
0.661193
0.61687
0.585485
0.585942
0.58604
0.549036
0.539878
0.543395
0.57545
0.585759
0.585787
0.587699
0.590188
0.592688
0.603891
0.636414
0.628688
0.562206
0.650607
0.606282
0.585614
0.586411
0.584552
0.545945
0.540105
0.543094
0.556804
0.584926
0.585831
0.588261
0.593189
0.596982
0.62077
0.641259
0.648553
0.55234
0.639572
0.615252
0.588712
0.586243
0.579769
0.540704
0.539993
0.548328
0.551593
0.577361
0.585036
0.588202
0.593375
0.59741
0.624359
0.663133
0.645413
0.644002
0.628891
0.590406
0.585786
0.577112
0.541332
0.539708
0.541421
0.57432
0.555245
0.585718
0.586391
0.591981
0.598522
0.628301
0.658355
0.615583
0.673506
0.616135
0.590258
0.585505
0.582472
0.540041
0.540242
0.544797
0.549935
0.558546
0.58164
0.585657
0.592344
0.606509
0.630631
0.665034
0.57974
0.590034
0.694664
0.598613
0.584
0.585258
0.585774
0.545418
0.541571
0.550623
0.558805
0.585267
0.585927
0.585992
0.590895
0.609516
0.659441
0.642106
0.571267
0.585193
0.662001
0.604615
0.584538
0.585139
0.582446
0.541163
0.540267
0.554025
0.582279
0.585675
0.586245
0.585327
0.58607
0.619994
0.657226
0.649644
0.588598
0.661296
0.608074
0.586018
0.58594
0.585557
0.543949
0.540573
0.543115
0.578483
0.585679
0.586047
0.587924
0.593431
0.623303
0.66623
0.640168
0.587419
0.660707
0.617271
0.588405
0.585592
0.582122
0.540655
0.543312
0.582136
0.585924
0.586182
0.585202
0.586263
0.596923
0.630244
0.662085
0.646533
0.588242
0.658352
0.609888
0.586674
0.584688
0.586044
0.542336
0.542856
0.56689
0.585986
0.58631
0.586134
0.589551
0.606545
0.635819
0.669022
0.585868
0.587631
0.663779
0.61071
0.588616
0.585718
0.585389
0.584377
0.547836
0.551396
0.586169
0.586102
0.585118
0.590209
0.610475
0.66106
0.660742
0.579774
0.647662
0.662814
0.672207
0.584594
0.586205
0.574532
0.56767
0.585999
0.585057
0.58616
0.586451
0.588226
0.592843
0.610458
0.664915
0.659478
0.57508
0.657786
0.619573
0.584085
0.585479
0.580207
0.540457
0.545437
0.585867
0.585687
0.586183
0.588534
0.596461
0.624399
0.663985
0.641296
0.564077
0.647946
0.590319
0.585464
0.585096
0.541454
0.539976
0.541412
0.581456
0.586041
0.586071
0.584017
0.593655
0.628312
0.663138
0.647328
0.661836
0.611563
0.590841
0.586696
0.583049
0.541356
0.541238
0.551895
0.570267
0.5848
0.58532
0.588426
0.595366
0.627599
0.660443
0.63708
0.669655
0.684164
0.598405
0.588362
0.586679
0.57479
0.541275
0.542143
0.585916
0.582976
0.58325
0.58612
0.585323
0.618841
0.647038
0.584533
0.669099
0.686527
0.677881
0.588152
0.584711
0.585296
0.583069
0.584055
0.583741
0.585336
0.585579
0.586381
0.58594
0.595771
0.631844
0.566601
0.587743
0.671971
0.670401
0.628728
0.607383
0.58351
0.584422
0.582787
0.582081
0.584709
0.588528
0.584968
0.586489
0.588208
0.592921
0.612908
0.58834
0.676911
0.688967
0.65264
0.602398
0.587574
0.58394
0.584779
0.585377
0.583231
0.583905
0.586359
0.58673
0.588358
0.590021
0.632591
0.608986
0.682899
0.677212
0.637357
0.600761
0.588034
0.582994
0.582046
0.584569
0.583663
0.588594
0.598193
0.588322
0.587692
0.634161
0.581805
0.674368
0.660076
0.662929
0.605045
0.605591
0.585283
0.583453
0.584385
0.585064
0.585659
0.587377
0.605054
0.612165
0.613343
0.638148
0.478131
0.665299
0.639918
0.60983
0.58606
0.587942
0.586255
0.584759
0.585903
0.582506
0.584687
0.587785
0.614003
0.649968
0.635886
0.643415
0.60451
0.585253
0.630332
0.601175
0.583753
0.581744
0.585328
0.583681
0.583969
0.582362
0.585795
0.590922
0.635506
0.649595
0.662564
0.650043
0.573511
0.639456
0.617775
0.596778
0.584718
0.584252
0.584052
0.583016
0.584463
0.583213
0.587123
0.587875
0.624472
0.663251
0.655449
0.555518
0.569476
0.653098
0.616942
0.557187
0.583808
0.583044
0.582518
0.584427
0.583328
0.58458
0.585934
0.585459
0.594198
0.660441
0.660144
0.56885
0.62085
0.643991
0.622173
0.588757
0.583279
0.581086
0.580908
0.584394
0.581881
0.583387
0.582704
0.608811
0.635678
0.647773
0.668757
0.560308
0.618901
0.593629
0.597988
0.595038
0.584172
0.583855
0.582559
0.581367
0.584712
0.616945
0.652418
0.651059
0.589903
0.577863
0.626011
0.609997
0.594426
0.612949
0.585852
0.583872
0.582225
0.583065
0.598543
0.636413
0.660957
0.664622
0.569249
0.627971
0.628159
0.611964
0.614683
0.58552
0.616855
0.578397
0.584151
0.582537
0.611636
0.658061
0.661569
0.636873
0.576144
0.644341
0.630902
0.60045
0.57857
0.602924
0.585658
0.595197
0.616381
0.509491
0.608204
0.653524
0.667558
0.574444
0.582456
0.649336
0.633076
0.591781
0.576364
0.606713
0.59468
0.596468
0.587691
0.61626
0.584908
0.635454
0.661455
0.569419
0.56843
0.652199
0.632214
0.588044
0.593341
0.582284
0.595111
0.588033
0.585863
0.597366
0.597998
0.643045
0.664166
0.56567
0.56451
0.651781
0.634851
0.603168
0.589062
0.593121
0.544102
0.585712
0.588232
0.605339
0.621381
0.655011
0.654046
0.549748
0.541712
0.564286
0.626089
0.609416
0.596347
0.599638
0.587476
0.533499
0.597392
0.623114
0.605519
0.655883
0.651908
0.614813
0.602372
0.600741
0.592854
0.600836
0.612493
0.604217
0.645231
0.632117
0.614333
0.60311
0.601616
0.595429
0.620667
0.633499
0.646426
0.587419
0.475776
0.589624
0.626669
0.613145
0.634876
0.648437
0.650076
0.499797
0.512348
0.623262
0.590558
0.6619
0.665021
0.585023
0.593294
0.589382
0.673362
0.675552
0.654026
0.593396
0.604613
0.621542
0.647915
0.669078
0.585536
0.550184
0.604288
0.517459
0.584725
0.631714
0.661779
0.619815
0.632461
0.618515
0.62955
0.648338
0.654134
0.641992
0.625669
0.611531
0.556248
0.56587
0.466668
0.620476
0.587719
0.663585
0.657521
0.603362
0.676024
0.686086
0.687504
0.680094
0.671203
0.681176
0.668962
0.659666
0.602723
0.680033
0.689773
0.699815
0.696866
0.702112
0.697061
0.691226
0.685322
0.680999
0.689445
0.686087
0.674504
0.682525
0.677545
0.619995
0.694199
0.699022
0.702767
0.707064
0.708626
0.703545
0.696097
0.690366
0.685914
0.679515
0.695575
0.6946
0.69588
0.695306
0.692494
0.688295
0.696512
0.673651
0.698714
0.722021
0.676551
0.65581
0.706668
0.712376
0.712057
0.713425
0.709343
0.703979
0.703708
0.702791
0.698755
0.693565
0.687632
0.685458
0.685652
0.694086
0.670452
0.686763
0.688925
0.684621
0.685628
0.678965
0.704336
0.707818
0.663941
0.691047
0.706787
0.708742
0.714697
0.711334
0.707435
0.706988
0.697324
0.689442
0.695131
0.700854
0.698219
0.691377
0.688142
0.674826
0.658063
0.644093
0.651627
0.645381
0.67767
0.667017
0.682544
0.693352
0.621696
0.685707
0.705583
0.706689
0.706238
0.702492
0.697614
0.712191
0.705618
0.71325
0.676162
0.661592
0.662545
0.673987
0.690224
0.685569
0.684777
0.678236
0.667709
0.642097
0.654819
0.660588
0.65101
0.666205
0.684783
0.684176
0.547401
0.667491
0.636501
0.66025
0.632243
0.613434
0.611903
0.610393
0.598759
0.588198
0.60037
0.623145
0.671202
0.671706
0.714605
0.611077
0.654371
0.67682
0.677502
0.674565
0.656872
0.660686
0.673984
0.692532
0.678865
0.562091
0.661479
0.59582
0.590727
0.591818
0.602581
0.587179
0.585691
0.586777
0.588912
0.589148
0.588184
0.594027
0.597937
0.628062
0.665035
0.686597
0.595832
0.628677
0.665761
0.659987
0.669694
0.676964
0.682912
0.695215
0.66319
0.559088
0.660297
0.597291
0.58446
0.584803
0.593073
0.597375
0.596455
0.584512
0.580448
0.585955
0.596406
0.608276
0.59586
0.594978
0.603623
0.627921
0.662606
0.694271
0.66529
0.686202
0.69839
0.686519
0.703349
0.68279
0.59425
0.681748
0.69444
0.691068
0.627703
0.583673
0.58341
0.584724
0.585575
0.589262
0.587983
0.586424
0.585999
0.586257
0.589861
0.599142
0.598876
0.602645
0.613883
0.645728
0.702909
0.692621
0.676077
0.679283
0.712649
0.693736
0.619928
0.658487
0.685163
0.667358
0.630877
0.587818
0.58127
0.584976
0.586132
0.585801
0.585079
0.584001
0.579597
0.581602
0.579283
0.584505
0.597496
0.600792
0.602679
0.612139
0.663278
0.699857
0.704587
0.656986
0.655301
0.471603
0.580347
0.537377
0.644743
0.625434
0.59319
0.585586
0.585021
0.58303
0.580621
0.581702
0.58178
0.580558
0.582253
0.580718
0.580823
0.580639
0.578703
0.583901
0.600334
0.608441
0.627229
0.666886
0.705031
0.66932
0.552649
0.559148
0.655748
0.617202
0.595401
0.589609
0.583402
0.583838
0.581961
0.563598
0.569701
0.581929
0.58215
0.580592
0.582663
0.580868
0.580652
0.58032
0.579901
0.584934
0.62743
0.668833
0.694016
0.684887
0.655147
0.664442
0.674748
0.645636
0.59257
0.588701
0.598537
0.58877
0.581852
0.583465
0.564797
0.563348
0.566359
0.568564
0.577379
0.585938
0.573338
0.569752
0.581598
0.580604
0.582535
0.585513
0.652233
0.705109
0.700144
0.665044
0.665114
0.683799
0.678299
0.637601
0.595369
0.586913
0.591973
0.597566
0.584879
0.574882
0.566905
0.567695
0.564126
0.567677
0.566722
0.578377
0.574027
0.584768
0.58564
0.580685
0.580945
0.591073
0.652859
0.698378
0.658293
0.661544
0.67691
0.655213
0.636667
0.607465
0.596345
0.594789
0.589934
0.591515
0.587441
0.585806
0.576752
0.570794
0.567438
0.566665
0.571069
0.575729
0.582204
0.584169
0.580427
0.580659
0.581432
0.591748
0.63594
0.618395
0.581459
0.663624
0.669695
0.652019
0.614087
0.605866
0.592654
0.591706
0.58866
0.587235
0.587459
0.587521
0.586545
0.58586
0.567632
0.575525
0.569364
0.574653
0.57633
0.577818
0.582564
0.583851
0.580142
0.588005
0.616356
0.661632
0.588635
0.668574
0.65854
0.650768
0.611956
0.598897
0.591666
0.588316
0.586039
0.586157
0.580545
0.586923
0.587318
0.58734
0.586689
0.586189
0.585378
0.584976
0.585388
0.580074
0.584612
0.580769
0.579675
0.582024
0.61136
0.645082
0.595148
0.675366
0.680282
0.658877
0.614169
0.594406
0.589181
0.586801
0.586684
0.587585
0.585402
0.556685
0.561305
0.586603
0.587213
0.586068
0.584424
0.58246
0.584251
0.586966
0.588007
0.590989
0.604692
0.606497
0.596895
0.644527
0.551377
0.582935
0.679835
0.67595
0.651066
0.608742
0.594361
0.590104
0.587165
0.586831
0.5866
0.586752
0.587091
0.586836
0.585558
0.584547
0.586776
0.586859
0.585292
0.585832
0.58273
0.583937
0.587976
0.600279
0.640522
0.672346
0.655415
0.555397
0.674363
0.678201
0.668487
0.616246
0.592986
0.586791
0.585533
0.586183
0.58648
0.587068
0.586845
0.586889
0.586956
0.587108
0.587265
0.58731
0.587519
0.587027
0.585217
0.584767
0.571305
0.586086
0.608996
0.677162
0.68601
0.664309
0.670461
0.688905
0.674875
0.622681
0.59846
0.588858
0.586582
0.571172
0.558768
0.556839
0.560615
0.582642
0.586827
0.586978
0.587184
0.587413
0.587576
0.587386
0.586956
0.58646
0.588266
0.584086
0.581686
0.621554
0.678968
0.665449
0.597527
0.669984
0.670907
0.63585
0.601653
0.58791
0.586468
0.576183
0.553612
0.54587
0.544927
0.545132
0.545759
0.555833
0.586571
0.587166
0.587265
0.587383
0.587134
0.586805
0.58755
0.58935
0.599929
0.627785
0.661647
0.657363
0.674389
0.671229
0.642683
0.599184
0.586805
0.586684
0.565621
0.548139
0.544097
0.544081
0.543192
0.542795
0.544123
0.54888
0.579046
0.586891
0.587149
0.586867
0.586649
0.586689
0.589699
0.596128
0.626641
0.676111
0.678798
0.66975
0.68776
0.661122
0.616846
0.592106
0.586733
0.566341
0.552521
0.540829
0.540645
0.541752
0.542237
0.54121
0.541656
0.541838
0.55149
0.58565
0.587076
0.58679
0.5857
0.588244
0.589857
0.604258
0.639066
0.686576
0.618785
0.599201
0.669088
0.670017
0.630381
0.595381
0.587869
0.586372
0.555131
0.540681
0.540065
0.539919
0.54011
0.5407
0.541139
0.540778
0.540819
0.543129
0.548152
0.569634
0.586747
0.587394
0.588711
0.602124
0.624782
0.669313
0.645352
0.59628
0.660356
0.669874
0.632623
0.605059
0.591571
0.586114
0.586522
0.562078
0.541309
0.539809
0.539724
0.539905
0.539934
0.540044
0.540148
0.540619
0.543262
0.562344
0.566622
0.585917
0.589086
0.602756
0.628146
0.674122
0.668139
0.583146
0.669375
0.680415
0.636432
0.603039
0.591529
0.587245
0.586532
0.58264
0.548627
0.540686
0.539976
0.539739
0.539938
0.539993
0.539898
0.540331
0.54232
0.545102
0.558433
0.58641
0.587277
0.594274
0.644277
0.675741
0.676019
0.601771
0.604098
0.671064
0.649353
0.604478
0.589194
0.586647
0.587226
0.585596
0.571422
0.54461
0.540207
0.539988
0.539937
0.541321
0.539634
0.539852
0.540279
0.546937
0.557603
0.573803
0.585877
0.589693
0.634608
0.67944
0.677574
0.609197
0.657116
0.653378
0.610752
0.593834
0.586951
0.574216
0.555789
0.563136
0.557785
0.542607
0.540089
0.53987
0.543971
0.548847
0.543472
0.539928
0.540354
0.544622
0.583239
0.585599
0.58581
0.604313
0.639408
0.686061
0.616476
0.609771
0.659965
0.630213
0.596043
0.588616
0.587595
0.577561
0.542493
0.542931
0.547759
0.549254
0.546504
0.544392
0.546848
0.558629
0.559374
0.541593
0.540881
0.561128
0.585805
0.5858
0.602266
0.638701
0.69086
0.648143
0.665716
0.659467
0.610571
0.591638
0.588006
0.587189
0.581612
0.562254
0.540995
0.541173
0.544
0.551918
0.553825
0.551866
0.556232
0.569151
0.565707
0.545594
0.568084
0.584991
0.589809
0.633126
0.67599
0.682568
0.610452
0.596089
0.669147
0.640872
0.598233
0.589784
0.587869
0.585384
0.576207
0.56243
0.554137
0.545144
0.54243
0.543976
0.545156
0.545008
0.541574
0.544434
0.579376
0.585433
0.583086
0.581715
0.609246
0.645228
0.68354
0.620642
0.669501
0.667565
0.623764
0.589832
0.587359
0.586761
0.576901
0.55866
0.555543
0.543697
0.543104
0.549546
0.54949
0.547803
0.54429
0.540367
0.541209
0.560909
0.5864
0.586845
0.590245
0.638124
0.684452
0.684532
0.582732
0.602608
0.657472
0.628006
0.596402
0.587149
0.575059
0.556013
0.557616
0.54489
0.540581
0.541139
0.540664
0.540444
0.547879
0.552993
0.5521
0.561725
0.56675
0.579762
0.584593
0.589425
0.606288
0.660104
0.675019
0.616195
0.665034
0.637919
0.606386
0.590435
0.587356
0.57987
0.542357
0.540685
0.540674
0.540378
0.540328
0.540233
0.539572
0.540379
0.550818
0.562368
0.571204
0.582678
0.586926
0.587107
0.599262
0.636656
0.669827
0.659887
0.600624
0.65176
0.620382
0.592606
0.588252
0.587614
0.586268
0.563138
0.542511
0.540002
0.540171
0.539464
0.539544
0.539623
0.540713
0.54345
0.563188
0.576985
0.586595
0.586923
0.587888
0.604168
0.656159
0.681723
0.598663
0.653699
0.647798
0.604476
0.590037
0.587733
0.586995
0.579806
0.565281
0.549495
0.540951
0.539944
0.539919
0.539427
0.541097
0.542149
0.540103
0.553996
0.583456
0.586987
0.586683
0.589202
0.618898
0.672315
0.639533
0.598239
0.652934
0.62305
0.598805
0.589382
0.587715
0.583559
0.569383
0.552972
0.547014
0.546945
0.543791
0.542611
0.543776
0.542485
0.542253
0.541002
0.551163
0.584965
0.586193
0.587869
0.59368
0.617959
0.670232
0.596698
0.648905
0.642782
0.603816
0.590265
0.58787
0.587365
0.581733
0.5667
0.552351
0.543208
0.540699
0.543572
0.545289
0.550383
0.553331
0.556459
0.55949
0.571125
0.586415
0.58537
0.59025
0.624195
0.665218
0.655023
0.593865
0.647841
0.62031
0.594111
0.58871
0.587637
0.58619
0.576385
0.562064
0.55257
0.548908
0.543319
0.540786
0.541223
0.54153
0.553139
0.562636
0.572868
0.584157
0.585966
0.58718
0.602511
0.628573
0.670714
0.604126
0.636486
0.642344
0.603863
0.590247
0.587609
0.586996
0.58032
0.568294
0.557283
0.552249
0.548517
0.541827
0.541376
0.541353
0.541793
0.542793
0.562392
0.579139
0.586954
0.586967
0.588256
0.604063
0.667818
0.658677
0.652854
0.631674
0.595688
0.588681
0.587576
0.583923
0.572398
0.559294
0.554284
0.553176
0.551035
0.546901
0.540741
0.540221
0.540761
0.54592
0.561113
0.58387
0.587238
0.588125
0.596424
0.626904
0.659721
0.616237
0.592285
0.644538
0.618424
0.592557
0.588021
0.586612
0.578221
0.563965
0.555295
0.553286
0.553222
0.553081
0.551429
0.550091
0.54591
0.546283
0.550594
0.570701
0.586736
0.586662
0.588593
0.60108
0.645371
0.669528
0.584563
0.599654
0.655907
0.605743
0.589633
0.587773
0.581516
0.567965
0.556262
0.552629
0.552694
0.552773
0.552682
0.552649
0.552275
0.553955
0.557205
0.563306
0.576916
0.586737
0.587108
0.589351
0.602102
0.658014
0.607578
0.642618
0.643177
0.604656
0.589452
0.585051
0.564104
0.553999
0.552009
0.549784
0.547729
0.54892
0.553772
0.552765
0.553159
0.555211
0.559491
0.571122
0.583676
0.587145
0.587733
0.591438
0.617115
0.6527
0.596088
0.653454
0.635764
0.595556
0.58769
0.58671
0.559272
0.544667
0.547912
0.551284
0.547313
0.540991
0.541516
0.553016
0.554239
0.55628
0.560904
0.572673
0.586407
0.586842
0.589146
0.598997
0.64777
0.668788
0.597936
0.659258
0.61827
0.592212
0.588011
0.587096
0.57484
0.55582
0.551962
0.552043
0.550468
0.547004
0.540769
0.541721
0.552821
0.557212
0.563121
0.574259
0.586622
0.586634
0.588351
0.615646
0.65051
0.599804
0.644881
0.65215
0.604997
0.58983
0.587843
0.586747
0.577384
0.558316
0.552208
0.552836
0.552177
0.551692
0.551238
0.549424
0.551283
0.556603
0.564799
0.579587
0.586971
0.587384
0.590019
0.613418
0.659133
0.576973
0.655502
0.636663
0.60347
0.589468
0.587794
0.584294
0.572495
0.55631
0.545424
0.542149
0.548236
0.553415
0.552018
0.552786
0.553918
0.557801
0.568005
0.582474
0.587125
0.587743
0.597086
0.631663
0.664752
0.586732
0.645586
0.617263
0.59216
0.587961
0.587674
0.582891
0.567288
0.553936
0.549583
0.541501
0.540126
0.544759
0.553725
0.55287
0.55439
0.558464
0.570784
0.585362
0.586976
0.58896
0.599129
0.648592
0.624249
0.636013
0.649557
0.604233
0.590058
0.587888
0.587097
0.581374
0.565886
0.552053
0.547314
0.545719
0.542076
0.540175
0.541513
0.551391
0.55567
0.559211
0.572164
0.586382
0.586738
0.588696
0.612564
0.646788
0.593672
0.639733
0.633435
0.602504
0.589382
0.58761
0.583534
0.57207
0.559093
0.548555
0.541377
0.54021
0.541188
0.544089
0.540618
0.539732
0.546077
0.561179
0.572672
0.586798
0.587976
0.589372
0.614088
0.653269
0.569855
0.654605
0.62734
0.594274
0.587917
0.587539
0.581406
0.566467
0.554645
0.549827
0.541844
0.539619
0.539538
0.540447
0.544161
0.541921
0.542215
0.556162
0.579604
0.587097
0.587944
0.595565
0.617263
0.663983
0.574309
0.650387
0.61787
0.591428
0.587734
0.586969
0.579256
0.562861
0.553903
0.551931
0.5498
0.541466
0.539544
0.539389
0.539795
0.543628
0.551778
0.56049
0.581169
0.586796
0.58898
0.599657
0.649078
0.626586
0.59081
0.644689
0.616568
0.59116
0.587635
0.586873
0.576148
0.560017
0.553294
0.55188
0.551347
0.550187
0.544688
0.540591
0.539209
0.539698
0.546636
0.567208
0.584479
0.586723
0.588559
0.614272
0.647397
0.596322
0.59703
0.652747
0.604375
0.59051
0.587812
0.586593
0.576287
0.559333
0.553307
0.551908
0.551405
0.550981
0.550016
0.54761
0.542061
0.539754
0.541432
0.560585
0.586107
0.588123
0.591607
0.613198
0.665429
0.636225
0.637508
0.601682
0.589206
0.587497
0.586049
0.574905
0.559897
0.553355
0.551781
0.551468
0.550291
0.547731
0.54354
0.542552
0.542143
0.542928
0.558583
0.585808
0.588132
0.597914
0.640229
0.647959