/*--------------------------------*- C++ -*----------------------------------*\
| =========                 |                                                 |
| \\      /  F ield         | OpenFOAM: The Open Source CFD Toolbox           |
|  \\    /   O peration     | Version:  2312                                  |
|   \\  /    A nd           | Website:  www.openfoam.com                      |
|    \\/     M anipulation  |                                                 |
\*---------------------------------------------------------------------------*/
FoamFile
{
    version     2.0;
    format      ascii;
    arch        "LSB;label=64;scalar=64";
    class       volScalarField;
    location    "30";
    object      omega;
}
// * * * * * * * * * * * * * * * * * * * * * * * * * * * * * * * * * * * * * //

dimensions      [0 0 -1 0 0 0 0];

internalField   nonuniform List<scalar> 
404911
(
305.321
148.463
3481.89
1578.07
203.133
210.502
195.412
649.247
388.369
326.383
326.294
367.616
210.877
230.307
484.586
1165.97
333.338
165.648
201.283
308.285
566.561
237.421
485.987
574.507
215.347
1018.79
463.976
163.299
172.753
1061.8
321.73
173.736
276.279
413.413
284.648
214.427
367.027
499.276
293.566
216.109
390.569
1097.01
280.666
203.657
179.702
457.276
407.759
166.148
215.236
763.716
464.385
944.806
323.341
1425.84
395.762
661.822
9443.82
124.546
389.156
284.739
168.274
107.823
229.329
13.2406
106.645
440.606
19.7347
284.541
127.467
17.0292
150.124
3.24997
118.107
63.6887
24.4749
668.645
2334.5
297.594
131.377
167.425
61.9583
195.732
7.28435
109.107
130.813
98.4077
272.206
58.4933
1210.45
299.71
265.276
3035.23
66.0196
124.632
169.982
86.0848
87.8943
176.996
38.4531
299.446
692.342
59.8521
81.8328
551.397
1260.79
538.823
276.856
733.589
358.009
283.245
238.319
236.255
231.964
238.018
2317.93
541.536
243.387
4545.88
632.71
192.536
202.792
207.557
206.553
299.537
1323.17
343.58
238.417
225.12
202.305
545.612
515.821
556.069
200.487
188.603
213.617
211.345
265.504
254.863
191.245
319.417
1206.11
347.51
226.55
204.127
204.814
202.598
203.746
196.248
551.408
504.02
213.709
189.196
216.409
1830.69
294.181
1025.87
290.194
203.221
185.196
191.16
191.309
199.687
204.416
204.689
203.125
197.533
200.061
205.154
211.569
282.265
430.261
630.268
485.787
454.609
476.915
474.171
554.308
190.556
204.14
202.722
205.082
209.21
215.418
231.585
235.765
223.189
321.573
747.366
497.192
438.383
448.285
414.862
393.063
571.122
479.338
180.283
195.266
196.707
208.836
220.336
229.724
258.416
1192.4
1028.42
281.947
619.505
359.48
298.512
291.516
292.962
474.636
361.147
420.076
480.655
488.548
177.573
202.14
212.69
211.276
239.945
537.327
901.581
640.33
292.007
258.784
200.511
232.034
266.835
304.271
393.136
382.67
288.045
334.489
162.614
198.973
212.566
237.103
325.499
1222.83
1251.11
318.23
150.651
338.351
205.234
216.526
163.631
225.08
412.732
243.272
262.388
227.745
239.709
334.448
524.31
193.13
244.031
1135.85
504.961
202.801
133.699
355.175
208.99
261.141
171.243
216.929
225.293
229.872
209.519
220.967
443.146
414.366
503.018
578.547
459.273
505.819
245.75
188.596
460.173
261.485
186.498
269.844
204.272
233.273
309.226
179.622
221.154
274.508
401.687
468.992
504.012
1712.4
386.598
197.299
172.963
153.179
187.372
191.677
223.843
188.021
203.32
179.253
171.138
284.8
191.215
284.307
430.723
473.759
281.287
1067.14
1007.1
933.245
321.383
332.13
131.422
92.0235
235.868
192.232
232.515
184.594
231.922
227.106
243.177
200.895
297.115
394.421
221.963
598.25
1127.52
278.065
165.386
244.267
209.671
214.449
164.486
65.953
210.977
189.716
197.131
195.121
173.965
215.759
317.693
242.691
399.405
301.265
501.644
186.8
139.634
152.146
204.818
222.397
217.725
179.669
111.762
166.117
128.177
126.673
135.725
139.906
269.641
302.739
221.848
1034
1158.38
295.111
174.388
211.65
158.036
147.303
128.955
181.028
140.25
105.6
94.7872
167.619
143.284
170.259
130.248
149.527
621.321
921.076
380.131
166.063
135.457
135.765
214.005
133.232
190.23
71.7881
92.8148
88.3608
86.9735
162.234
152.474
188.756
211.801
161.676
308.848
739.392
1120.92
936.966
673.656
261.743
213.081
105.397
158.922
162.83
111.558
72.265
85.4518
89.2802
96.2683
173.989
283.774
326.295
176.03
500.031
455.619
186.499
207.858
198.195
153.874
75.3103
87.175
138.08
93.5858
171.898
72.2377
95.9208
143.586
138.886
126.832
159.18
305.716
989.781
208.419
136.25
147.818
126.743
152.354
91.0343
91.0089
115.582
176.034
156.804
161.004
140.137
147.315
174.083
168.168
173.297
336.879
453.228
154.822
161.083
184.945
131.657
99.5686
93.7278
50.7738
67.5532
127.199
227.94
205.258
188.211
172.696
194.376
263.01
193.345
1003.72
267.854
130.744
161.949
139.691
100.679
66.5955
85.7504
125.699
55.3551
71.8263
121.706
147.857
208.169
206.8
264.781
194.411
312.346
1194.23
484.857
192.079
144.85
146.084
141.679
102.858
120.537
74.871
61.1436
68.9847
94.7334
80.5314
92.9353
104.754
259.161
140.212
228.405
1045.69
1139.03
254.045
132.421
195.371
148.772
136.501
109.132
72.8669
87.8573
90.8384
47.4149
72.1243
111.826
148.395
142.521
132.591
184.922
328.97
456.642
170.299
147.092
139.26
130.616
119.465
100.943
98.2224
74.8585
35.6098
40.2714
48.5573
77.6074
150.288
218.032
237.828
206.928
1030.95
1147.33
254.494
134.957
141.678
136.2
122.688
111.916
104.868
85.751
94.5014
83.8008
67.483
86.4818
73.9458
177.596
199.261
202.408
289.869
917.353
176.413
139.169
133.519
129.01
125.498
104.244
100.722
101.385
88.8841
72.2639
87.0429
88.7848
107.279
145.906
170.883
227.433
351.406
282.684
137.544
187.071
122.742
115.653
120.184
119.798
106.199
95.4595
97.818
97.5573
93.3432
103.357
124.355
149.54
179.221
186.267
548.724
255.497
170.999
183.367
110.176
104.04
86.7724
83.8437
92.2773
117.313
111.288
109.083
112.538
115.821
139.403
139.09
141.276
271.327
1134.07
1171.16
196.148
127.029
178.41
75.514
89.9782
100.845
87.7052
81.4395
71.5464
108.641
111.846
117.28
129.896
143.934
158.311
182.803
493.527
949.914
182.232
140.334
130.755
104.657
86.5313
91.8052
89.6356
80.1884
73.693
24.3173
106.75
133.675
130.185
136.149
171.047
191.142
1081.06
309.585
157.109
146.839
145.385
137.878
105.945
110.136
102.257
87.8344
71.3325
68.6076
93.8323
127.228
148.648
154.59
130.347
202.148
1119.81
295.695
138.039
134.165
134.839
120.632
102.731
76.4238
88.6209
109.52
90.0179
96.0771
91.8076
122.198
139.562
174.744
140.245
287.945
1053.37
223.109
136.092
139.766
138.032
118.835
80.6235
101.429
81.559
77.5436
106.606
87.8281
93.9595
113.323
134.018
143.524
163.506
480.856
455.573
166.483
141.801
176.87
151.377
96.8081
70.4771
53.3885
99.2129
74.9995
63.1596
101.565
108.393
118.113
139.367
143.547
188.816
1026.8
298.091
138.721
130.62
130.274
116.058
99.2145
79.9804
69.576
51.9363
56.6747
110.636
14.5287
91.335
129.583
134.122
175.278
241.707
1153.49
1066.64
199.392
127.823
135.581
129.273
119.997
88.562
106.815
53.4062
54.4053
58.4374
44.9581
123.1
71.3177
113.073
193.474
134.705
265.328
1058.04
187.789
145.641
133.988
118.798
111.026
110.7
78.8024
101.194
62.2081
63.8274
49.2518
54.4646
78.7839
123.362
161.081
152.577
457.556
1042.89
187.354
143.564
135.462
125.503
111.664
109.642
108.554
74.9218
81.311
64.2161
23.3267
32.0279
79.1073
152.154
139.882
167.838
932.882
1039.21
183.719
134.362
133.048
123.1
110.946
108.783
107.781
115.28
89.771
51.6688
68.061
26.0193
62.8622
117.62
244.31
239.922
1154.78
295.656
161.763
139.681
132.502
131.185
111.738
102.014
113.392
95.4451
80.9509
59.5289
47.501
40.9805
58.8135
126.598
157.668
262.921
1162.06
269.628
136.765
133.167
136.215
129.519
124.118
102.066
105.456
115.141
85.011
62.6719
9.64451
38.7868
59.563
142.42
145.343
256.448
1115.6
187.306
135.249
153.917
128.75
123.488
112.922
110.287
108.192
89.5924
94.1945
81.6384
61.1233
97.692
86.9514
156.897
232.005
269.991
994.725
184.529
151.991
129.318
123.591
107.943
97.9574
86.6711
79.0523
76.0876
105.905
103.223
101.673
82.3023
103.993
133.259
136.643
280.301
1060.74
184.734
136.759
135.71
120.566
113.899
99.2676
84.3437
75.144
55.0269
48.2092
112.752
120.267
116.543
121.261
157.753
139.579
296.409
1064.19
190.609
154.56
137.608
124.389
113.893
116.476
103.236
94.9403
71.7162
67.2315
84.8786
104.936
123.544
136.281
138.869
149.034
452.565
1000.91
182.124
138.348
134.2
120.834
114.647
111.281
113.517
109.449
101.249
94.1346
85.4282
96.5149
116.831
130.817
139.022
181.619
1004.32
312.238
176.258
201.88
152.592
113.112
97.2412
98.8938
99.6978
95.6452
95.2837
92.2501
93.2654
89.0721
108.751
129.283
135.606
185.208
1089.37
313.392
171.259
137.611
136.893
99.0211
101.477
77.1761
71.7719
68.711
62.4403
71.2909
98.7709
112.356
109.457
130.04
136.827
181.647
1057.41
1192.77
226.971
163.719
134.526
127.801
120.941
86.337
56.0789
58.8402
39.0625
16.0943
5.32895
13.9462
98.0587
119.539
136.034
154.762
200.666
1043.17
1080.04
185.517
126.638
184.542
134.645
96.0077
97.3632
23.3237
7.59067
6.15749
10.818
7.06546
8.57616
52.1856
130.495
140.028
159.877
241.798
196.769
164.537
138.649
127.669
111.589
81.3204
51.8237
35.5477
4.63215
7.38288
4.11743
29.1728
62.2224
118.284
139.289
131.334
255.192
1019.24
195.607
138.353
135.685
129.939
124.787
112.225
83.4326
50.9946
26.4053
4.02903
3.84669
7.87725
82.0881
129.515
138.336
141.718
301.714
1059.4
186.771
135.427
127.117
122.422
125.227
113.136
98.5384
83.5372
45.1056
19.3915
4.46829
6.2894
77.9194
121.467
157.157
148.534
463.018
1155.86
187.051
137.241
130.358
116.794
109.233
93.6417
83.3782
62.313
59.4824
37.6218
27.1516
22.289
85.9673
133.722
145.138
156.279
870.872
168.346
222.547
140.449
125.027
114.535
108.935
74.9789
58.4009
7.26782
13.7317
58.7297
62.0185
88.3661
137.805
141.802
180.499
972.086
781.493
272.1
128.392
110.667
118.941
122.425
105.348
69.7387
41.0691
5.03935
15.8323
97.6786
106.257
118.201
167.384
186.024
1069.67
2182.26
303.565
214.135
133.166
101.161
118.832
118.398
100.859
91.6415
64.0027
48.7991
14.5366
83.3488
130.455
137.955
131.371
206.954
1118.16
300.612
120.141
154.65
105.591
83.5923
102.589
109.362
88.4258
71.2237
24.1272
22.7224
46.9227
85.6996
115.928
158.398
136.617
277.095
282.022
151.641
157.348
100.252
76.9049
84.6988
111.126
101.868
63.2572
32.186
8.32216
41.9427
107.129
129.107
168.098
145.467
298.293
1201.09
249.823
142.289
146.858
101.653
68.9069
68.676
71.9838
70.3985
71.136
33.356
23.9471
49.1456
90.0624
135.707
156.597
165.034
879.076
973.212
193.421
202.222
120.132
88.8749
51.3518
53.9431
75.5395
35.1771
37.7421
19.4657
17.3273
51.0627
87.4416
127.049
140.553
180.524
1004.53
856.117
142.66
233.502
115.19
59.2773
43.2601
10.1056
1.65652
6.50647
6.42484
5.51067
21.3457
54.5581
70.8369
99.6959
238.75
182.517
1012.95
458.021
136.899
201.877
77.5312
46.4349
34.0255
24.3031
3.81215
3.00208
8.95085
25.3164
48.3235
57.1616
68.142
108.056
211.7
186.331
1048.2
1026.01
246.503
141.576
128.671
89.7031
46.8897
13.1268
1.10083
1.61687
13.468
45.7931
52.415
76.5399
83.8215
109.366
200.618
238.757
327.301
1058.7
916.324
153.245
172.713
114.995
64.393
45.9372
3.59691
0.864777
1.85219
17.5489
40.8266
47.3209
73.1283
86.1476
116.689
135.352
154.142
206.637
1093.53
220.61
147.372
92.7047
55.0674
33.7393
2.61513
0.926252
1.7664
6.42354
35.7044
60.5394
76.6937
98.3276
127.745
156.54
133.16
257.948
1209.82
260.573
143.494
111.904
49.6733
22.7106
1.08991
0.894989
3.36295
4.45812
19.6314
36.6536
89.1816
98.8717
134.607
151.823
140.704
297.349
270.345
157.792
139.384
61.953
19.2376
1.26586
0.815962
1.29022
16.553
5.81319
41.6926
78.0819
110.77
134.679
165.974
148.912
465.047
251.446
267.213
147.08
68.2518
27.6068
0.909145
0.963967
2.2663
3.89306
7.14311
25.7329
78.4016
107.946
146.286
136.902
154.448
889.685
980.314
170.821
240.183
173.459
70.8835
42.4546
2.45475
1.33337
4.12066
7.24692
37.8008
53.7909
63.235
132.408
150.643
186.37
193.528
991.717
923.736
181.794
241.068
152.162
70.713
27.8664
1.21903
0.970995
5.33047
27.0728
40.8292
54.2599
79.2981
132.216
158.453
133.75
270.074
862.186
152.807
145.609
126.487
61.8352
40.1598
2.01566
1.05525
1.77321
20.9418
62.3502
64.6165
84.0892
131.366
142.328
140.453
309.32
874.461
149.717
142.645
110.803
67.7963
27.0551
1.07805
1.82752
26.6451
53.5123
53.4778
77.9656
110.071
134.24
168.482
148.683
309.842
886.523
154.538
143.683
84.4344
88.3938
53.3072
1.55017
1.69622
11.29
47.6926
53.1167
71.9885
114.359
145.272
140.242
155.765
884.688
896.178
157.477
187.848
99.9813
69.2128
69.8356
77.7696
3.21319
4.4074
48.81
58.5075
89.9149
123.349
147.693
143.091
186.222
987.541
292.768
152.986
242.713
144.03
55.1761
16.7021
11.7988
49.769
69.9043
49.0858
53.3367
83.6081
125.516
159.478
149.366
195.503
1066.01
351.738
286.09
136.714
61.6717
23.2952
1.02263
2.46355
45.3344
62.6691
58.4557
88.1189
128.018
133.527
248.5
242.756
1194.3
335.926
283.13
180.336
67.9812
1.29942
0.890778
1.2874
25.5051
55.6143
60.679
99.6819
147.574
138.669
141.251
282.932
296.979
643.508
252.156
182.478
105.529
1.27209
1.2381
4.57173
13.4255
71.7546
75.3834
81.16
129.945
189.566
146.275
307.448
321.405
141.569
176.831
221.027
166.2
17.021
1.24855
1.49406
51.5668
96.4127
109.245
107.622
131.237
191.123
170.77
873.624
331.382
154.499
209.444
252.222
237.323
197.976
91.1221
76.8472
81.5942
71.9287
132.782
221.555
210.236
276.679
200.406
1058.27
1196.01
306.861
181.291
147.514
237.546
318.201
194.482
192.586
142.511
200.146
228.712
192.608
112.869
193.577
314.254
507.209
1250.09
231.424
144.921
163.394
174.92
194.992
202.61
146.382
38.6353
103.439
187.383
250.325
254.866
206.783
400.865
264.227
1024.6
220.086
163.953
156.053
161.558
182.888
126.308
160.749
124.446
101.372
157.651
264.318
228.918
233.379
357.3
841.284
322.771
164.769
422.94
224.39
198.082
118.679
115.37
92.9366
74.5359
75.9738
195.278
168.527
135.3
275.996
311.227
4077.83
330.194
566.781
480.151
245.475
264.325
175.322
102.253
161.088
215.396
119.539
183.216
162.663
184.834
199.759
309.154
804.368
1094.23
662.44
325.415
251.434
260.044
223.995
111.074
104.324
207.382
209.221
181.234
183.918
221.091
212.886
334.505
1200.16
226.21
457.931
271.136
173.757
176.473
123.787
159.357
191.095
220.217
200.681
232.201
141.151
209.414
256.013
1412.88
1186.94
237.77
172.132
648.659
260.319
225.45
124.373
104.75
185.933
207.435
198.527
239.901
294.033
175.413
342.386
1249.04
576.022
224.768
176.482
486.805
328.92
269.225
234.764
165.429
241.59
202.551
220.675
276.736
146.78
200.036
354.271
1159.36
551.82
478.995
370.26
273.443
204.268
202.373
193.827
235.231
207.742
313.76
178.283
257.257
1168.62
732.843
551.621
467.319
397.831
295.842
317.471
199.496
188.422
202.775
250.797
144.121
188.521
334.228
1174.61
227.408
172.484
507.002
382.906
224.176
315.785
422.003
194.187
200.199
299.368
169.423
222.74
552.303
1241.93
237.776
182.038
514.843
480.258
290.936
274.023
259.141
252.648
639.734
345.419
178.808
237.124
1206.08
1165.52
240.186
567.36
507.024
502.116
378.145
254.37
251.207
243.809
352.832
507.612
193.116
244.582
1287.9
1220.7
235.701
584.303
505.23
516.337
471.956
236.747
239.339
188.563
249.002
507.149
198.529
327.86
1327.99
1168.02
240.409
196.446
527
484.273
532.847
599.703
220.583
199.343
329.99
176.52
206.215
331.733
1424.81
1448.82
1183.45
186.1
184.452
499.593
498.666
618.763
587.257
405.622
365.736
523.652
204.567
337.06
180.288
527.769
490.839
491.802
156.849
508.141
535.726
549.708
525.747
185.683
170.509
494.831
570.647
183.891
211.552
295.008
1161.27
6264.7
605.888
166.991
495.529
543.723
229.245
369.492
2816.1
2100.8
523.654
805.034
219.823
246.303
1157.26
482.295
804.838
233.937
242.126
577.354
865.105
644.737
257.217
229.022
272.872
1156.96
1156.73
298.791
1960.66
867.571
533.007
347.25
199.98
196.028
227.455
235.495
652.826
298.522
210.701
381.248
692.7
1478.82
1343.01
6406.6
490.815
1399.38
546.732
520.468
1300.94
556.684
374.478
288.749
277.71
256.536
240.32
219.904
316.798
1329.91
568
363.766
267.372
252.666
233.225
224.584
226.875
237.39
235.445
227.716
214.665
227.501
235.959
217.814
1252.85
536.965
290.35
250.685
228.846
221.522
218.797
216.531
225.068
228.781
237.033
220.283
210.502
211.345
221.205
223.984
232.522
221.358
240.718
334.905
380.527
838.365
966.188
521.832
278.946
240.347
229.829
215.251
212.491
215.243
217.917
218.477
220.119
225.409
230.566
207.699
563.282
572.235
212.871
231.975
217.968
232.434
242.967
259.354
606.469
568.039
327.634
255.291
230.058
202.859
189.688
196.642
202.784
213.228
215.641
216.899
213.51
221.553
217.992
219.657
220.67
200.034
536.84
567.969
194.839
219.09
234.852
249.963
290.035
1245.99
429.729
199.235
153.366
146.346
187.561
200.155
494.123
371.535
403.595
168.812
204.6
215.443
199.762
178.942
187.36
211.182
215.904
204.207
187.748
507.945
574.26
203.982
238.032
284.693
605.832
1494.47
400.647
308.174
233.229
212.608
223.4
187.347
257.22
306.017
392.118
273.708
377.529
164.666
182.87
401.491
374.098
602.072
181.691
209.273
219.263
222.287
560.696
587.767
254.666
592.618
1262.47
336.749
401.774
280.275
201.691
166.768
179.793
178.378
117.646
154.554
325.778
378.066
362.986
275.662
339.676
426.279
238.016
305.818
554.703
199.93
222.708
223.771
235.262
269.405
554.907
437.2
1348.37
313.364
361.935
264.304
180.341
142.579
168.374
123.385
132.015
165.752
124.252
118.747
292.225
289.947
327.276
293.443
251.491
182.119
128.976
367.168
165.318
214.209
246.184
344.507
598.097
1095.32
409.579
185.705
251.77
288.895
183.232
208.502
95.7003
108.029
122.653
150.936
111.403
73.1861
99.0068
135.801
147.86
151.809
175.618
227.804
254.249
244.242
189.286
187.657
198.077
231.616
543.679
1122.8
242.088
150.567
232.953
184.419
198.006
195.333
82.4699
117.276
101.326
111.43
127.952
185.306
141.576
169.773
131.94
138.775
137.615
159.572
176.741
199.229
175.114
600.534
550.634
673.144
4488.76
765.843
1381.11
315.439
210.621
188.914
139.398
110.13
108.215
128.023
126.816
136.767
156.76
130.582
138.519
137.949
141.564
192.545
129.271
160.737
165.185
180.195
177.058
145.206
587.235
1654.46
1280.75
358.529
219.363
177.711
153.914
181.219
31.9799
26.7207
9.42856
12.9864
110.545
145.965
147.963
101.853
131.911
145.808
158.005
169.994
182.284
229.391
193.518
142.33
213.281
457.054
449.652
186.579
265.918
296.01
209.954
144.864
122.13
153.955
30.1729
10.0452
9.3248
10.8876
12.1946
19.7299
44.1763
15.7227
13.0384
111.31
165.439
130.31
221.789
276.531
142.188
205.492
492.522
429.06
193.873
168.534
191.032
138.731
111.18
124.326
115.562
89.5765
16.9977
11.1928
11.6582
9.70517
11.8169
11.308
20.8723
16.1472
34.6207
63.5021
159.606
200.941
282.531
536.147
195.754
493.819
385.328
160.99
176.126
193.299
173.233
155.57
105.02
99.0737
99.9593
91.6559
61.8071
18.915
13.7321
11.4991
11.2486
14.1147
18.0325
27.0978
86.6157
166.556
163.373
260.893
322.512
484.085
884.447
1132.46
372.983
156.484
198.672
172.635
161.505
160.826
165.002
101.914
94.76
91.7411
81.6739
63.1515
51.4516
11.6646
17.4796
12.7452
16.9754
18.5351
19.9338
98.4667
142.95
222.148
313.943
356.276
427.6
1116.25
369.648
151.972
188.966
170.528
150.594
128.594
106.568
90.1682
48.0811
24.83
60.1342
70.5554
69.4661
68.7656
56.8691
40.4672
68.6284
64.6509
23.1674
78.8257
154.357
194.932
244.377
346.604
453.492
1012.59
267.901
147.942
193.31
177.579
162.426
130.447
121.287
97.2813
68.0562
36.885
6.43214
8.49477
55.4882
67.954
83.6429
93.6004
117.296
92.932
70.3436
95.2645
128.65
172.502
194.456
375.347
342.03
1348.8
1212.66
276.087
143.747
163.232
177.555
160.915
121.277
110.287
93.2165
84.465
77.5095
68.8297
60.3158
37.3264
32.9551
57.6823
72.0469
90.3115
44.0491
28.4497
33.7637
106.233
181.369
253.272
314.592
206.559
1536.43
412.202
158.641
208.111
185.822
147.042
114.879
98.4846
78.1657
69.0069
61.8959
70.8496
72.8333
72.6248
67.5906
62.4825
60.7266
61.7968
72.1838
79.3265
35.388
14.0316
52.4529
209.93
337.096
190.052
457.923
461.867
190.591
165.336
178.611
164.333
114.025
64.1383
14.5956
7.31977
6.50509
8.19313
28.2036
59.0356
68.3968
67.2811
65.8702
65.9492
72.6989
82.8013
96.5586
79.6668
113.394
173.97
225.682
190.635
479.796
995.564
245.344
163.7
173.537
165.631
109.856
68.3425
19.1866
5.21079
2.5788
2.29094
2.35445
2.54565
6.09263
50.9685
62.9389
67.4866
69.685
78.1468
92.8837
105.418
134.107
179.372
193.955
176.596
435.454
404.442
155.637
166.376
168.793
118.712
60.4681
10.8286
3.30588
2.04394
2.03881
1.77887
1.66496
2.05319
3.54722
21.8014
55.3631
68.2313
78.0469
90.2344
103.971
106.954
148.543
202.885
271.043
285.02
463.2
172.365
215.221
191.95
140.64
62.4306
11.2259
4.79086
1.11356
1.06229
1.36954
1.50649
1.21745
1.34204
1.39349
4.44333
39.3528
62.4993
80.0353
109.564
112.492
149.064
169.554
186.146
171.703
825.644
945.201
232.38
160.389
181.1
179.271
125.15
69.3126
5.81011
1.07279
0.90534
0.866605
0.91793
1.07853
1.19947
1.09906
1.10946
1.76066
3.30791
13.3562
69.5105
102.676
144.029
178.932
171.362
150.929
417.53
947.92
247.825
162.3
180.602
162.601
146.592
104.497
53.3264
8.80762
1.24758
0.835903
0.812662
0.862615
0.870818
0.900364
0.927288
1.05418
1.79876
8.83663
11.3838
63.8677
122.892
181.793
211.834
270.751
252.157
1076.66
408.101
180.259
178.776
160.7
134.831
106.699
76.4749
28.2064
3.4665
1.07589
0.882245
0.817092
0.871118
0.886321
0.861187
0.978032
1.52972
2.34365
7.197
56.6375
99.6899
197.183
240.054
266.277
228.64
912.59
785.82
198.194
219.507
183.782
126.619
89.4301
58.4507
38.6446
14.4485
2.19901
0.944656
0.885659
0.869599
1.24586
0.786621
0.847828
0.963506
2.911
6.83189
17.12
87.6243
154.028
204.89
229.211
232.479
904.483
251.709
158.879
158.349
138.749
76.5336
17.0847
6.0689
9.38201
6.85325
1.60918
0.910548
0.852311
2.00564
3.51016
1.85625
0.866723
0.983062
2.20574
29.8881
86.134
126.755
207.206
198.777
222.14
907.265
788.376
161.941
156.441
150.822
105.794
72.3055
20.1651
1.576
1.69813
3.15441
3.64157
2.76601
2.12593
2.87533
7.16415
7.44994
1.32254
1.12645
8.32421
41.6268
119.788
191.188
225.84
280.781
414.147
273.769
164.291
162.755
150.961
85.6306
59.5425
27.0383
8.88234
1.15691
1.20221
2.00768
4.54442
5.23756
4.53787
6.16793
12.8626
10.602
2.49373
12.0744
95.3339
141.15
194.32
272.865
239.39
941.792
958.794
210.832
164.467
159.982
103.521
70.569
37.3113
19.0066
9.02049
5.35394
2.35205
1.55078
1.99831
2.34027
2.30296
1.31247
2.14735
22.4477
37.055
33.6722
170.531
211.195
197.963
171.615
860.648
340.328
177.718
182.167
148.331
77.2958
46.2972
19.7016
7.24405
5.90799
1.91834
1.75096
3.7462
3.71394
3.15535
2.09164
0.980542
1.21837
8.31381
66.6479
109.89
153.668
209.405
283.496
270.318
1222.36
741.685
155.33
151.713
158.194
82.7928
17.8571
6.13054
6.74683
2.27313
1.0409
1.19394
1.06238
1.00486
3.21147
4.95409
4.61694
8.57557
11.2769
23.11
91.9079
128.998
188.751
214.363
234.261
912.544
216.709
193.965
154.287
139.218
86.5389
23.3882
1.5343
1.06183
1.05838
0.98099
0.971421
0.945537
0.769963
0.986867
4.18643
8.96438
14.5099
28.7781
65.6776
109.62
159.561
212.688
153.098
440.318
722.201
155.393
150.15
128.155
97.019
66.8822
43.5673
9.36303
1.57676
0.878067
0.92493
0.738944
0.762314
0.783763
1.07974
1.8471
9.32247
19.8132
48.3402
78.6147
120.095
186.605
180.852
231.72
1017.52
252.134
152.462
143.79
129.564
79.3999
50.7738
23.4775
10.5532
3.73618
1.13994
0.86549
0.860001
0.730893
1.1835
1.4761
0.909196
5.32761
30.7781
57.0508
92.1943
125.403
172.067
249.172
420.657
730.512
153.292
146.055
132.188
92.8479
64.6204
30.7883
13.1017
4.95583
2.92796
2.90162
1.95025
1.60785
1.94556
1.56998
1.4996
1.15322
4.30413
35.4559
93.3123
119.254
179.149
163.567
173.63
896.481
249.667
154.48
142.836
134.398
90.1603
55.9775
26.9103
11.3616
4.71065
1.77738
1.07036
1.88571
2.39536
4.02999
5.07641
6.30559
7.55566
14.0959
52.637
107.999
154.489
176.957
220.021
265.015
745.445
154.126
141.238
132.977
91.7189
68.7328
42.0213
19.1077
8.80362
4.77782
3.52553
1.80862
1.09455
1.21567
1.29988
4.99144
9.07405
15.824
32.7869
84.9201
123.457
176.514
167.301
168.245
863.42
254.33
139.87
136.658
126.143
83.1315
48.4958
24.3655
12.3584
6.62064
4.65791
3.40407
1.38281
1.25731
1.2516
1.37412
1.65675
8.92961
22.2267
55.1678
88.9093
137.512
175.9
203.498
265.387
212.168
165.209
140.259
92.7049
63.8036
31.7577
15.3521
7.49341
5.40896
4.99531
4.23186
2.88965
1.08204
0.940244
1.08666
2.58724
8.3505
31.6033
68.3675
102.518
150.474
213.446
153.508
737.729
771.603
151.226
140.299
113.31
77.5957
44.494
21.2973
9.79596
5.80354
5.03318
5.00963
4.95988
4.3712
3.92556
2.58441
2.69889
4.11125
13.9453
52.2568
87.2364
121.042
171.234
183.717
235.032
1025.12
731.629
164.281
138.672
111.53
68.9488
26.4155
12.1703
6.19914
4.79687
4.82106
4.84742
4.8125
4.79876
4.66636
5.29704
6.58398
9.43964
19.5672
49.7669
82.8615
111.484
167.504
215.749
682.708
368.55
170.798
141.747
95.2764
35.7198
9.80102
5.32892
4.57568
3.80694
3.15051
3.54027
5.22877
4.84842
4.98706
5.76957
7.5688
14.2938
31.016
64.897
94.1562
146.817
198.783
190.782
812.779
213.443
178.833
153.83
104.483
45.691
7.55646
2.20187
3.20942
4.32668
3.02029
1.15053
1.29817
4.9597
5.4022
6.19421
8.21606
15.5595
44.4525
79.2705
101.863
154.472
200.486
243.1
742.945
172.66
163.998
125.065
83.3818
51.8337
17.6511
6.03833
4.57538
4.59679
4.04181
2.92464
1.09032
1.35585
4.88873
6.58038
9.31424
16.8944
47.5201
84.937
122.856
160.3
150.713
751.63
386.277
155.952
142.213
111.591
75.9517
45.316
20.2589
7.06939
4.66663
4.8913
4.63864
4.46861
4.32377
3.70487
4.33449
6.34123
10.2227
22.9695
50.0445
84.3397
136.34
198.851
196.521
996.43
209.946
192.215
145.967
101.802
64.6006
32.8358
15.4302
6.23273
2.43716
1.47538
3.32021
5.09011
4.57836
4.86335
5.28393
6.83136
12.1485
28.0174
64.0045
98.835
138.591
165.405
231.87
777.227
154.056
139.006
120.983
97.775
61.1555
29.1481
11.7433
5.29725
3.75565
1.29269
0.915153
2.23806
5.21703
4.89344
5.45761
7.11787
14.0591
37.1769
72.9217
95.3951
147.15
182.376
398.083
374.229
149.494
138.746
126.007
75.7116
49.9423
26.0407
10.8676
4.61392
3.02658
2.52482
1.45579
0.928953
1.29876
4.37729
5.9633
7.44556
15.1191
44.2963
80.6844
115.711
152.87
146.755
727.515
258.712
131.55
120.714
94.7777
65.3617
30.7201
15.0956
7.41694
3.42081
1.25838
0.938885
1.20766
2.03504
1.05012
0.809373
2.63532
8.36512
15.5445
49.9697
77.2772
121.913
180.573
200.861
1006.04
218.036
183.04
138.799
96.7876
57.5846
26.1148
11.2321
5.55955
3.8301
1.38943
0.779878
0.757976
1.00373
2.05778
1.41221
1.49399
6.18242
22.9397
53.4166
94.3963
149.945
153.074
212.981
937.33
154.875
130.578
125.071
82.9579
49.2143
22.7018
9.23275
5.2723
4.55236
3.82735
1.28473
0.759372
0.718718
0.828046
1.90287
4.52057
8.0681
25.3376
74.1403
96.1739
146.329
201.125
383.868
756.303
148.36
135.43
110.904
79.796
48.6418
18.8944
7.84009
5.04814
4.53104
4.34716
3.95842
2.21681
1.0457
0.671968
0.801565
2.81383
11.683
33.837
79.6168
120.936
176.702
154.034
768.82
695.141
158.466
141.723
113.551
75.3255
44.6092
19.0282
7.52611
5.05239
4.54349
4.36376
4.21871
3.90001
3.11844
1.45444
0.816906
1.27421
8.12747
42.0737
78.1062
140.453
146.846
209.256
262.323
157.94
126.564
99.423
73.2392
40.362
17.6154
7.79188
5.07052
4.49716
4.38642
3.98214
3.14982
1.87883
1.59422
1.47645
1.70023
7.21363
40.3949
90.5146
150.212
162.354
261.488
253.471
129.948
125.282
95.8524
62.4949
33.1204
15.1149
7.25142
5.16959
4.44106
4.30478
4.55987
3.80577
1.83573
0.811375
0.936697
2.71312
10.9899
43.4075
94.6692
163.608
185.306
683.188
221.634
183.18
137.917
89.1805
56.9509
26.2837
12.4195
6.43284
4.45855
4.05034
4.61672
4.3787
4.40701
4.12793
3.02696
1.59345
2.79956
13.4617
55.1817
98.3537
166.711
251.611
720.246
217.885
144.929
126.276
83.048
49.7144
19.7923
9.11003
5.44371
4.3409
3.01452
1.27284
1.67607
4.78054
4.74506
5.04484
5.25055
6.73876
16.6553
55.2761
106.889
142.816
170.438
852.935
207.088
141.361
120.849
80.8024
48.3196
19.9697
7.81927
5.49907
4.69702
4.045
2.76172
1.06839
1.42993
4.72323
5.61799
7.08755
9.88115
23.4765
58.8318
105.975
149.025
163.938
955.276
913.583
162.305
134.22
122.568
82.2001
51.0104
19.9574
7.7232
5.3353
5.02318
4.60652
4.36135
4.08909
3.58646
3.81864
4.93453
6.87932
13.9553
30.6099
74.8057
91.9548
154.657
197.775
727.372
164.45
166.077
126.817
81.2186
47.9081
19.6554
7.26503
4.91625
4.53769
4.56241
4.56764
4.54511
4.34561
4.5123
5.02563
6.73271
13.9817
39.8924
78.535
114.113
169.448
204.617
712.456
174.975
135.275
111.225
80.7848
45.1831
17.2012
6.61715
4.44738
4.06424
3.77374
3.82061
4.1648
4.32596
4.70986
5.30844
7.14757
14.209
39.2448
81.5889
130.371
140.324
210.696
374.557
147.935
133.688
103.827
68.5136
39.1998
10.4182
4.51217
4.31289
3.79865
3.28743
2.17185
1.80572
2.35197
4.7669
5.6872
7.38839
14.8769
40.5239
80.5204
133.814
166.423
263.201
257.475
130.031
129.344
105.68
64.7564
38.3467
12.5405
2.27779
1.14096
1.63989
1.92005
1.61429
0.815105
0.646231
1.01978
4.6763
7.66398
15.752
45.6174
82.4485
143.275
175.9
650.792
261.533
132.425
127.63
89.7905
56.5945
35.2087
14.9107
5.08143
1.60291
0.751249
0.62548
0.652496
0.700481
0.676479
0.795204
1.71865
7.75378
17.7176
51.4727
82.061
136.583
180.446
685.456
228.244
138.407
120.009
85.9495
52.4913
24.2226
10.9031
5.57719
3.97931
2.71126
0.99054
0.574605
0.570221
0.594245
1.14629
2.95583
6.9011
21.1471
56.776
96.6507
134.483
181.062
714.473
212.548
148.582
129.23
89.6902
51.4492
20.3276
8.35174
5.38142
4.75035
3.88486
2.7042
0.83562
0.56003
0.565859
0.747335
2.41228
8.13546
22.1117
60.657
108.786
140.517
145.978
782.389
222.733
152.623
123.086
79.6779
43.907
17.7873
7.41304
4.96129
4.34658
3.92585
3.83947
2.41049
0.796177
0.585972
0.705616
2.1306
8.03877
25.0538
67.4385
90.6047
151.095
195.265
971.987
212.906
166.166
127.286
72.3643
42.8488
16.7155
6.7602
4.82245
3.98845
3.1549
1.97664
2.03434
2.05343
1.05201
0.993758
2.23238
8.5898
26.991
75.9406
105.434
151.184
206.048
909.249
160.498
158.727
116.458
69.0183
35.8146
16.1595
6.61534
4.93076
4.50847
3.52024
1.70387
0.727557
0.871589
2.54192
3.37675
4.87568
12.0507
35.8457
74.1445
109.243
153.508
209.337
722.588
167.87
135.685
46.7234
10.4651
4.19411
7.63857
5.65711
4.75534
4.67684
4.36492
3.60858
1.42288
0.646088
1.06886
4.65529
7.42566
14.1502
41.6745
78.2684
106.055
155.16
216.167
724.512
178.302
148.06
68.0554
3.84574
1.00571
1.39264
4.29613
4.41805
4.36464
3.82931
3.80058
2.9511
1.50104
0.840597
2.37372
8.65837
20.301
44.8316
85.048
133.199
175.978
204.713
385.462
155.101
139.388
102.213
28.0802
2.99598
1.79005
3.47921
4.24697
4.26179
3.58119
2.01472
1.00062
1.1258
2.04439
2.69538
7.55209
23.0848
58.95