/*--------------------------------*- C++ -*----------------------------------*\
| =========                 |                                                 |
| \\      /  F ield         | OpenFOAM: The Open Source CFD Toolbox           |
|  \\    /   O peration     | Version:  2312                                  |
|   \\  /    A nd           | Website:  www.openfoam.com                      |
|    \\/     M anipulation  |                                                 |
\*---------------------------------------------------------------------------*/
FoamFile
{
    version     2.0;
    format      ascii;
    arch        "LSB;label=64;scalar=64";
    class       volScalarField;
    location    "30";
    object      p;
}
// * * * * * * * * * * * * * * * * * * * * * * * * * * * * * * * * * * * * * //

dimensions      [0 2 -2 0 0 0 0];

internalField   nonuniform List<scalar> 
404911
(
-1.89284
-1.89013
-1.88935
-1.89194
-1.89761
-1.89209
-1.89071
-1.89132
-1.8917
-1.89184
-1.92831
-1.92485
-1.91759
-1.90668
-1.89757
-1.8932
-1.93689
-1.93197
-1.9277
-1.9211
-1.95123
-1.94302
-1.93743
-1.9643
-1.95902
-1.95372
-1.97449
-1.96771
-1.96263
-1.99433
-1.98838
-1.98054
-1.97207
-1.96499
-2.00694
-1.99634
-1.98915
-2.03371
-2.02669
-2.01998
-2.01297
-2.04698
-2.04139
-2.03281
-2.02653
-2.02165
-2.05395
-2.04781
-2.04028
-2.03189
-2.06698
-2.0623
-2.05412
-2.04832
-2.06844
-2.06645
-2.10019
-1.88971
-1.89811
-1.89235
-1.92185
-1.91733
-1.93766
-1.93217
-1.9281
-1.9514
-1.944
-1.93848
-1.96346
-1.95767
-1.97477
-1.9683
-1.96181
-1.98838
-1.98178
-1.97405
-1.96743
-2.00659
-1.99796
-2.02454
-2.01695
-2.04009
-2.03359
-2.02458
-2.05514
-2.04741
-2.06763
-2.06233
-2.05538
-2.07179
-2.06819
-2.10121
-2.10741
-2.10195
-2.12858
-2.12127
-2.11436
-2.1415
-2.13509
-2.12718
-2.15248
-2.14655
-2.14214
-2.15204
-0.894966
-0.888015
-0.877725
-0.942459
-0.929783
-0.916795
-0.908125
-0.901003
-0.893088
-0.885727
-0.869681
-0.968401
-0.960479
-0.93818
-0.925006
-0.91273
-0.905036
-0.897812
-0.888442
-0.851898
-0.997647
-0.98812
-0.980234
-0.972448
-0.966075
-0.95929
-0.946144
-0.932506
-0.920687
-0.910418
-0.902379
-0.891872
-0.877855
-0.865604
-0.855949
-0.84458
-1.02334
-1.0128
-1.00244
-0.992117
-0.983165
-0.975847
-0.969309
-0.963175
-0.953727
-0.941817
-0.929355
-0.918272
-0.908158
-0.899284
-0.858612
-1.05011
-1.03835
-1.02746
-1.01717
-1.00634
-0.995725
-0.986582
-0.979379
-0.972479
-0.96554
-0.957697
-0.947785
-0.936945
-0.927008
-0.917105
-1.06847
-1.05752
-1.04676
-1.03502
-1.02401
-1.01261
-0.99981
-0.989545
-0.982949
-0.975885
-0.969176
-0.961051
-0.951848
-0.941902
-0.931681
-0.922485
-1.09586
-1.08615
-1.07553
-1.06394
-1.0541
-1.04244
-1.02985
-1.0188
-1.00508
-0.992748
-0.986998
-0.979932
-0.973043
-0.96512
-0.956048
-0.946929
-0.936817
-1.13199
-1.12152
-1.11367
-1.10374
-1.09391
-1.08168
-1.06971
-1.05927
-1.04814
-1.03678
-1.02372
-1.0096
-0.998276
-0.99179
-0.984653
-0.977363
-0.96974
-0.959961
-1.14973
-1.13849
-1.12868
-1.12014
-1.11173
-1.10212
-1.09021
-1.07682
-1.06611
-1.05467
-1.04411
-1.02968
-1.01223
-1.00398
-0.997146
-0.989695
-0.982493
-0.974466
-1.1762
-1.1663
-1.15815
-1.145
-1.13522
-1.12562
-1.11733
-1.10749
-1.09686
-1.08448
-1.07212
-1.06169
-1.05065
-1.03788
-1.02284
-1.00988
-1.00303
-0.995852
-1.19376
-1.18196
-1.17228
-1.16212
-1.15111
-1.14014
-1.13129
-1.12227
-1.11245
-1.10107
-1.09025
-1.07907
-1.06869
-1.05674
-1.04533
-1.03158
-1.018
-1.21986
-1.20982
-1.19954
-1.18943
-1.17859
-1.16821
-1.1575
-1.14777
-1.13726
-1.12747
-1.11873
-1.10631
-1.09503
-1.08375
-1.07433
-1.06443
-1.05356
-1.24143
-1.23203
-1.224
-1.2165
-1.20663
-1.19522
-1.18466
-1.17416
-1.16366
-1.15462
-1.14564
-1.13309
-1.12424
-1.11256
-1.10011
-1.08986
-1.08035
-1.07019
-1.26787
-1.25893
-1.24828
-1.23812
-1.22845
-1.22342
-1.21207
-1.20133
-1.19118
-1.18026
-1.17024
-1.1601
-1.15024
-1.14029
-1.12956
-1.11801
-1.10664
-1.09668
-1.28943
-1.28109
-1.27335
-1.26452
-1.25437
-1.24421
-1.23477
-1.22757
-1.21788
-1.20678
-1.19669
-1.18659
-1.18015
-1.16726
-1.15542
-1.14539
-1.13571
-1.12356
-1.30461
-1.29478
-1.28561
-1.27835
-1.27026
-1.25902
-1.24944
-1.24086
-1.23175
-1.22428
-1.21193
-1.20061
-1.19279
-1.18592
-1.173
-1.16163
-1.14911
-1.14098
-1.32761
-1.31894
-1.31038
-1.30041
-1.29118
-1.28223
-1.2739
-1.26657
-1.25636
-1.24793
-1.23731
-1.22963
-1.21889
-1.20824
-1.19723
-1.19069
-1.18001
-1.16845
-1.34157
-1.3325
-1.32486
-1.31735
-1.3072
-1.29591
-1.28852
-1.27777
-1.26883
-1.26264
-1.25538
-1.24599
-1.23553
-1.22513
-1.21588
-1.20324
-1.19545
-1.18615
-1.36729
-1.35969
-1.35026
-1.3415
-1.33134
-1.3251
-1.3155
-1.30379
-1.29314
-1.28231
-1.27176
-1.26609
-1.2599
-1.25109
-1.24215
-1.23089
-1.21987
-1.20943
-1.38017
-1.3724
-1.36541
-1.35728
-1.34944
-1.34076
-1.33133
-1.32179
-1.31126
-1.29939
-1.28926
-1.27693
-1.26992
-1.26378
-1.25551
-1.24758
-1.23918
-1.40009
-1.3933
-1.38539
-1.37806
-1.37141
-1.36347
-1.35595
-1.34845
-1.33953
-1.32917
-1.31851
-1.3067
-1.29544
-1.28294
-1.27545
-1.26866
-1.26001
-1.25286
-1.41349
-1.40537
-1.39811
-1.39071
-1.38372
-1.37736
-1.36859
-1.36168
-1.35505
-1.34691
-1.33586
-1.32565
-1.31338
-1.30259
-1.29043
-1.28217
-1.27468
-1.26667
-1.42558
-1.41816
-1.41065
-1.40358
-1.39576
-1.38803
-1.38139
-1.37437
-1.36706
-1.36159
-1.35506
-1.34488
-1.33283
-1.32069
-1.30969
-1.29787
-1.2888
-1.28008
-1.44555
-1.43865
-1.43133
-1.42386
-1.41627
-1.40982
-1.40271
-1.39388
-1.3848
-1.3781
-1.37064
-1.36482
-1.3594
-1.35165
-1.33867
-1.32786
-1.31687
-1.30693
-1.46327
-1.45679
-1.44979
-1.44347
-1.4371
-1.43004
-1.42224
-1.41485
-1.4079
-1.39931
-1.39197
-1.38464
-1.37477
-1.36797
-1.36259
-1.35479
-1.34442
-1.33489
-1.47497
-1.46759
-1.46132
-1.45484
-1.44878
-1.44232
-1.43592
-1.42884
-1.41978
-1.41052
-1.40348
-1.39753
-1.38985
-1.37972
-1.37235
-1.36674
-1.3582
-1.3497
-1.49134
-1.48542
-1.4787
-1.47213
-1.46578
-1.45943
-1.45329
-1.44705
-1.44109
-1.43474
-1.42573
-1.41794
-1.40947
-1.40151
-1.39454
-1.38688
-1.37903
-1.37135
-1.50189
-1.49606
-1.4902
-1.48348
-1.4767
-1.46973
-1.46346
-1.45751
-1.45148
-1.44553
-1.43951
-1.43212
-1.42498
-1.41722
-1.40848
-1.40004
-1.39235
-1.38512
-1.51148
-1.5063
-1.50045
-1.49507
-1.48849
-1.48091
-1.47337
-1.46693
-1.46123
-1.45537
-1.44927
-1.44312
-1.43642
-1.42938
-1.42166
-1.41405
-1.40531
-1.3963
-1.5224
-1.51611
-1.50997
-1.50482
-1.49944
-1.49345
-1.48537
-1.47729
-1.47047
-1.46508
-1.45938
-1.4533
-1.44711
-1.44048
-1.43331
-1.42601
-1.4179
-1.40981
-1.53971
-1.53318
-1.52633
-1.52037
-1.51492
-1.50924
-1.50455
-1.49939
-1.4916
-1.48288
-1.47472
-1.46972
-1.46393
-1.4579
-1.45172
-1.44516
-1.43772
-1.42984
-1.55252
-1.54542
-1.53831
-1.53158
-1.52532
-1.51988
-1.51444
-1.50985
-1.50489
-1.49787
-1.48936
-1.48099
-1.47494
-1.46879
-1.46288
-1.45668
-1.44977
-1.44294
-1.56406
-1.55775
-1.55102
-1.54404
-1.53657
-1.52964
-1.52328
-1.51819
-1.51388
-1.50954
-1.5039
-1.49602
-1.48784
-1.48073
-1.47415
-1.46785
-1.46124
-1.45445
-1.57545
-1.56909
-1.56232
-1.55635
-1.55005
-1.54289
-1.53496
-1.52681
-1.52166
-1.51763
-1.51289
-1.50745
-1.50073
-1.49325
-1.48654
-1.47979
-1.4734
-1.59374
-1.58824
-1.58102
-1.57415
-1.56746
-1.56116
-1.55577
-1.54911
-1.54084
-1.53079
-1.52535
-1.52161
-1.51696
-1.5116
-1.5054
-1.49837
-1.49158
-1.48406
-1.60611
-1.59945
-1.59324
-1.58687
-1.58001
-1.57256
-1.56574
-1.56035
-1.55453
-1.54705
-1.53527
-1.52946
-1.5258
-1.52139
-1.51608
-1.50996
-1.50365
-1.49713
-1.61594
-1.6106
-1.60465
-1.5989
-1.593
-1.58618
-1.57854
-1.57182
-1.56553
-1.56016
-1.55355
-1.54498
-1.536
-1.53096
-1.52645
-1.521
-1.51439
-1.50775
-1.6321
-1.6268
-1.62094
-1.6156
-1.61002
-1.60423
-1.5991
-1.59304
-1.58552
-1.57763
-1.57083
-1.5649
-1.5593
-1.5516
-1.54341
-1.53702
-1.53186
-1.52606
-1.64305
-1.63741
-1.6315
-1.62585
-1.62057
-1.61503
-1.6094
-1.60444
-1.59849
-1.59125
-1.58395
-1.5761
-1.56923
-1.56471
-1.55824
-1.55086
-1.54386
-1.53682
-1.65344
-1.64792
-1.64208
-1.63636
-1.63086
-1.62537
-1.61982
-1.61415
-1.60932
-1.60458
-1.59934
-1.58982
-1.58251
-1.57451
-1.56899
-1.5632
-1.55635
-1.54953
-1.66468
-1.65888
-1.65279
-1.64679
-1.64123
-1.6359
-1.63031
-1.62471
-1.61876
-1.61309
-1.60844
-1.60394
-1.59526
-1.58807
-1.58068
-1.57481
-1.56854
-1.56169
-1.67512
-1.66967
-1.6641
-1.65779
-1.65156
-1.64595
-1.64062
-1.63499
-1.62961
-1.62391
-1.61665
-1.61123
-1.6072
-1.60049
-1.59337
-1.58694
-1.58093
-1.69137
-1.68579
-1.68038
-1.67478
-1.66935
-1.66293
-1.65635
-1.65063
-1.64529
-1.63982
-1.63495
-1.63067
-1.62302
-1.6173
-1.61086
-1.60593
-1.59897
-1.59239
-1.70132
-1.69587
-1.69008
-1.68538
-1.68028
-1.67465
-1.6682
-1.66073
-1.65441
-1.64949
-1.64464
-1.63994
-1.63618
-1.62939
-1.62213
-1.61571
-1.61054
-1.60419
-1.71171
-1.70617
-1.70033
-1.6947
-1.68977
-1.68505
-1.68015
-1.6747
-1.66714
-1.65955
-1.65346
-1.64897
-1.64417
-1.63982
-1.63446
-1.6278
-1.6212
-1.61517
-1.72247
-1.71666
-1.71069
-1.70488
-1.69936
-1.69414
-1.68939
-1.68511
-1.68053
-1.67469
-1.66707
-1.65965
-1.65408
-1.64868
-1.64376
-1.63811
-1.63218
-1.6263
-1.73339
-1.72752
-1.72149
-1.71559
-1.7098
-1.70414
-1.69858
-1.69347
-1.689
-1.68498
-1.6803
-1.6737
-1.66661
-1.65994
-1.65385
-1.64859
-1.64267
-1.63594
-1.74417
-1.73851
-1.73233
-1.72637
-1.72074
-1.71495
-1.70913
-1.70332
-1.69771
-1.6929
-1.68843
-1.68378
-1.67824
-1.67193
-1.66546
-1.65936
-1.65349
-1.64779
-1.75552
-1.74977
-1.74322
-1.73685
-1.73096
-1.72567
-1.72008
-1.71393
-1.70767
-1.70176
-1.6967
-1.69226
-1.68779
-1.68268
-1.67685
-1.67063
-1.66449
-1.65877
-1.76654
-1.76114
-1.75511
-1.74805
-1.74096
-1.73429
-1.72951
-1.72481
-1.71852
-1.7117
-1.70521
-1.70042
-1.69624
-1.69186
-1.68696
-1.68151
-1.67567
-1.66956
-1.78254
-1.77708
-1.77178
-1.76659
-1.76171
-1.7552
-1.74646
-1.7377
-1.73254
-1.72918
-1.72479
-1.71873
-1.71257
-1.70553
-1.70118
-1.6964
-1.69141
-1.68595
-1.68079
-1.79386
-1.7876
-1.78184
-1.77679
-1.77193
-1.76716
-1.76147
-1.75352
-1.74582
-1.73987
-1.73406
-1.72956
-1.72406
-1.71777
-1.71134
-1.70648
-1.70155
-1.6964
-1.79835
-1.79268
-1.78681
-1.78156
-1.77642
-1.77192
-1.76781
-1.76171
-1.75211
-1.74551
-1.74017
-1.734
-1.72999
-1.7239
-1.71767
-1.71207
-1.70657
-1.81528
-1.80995
-1.80381
-1.79781
-1.79187
-1.78609
-1.78062
-1.77592
-1.77222
-1.76575
-1.75708
-1.75104
-1.7447
-1.7389
-1.73412
-1.72874
-1.723
-1.71752
-1.82517
-1.81991
-1.81453
-1.80894
-1.8033
-1.79739
-1.79118
-1.78485
-1.77963
-1.776
-1.77019
-1.76199
-1.75626
-1.74926
-1.74398
-1.73917
-1.73384
-1.72755
-1.83722
-1.83075
-1.82498
-1.81936
-1.81392
-1.80851
-1.80313
-1.79691
-1.78909
-1.78285
-1.7794
-1.77524
-1.768
-1.76227
-1.75535
-1.74945
-1.7443
-1.73881
-1.84024
-1.83606
-1.83035
-1.82428
-1.81852
-1.81319
-1.80876
-1.8039
-1.79586
-1.78925
-1.78253
-1.77907
-1.77375
-1.76769
-1.76111
-1.75496
-1.74929
-1.85427
-1.8464
-1.84002
-1.83523
-1.82926
-1.8231
-1.81758
-1.81321
-1.80917
-1.80041
-1.79363
-1.7869
-1.78242
-1.77768
-1.77203
-1.76571
-1.76008
-1.87313
-1.86533
-1.85921
-1.85248
-1.84502
-1.83992
-1.83419
-1.82805
-1.82141
-1.81672
-1.8127
-1.80549
-1.79805
-1.79223
-1.787
-1.78194
-1.77634
-1.7705
-1.88199
-1.87669
-1.8707
-1.86435
-1.85742
-1.8506
-1.84483
-1.83952
-1.83358
-1.82678
-1.8215
-1.81664
-1.81105
-1.8044
-1.79813
-1.79238
-1.78676
-1.89389
-1.88757
-1.88055
-1.87432
-1.86874
-1.86144
-1.85471
-1.84892
-1.84503
-1.83986
-1.83309
-1.82744
-1.82068
-1.8156
-1.81
-1.80336
-1.79794
-1.91199
-1.90618
-1.89907
-1.89284
-1.88607
-1.87963
-1.87376
-1.86743
-1.85864
-1.85325
-1.84872
-1.84371
-1.8389
-1.83322
-1.82667
-1.82073
-1.81486
-1.80886
-1.92307
-1.9168
-1.9112
-1.90486
-1.89821
-1.89099
-1.88463
-1.87778
-1.87233
-1.86442
-1.86044
-1.85465
-1.84715
-1.84257
-1.83799
-1.83233
-1.82633
-1.82028
-1.93416
-1.9268
-1.92121
-1.91656
-1.91061
-1.90327
-1.89522
-1.8885
-1.88225
-1.87743
-1.87245
-1.86668
-1.85994
-1.85365
-1.84768
-1.84262
-1.83738
-1.83161
-1.94733
-1.94186
-1.9335
-1.92753
-1.92195
-1.91611
-1.90841
-1.90047
-1.89376
-1.88732
-1.8833
-1.8779
-1.87205
-1.86568
-1.85926
-1.85287
-1.84662
-1.84195
-1.96378
-1.95753
-1.95122
-1.94658
-1.93925
-1.93247
-1.92631
-1.9212
-1.91531
-1.90714
-1.89992
-1.89425
-1.8888
-1.88325
-1.87825
-1.87199
-1.86576
-1.85888
-1.85113
-1.97568
-1.96927
-1.96274
-1.95639
-1.95066
-1.94461
-1.93788
-1.93254
-1.92713
-1.9212
-1.91377
-1.90741
-1.90192
-1.89657
-1.89012
-1.88388
-1.87747
-1.87103
-1.86537
-1.98214
-1.97558
-1.96916
-1.96307
-1.9569
-1.9504
-1.94451
-1.93848
-1.93266
-1.92648
-1.91942
-1.91353
-1.90761
-1.90171
-1.8953
-1.88917
-1.88207
-1.87577
-1.99638
-1.9887
-1.98188
-1.97518
-1.96892
-1.96282
-1.9566
-1.95066
-1.9452
-1.93836
-1.93291
-1.92466
-1.91932
-1.91345
-1.90743
-1.90146
-1.89506
-2.01199
-2.00386
-1.99585
-1.98817
-1.98078
-1.97499
-1.96878
-1.96204
-1.95609
-1.95078
-1.94366
-1.93801
-1.93133
-1.92539
-1.9195
-1.91331
-1.90647
-2.02855
-2.01807
-2.01179
-2.00408
-1.99651
-1.98959
-1.98261
-1.97523
-1.96872
-1.96198
-1.9567
-1.94962
-1.94374
-1.93753
-1.93157
-1.92565
-1.91964
-2.05511
-2.04697
-2.03746
-2.02872
-2.02132
-2.01329
-2.00569
-1.99799
-1.98967
-1.98286
-1.97621
-1.96979
-1.96266
-1.95522
-1.94977
-1.94372
-1.93735
-1.93091
-2.06826
-2.06217
-2.05507
-2.04629
-2.03804
-2.03078
-2.02276
-2.01556
-2.00679
-1.9981
-1.99071
-1.9841
-1.97712
-1.97065
-1.96294
-1.95659
-1.94999
-2.08105
-2.0747
-2.0685
-2.06134
-2.05461
-2.04645
-2.0393
-2.03111
-2.02347
-2.01435
-2.00555
-1.99769
-1.99092
-1.98457
-1.97742
-1.96978
-1.96287
-2.09468
-2.08776
-2.08129
-2.07495
-2.06853
-2.06264
-2.05447
-2.04729
-2.03952
-2.03036
-2.0216
-2.01272
-2.00507
-1.99753
-1.99042
-1.98297
-1.97644
-2.1077
-2.1008
-2.09397
-2.08761
-2.0818
-2.07553
-2.06866
-2.06203
-2.05491
-2.04536
-2.03692
-2.02819
-2.01964
-2.01193
-2.00443
-1.997
-1.98974
-2.12162
-2.11322
-2.10626
-2.1002
-2.09407
-2.08838
-2.08168
-2.07479
-2.06805
-2.05963
-2.05191
-2.04352
-2.03468
-2.02652
-2.01863
-2.01097
-2.00341
-2.13446
-2.12857
-2.12009
-2.11207
-2.10633
-2.09918
-2.09352
-2.087
-2.08004
-2.07351
-2.06537
-2.05763
-2.04969
-2.0415
-2.03328
-2.02519
-2.01743
-2.1437
-2.13647
-2.12844
-2.12017
-2.11314
-2.10631
-2.09959
-2.09286
-2.08536
-2.07779
-2.06975
-2.063
-2.0555
-2.04807
-2.03952
-2.03135
-2.16394
-2.15362
-2.14418
-2.13509
-2.12703
-2.12041
-2.11316
-2.10601
-2.09863
-2.09179
-2.08316
-2.07533
-2.06861
-2.06122
-2.05341
-2.19229
-2.18372
-2.17204
-2.16296
-2.15231
-2.14287
-2.13438
-2.12834
-2.12095
-2.11191
-2.10374
-2.09627
-2.08962
-2.08216
-2.07427
-2.06708
-2.2114
-2.20076
-2.19068
-2.17961
-2.17112
-2.15989
-2.15003
-2.14194
-2.13304
-2.12605
-2.11897
-2.10976
-2.10064
-2.09497
-2.08824
-2.08108
-2.23249
-2.22262
-2.2115
-2.19932
-2.1898
-2.18085
-2.17198
-2.15895
-2.14997
-2.14221
-2.13541
-2.12855
-2.11865
-2.10873
-2.1005
-2.09462
-2.2634
-2.25183
-2.24221
-2.23287
-2.2212
-2.20968
-2.20003
-2.1899
-2.18087
-2.16983
-2.15908
-2.15021
-2.14046
-2.13552
-2.12727
-2.11708
-2.28368
-2.27301
-2.26219
-2.25207
-2.24292
-2.23095
-2.21941
-2.21024
-2.20179
-2.19237
-2.18384
-2.17234
-2.16112
-2.15103
-2.14319
-2.13671
-2.30527
-2.29279
-2.28114
-2.27194
-2.26215
-2.25314
-2.2402
-2.22871
-2.21994
-2.21168
-2.20338
-2.19489
-2.18378
-2.17368
-2.16129
-2.15201
-2.32679
-2.31511
-2.3024
-2.28784
-2.27907
-2.27102
-2.26061
-2.24888
-2.23833
-2.22923
-2.22147
-2.21383
-2.20637
-2.19582
-2.18586
-2.17328
-2.34784
-2.33761
-2.32554
-2.31389
-2.30062
-2.28836
-2.28101
-2.27153
-2.2593
-2.24703
-2.23768
-2.22911
-2.22199
-2.21357
-2.20519
-2.19618
-2.36694
-2.35692
-2.34552
-2.33386
-2.32297
-2.31115
-2.30024
-2.29095
-2.28118
-2.27014
-2.25781
-2.24566
-2.23749
-2.22958
-2.22178
-2.38471
-2.37758
-2.36513
-2.35401
-2.34464
-2.33304
-2.32194
-2.3108
-2.30075
-2.2902
-2.27945
-2.26806
-2.2544
-2.24632
-2.23757
-2.22987
-2.40043
-2.39228
-2.38448
-2.37322
-2.36252
-2.35159
-2.3411
-2.3309
-2.32028
-2.30965
-2.29888
-2.28741
-2.2768
-2.26452
-2.25556
-2.24581
-2.41589
-2.40708
-2.39884
-2.39078
-2.38076
-2.36968
-2.3586
-2.34785
-2.33857
-2.32861
-2.31831
-2.30786
-2.29825
-2.28636
-2.27473
-2.42509
-2.41528
-2.40719
-2.39776
-2.3873
-2.37827
-2.36614
-2.35594
-2.34595
-2.33608
-2.32693
-2.31617
-2.30583
-2.29503
-2.44405
-2.43597
-2.42518
-2.41574
-2.40524
-2.39486
-2.38614
-2.37405
-2.36434
-2.354
-2.34541
-2.33466
-2.32449
-2.47229
-2.46375
-2.45408
-2.44459
-2.43423
-2.42419
-2.41406
-2.4034
-2.39299
-2.38236
-2.37191
-2.36213
-2.35221
-2.34142
-2.49135
-2.48092
-2.47116
-2.46182
-2.4514
-2.44227
-2.43121
-2.42221
-2.41148
-2.40104
-2.39114
-2.38048
-2.37074
-2.36077
-2.51153
-2.50084
-2.49002
-2.4786
-2.46909
-2.45953
-2.44952
-2.43921
-2.42914
-2.41829
-2.40824
-2.39715
-2.38859
-2.37852
-2.5315
-2.52211
-2.51197
-2.49896
-2.48583
-2.47597
-2.46703
-2.45715
-2.44716
-2.43709
-2.42637
-2.41546
-2.40599
-2.39575
-2.54784
-2.53837
-2.53115
-2.52072
-2.50819
-2.49382
-2.48347
-2.47351
-2.465
-2.45485
-2.44408
-2.43482
-2.42348
-2.41407
-2.56675
-2.5568
-2.54343
-2.53855
-2.52864
-2.51758
-2.5053
-2.49249
-2.48236
-2.47192
-2.46158
-2.45116
-2.44261
-2.54451
-2.53782
-2.52515
-2.51386
-2.50312
-2.49307
-2.4819
-2.4701
-2.45798
-2.54933
-2.5448
-2.53218
-2.52143
-2.5085
-2.50171
-2.49093
-2.47858
-2.57184
-2.55673
-2.54957
-2.54049
-2.52886
-2.51751
-2.50904
-2.59989
-2.58329
-2.56999
-2.55799
-2.54873
-2.53775
-2.52661
-2.59287
-2.58155
-2.56939
-2.55778
-2.54869
-2.63451
-2.61737
-2.59945
-2.59127
-2.57876
-2.56759
-2.70928
-2.70078
-2.66271
-2.6497
-2.60124
-2.71468
-2.70442
-2.69769
-2.6897
-2.68096
-2.63108
-2.7452
-2.69476
-2.68659
-2.6775
-2.66447
-2.75979
-2.7326
-2.70229
-0.272219
-0.260932
-0.249013
-0.351442
-0.34001
-0.323222
-0.309158
-0.295513
-0.280748
-0.266141
-0.252895
-0.199134
-0.417273
-0.405062
-0.388618
-0.37416
-0.359436
-0.34416
-0.329443
-0.31469
-0.299933
-0.284803
-0.269729
-0.254975
-0.239562
-0.223011
-0.206872
-0.469966
-0.457106
-0.43927
-0.424688
-0.409033
-0.393994
-0.378856
-0.363818
-0.349306
-0.33497
-0.320608
-0.304722
-0.288008
-0.272462
-0.256718
-0.241547
-0.226764
-0.210678
-0.189785
-0.165101
-0.138864
-0.10905
-0.530201
-0.514948
-0.494531
-0.477248
-0.460539
-0.444971
-0.430223
-0.414794
-0.399183
-0.383792
-0.368464
-0.354462
-0.341559
-0.327969
-0.311271
-0.29141
-0.273392
-0.25871
-0.244577
-0.230086
-0.213746
-0.194792
-0.169855
-0.583582
-0.568621
-0.554063
-0.53828
-0.519564
-0.500478
-0.482539
-0.465376
-0.449811
-0.436122
-0.420922
-0.404744
-0.388687
-0.372707
-0.359297
-0.347759
-0.337457
-0.31682
-0.295504
-0.274001
-0.261587
-0.248655
-0.234242
-0.217817
-0.199857
-0.620434
-0.60607
-0.590858
-0.576386
-0.561703
-0.547748
-0.527433
-0.509655
-0.49137
-0.468174
-0.45445
-0.442264
-0.427255
-0.409524
-0.392017
-0.37609
-0.363446
-0.352709
-0.343131
-0.323759
-0.299564
-0.277486
-0.265856
-0.25337
-0.236954
-0.65448
-0.63868
-0.623026
-0.613189
-0.598924
-0.584123
-0.571428
-0.557486
-0.535546
-0.517397
-0.498567
-0.474591
-0.459815
-0.449181
-0.434179
-0.415766
-0.401156
-0.3796
-0.367462
-0.356784
-0.346143
-0.329523
-0.307247
-0.28661
-0.270635
-0.695541
-0.676583
-0.660386
-0.644987
-0.628973
-0.618816
-0.606508
-0.591325
-0.577024
-0.566855
-0.545725
-0.526622
-0.506913
-0.486077
-0.465853
-0.456375
-0.439471
-0.420585
-0.405459
-0.384662
-0.372454
-0.361005
-0.348408
-0.333044
-0.313566
-0.748605
-0.737495
-0.720747
-0.703202
-0.684752
-0.668102
-0.649784
-0.636268
-0.623539
-0.612227
-0.597608
-0.580776
-0.571436
-0.556528
-0.538917
-0.516963
-0.496923
-0.47461
-0.463173
-0.447108
-0.426165
-0.407533
-0.391457
-0.37848
-0.365792
-0.351068
-0.794248
-0.785085
-0.770545
-0.758777
-0.741029
-0.725926
-0.711477
-0.690755
-0.674157
-0.657812
-0.644175
-0.62946
-0.613611
-0.599029
-0.585906
-0.575146
-0.563235
-0.549525
-0.530351
-0.50749
-0.485087
-0.467949
-0.451016
-0.431972
-0.415593
-0.397176
-0.38661
-0.811274
-0.801527
-0.789431
-0.777819
-0.765023
-0.748984
-0.730333
-0.719115
-0.701782
-0.683943
-0.666587
-0.650841
-0.636643
-0.61907
-0.60079
-0.589642
-0.579163
-0.567512
-0.554444
-0.5381
-0.517317
-0.497187
-0.477865
-0.459619
-0.438005
-0.856275
-0.846334
-0.831867
-0.819225
-0.806612
-0.794869
-0.784328
-0.77179
-0.756189
-0.741377
-0.727921
-0.712404
-0.69664
-0.677058
-0.659719
-0.641336
-0.622756
-0.604652
-0.593883
-0.583592
-0.571888
-0.558807
-0.544659
-0.530384
-0.503857
-0.874671
-0.862521
-0.851864
-0.83957
-0.828518
-0.816396
-0.801751
-0.790087
-0.778212
-0.763837
-0.749139
-0.736021
-0.721176
-0.705058
-0.687617
-0.667949
-0.64825
-0.629657
-0.611305
-0.59973
-0.588586
-0.576592
-0.563569
-0.549033
-0.914002
-0.902813
-0.894934
-0.88201
-0.870236
-0.859013
-0.847793
-0.834896
-0.821675
-0.808093
-0.79606
-0.783642
-0.771982
-0.754959
-0.743001
-0.728337
-0.713101
-0.694957
-0.674832
-0.657275
-0.637618
-0.617443
-0.605809
-0.594001
-0.581067
-0.941156
-0.93024
-0.919257
-0.908796
-0.899161
-0.889323
-0.877415
-0.866293
-0.856225
-0.840329
-0.826917
-0.813905
-0.801217
-0.788553
-0.778152
-0.766494
-0.750921
-0.737193
-0.720648
-0.701592
-0.682233
-0.665395
-0.640255
-0.62392
-0.611085
-0.96625
-0.95595
-0.945968
-0.936244
-0.925401
-0.914322
-0.903972
-0.894352
-0.884865
-0.873786
-0.860881
-0.846472
-0.832514
-0.820435
-0.806569
-0.795615
-0.784276
-0.771071
-0.757844
-0.743574
-0.728519
-0.709585
-0.689976
-0.67421
-0.651615
-0.999512
-0.991799
-0.980451
-0.970855
-0.961637
-0.951803
-0.941772
-0.929706
-0.919441
-0.908838
-0.90042
-0.892282
-0.88255
-0.867628
-0.853575
-0.840696
-0.827799
-0.814817
-0.803947
-0.791997
-0.774591
-0.763841
-0.750343
-0.735332
-0.718027
-0.698809
-1.02462
-1.01562
-1.00389
-0.994468
-0.98485
-0.97574
-0.967239
-0.958709
-0.949234
-0.936106
-0.924099
-0.913771
-0.905893
-0.897592
-0.887234
-0.873711
-0.861206
-0.849541
-0.836592
-0.824318
-0.814305
-0.803671
-0.785997
-0.770891
-0.756031
-0.7406
-1.05054
-1.04095
-1.0302
-1.01939
-1.00852
-0.998256
-0.988941
-0.980339
-0.972572
-0.965267
-0.95771
-0.945793
-0.931091
-0.9206
-0.912023
-0.902526
-0.891475
-0.877934
-0.866489
-0.854559
-0.842355
-0.832167
-0.820472
-0.809668
-0.794945
-0.777117
-0.762799
-1.07802
-1.06673
-1.05613
-1.04553
-1.03506
-1.02412
-1.0133
-1.00269
-0.992812
-0.984074
-0.976404
-0.969459
-0.962481
-0.953239
-0.941197
-0.929514
-0.919198
-0.908817
-0.897765
-0.88529
-0.870009
-0.858754
-0.848318
-0.836428
-0.825907
-0.813899
-0.802118
-1.09459
-1.08327
-1.07257
-1.06195
-1.05091
-1.03978
-1.02863
-1.01735
-1.00632
-0.996173
-0.987282
-0.979624
-0.972609
-0.965457
-0.957003
-0.94708
-0.936433
-0.925952
-0.915389
-0.903643
-0.89141
-0.878568
-0.864603
-0.854433
-0.842031
-0.829286
-1.12182
-1.11093
-1.10046
-1.0894
-1.07865
-1.0681
-1.05786
-1.0454
-1.03356
-1.02208
-1.01001
-0.998659
-0.99026
-0.983154
-0.976173
-0.968977
-0.960837
-0.951624
-0.941707
-0.931215
-0.920001
-0.9082
-0.895615
-0.884403
-0.871276
-0.85854
-1.14673
-1.13622
-1.12652
-1.1166
-1.10624
-1.09513
-1.08457
-1.07437
-1.06381
-1.05269
-1.04106
-1.02895
-1.01624
-1.00315
-0.993824
-0.987325
-0.980235
-0.972939
-0.964915
-0.95604
-0.946549
-0.935697
-0.924971
-0.913004
-0.901117
-0.888437
-1.16443
-1.15231
-1.14247
-1.13222
-1.12217
-1.11329
-1.10169
-1.09132
-1.08086
-1.06971
-1.05879
-1.04724
-1.03482
-1.02039
-1.00787
-0.999194
-0.99213
-0.984871
-0.977375
-0.969271
-0.960644
-0.951752
-0.940302
-0.930102
-0.918647
-1.1914
-1.1806
-1.16996
-1.15947
-1.14917
-1.13917
-1.12798
-1.1189
-1.10887
-1.09846
-1.0875
-1.07606
-1.06516
-1.05358
-1.04106
-1.025
-1.01231
-1.00479
-0.997629
-0.990062
-0.982472
-0.974216
-0.965597
-0.956479
-0.945675
-0.935331
-1.21597
-1.20639
-1.19656
-1.18698
-1.17626
-1.16632
-1.15718
-1.14682
-1.13502
-1.12502
-1.11519
-1.10448
-1.0936
-1.08235
-1.07157
-1.0603
-1.04944
-1.03547
-1.02057
-1.0116
-1.00413
-0.995945
-0.987958
-0.979475
-0.971417
-0.960405
-1.23909
-1.23055
-1.2221
-1.21288
-1.20293
-1.19296
-1.18281
-1.17271
-1.16328
-1.15221
-1.14114
-1.131
-1.12105
-1.1106
-1.09958
-1.08847
-1.07778
-1.06664
-1.05622
-1.04581
-1.03133
-1.0197
-1.01106
-1.00209
-0.993866
-0.984956
-0.975639
-1.25558
-1.24509
-1.23652
-1.22756
-1.21854
-1.20928
-1.19947
-1.18945
-1.17887
-1.16847
-1.15777
-1.14736
-1.13728
-1.12695
-1.11634
-1.1052
-1.09437
-1.08378
-1.0735
-1.06287
-1.05311
-1.04045
-1.02792
-1.01842
-1.00897
-0.999375
-1.27866
-1.26975
-1.26061
-1.25137
-1.2418
-1.23239
-1.22377
-1.21494
-1.20515
-1.19527
-1.18465
-1.17426
-1.16426
-1.15447
-1.14398
-1.13277
-1.12161
-1.11048
-1.10079
-1.09002
-1.08029
-1.07003
-1.05839
-1.04765
-1.03609
-1.02569
-1.29183
-1.28423
-1.27571
-1.26702
-1.25834
-1.24737
-1.23724
-1.22892
-1.22148
-1.21144
-1.20117
-1.19051
-1.1802
-1.17187
-1.16101
-1.14959
-1.1385
-1.12696
-1.11529
-1.1067
-1.09665
-1.08669
-1.07644
-1.06516
-1.05379
-1.31495
-1.30639
-1.29768
-1.28942
-1.28106
-1.27302
-1.26546
-1.25449
-1.24278
-1.23444
-1.22711
-1.21774
-1.20715
-1.19635
-1.18673
-1.17902
-1.16785
-1.15466
-1.14344
-1.13404
-1.12288
-1.1127
-1.1023
-1.09301
-1.08149
-1.32954
-1.32193
-1.31263
-1.30355
-1.29513
-1.28641
-1.27818
-1.27045
-1.26058
-1.24878
-1.23987
-1.23195
-1.2235
-1.21293
-1.20091
-1.19269
-1.18638
-1.1746
-1.15998
-1.14872
-1.14041
-1.12965
-1.11912
-1.1085
-1.09803
-1.35378
-1.3448
-1.33593
-1.32736
-1.31871
-1.30988
-1.30106
-1.29199
-1.28293
-1.27433
-1.26661
-1.25656
-1.24707
-1.23757
-1.22856
-1.21842
-1.20614
-1.19714
-1.19079
-1.17977
-1.16734
-1.15581
-1.14583
-1.13558
-1.12505
-1.36914
-1.35977
-1.35108
-1.34155
-1.33275
-1.32447
-1.31595
-1.30626
-1.29649
-1.28816
-1.27754
-1.26943
-1.26209
-1.25435
-1.24538
-1.23525
-1.22441
-1.21249
-1.20316
-1.19494
-1.18526
-1.17513
-1.16301
-1.15158
-1.14112
-1.38962
-1.3819
-1.37424
-1.36661
-1.35868
-1.34829
-1.33808
-1.32989
-1.32288
-1.31319
-1.30254
-1.29287
-1.28237
-1.27282
-1.26632
-1.25911
-1.25045
-1.24198
-1.23178
-1.22038
-1.2106
-1.20087
-1.19005
-1.18101
-1.16993
-1.40244
-1.3955
-1.38744
-1.37968
-1.37259
-1.36596
-1.35699
-1.34752
-1.33858
-1.33001
-1.32093
-1.31043
-1.29942
-1.28814
-1.27794
-1.27085
-1.26357
-1.25528
-1.24688
-1.23725
-1.22688
-1.21729
-1.20797
-1.19504
-1.42256
-1.41555
-1.40795
-1.40056
-1.39286
-1.38528
-1.37813
-1.37172
-1.36399
-1.35575
-1.34724
-1.33757
-1.32757
-1.31735
-1.30575
-1.29419
-1.28405
-1.27644
-1.26856
-1.26042
-1.25222
-1.24293
-1.23276
-1.22341
-1.21548
-1.43456
-1.42817
-1.42057
-1.41296
-1.40558
-1.39774
-1.39046
-1.38354
-1.37702
-1.36956
-1.36221
-1.35458
-1.34512
-1.3347
-1.32495
-1.3128
-1.30058
-1.29147
-1.28328
-1.27447
-1.2663
-1.25772
-1.249
-1.23754
-1.45331
-1.447
-1.43977
-1.43293
-1.4259
-1.41834
-1.41095
-1.40344
-1.39586
-1.38812
-1.38111
-1.37482
-1.36769
-1.3611
-1.35357
-1.34268
-1.33137
-1.32019
-1.30848
-1.29842
-1.28942
-1.2806
-1.2723
-1.26342
-1.25486
-1.46477
-1.45882
-1.45189
-1.44476
-1.438
-1.43124
-1.42386
-1.41651
-1.40953
-1.40207
-1.39344
-1.38501
-1.37832
-1.37132
-1.36519
-1.35839
-1.34882
-1.33811
-1.32758
-1.31658
-1.30605
-1.29602
-1.28699
-1.27859
-1.48184
-1.47589
-1.46947
-1.46318
-1.45665
-1.44977
-1.44314
-1.43672
-1.42965
-1.42222
-1.41483
-1.40744
-1.39929
-1.39145
-1.38323
-1.37533
-1.36915
-1.36226
-1.35364
-1.34375
-1.33399
-1.32352
-1.31322
-1.30238
-1.29378
-1.4927
-1.48719
-1.48054
-1.47399
-1.46762
-1.46118
-1.45474
-1.44836
-1.44197
-1.43532
-1.42823
-1.4197
-1.4114
-1.40396
-1.39686
-1.38849
-1.3803
-1.37404
-1.36668
-1.35834
-1.34929
-1.34016
-1.32951
-1.31964
-1.50294
-1.49682
-1.49124
-1.48521
-1.47879
-1.47225
-1.46574
-1.45944
-1.45317
-1.44687
-1.44064
-1.43407
-1.42573
-1.41766
-1.40977
-1.40177
-1.39436
-1.38668
-1.37972
-1.37145
-1.3631
-1.35447
-1.34592
-1.33632
-1.51904
-1.51325
-1.50746
-1.5019
-1.49611
-1.48991
-1.4835
-1.47685
-1.47008
-1.46367
-1.4575
-1.45136
-1.44526
-1.43891
-1.43155
-1.42417
-1.41627
-1.40734
-1.39906
-1.39185
-1.38457
-1.37667
-1.36807
-1.35963
-1.35046
-1.5305
-1.5237
-1.51784
-1.51187
-1.50627
-1.5006
-1.49464
-1.48827
-1.48124
-1.47407
-1.46754
-1.4615
-1.45548
-1.4493
-1.44283
-1.4359
-1.42858
-1.42091
-1.41292
-1.40472
-1.39739
-1.38979
-1.38223
-1.37368
-1.54279
-1.53552
-1.52819
-1.52241
-1.51623
-1.51022
-1.50478
-1.49934
-1.4932
-1.48577
-1.4779
-1.47135
-1.46558
-1.45964
-1.45344
-1.44691
-1.43997
-1.43291
-1.42549
-1.41778
-1.40997
-1.40278
-1.39472
-1.38732
-1.55329
-1.54688
-1.54054
-1.5335
-1.52721
-1.52119
-1.51532
-1.50948
-1.50432
-1.4987
-1.49127
-1.48279
-1.47573
-1.47016
-1.46419
-1.45798
-1.45135
-1.44449
-1.43745
-1.43036
-1.42302
-1.41507
-1.40756
-1.57118
-1.56503
-1.55867
-1.55231
-1.5458
-1.53885
-1.53231
-1.52584
-1.51993
-1.51436
-1.50934
-1.50417
-1.49743
-1.4891
-1.48148
-1.47533
-1.46914
-1.46293
-1.45635
-1.4494
-1.44246
-1.43515
-1.42837
-1.42075
-1.58468
-1.5769
-1.57027
-1.56387
-1.55739
-1.55088
-1.54424
-1.53716
-1.53012
-1.52378
-1.51844
-1.51365
-1.50875
-1.50288
-1.49541
-1.48779
-1.48085
-1.47426
-1.46807
-1.46152
-1.45441
-1.44776
-1.43973
-1.43243
-1.5949
-1.58857
-1.58203
-1.57561
-1.56914
-1.56256
-1.55605
-1.54976
-1.54279
-1.53499
-1.52765
-1.52242
-1.51766
-1.51265
-1.50696
-1.50027
-1.49327
-1.48637
-1.47963
-1.47317
-1.46677
-1.45979
-1.45317
-1.61167
-1.60622
-1.60028
-1.59409
-1.58754
-1.58097
-1.57452
-1.56784
-1.56134
-1.55539
-1.5488
-1.54072
-1.53212
-1.52654
-1.52188
-1.51687
-1.51123
-1.50483
-1.49835
-1.49162
-1.48507
-1.47848
-1.47185
-1.46421
-1.62383
-1.61697
-1.61116
-1.60512
-1.59911
-1.59259
-1.58641
-1.57998
-1.57303
-1.56626
-1.56029
-1.55441
-1.54685
-1.53757
-1.53092
-1.52642
-1.52148
-1.51576
-1.50957
-1.50336
-1.49668
-1.49
-1.48401
-1.47689
-1.63291
-1.62761
-1.6215
-1.61607
-1.61046
-1.60446
-1.59822
-1.59231
-1.58587
-1.57876
-1.57204
-1.56544
-1.55977
-1.55324
-1.54491
-1.53711
-1.53185
-1.52672
-1.52076
-1.51449
-1.50856
-1.50185
-1.49472
-1.48798
-1.64381
-1.63781
-1.63241
-1.62651
-1.62084
-1.61551
-1.60984
-1.60394
-1.59834
-1.59211
-1.58479
-1.57779
-1.57077
-1.56483
-1.55903
-1.55189
-1.54411
-1.53776
-1.53214
-1.52589
-1.51945
-1.51354
-1.50713
-1.65985
-1.65516
-1.6492
-1.64328
-1.63748
-1.63153
-1.62578
-1.62044
-1.61489
-1.60921
-1.60382
-1.59785
-1.59073
-1.58352
-1.57625
-1.56971
-1.56432
-1.55797
-1.55081
-1.54387
-1.53767
-1.53122
-1.52486
-1.51751
-1.67016
-1.6644