/*--------------------------------*- C++ -*----------------------------------*\
  =========                 |
  \\      /  F ield         | OpenFOAM: The Open Source CFD Toolbox
   \\    /   O peration     | Website:  https://openfoam.org
    \\  /    A nd           | Version:  8
     \\/     M anipulation  |
\*---------------------------------------------------------------------------*/
FoamFile
{
    version     2.0;
    format      ascii;
    class       volScalarField;
    location    "195";
    object      epsilon;
}
// * * * * * * * * * * * * * * * * * * * * * * * * * * * * * * * * * * * * * //

dimensions      [0 2 -3 0 0 0 0];

internalField   nonuniform List<scalar> 
12225
(
285.513
270.703
257.914
243.812
232.46
223.088
216.808
212.699
212.744
213.948
217.247
220.883
228.104
232.871
241.273
246.67
255.033
263.15
52.4933
91.8818
106.971
114.75
124.843
136.785
152.693
169.904
191.127
210.932
235.267
255.489
281.132
299.356
324.91
339.369
364.892
373.838
20.3231
34.8567
44.6749
50.4695
55.3968
59.607
64.6663
69.6409
76.3239
83.1819
91.4503
99.3212
108.197
116.955
125.588
135.338
142.665
153.92
15.3482
19.6975
24.1128
27.5684
30.4979
32.869
35.1566
37.2924
39.5049
41.9168
44.3409
47.2028
49.6883
53.045
55.4256
59.2532
61.4603
65.6886
14.6508
15.8626
17.3672
19.0735
20.6387
22.0255
23.2467
24.4307
25.4449
26.5946
27.5246
28.7588
29.634
30.988
31.8173
33.2713
34.0872
35.6602
14.7068
14.8769
15.2015
15.8666
16.5669
17.2866
17.9239
18.5841
19.1194
19.7341
20.1937
20.7994
21.2091
21.8237
22.1998
22.8279
23.1829
23.8636
14.7421
14.6201
14.6248
14.737
14.9298
15.219
15.4913
15.8089
16.071
16.3827
16.6183
16.9205
17.1312
17.4276
17.6166
17.9132
18.0831
18.4085
14.7626
14.5866
14.4638
14.3812
14.3669
14.39
14.4381
14.5337
14.6186
14.7367
14.8309
14.9566
15.0479
15.1764
15.2614
15.3923
15.4706
15.6207
14.7667
14.5908
14.4346
14.2963
14.1849
14.1044
14.0398
14.0066
13.9815
13.9785
13.9809
13.9917
14.0041
14.0296
14.0473
14.0796
14.1035
14.1462
14.7663
14.594
14.432
14.282
14.143
14.0219
13.9115
13.8193
13.737
13.6698
13.6102
13.5633
13.5181
13.4872
13.4517
13.4343
13.4023
13.401
14.7658
14.5945
14.4322
14.2803
14.1362
14.0032
13.8782
13.7644
13.6582
13.5629
13.4735
13.3952
13.3198
13.2561
13.1915
13.1408
13.0838
13.0452
14.7657
14.5943
14.4321
14.2798
14.1353
13.9999
13.8715
13.7518
13.6385
13.5336
13.4341
13.343
13.2557
13.1771
13.1002
13.0328
12.9647
12.9074
14.7657
14.5941
14.432
14.2794
14.1349
13.9989
13.8699
13.7485
13.6332
13.5249
13.422
13.3257
13.2338
13.1483
13.0663
12.9906
12.9172
12.8502
14.7657
14.5939
14.4318
14.279
14.1346
13.9983
13.8692
13.7472
13.6315
13.5223
13.4184
13.3203
13.227
13.1389
13.055
12.9759
12.9002
12.8291
14.7657
14.5938
14.4317
14.2787
14.1342
13.9977
13.8686
13.7464
13.6307
13.5211
13.4171
13.3185
13.2248
13.136
13.0516
12.9715
12.8952
12.8228
14.7657
14.5937
14.4316
14.2785
14.1339
13.9973
13.8681
13.7458
13.63
13.5202
13.4161
13.3174
13.2237
13.1346
13.0501
12.9697
12.8932
12.8205
14.7657
14.5937
14.4315
14.2783
14.1337
13.997
13.8677
13.7453
13.6294
13.5195
13.4154
13.3166
13.2227
13.1336
13.0489
12.9685
12.8919
12.8191
14.7657
14.5937
14.4314
14.2782
14.1335
13.9968
13.8674
13.745
13.629
13.5191
13.4148
13.316
13.2221
13.1329
13.0481
12.9676
12.8909
12.818
14.7657
14.5937
14.4314
14.2782
14.1335
13.9967
13.8673
13.7448
13.6288
13.5189
13.4146
13.3157
13.2217
13.1325
13.0477
12.9671
12.8904
12.8175
14.7657
14.5937
14.4314
14.2782
14.1336
13.9968
13.8674
13.745
13.629
13.5191
13.4148
13.3159
13.222
13.1327
13.048
12.9674
12.8907
12.8178
14.7657
14.5937
14.4315
14.2784
14.1338
13.997
13.8677
13.7453
13.6294
13.5196
13.4155
13.3166
13.2229
13.1339
13.0494
12.969
12.8927
12.82
14.7657
14.5937
14.4316
14.2785
14.1341
13.9974
13.8685
13.7464
13.6312
13.522
13.419
13.3214
13.2293
13.1418
13.0595
12.9811
12.9074
12.8369
14.7658
14.5937
14.4318
14.2788
14.1353
14.0002
13.8742
13.756
13.6463
13.5435
13.4485
13.3592
13.277
13.1993
13.1282
13.0602
12.9988
12.9387
14.7655
14.5928
14.4328
14.2844
14.1515
14.0321
13.929
13.8375
13.7593
13.6894
13.6307
13.5769
13.5328
13.4905
13.4574
13.423
13.3989
13.3693
14.7592
14.5932
14.4603
14.3602
14.3029
14.2766
14.2805
14.2922
14.321
14.3531
14.3959
14.4345
14.4824
14.5217
14.572
14.6089
14.6616
14.6938
14.7213
14.6911
14.754
14.9176
15.1828
15.4611
15.7476
16.012
16.2723
16.5038
16.736
16.9386
17.1507
17.3309
17.5309
17.6936
17.8887
18.0359
14.7477
15.5124
16.5473
17.6841
18.7044
19.5675
20.3372
20.9968
21.6194
22.166
22.7188
23.2107
23.7398
24.2042
24.7326
25.1825
25.7248
26.1658
15.9871
20.992
25.0238
27.7604
29.7847
31.3584
32.777
34.0578
35.3593
36.6162
37.9752
39.2969
40.7613
42.1454
43.7174
45.1733
46.8832
48.3579
29.9031
47.2182
54.8695
58.6734
61.6139
64.4317
67.5803
70.9771
74.7381
78.7138
82.9846
87.3436
91.9042
96.4489
101.099
105.621
110.174
114.575
165.797
160.075
154.899
149.564
144.479
139.677
135.614
132.109
129.27
126.973
125.32
124.044
123.34
122.824
122.841
122.96
123.284
123.827
0.508227
0.527438
0.933715
1.32203
1.73392
2.17184
2.63776
3.12748
3.63165
4.13863
4.63635
5.11355
5.5599
5.9665
6.32612
6.63477
6.89305
7.09438
7.23745
7.41661
7.60154
7.83775
8.07643
8.52574
8.86103
9.16164
40.271
41.5182
42.1666
42.075
41.7078
40.711
40.7661
42.0221
40.4935
9.26917
43.6612
46.0518
49.7337
53.112
56.8694
60.7025
64.745
68.9427
73.3199
77.8742
82.6079
87.5295
92.6369
97.941
103.438
109.14
115.043
121.159
127.481
134.024
140.78
147.761
154.96
162.389
170.038
177.92
186.024
194.361
202.919
211.709
220.715
229.949
239.394
249.06
258.928
269.007
279.276
289.743
300.385
311.208
322.187
333.327
344.601
356.012
367.531
379.158
390.862
402.637
414.451
426.293
438.125
449.93
461.668
473.316
484.835
496.212
507.458
518.664
529.691
540.562
551.236
561.709
571.947
581.934
591.643
601.054
610.143
618.889
627.271
635.268
642.86
650.027
656.753
663.017
668.809
674.109
678.911
683.2
686.972
690.216
692.934
695.12
696.781
697.916
698.536
698.634
698.139
697.128
695.74
693.83
691.429
688.596
685.338
681.684
677.657
673.289
668.603
663.635
658.406
652.959
647.314
641.525
635.651
629.715
623.781
617.874
612.026
606.265
600.604
595.089
589.734
584.557
579.601
574.892
570.45
566.252
562.311
558.616
555.185
552.001
549.066
546.366
543.89
541.61
539.481
537.438
535.476
533.51
531.486
529.2
527.392
528.831
531.984
535.158
538.084
540.653
542.917
544.464
545.182
544.981
543.451
540.334
534.593
502.108
2.11353
1.25048
1.25035
1.41519
1.66408
1.97282
2.32999
2.72465
3.14483
3.57922
4.01737
4.45114
4.87394
5.28199
5.67378
6.05196
6.42346
6.80182
7.2097
7.68342
8.2569
8.98664
9.94589
11.2743
13.1733
16.0441
20.5529
21.6029
22.1085
22.4372
22.7269
23.0272
23.3828
23.7321
23.8472
23.8291
28.5164
29.8611
31.6989
33.5086
35.4028
37.3498
39.3659
41.4484
43.6007
45.8248
48.1217
50.4939
52.9417
55.4676
58.0716
60.756
63.5205
66.3674
69.2961
72.3087
75.4039
78.5839
81.8472
85.1954
88.6266
92.1423
95.7402
99.4214
103.183
107.026
110.947
114.946
119.019
123.167
127.385
131.673
136.025
140.44
144.914
149.443
154.022
158.649
163.317
168.023
172.758
177.519
182.298
187.088
191.88
196.667
201.44
206.189
210.908
215.59
220.234
224.85
229.461
234.122
238.757
243.325
247.821
252.236
256.563
260.792
264.914
268.921
272.804
276.555
280.166
283.627
286.931
290.07
293.037
295.825
298.428
300.838
303.052
305.065
306.873
308.472
309.862
311.04
312.006
312.76
313.3
313.622
313.705
313.59
313.293
312.794
312.095
311.215
310.158
308.935
307.555
306.028
304.367
302.581
300.686
298.692
296.616
294.472
292.283
290.063
287.835
285.607
283.395
281.208
279.059
276.961
274.924
272.958
271.077
269.291
267.609
266.028
264.558
263.198
261.956
260.828
259.816
258.915
258.123
257.43
256.825
256.289
255.812
255.376
254.962
254.538
254.278
254.599
255.285
255.974
256.527
256.941
257.128
256.991
256.465
255.609
254.338
252.865
251.123
247.436
4.1586
2.09855
1.86
1.91424
2.08778
2.33958
2.65093
3.00903
3.40214
3.8196
4.25201
4.69229
5.13545
5.57929
6.02412
6.47378
6.93571
7.42223
7.95017
8.54044
9.2171
10.0041
10.9291
12.0203
13.2998
14.7428
16.2094
17.1421
17.9162
18.6672
19.4451
20.272
21.1599
22.1284
23.2211
24.5567
26.2797
27.6895
29.1666
30.6902
32.2691
33.9015
35.5891
37.3325
39.1325
40.9902
42.9061
44.8814
46.9166
49.0127
51.1701
53.3896
55.6714
58.0165
60.4249
62.8972
65.4333
68.0337
70.6981
73.4267
76.219
79.0749
81.9937
84.9752
88.0182
91.1223
94.2861
97.5086
100.788
104.124
107.513
110.955
114.447
117.987
121.571
125.199
128.865
132.569
136.305
140.071
143.862
147.674
151.503
155.345
159.194
163.046
166.896
170.74
174.576
178.401
182.216
186.022
189.823
193.618
197.378
201.091
204.751
208.351
211.883
215.341
218.718
222.006
225.199
228.289
231.269
234.133
236.874
239.485
241.96
244.294
246.48
248.515
250.392
252.109
253.662
255.048
256.265
257.312
258.188
258.892
259.425
259.787
259.944
259.951
259.788
259.475
259.004
258.384
257.621
256.721
255.692
254.542
253.281
251.916
250.459
248.92
247.31
245.642
243.93
242.187
240.426
238.659
236.895
235.144
233.415
231.719
230.064
228.458
226.91
225.427
224.016
222.679
221.421
220.246
219.155
218.15
217.228
216.389
215.627
214.937
214.31
213.736
213.202
212.7
212.209
211.722
211.279
210.996
210.816
210.598
210.263
209.787
209.121
208.23
207.089
205.727
204.148
202.576
201.111
200.101
6.28564
2.99999
2.52556
2.49056
2.61714
2.83694
3.12346
3.46234
3.84271
4.25546
4.69275
5.14858
5.61878
6.10144
6.59654
7.10633
7.63493
8.18847
8.77422
9.40033
10.0751
10.8068
11.603
12.4693
13.4035
14.3855
15.3685
16.2953
17.215
18.1607
19.1474
20.1823
21.2672
22.4124
23.6351
24.9511
26.3436
27.7275
29.1472
30.6105
32.1223
33.6845
35.298
36.964
38.6831
40.4562
42.2841
44.1677
46.1076
48.1045
50.159
52.2717
54.4429
56.6734
58.9635
61.3137
63.7241
66.1952
68.727
71.3195
73.9728
76.6867
79.4608
82.295
85.1885
88.141
91.1514
94.2191
97.3427
100.521
103.753
107.037
110.371
113.753
117.181
120.653
124.165
127.717
131.303
134.922
138.57
142.243
145.938
149.652
153.379
157.117
160.862
164.61
168.358
172.105
175.847
179.583
183.309
187.014
190.687
194.318
197.901
201.429
204.895
208.293
211.614
214.853
218.001
221.053
224
226.836
229.555
232.15
234.614
236.941
239.126
241.164
243.05
244.781
246.351
247.759
249.003
250.08
250.989
251.731
252.305
252.713
252.923
252.973
252.861
252.599
252.184
251.621
250.916
250.075
249.104
248.011
246.805
245.494
244.088
242.596
241.03
239.401
237.72
236.001
234.254
232.492
230.721
228.953
227.197
225.461
223.754
222.083
220.456
218.88
217.36
215.9
214.504
213.176
211.917
210.728
209.608
208.556
207.567
206.637
205.758
204.92
204.112
203.322
202.531
201.732
200.922
200.148
199.383
198.56
197.629
196.562
195.333
193.92
192.319
190.558
188.672
186.86
185.247
184.282
8.33416
3.89373
3.18714
3.06951
3.15146
3.34353
3.61003
3.93365
4.30325
4.71046
5.14841
5.6118
6.09677
6.60114
7.12409
7.66624
8.22918
8.81542
9.42776
10.0694
10.7433
11.453
12.2017
12.9925
13.8263
14.6995
15.6033
16.5317
17.4921
18.4918
19.5344
20.6217
21.7537
22.9327
24.1631
25.4446
26.7766
28.1461
29.5592
31.0197
32.5289
34.0881
35.6986
37.3615
39.0776
40.848
42.6737
44.5556
46.4948
48.4926
50.549
52.6648
54.8407
57.0774
59.3755
61.7356
64.1584
66.6443
69.1936
71.8067
74.4837
77.225
80.0303
82.8996
85.8328
88.8293
91.8887
95.0103
98.1933
101.437
104.739
108.1
111.516
114.987
118.511
122.085
125.706
129.373
133.083
136.832
140.617
144.435
148.282
152.155
156.05
159.962
163.889
167.826
171.769
175.713
179.655
183.589
187.506
191.4
195.262
199.084
202.859
206.58
210.24
213.83
217.344
220.774
224.112
227.352
230.484
233.502
236.399
239.167
241.799
244.29
246.632
248.821
250.85
252.716
254.414
255.941
257.295
258.472
259.473
260.296
260.941
261.41
261.678
261.761
261.678
261.433
261.024
260.457
259.736
258.867
257.857
256.714
255.445
254.06
252.568
250.979
249.304
247.553
245.74
243.875
241.971
240.036
238.083
236.119
234.156
232.2
230.262
228.349
226.467
224.624
222.824
221.074
219.376
217.735
216.152
214.629
213.164
211.758
210.405
209.102
207.841
206.613
205.408
204.215
203.018
201.813
200.587
199.355
198.098
196.778
195.36
193.82
192.141
190.31
188.332
186.237
184.056
181.97
180.091
178.743
10.2456
4.74477
3.81608
3.619
3.65764
3.82279
4.06962
4.37733
4.73382
5.1308
5.56189
6.02221
6.50808
7.01714
7.5481
8.10073
8.67554
9.27372
9.89671
10.5463
11.2244
11.933
12.6744
13.4509
14.2647
15.1168
16.0069
16.9356
17.9047
18.9166
19.9722
21.0724
22.2173
23.4076
24.645
25.93
27.2625
28.6413
30.068
31.5442
33.0711
34.6501
36.2824
37.9694
39.7121
41.5118
43.3695
45.2865
47.2637
49.302
51.4027
53.5673
55.7966
58.0918
60.4538
62.8837
65.3823
67.9504
70.5887
73.2979
76.0786
78.9311
81.8558
84.8528
87.9223
91.0641
94.2778
97.5631
100.919
104.345
107.84
111.403
115.032
118.726
122.481
126.297
130.171
134.099
138.08
142.109
146.183
150.299
154.453
158.64
162.857
167.098
171.36
175.636
179.923
184.213
188.502
192.781
197.044
201.282
205.488
209.654
213.771
217.833
221.831
225.756
229.6
233.356
237.014
240.566
244.004
247.32
250.504
253.551
256.451
259.198
261.784
264.203
266.45
268.518
270.403
272.102
273.61
274.926
276.048
276.975
277.707
278.244
278.568
278.682
278.614
278.364
277.934
277.326
276.546
275.601
274.496
273.239
271.839
270.306
268.648
266.876
265.002
263.037
260.993
258.881
256.714
254.502
252.257
249.987
247.704
245.416
243.133
240.862
238.612
236.388
234.197
232.045
229.936
227.873
225.86
223.898
221.987
220.126
218.313
216.544
214.813
213.112
211.433
209.765
208.097
206.42
204.725
203.011
201.264
199.458
197.568
195.577
193.47
191.244
188.904
186.481
184.022
181.671
179.503
177.722
11.974
5.5277
4.3914
4.11747
4.11403
4.25175
4.47801
4.76824
5.10896
5.4916
5.90997
6.35951
6.83674
7.33935
7.86592
8.41597
8.98964
9.58774
10.2114
10.8621
11.5414
12.2512
12.9933
13.7697
14.5824
15.4333
16.3235
17.2546
18.2279
19.2448
20.3062
21.413
22.5657
23.7653
25.0128
26.3091
27.6549
29.0512
30.4988
31.9994
33.554
35.1642
36.8314
38.557
40.3425
42.1894
44.0991
46.0731
48.1128
50.2197
52.3954
54.6414
56.9592
59.3503
61.816
64.3577
66.9766
69.6741
72.4511
75.3088
78.248
81.2695
84.374
87.562
90.8337
94.1893
97.6288
101.152
104.758
108.446
112.216
116.065
119.994
123.998
128.078
132.229
136.45
140.737
145.088
149.497
153.962
158.479
163.042
167.648
172.29
176.965
181.665
186.384
191.118
195.858
200.598
205.328
210.042
214.73
219.384
223.996
228.556
233.057
237.488
241.84
246.105
250.273
254.334
258.28
262.1
265.786
269.328
272.718
275.946
279.006
281.888
284.586
287.092
289.401
291.507
293.406
295.093
296.567
297.824
298.864
299.686
300.29
300.661
300.799
300.731
300.457
299.979
299.301
298.429
297.367
296.124
294.706
293.124
291.386
289.503
287.485
285.345
283.094
280.745
278.311
275.803
273.234
270.613
267.954
265.265
262.559
259.842
257.126
254.417
251.723
249.051
246.407
243.796
241.223
238.691
236.202
233.758
231.36
229.005
226.692
224.416
222.173
219.955
217.755
215.564
213.372
211.172
208.959
206.718
204.433
202.085
199.658
197.144
194.541
191.858
189.122
186.38
183.747
181.266
179.048
13.4865
6.22403
4.8985
4.54804
4.50594
4.61624
4.82119
5.09274
5.41598
5.78188
6.1843
6.61892
7.08253
7.57301
8.08902
8.63006
9.19622
9.7882
10.407
11.0541
11.731
12.4394
13.181
13.9575
14.7706
15.6223
16.514
17.4472
18.4234
19.4439
20.5099
21.6224
22.7826
23.9916
25.2507
26.5612
27.9243
29.3414
30.8139
32.3432
33.9311
35.579
37.2888
39.0622
40.9009
42.8069
44.7819
46.828
48.947
51.1408
53.4114
55.7609
58.1911
60.704
63.3014
65.9852
68.7571
71.6188
74.5718
77.6177
80.7577
83.993
87.3246
90.7533
94.2797
97.9043
101.627
105.448
109.367
113.382
117.494
121.7
126
130.39
134.87
139.435
144.082
148.81
153.612
158.486
163.427
168.429
173.488
178.598
183.752
188.945
194.169
199.417
204.682
209.955
215.229
220.493
225.739
230.957
236.138
241.271
246.348
251.358
256.291
261.137
265.884
270.524
275.045
279.437
283.689
287.791
291.734
295.507
299.1
302.504
305.711
308.713
311.501
314.068
316.41
318.519
320.393
322.027
323.419
324.568
325.472
326.132
326.534
326.68
326.591
326.269
325.716
324.938
323.938
322.724
321.302
319.68
317.869
315.878
313.717
311.399
308.936
306.341
303.627
300.806
297.892
294.898
291.835
288.715
285.55
282.351
279.128
275.891
272.648
269.407
266.177
262.964
259.774
256.612
253.484
250.393
247.342
244.332
241.366
238.441
235.557
232.712
229.901
227.118
224.358
221.613
218.877
216.143
213.401
210.634
207.83
204.977
202.067
199.1
196.085
193.046
190.025
187.11
184.317
181.694
14.7627
6.82112
5.32782
4.90594
4.8266
4.9098
5.09318
5.34555
5.65061
5.99884
6.38407
6.80214
7.25011
7.72607
8.22886
8.75804
9.31367
9.89643
10.5073
11.1478
11.8192
12.5233
13.2618
14.0358
14.847
15.6974
16.5884
17.5219
18.4992
19.522
20.5915
21.7093
22.8765
24.0946
25.3659
26.6919
28.074
29.5141
31.014
32.5757
34.2011
35.8923
37.6512
39.4801
41.3812
43.3568
45.4092
47.5409
49.7542
52.0517
54.4359
56.9092
59.4742
62.1332
64.8888
67.7433
70.6989
73.758
76.9224
80.1943
83.5752
87.0669
90.6707
94.3877
98.2187
102.165
106.225
110.401
114.692
119.096
123.614
128.242
132.98
137.826
142.775
147.826
152.974
158.215
163.546
168.959
174.452
180.016
185.647
191.336
197.078
202.863
208.685
214.534
220.401
226.278
232.154
238.018
243.861
249.672
255.439
261.152
266.799
272.37
277.853
283.237
288.509
293.658
298.673
303.543
308.255
312.798
317.162
321.335
325.307
329.067
332.607
335.917
338.988
341.813
344.386
346.699
348.749
350.531
352.042
353.282
354.248
354.941
355.349
355.477
355.338
354.936
354.275
353.36
352.196
350.789
349.148
347.28
345.195
342.904
340.418
337.75
334.913
331.921
328.786
325.524
322.147
318.67
315.104
311.464
307.761
304.007
300.214
296.391
292.549
288.696
284.841
280.991
277.155
273.339
269.549
265.79
262.068
258.386
254.747
251.153
247.607
244.108
240.654
237.245
233.877
230.545
227.245
223.971
220.713
217.459
214.199
210.922
207.622
204.3
200.963
197.63
194.335
191.146
188.052
185.066
15.793
7.31297
5.67632
5.18992
5.07528
5.13224
5.29428
5.52754
5.81448
6.14506
6.51303
6.91433
7.3462
7.80696
8.29566
8.81191
9.35542
9.92702
10.5278
11.1593
11.8229
12.5205
13.2541
14.0236
14.8309
15.6781
16.5668
17.4988
18.4758
19.4996
20.5717
21.694
22.8682
24.0961
25.3816
26.7252
28.1284
29.5941
31.1252
32.7238
34.3925
36.1337
37.95
39.844
41.8184
43.8762
46.0201
48.2532
50.5786
52.9993
55.5184
58.139
60.8642
63.6972
66.6409
69.6983
72.8723
76.1657
79.581
83.1207
86.7869
90.5817
94.5067
98.5635
102.753
107.076
111.534
116.125
120.85
125.707
130.696
135.815
141.06
146.43
151.922
157.53
163.251
169.079
175.01
181.036
187.152
193.351
199.623
205.963
212.359
218.805
225.289
231.801
238.332
244.87
251.404
257.922
264.412
270.862
277.259
283.591
289.846
296.01
302.071
308.017
313.834
319.51
325.033
330.388
335.565
340.551
345.334
349.902
354.244
358.35
362.208
365.809
369.143
372.204
374.983
377.474
379.671
381.571
383.17
384.467
385.46
386.149
386.525
386.597
386.369
385.845
385.034
383.941
382.569
380.927
379.021
376.861
374.457
371.82
368.962
365.896
362.637
359.198
355.593
351.839
347.948
343.935
339.815
335.601
331.307
326.944
322.525
318.061
313.563
309.042
304.506
299.964
295.426
290.9
286.393
281.913
277.466
273.059
268.698
264.388
260.133
255.936
251.801
247.728
243.718
239.771
235.882
232.049
228.263
224.516
220.796
217.097
213.413
209.743
206.092
202.475
198.914
195.463
192.088
188.782
16.5786
7.69902
5.94534
5.40272
5.25554
5.28774
5.42921
5.64392
5.91329
6.22682
6.57818
6.96337
7.37927
7.82475
8.29945
8.80385
9.33673
9.89869
10.4906
11.1137
11.7693
12.4589
13.1838
13.9456
14.7465
15.5883
16.4732
17.4029
18.3796
19.4052
20.4819
21.6118
22.7968
24.0392
25.3408
26.7042
28.1319
29.6289
31.1977
32.8414
34.5629
36.3652
38.2516
40.2251
42.2891
44.4471
46.7027
49.0595
51.5212
54.0917
56.7746
59.5738
62.4931
65.5362
68.7069
72.0087
75.4451
79.0195
82.7349
86.5942
90.6001
94.7549
99.0606
103.519
108.131
112.897
117.819
122.895
128.125
133.508
139.042
144.725
150.553
156.523
162.632
168.873
175.241
181.731
188.336
195.047
201.857
208.757
215.739
222.792
229.905
237.069
244.271
251.499
258.742
265.987
273.22
280.429
287.599
294.716
301.768
308.739
315.615
322.383
329.029
335.538
341.897
348.092
354.109
359.935
365.557
370.961
376.135
381.067
385.745
390.158
394.295
398.145
401.699
404.95
407.888
410.508
412.803
414.77
416.406
417.709
418.677
419.309
419.604
419.565
419.195
418.497
417.484
416.161
414.531
412.603
410.384
407.883
405.111
402.08
398.802
395.291
391.562
387.629
383.507
379.213
374.762
370.168
365.446
360.612
355.679
350.661
345.571
340.42
335.221
329.985
324.722
319.444
314.159
308.878
303.611
298.366
293.153
287.98
282.857
277.792
272.792
267.864
263.014
258.248
253.57
248.983
244.486
240.079
235.755
231.507
227.328
223.208
219.145
215.134
211.178
207.287
203.473
199.773
196.141
192.559
17.1307
7.98328
6.13962
5.55008
5.37384
5.38338
5.50556
5.70275
5.95564
6.25287
6.58854
6.95947
7.36252
7.7958
8.25819
8.74883
9.26783
9.81656
10.3961
11.0077
11.6528
12.3329
13.0497
13.8053
14.6015
15.4403
16.3238
17.2544
18.2344
19.2663
20.3524
21.4953
22.6976
23.9627
25.2924
26.6891
28.1554
29.6956
31.3152
33.0181
34.8088
36.6913
38.669
40.7457
42.9254
45.2123
47.6108
50.1252
52.76
55.5198
58.4091
61.4325
64.5945
67.8994
71.3518
74.9557
78.7153
82.6343
86.7162
90.9645
95.3818
99.9708
104.734
109.672
114.786
120.078
125.547
131.192
137.012
143.006
149.17
155.502
161.998
168.652
175.46
182.414
189.509
196.736
204.087
211.553
219.124
226.79
234.54
242.362
250.243
258.171
266.132
274.113
282.099
290.077
298.03
305.945
313.805
321.595
329.3
336.903
344.389
351.744
358.951
365.996
372.863
379.538
386.007
392.256
398.271
404.038
409.545
414.779
419.729
424.382
428.728
432.757
436.46
439.827
442.851
445.526
447.846
449.807
451.407
452.643
453.515
454.023
454.166
453.951
453.367
452.431
451.154
449.54
447.594
445.322
442.734
439.838
436.645
433.169
429.421
425.417
421.17
416.697
412.014
407.137
402.082
396.865
391.501
386.007
380.396
374.685
368.885
363.01
357.074
351.087
345.063
339.013
332.947
326.879
320.818
314.777
308.767
302.8
296.887
291.039
285.268
279.584
273.997
268.517
263.152
257.908
252.791
247.799
242.931
238.181
233.542
229.006
224.57
220.228
215.979
211.827
207.774
203.847
199.985
196.171
17.4719
8.17655
6.26722
5.64012
5.43832
5.42828
5.53258
5.71363
5.95215
6.23648
6.55943
6.9163
7.30389
7.72188
8.16977
8.64761
9.15587
9.69506
10.2661
10.8703
11.5091
12.1843
12.8978
13.6518
14.4483
15.2897
16.1785
17.1175
18.1095
19.1581
20.2651
21.4335
22.6664
23.9668
25.3348
26.7773
28.2997
29.9073
31.6048
33.3968
35.2881
37.2843
39.39
41.6097
43.9482
46.4107
49.0023
51.7284
54.5943
57.6054
60.7668
64.0839
67.5619
71.2059
75.0207
79.0111
83.1815
87.536
92.0783
96.8118
101.739
106.863
112.186
117.707
123.429
129.351
135.472
141.79
148.305
155.011
161.906
168.985
176.242
183.672
191.266
199.018
206.918
214.956
223.123
231.407
239.797
248.28
256.842
265.471
274.152
282.869
291.608
300.352
309.086
317.793
326.458
335.062
343.588
352.02
360.341
368.533
376.58
384.465
392.172
399.686
406.989
414.068
420.908
427.493
433.811
439.848
445.592
451.03
456.15
460.942
465.394
469.498
473.244
476.624
479.631
482.26
484.504
486.361
487.828
488.905
489.591
489.886
489.793
489.309
488.429
487.18
485.565
483.589
481.258
478.577
475.557
472.207
468.537
464.561
460.292
455.745
450.934
445.877
440.59
435.089
429.392
423.515
417.474
411.286
404.967
398.531
391.993
385.366
378.666
371.903
365.093
358.247
351.378
344.5
337.626
330.769
323.944
317.163
310.443
303.797
297.24
290.786
284.45
278.245
272.183
266.276
260.532
254.954
249.542
244.292
239.2
234.257
229.459
224.799
220.273
215.877
211.607
207.477
203.417
199.416
17.5943
8.27834
6.33299
5.68004
5.45725
5.4313
5.52235
5.69073
5.91548
6.18468
6.4929
6.83648
7.2133
7.62181
8.06138
8.53205
9.03425
9.56877
10.1367
10.7394
11.3786
12.0565
12.7753
13.5381
14.3465
15.2032
16.1112
17.0736
18.0934
19.1733
20.3148
21.5238
22.8049
24.1631
25.6032
27.1303
28.7502
30.4684
32.2904
34.2221
36.2694
38.4389
40.7358
43.1662
45.736
48.4518
51.3197
54.3462
57.5372
60.8987
64.4367
68.1571
72.0653
76.167
80.4671
84.9706
89.6818
94.6046
99.7426
105.098
110.675
116.473
122.493
128.737
135.202
141.888
148.793
155.914
163.245
170.784
178.523
186.457
194.577
202.876
211.344
219.971
228.746
237.657
246.693
255.838
265.08
274.405
283.795
293.237
302.713
312.207
321.7
331.177
340.618
350.006
359.323
368.551
377.67
386.663
395.511
404.197
412.703
421.011
429.106
436.969
444.586
451.941
459.02
465.808
472.292
478.46
484.3
489.799
494.947
499.734
504.151
508.188
511.838
515.094
517.95
520.4
522.441
524.068
525.282
526.083
526.471
526.444
526.011
525.144
523.883
522.23
520.192
517.774
514.981
511.819
508.3
504.431
500.224
495.692
490.85
485.71
480.291
474.607
468.676
462.516
456.143
449.575
442.829
435.921
428.868
421.685
414.389
406.992
399.51
391.956
384.345
376.691
369.008
361.311
353.614
345.934
338.285
330.686
323.154
315.706
308.361
301.137
294.05
287.121
280.364
273.798
267.431
261.274
255.329
249.592
244.061
238.728
233.587
228.629
223.848
219.233
214.771
210.468
206.245
202.107
17.5624
8.29707
6.34357
5.67797
5.44321
5.40604
5.48278
5.63729
5.85011
6.11033
6.41119
6.74879
7.12086
7.52618
7.96437
8.4357
8.94109
9.48136
10.0575
10.6714
11.3251
12.0209
12.7612
13.5482
14.383
15.2709
16.2158
17.2221
18.2942
19.437
20.655
21.9531
23.3369
24.8123
26.3856
28.063
29.8512
31.757
33.787
35.9483
38.2481
40.6936
43.2918
46.0501
48.9762
52.0781
55.3635
58.8393
62.512
66.3878
70.4726
74.7721
79.2919
84.037
89.012
94.2209
99.6672
105.354
111.283
117.455
123.872
130.532
137.435
144.58
151.962
159.578
167.424
175.494
183.781
192.278
200.978
209.87
218.945
228.191
237.598
247.152
256.841
266.649
276.563
286.567
296.646
306.781
316.958
327.157
337.361
347.551
357.71
367.816
377.853
387.8
397.639
407.35
416.915
426.314
435.529
444.541
453.332
461.886
470.185
478.213
485.955
493.396
500.521
507.318
513.775
519.879
525.62
530.989
535.975
540.569
544.765
548.554
551.931
554.89
557.426
559.535
561.215
562.462
563.277
563.666
563.618
563.151
562.227
560.887
559.137
556.982
554.426
551.478
548.14
544.422
540.331
535.878
531.074
525.932
520.465
514.688
508.617
502.269
495.661
488.811
481.735
474.452
466.979
459.334
451.532
443.591
435.524
427.349
419.079
410.729
402.314
393.85
385.353
376.838
368.321
359.822
351.356
342.945
334.609
326.368
318.246
310.263
302.439
294.799
287.363
280.153
273.184
266.469
260.011
253.812
247.867
242.171
236.716
231.491
226.485
221.684
217.065
212.627
208.282
204.059
17.4344
8.27005
6.32105
5.64753
5.40034
5.35263
5.42217
5.57178
5.78151
6.04058
6.34306
6.68486
7.06363
7.4785
7.92935
8.41659
8.94086
9.50104
10.1006
10.7425
11.4296
12.1652
12.9531
13.7974
14.7023
15.6721
16.7121
17.8278
19.025
20.3103
21.6899
23.1706
24.7596
26.4643
28.2927
30.2531
32.3537
34.6029
37.009
39.5802
42.3242
45.2483
48.3619
51.6744
55.195
58.9335
62.9017
67.1046
71.5469
76.2334
81.1685
86.3564
91.8007
97.5044
103.47
109.698
116.19
122.946
129.963
137.242
144.778
152.567
160.606
168.889
177.408
186.158
195.129
204.313
213.7
223.28
233.042
242.974
253.062
263.294
273.655
284.131
294.707
305.366
316.093
326.87
337.68
348.506
359.328
370.13
380.892
391.595
402.22
412.749
423.16
433.436
443.556
453.503
463.257
472.8
482.114
491.181
499.983
508.504
516.729
524.641
532.227
539.474
546.368
552.897
559.051
564.821
570.197
575.173
579.739
583.888
587.617
590.919
593.79
596.227
598.227
599.787
600.906
601.58
601.814
601.617
600.97
599.87
598.34
596.388
594.018
591.238
588.052
584.467
580.486
576.118
571.371
566.255
560.781
554.961
548.809
542.339
535.567
528.509
521.183
513.605
505.795
497.768
489.543
481.138
472.568
463.851
455.002
446.037
436.97
427.818
418.595
409.319
400.007
390.676
381.345
372.033
362.758
353.545
344.416
335.398
326.515
317.792
309.253
300.926
292.837
285.012
277.459
270.199
263.248
256.608
250.278
244.251
238.519
233.068
227.883
222.944
218.22
213.701
209.29
205.05
17.1555
8.20394
6.26741
5.59187
5.34559
5.30128
5.37701
5.5355
5.75671
6.02999
6.34883
6.70839
7.10856
7.54946
8.03182
8.55702
9.12711
9.74501
10.4134
11.136
11.9172
12.7618
13.6753
14.6639
15.7339
16.8921
18.1457
19.5027
20.9715
22.5609
24.2801
26.1388
28.1467
30.3143
32.6517
35.1696
37.8781
40.7875
43.9076
47.2477
50.8166
54.6228
58.6754
62.9828
67.5535
72.3959
77.5178
82.9261
88.6196
94.5978
100.86
107.406
114.233
121.34
128.722
136.376
144.297
152.478
160.914
169.597
178.518
187.671
197.044
206.629
216.415
226.39
236.545
246.866
257.341
267.958
278.704
289.564
300.525
311.573
322.691
333.866
345.08
356.32
367.567
378.806
390.019
401.189
412.299
423.331
434.267
445.091
455.783
466.325
476.7
486.889
496.874
506.639
516.165
525.435
534.434
543.145
551.553
559.642
567.398
574.809
581.862
588.545
594.847
600.758
606.27
611.375
616.07
620.345
624.196
627.617
630.608
633.164
635.281
636.964
638.207
639.009
639.377
639.291
638.79
637.808
636.407
634.574
632.315
629.638
626.548
623.053
619.156
614.863
610.176
605.104
599.653
593.834
587.657
581.133
574.275
567.098
559.615
551.844
543.8
535.501
526.964
518.206
509.245
500.098
490.781
481.313
471.707
461.98
452.147
442.223
432.225
422.17
412.079
401.969
391.862
381.778
371.736
361.764
351.888
342.137
332.532
323.096
313.868
304.881
296.172
287.767
279.712
272.012
264.67
257.689
251.068
244.798
238.868
233.264
227.966
222.949
218.177
213.632
209.207
205.006
16.8244
8.07696
6.18671
5.53612
5.31039
5.28635
5.38303
5.56227
5.80816
6.11179
6.46863
6.87665
7.33539
7.84599
8.4107
9.03275
9.71632
10.4665
11.2886
12.1889
13.1746
14.2537
15.4353
16.729
18.1451
19.6943
21.3882
23.2392
25.26
27.4634
29.8626
32.4706
35.3007
38.3659
41.6784
45.2498
49.0908
53.2117
57.6212
62.3264
67.3328
72.6458
78.2705
84.2096
90.4648
97.0403
103.936
111.146
118.659
126.464
134.551
142.91
151.532
160.405
169.518
178.859
188.417
198.181
208.138
218.275
228.583
239.047
249.656
260.399
271.262
282.235
293.303
304.456
315.681
326.967
338.299
349.667
361.057
372.456
383.85
395.226
406.572
417.873
429.114
440.282
451.361
462.338
473.196
483.921
494.497
504.91
515.143
525.183
535.01
544.611
553.969
563.069
571.897
580.437
588.676
596.599
604.194
611.447
618.346
624.881
631.042
636.82
642.203
647.185
651.759
655.922
659.671
663
665.902
668.376
670.429
672.052
673.238
674.013
674.354
674.263