/*--------------------------------*- C++ -*----------------------------------*\
  =========                 |
  \\      /  F ield         | OpenFOAM: The Open Source CFD Toolbox
   \\    /   O peration     | Website:  https://openfoam.org
    \\  /    A nd           | Version:  8
     \\/     M anipulation  |
\*---------------------------------------------------------------------------*/
FoamFile
{
    version     2.0;
    format      ascii;
    class       volScalarField;
    location    "195";
    object      k;
}
// * * * * * * * * * * * * * * * * * * * * * * * * * * * * * * * * * * * * * //

dimensions      [0 2 -2 0 0 0 0];

internalField   nonuniform List<scalar> 
12225
(
0.362825
0.343998
0.327744
0.309822
0.295397
0.283487
0.275507
0.270286
0.27034
0.271892
0.276055
0.280708
0.289853
0.295766
0.306875
0.312697
0.325548
0.327153
0.440271
0.468738
0.461615
0.448374
0.450348
0.45832
0.47453
0.498569
0.524394
0.552154
0.580772
0.606217
0.633912
0.653949
0.679989
0.693134
0.718747
0.724859
0.390407
0.41786
0.420244
0.416831
0.411634
0.407804
0.408017
0.410039
0.414555
0.421403
0.43074
0.439724
0.451219
0.461176
0.47293
0.483618
0.493722
0.506185
0.377043
0.387169
0.391467
0.391344
0.39026
0.387885
0.385659
0.384081
0.382882
0.382898
0.383359
0.384385
0.386289
0.388471
0.390936
0.394277
0.396601
0.401073
0.374434
0.376094
0.378427
0.378666
0.378275
0.377202
0.375487
0.373738
0.37201
0.370455
0.369256
0.36811
0.367383
0.366808
0.366448
0.36635
0.366374
0.366736
0.373779
0.372704
0.372659
0.372366
0.371772
0.370819
0.369553
0.368083
0.366571
0.364976
0.363528
0.362063
0.360755
0.35953
0.358397
0.35743
0.356445
0.355794
0.373775
0.37174
0.370388
0.369284
0.368235
0.367114
0.365915
0.364587
0.363238
0.361808
0.360422
0.359023
0.357677
0.356382
0.35512
0.353966
0.352794
0.351805
0.373818
0.371559
0.369635
0.367976
0.366501
0.365108
0.363775
0.362429
0.361107
0.359766
0.35845
0.357143
0.355863
0.354622
0.3534
0.352249
0.351097
0.350052
0.373832
0.371553
0.369449
0.367525
0.365777
0.364154
0.362645
0.361199
0.359817
0.358473
0.357169
0.355902
0.354666
0.353474
0.352306
0.351195
0.350096
0.349071
0.373831
0.37156
0.369418
0.367405
0.365529
0.363773
0.362133
0.360585
0.359122
0.357728
0.356394
0.355117
0.353888
0.352709
0.351568
0.35048
0.349418
0.348419
0.373829
0.37156
0.369413
0.367378
0.365458
0.363645
0.361937
0.360324
0.358798
0.357353
0.355979
0.354672
0.353424
0.352235
0.351093
0.350008
0.348958
0.347968
0.373828
0.371558
0.369409
0.367371
0.365439
0.363609
0.361876
0.360234
0.358677
0.357201
0.3558
0.354468
0.3532
0.351994
0.350842
0.349747
0.348695
0.3477
0.373827
0.371556
0.369405
0.367365
0.36543
0.363594
0.361851
0.360197
0.358626
0.357134
0.355715
0.354367
0.353084
0.351864
0.3507
0.349594
0.348535
0.347531
0.373826
0.371555
0.369401
0.36736
0.365422
0.363583
0.361837
0.360178
0.3586
0.357101
0.355674
0.354317
0.353024
0.351794
0.350622
0.349506
0.34844
0.347427
0.373826
0.371553
0.369398
0.367355
0.365416
0.363575
0.361826
0.360164
0.358584
0.357081
0.355651
0.35429
0.352993
0.351758
0.35058
0.349459
0.348388
0.347369
0.373826
0.371552
0.369396
0.367351
0.36541
0.363568
0.361817
0.360154
0.358572
0.357067
0.355634
0.354271
0.352972
0.351734
0.350554
0.34943
0.348357
0.347334
0.373825
0.371551
0.369394
0.367348
0.365406
0.363562
0.36181
0.360145
0.358562
0.357055
0.355621
0.354256
0.352956
0.351716
0.350535
0.349409
0.348334
0.347309
0.373825
0.371551
0.369393
0.367346
0.365403
0.363558
0.361805
0.360139
0.358555
0.357047
0.355612
0.354246
0.352944
0.351703
0.350521
0.349393
0.348317
0.347291
0.373825
0.37155
0.369393
0.367346
0.365402
0.363557
0.361804
0.360137
0.358552
0.357044
0.355608
0.354241
0.352938
0.351697
0.350514
0.349385
0.348309
0.347281
0.373825
0.371551
0.369393
0.367347
0.365404
0.363559
0.361806
0.36014
0.358555
0.357047
0.355611
0.354245
0.352942
0.351701
0.350518
0.349389
0.348313
0.347286
0.373825
0.371551
0.369395
0.367349
0.365407
0.363563
0.361811
0.360146
0.358562
0.357055
0.355622
0.354256
0.352955
0.351716
0.350535
0.349408
0.348334
0.347308
0.373826
0.371553
0.369397
0.367352
0.365412
0.363571
0.361822
0.360162
0.358583
0.357083
0.355657
0.354299
0.353007
0.351775
0.350603
0.349484
0.348418
0.347399
0.373826
0.371554
0.369399
0.367359
0.365429
0.363603
0.361875
0.36024
0.358691
0.357221
0.355823
0.354494
0.353227
0.352019
0.350866
0.349763
0.348711
0.347701
0.373828
0.371551
0.369412
0.367417
0.365556
0.363819
0.36219
0.360651
0.359189
0.357794
0.356456
0.355172
0.353936
0.352746
0.351601
0.350496
0.349437
0.348411
0.373823
0.371554
0.369604
0.367893
0.366339
0.364892
0.363495
0.362122
0.360761
0.359414
0.358081
0.35677
0.355489
0.354238
0.35303
0.351856
0.350735
0.349646
0.373781
0.37199
0.371113
0.370265
0.369361
0.368312
0.367048
0.36563
0.364121
0.362575
0.36103
0.359523
0.358074
0.356682
0.355382
0.354142
0.35301
0.351924
0.374297
0.375564
0.377778
0.377858
0.377291
0.375885
0.373835
0.371641
0.369505
0.367482
0.365664
0.364084
0.36271
0.361535
0.36061
0.359818
0.359289
0.358801
0.378732
0.394394
0.398293
0.396566
0.392558
0.387608
0.383642
0.380455
0.378266
0.376851
0.376496
0.376749
0.377398
0.378696
0.380441
0.382421
0.384825
0.387135
0.408344
0.427539
0.422424
0.411051
0.402226
0.397923
0.398556
0.401116
0.405984
0.413036
0.420993
0.429824
0.43883
0.448185
0.457299
0.466546
0.475313
0.484172
0.366033
0.353412
0.341988
0.33021
0.318982
0.308382
0.299409
0.291674
0.285403
0.280333
0.276682
0.273866
0.272309
0.271183
0.271174
0.27152
0.272154
0.273384
0.00173908
0.00828342
0.0146801
0.0207775
0.0272138
0.0340412
0.0412789
0.0488682
0.056643
0.064432
0.0720398
0.0793272
0.0861653
0.0925003
0.0983044
0.103633
0.108565
0.113231
0.117773
0.122328
0.126682
0.130574
0.133516
0.135064
0.134085
0.129763
0.120708
0.122808
0.125102
0.128299
0.132696
0.135809
0.141037
0.144873
0.15112
0.155555
0.149318
0.159527
0.166476
0.174241
0.182195
0.190264
0.198546
0.206978
0.215576
0.224345
0.233266
0.242365
0.251614
0.261044
0.270624
0.280384
0.290296
0.300387
0.310629
0.32105
0.331619
0.342363
0.353251
0.364311
0.375507
0.386868
0.398359
0.410005
0.421772
0.433682
0.445701
0.457849
0.470092
0.48245
0.494885
0.507418
0.52001
0.53268
0.545388
0.558151
0.570931
0.58374
0.596542
0.609347
0.622118
0.634861
0.64754
0.660157
0.672673
0.685086
0.697354
0.709469
0.72139
0.733101
0.74457
0.755784
0.766757
0.777575
0.788151
0.798469
0.808513
0.818278
0.827741
0.836891
0.845708
0.854179
0.862285
0.870015
0.877353
0.884285
0.890798
0.896879
0.902517
0.907698
0.912418
0.916661
0.920427
0.923703
0.926492
0.928784
0.930586
0.931891
0.932708
0.933036
0.932887
0.93225
0.93106
0.929396
0.927391
0.924916
0.921961
0.918606
0.914849
0.910711
0.906213
0.901378
0.896224
0.890784
0.885074
0.879136
0.872984
0.866673
0.860233
0.853714
0.847154
0.840588
0.834046
0.827547
0.821122
0.814796
0.808585
0.802529
0.796627
0.790915
0.7854
0.780103
0.775048
0.770252
0.765712
0.761434
0.757412
0.753631
0.750083
0.746756
0.743632
0.740666
0.737832
0.735076
0.732338
0.729601
0.727125
0.727404
0.729507
0.731713
0.733731
0.73548
0.736922
0.738114
0.738616
0.738283
0.73698
0.734205
0.728843
0.699782
0.00726742
0.0237295
0.0343329
0.042588
0.0501361
0.0576905
0.0654962
0.0735828
0.0818526
0.0901623
0.0983537
0.106295
0.11388
0.121052
0.127799
0.134166
0.140249
0.146191
0.152128
0.158134
0.164156
0.16998
0.175208
0.179433
0.182574
0.185015
0.187864
0.193942
0.201255
0.209797
0.219638
0.230298
0.24135
0.253316
0.267456
0.284075
0.295181
0.307672
0.320301
0.333497
0.347064
0.360982
0.375226
0.389789
0.404662
0.41985
0.435347
0.451162
0.467289
0.48374
0.500509
0.517606
0.535025
0.552777
0.570856
0.589271
0.608014
0.627095
0.646504
0.666247
0.686317
0.706716
0.727435
0.748478
0.769831
0.791496
0.813457
0.835716
0.858256
0.881073
0.904151
0.927485
0.951055
0.974854
0.99886
1.02306
1.04744
1.07198
1.09666
1.12146
1.14636
1.17133
1.19636
1.22141
1.24645
1.27146
1.2964
1.32123
1.34592
1.37041
1.39466
1.41859
1.44211
1.46515
1.48782
1.51016
1.53213
1.55371
1.57487
1.59556
1.61576
1.63543
1.65453
1.67304
1.69091
1.70812
1.72462
1.74039
1.7554
1.76961
1.783
1.79555
1.80722
1.818
1.82787
1.83682
1.84483
1.8519
1.85801
1.86318
1.86741
1.87072
1.87291
1.87401
1.87442
1.87399
1.87254
1.87022
1.86706
1.86309
1.85836
1.85288
1.84673
1.83993
1.83255
1.82464
1.81625
1.80744
1.79829
1.78888
1.7793
1.7696
1.75986
1.75013
1.74047
1.73093
1.72158
1.71246
1.70364
1.69514
1.68702
1.67933
1.6721
1.66537
1.65916
1.65348
1.64836
1.64376
1.6397
1.63614
1.63304
1.63034
1.62799
1.6259
1.62398
1.62213
1.62031
1.61895
1.61769
1.61594
1.61343
1.60992
1.60523
1.59922
1.59165
1.58237
1.57109
1.55831
1.54241
1.50487
0.0143267
0.038306
0.0517881
0.0620065
0.0711182
0.0799019
0.0886921
0.0976069
0.106635
0.115703
0.124707
0.133554
0.142169
0.150517
0.1586
0.166473
0.174236
0.182027
0.189981
0.198198
0.206668
0.215287
0.223889
0.232384
0.240864
0.24964
0.259196
0.270038
0.281978
0.294946
0.308784
0.323231
0.338345
0.353963
0.370333
0.387087
0.40318
0.419594
0.436345
0.453521
0.471109
0.489099
0.507482
0.526254
0.54541
0.564953
0.58488
0.605196
0.625901
0.646997
0.668486
0.690372
0.712653
0.735333
0.75841
0.781888
0.805763
0.830035
0.854702
0.879763
0.905211
0.931044
0.957256
0.983842
1.01079
1.0381
1.06576
1.09376
1.12208
1.15072
1.17966
1.20888
1.23838
1.26813
1.29811
1.32832
1.35871
1.38929
1.42001
1.45086
1.48181
1.51284
1.54391
1.575
1.60607
1.63709
1.66802
1.69884
1.72949
1.75995
1.79017
1.82011
1.84974
1.87903
1.90795
1.93648
1.96458
1.99219
2.01929
2.04581
2.07173
2.09699
2.12155
2.14537
2.16839
2.19058
2.2119
2.2323
2.25174
2.27018
2.28759
2.30393
2.31917
2.33328
2.34624
2.35804
2.36864
2.37804
2.38623
2.39321
2.39897
2.40354
2.40689
2.40887
2.40964
2.40944
2.408
2.40544
2.40181
2.39713
2.39146
2.38484
2.37733
2.36899
2.35988
2.35007
2.33963
2.32864
2.31718
2.30535
2.29324
2.28093
2.26851
2.25604
2.2436
2.23127
2.21911
2.20719
2.19557
2.18432
2.17348
2.16311
2.15326
2.14396
2.13524
2.12713
2.11962
2.11271
2.10639
2.10063
2.09536
2.09052
2.08604
2.08181
2.07773
2.07363
2.0694
2.06512
2.06048
2.05512
2.04879
2.04126
2.03231
2.02181
2.0096
1.9956
1.97974
1.96275
1.94348
1.91127
0.0216735
0.0516104
0.0677833
0.0797403
0.090134
0.099917
0.10952
0.119137
0.128829
0.138582
0.148345
0.15806
0.16768
0.177188
0.186596
0.19596
0.205369
0.21494
0.224789
0.235001
0.245605
0.256577
0.26786
0.279429
0.291336
0.303715
0.316735
0.330532
0.345117
0.360468
0.376522
0.393206
0.410482
0.428281
0.446598
0.465316
0.484271
0.503561
0.523223
0.543291
0.563779
0.584696
0.606042
0.62782
0.650033
0.672681
0.695768
0.719295
0.743266
0.767683
0.792549
0.817866
0.843635
0.869859
0.896537
0.923671
0.951258
0.979299
1.00779
1.03673
1.06611
1.09594
1.1262
1.15688
1.18798
1.21949
1.2514
1.2837
1.31638
1.34942
1.3828
1.41651
1.45054
1.48486
1.51945
1.5543
1.58937
1.62465
1.6601
1.69571
1.73144
1.76726
1.80314
1.83905
1.87496
1.91082
1.94661
1.98229
2.01781
2.05314
2.08825
2.12309
2.15761
2.19178
2.22556
2.25889
2.29174
2.32404
2.35575
2.38683
2.41721
2.44684
2.47567
2.50366
2.53074
2.55687
2.58199
2.60606
2.62903
2.65085
2.67148
2.69088
2.70901
2.72584
2.74133
2.75546
2.76821
2.77957
2.78951
2.79804
2.80515
2.81085
2.81516
2.81797
2.81921
2.81928
2.81792
2.81527
2.81133
2.80616
2.79979
2.79229
2.78372
2.77415
2.76364
2.75227
2.74012
2.72728
2.71384
2.69991
2.68558
2.67095
2.6561
2.64113
2.62611
2.61113
2.59627
2.58161
2.56722
2.55316
2.5395
2.52629
2.51359
2.50145
2.48988
2.47892
2.46858
2.45885
2.44972
2.44115
2.43308
2.42544
2.41814
2.41106
2.40405
2.39697
2.38968
2.3821
2.37399
2.36506
2.35508
2.34383
2.33113
2.31685
2.30089
2.28328
2.26412
2.2442
2.22273
2.19338
0.02875
0.0637882
0.0824335
0.0960252
0.107621
0.118327
0.128666
0.138905
0.149167
0.159498
0.169895
0.18034
0.190812
0.201307
0.211844
0.222469
0.233254
0.244288
0.25566
0.267448
0.279693
0.292409
0.305588
0.319225
0.333339
0.347978
0.363202
0.379062
0.395578
0.412754
0.430566
0.448986
0.46798
0.487522
0.507588
0.528137
0.549119
0.57053
0.592374
0.614664
0.63741
0.66062
0.6843
0.708457
0.733093
0.758214
0.783825
0.809928
0.836529
0.86363
0.891236
0.919349
0.947973
0.977108
1.00676
1.03692
1.0676
1.09879
1.1305
1.16271
1.19543
1.22865
1.26236
1.29657
1.33125
1.36641
1.40202
1.43808
1.47458
1.51149
1.54881
1.58651
1.62457
1.66298
1.70171
1.74074
1.78004
1.81959
1.85935
1.8993
1.93941
1.97963
2.01995
2.06032
2.1007
2.14106
2.18136
2.22156
2.26161
2.30148
2.34112
2.38048
2.41952
2.45818
2.4964
2.53415
2.57137
2.60799
2.64397
2.67924
2.71375
2.74744
2.78025
2.81212
2.843
2.87282
2.90152
2.92906
2.95537
2.9804
3.00411
3.02644
3.04735
3.06681
3.08476
3.10119
3.11607
3.12937
3.14108
3.15119
3.15969
3.16659
3.17188
3.17557
3.17745
3.17787
3.17673
3.17409
3.16997
3.16442
3.15748
3.14922
3.1397
3.12898
3.11716
3.1043
3.09051
3.07586
3.06047
3.04443
3.02785
3.01084
2.99348
2.97588
2.95813
2.94033
2.92255
2.90489
2.88742
2.87021
2.85335
2.83689
2.8209
2.80541
2.79048
2.77613
2.76237
2.74921
2.73664
2.72461
2.71309
2.70198
2.69121
2.68064
2.67015
2.65958
2.64878
2.63763
2.6259
2.61336
2.59979
2.585
2.56884
2.55118
2.53201
2.51139
2.48955
2.46727
2.44394
2.41536
0.0353514
0.0747046
0.0955687
0.110671
0.123395
0.134971
0.146002
0.156812
0.167578
0.178395
0.189306
0.200327
0.211465
0.222731
0.234147
0.245754
0.257607
0.269774
0.282325
0.295323
0.308814
0.322826
0.337369
0.352452
0.368082
0.384278
0.401059
0.418448
0.436455
0.455082
0.474322
0.494162
0.514585
0.535576
0.557116
0.579186
0.601764
0.62484
0.648411
0.672482
0.697057
0.722142
0.747746
0.773873
0.800531
0.827726
0.855463
0.883749
0.912588
0.941988
0.971951
1.00248
1.03359
1.06527
1.09753
1.13037
1.16379
1.19779
1.23237
1.26754
1.30328
1.33959
1.37647
1.4139
1.45189
1.49042
1.52948
1.56905
1.60913
1.64969
1.69072
1.7322
1.77411
1.81642
1.85912
1.90216
1.94553
1.98919
2.03312
2.07728
2.12163
2.16614
2.21077
2.25548
2.30024
2.34499
2.3897
2.43432
2.4788
2.52309
2.56715
2.61092
2.65435
2.69737
2.73993
2.78198
2.82345
2.86429
2.90443
2.94381
2.98236
3.02002
3.05674
3.09243
3.12704
3.1605
3.19274
3.22371
3.25335
3.28158
3.30837
3.33364
3.35736
3.37947
3.39993
3.4187
3.43576
3.45107
3.46462
3.47638
3.48635
3.49452
3.5009
3.50549
3.50814
3.509
3.50817
3.50563
3.50141
3.49554
3.48808
3.4791
3.46865
3.45682
3.44368
3.42932
3.41383
3.39731
3.37987
3.36161
3.34265
3.32309
3.30304
3.28259
3.26186
3.24094
3.21992
3.19891
3.17798
3.15723
3.13672
3.11654
3.09674
3.07739
3.05854
3.04022
3.02245
3.00525
2.98861
2.97251
2.9569
2.94172
2.9269
2.91232
2.89786
2.88338
2.86873
2.85378
2.83831
2.82213
2.80504
2.78686
2.76748
2.74679
2.72479
2.70162
2.67754
2.65326
2.62825
2.59932
0.0413195
0.0842578
0.107053
0.123502
0.137252
0.149634
0.161309
0.172646
0.183864
0.195098
0.206427
0.217899
0.229545
0.241394
0.253473
0.265822
0.278486
0.291518
0.304972
0.3189
0.333344
0.348335
0.363892
0.380027
0.396748
0.414065
0.431984
0.450514
0.469659
0.48942
0.509793
0.530772
0.552348
0.574512
0.597254
0.620564
0.644433
0.668855
0.693827
0.719353
0.745435
0.772081
0.799297
0.827092
0.855471
0.884444
0.914018
0.944201
0.975
1.00642
1.03847
1.07116
1.10449
1.13847
1.1731
1.20838
1.24432
1.28092
1.31818
1.35609
1.39466
1.43389
1.47376
1.51427
1.55541
1.59717
1.63955
1.68252
1.72606
1.77017
1.81483
1.86
1.90568
1.95182
1.99841
2.04542
2.09281
2.14055
2.1886
2.23693
2.2855
2.33427
2.3832
2.43224
2.48134
2.53046
2.57955
2.62857
2.67744
2.72613
2.77458
2.82272
2.8705
2.91784
2.9647
3.01101
3.05671
3.10172
3.14598
3.18943
3.232
3.2736
3.31419
3.35368
3.392
3.42908
3.46486
3.49926
3.53222
3.56367
3.59355
3.62179
3.64833
3.67313
3.69614
3.7173
3.73659
3.75396
3.7694
3.78288
3.79438
3.80389
3.81142
3.81697
3.82044
3.82185
3.82138
3.81899
3.81471
3.80856
3.80061
3.79091
3.77954
3.76657
3.75208
3.73616
3.71891
3.70043
3.68083
3.66022
3.63872
3.61643
3.59346
3.56993
3.54595
3.52163
3.49706
3.47235
3.4476
3.42289
3.39831
3.37395
3.34988
3.32617
3.30287
3.28004
3.25771
3.2359
3.21463
3.19389
3.17366
3.15389
3.13453
3.11549
3.09666
3.07793
3.05916
3.04022
3.02092
3.00108
2.98054
2.95913
2.93675
2.91332
2.88886
2.86351
2.83755
2.81159
2.78507
2.75564
0.0465409
0.0923889
0.116811
0.134414
0.149059
0.162161
0.174421
0.18624
0.197867
0.209465
0.221142
0.232974
0.245013
0.2573
0.269875
0.282776
0.296043
0.309722
0.323856
0.338486
0.353649
0.369373
0.38568
0.402584
0.420095
0.43822
0.456963
0.476329
0.496319
0.516934
0.538173
0.560033
0.58251
0.6056
0.6293
0.653606
0.678514
0.704026
0.73014
0.756861
0.784195
0.812148
0.840729
0.869947
0.89981
0.93033
0.961514
0.993373
1.02592
1.05916
1.0931
1.12775
1.16312
1.19921
1.23604
1.27361
1.31191
1.35096
1.39076
1.4313
1.47259
1.51462
1.55739
1.60088
1.6451
1.69002
1.73565
1.78195
1.82892
1.87654
1.92479
1.97363
2.02305
2.07301
2.12349
2.17445
2.22586
2.27767
2.32985
2.38237
2.43516
2.48819
2.54142
2.59478
2.64823
2.70172
2.75519
2.80858
2.86184
2.91491
2.96771
3.0202
3.0723
3.12394
3.17505
3.22558
3.27545
3.32459
3.37293
3.42039
3.46691
3.51241
3.55681
3.60004
3.64203
3.68269
3.72195
3.75974
3.79599
3.83061
3.86355
3.89474
3.9241
3.95158
3.97713
4.00069
4.02221
4.04166
4.05901
4.07423
4.08729
4.09818
4.10689
4.11343
4.11773
4.11975
4.11969
4.11748
4.11316
4.10675
4.09831
4.0879
4.0756
4.06147
4.0456
4.02807
4.009
3.98847
3.96661
3.94352
3.91933
3.89415
3.86809
3.84128
3.81382
3.78584
3.75744
3.72874
3.69983
3.67081
3.64179
3.61285
3.58408
3.55556
3.52736
3.49955
3.47218
3.44529
3.41891
3.39307
3.36776
3.34297
3.31867
3.2948
3.27129
3.24805
3.22495
3.20189
3.1787
3.15522
3.13131
3.10683
3.08168
3.0558
3.0292
3.00203
2.97451
2.94716
2.91937
2.88934
0.0509457
0.0990851
0.124827
0.14338
0.158779
0.172502
0.185275
0.197522
0.209513
0.221432
0.233406
0.245531
0.257875
0.270494
0.283434
0.296736
0.310441
0.324588
0.339212
0.354349
0.37003
0.38628
0.40312
0.420567
0.43863
0.457319
0.476637
0.496591
0.517182
0.538413
0.560286
0.5828
0.605956
0.629755
0.654197
0.679285
0.70502
0.731406
0.758448
0.786151
0.814524
0.843577
0.873319
0.903761
0.934916
0.966794
0.999409
1.03277
1.06689
1.10179
1.13746
1.17394
1.21121
1.2493
1.2882
1.32794
1.36851
1.40992
1.45217
1.49527
1.5392
1.58397
1.62958
1.67602
1.72327
1.77133
1.82019
1.86981
1.9202
1.97132
2.02315
2.07567
2.12884
2.18263
2.23701
2.29194
2.34737
2.40328
2.4596
2.5163
2.57333
2.63063
2.68814
2.74583
2.80362
2.86145
2.91927
2.97702
3.03462
3.09201
3.14912
3.20589
3.26224
3.3181
3.37339
3.42805
3.482
3.53516
3.58747
3.63884
3.6892
3.73847
3.78657
3.83342
3.87894
3.92306
3.96569
4.00675
4.04617
4.08387
4.11978
4.15381
4.18591
4.216
4.24402
4.26991
4.29362
4.31511
4.33434
4.35126
4.36586
4.37812
4.38801
4.39553
4.40066
4.40332
4.40367
4.40167
4.39731
4.39065
4.38172
4.3706
4.35736
4.34206
4.32478
4.30562
4.28467
4.26205
4.23786
4.21221
4.18523
4.15704
4.12776
4.0975
4.0664
4.03457
4.00212
3.96918
3.93585
3.90225
3.86848
3.83464
3.80084
3.76716
3.73369
3.70052
3.66773
3.63538
3.60352
3.5722
3.54146
3.51131
3.48176
3.45278
3.42434
3.39637
3.3688
3.34153
3.31442
3.28734
3.26017
3.23278
3.20508
3.17701
3.14858
3.1199
3.09116
3.06272
3.03394
3.0034
0.0545017
0.104378
0.131147
0.150453
0.166461
0.180694
0.1939
0.206515
0.218822
0.231017
0.243242
0.255605
0.268185
0.281049
0.29425
0.307832
0.321836
0.336299
0.351253
0.366728
0.382752
0.399349
0.416539
0.434338
0.452758
0.47181
0.491502
0.51184
0.532829
0.554476
0.576784
0.599758
0.623402
0.647722
0.672722
0.69841
0.72479
0.751871
0.779661
0.808171
0.837411
0.867395
0.898135
0.929644
0.961938
0.995032
1.02894
1.06367
1.09925
1.13569
1.17299
1.21119
1.25027
1.29027
1.33119
1.37303
1.41581
1.45953
1.50419
1.5498
1.59636
1.64386
1.6923
1.74167
1.79196
1.84316
1.89525
1.94822
2.00203
2.05667
2.11211
2.16832
2.22526
2.2829
2.3412
2.40011
2.45958
2.51958
2.58005
2.64093
2.70217
2.76372
2.8255
2.88746
2.94954
3.01166
3.07377
3.13578
3.19763
3.25925
3.32056
3.38149
3.44195
3.50188
3.5612
3.61982
3.67768
3.73469
3.79078
3.84586
3.89985
3.95268
4.00426
4.05452
4.10337
4.15072
4.19651
4.24064
4.28303
4.3236
4.36228
4.39899
4.43365
4.46618
4.49653
4.52462
4.5504
4.57381
4.59481
4.61337
4.62943
4.64299
4.65401
4.66248
4.66838
4.67168
4.67243
4.67064
4.66625
4.65932
4.64991
4.63808
4.6239
4.60742
4.58874
4.56793
4.54511
4.52036
4.49381
4.46557
4.43575
4.40449
4.3719
4.33811
4.30325
4.26744
4.2308
4.19347
4.15555
4.11717
4.07844
4.03948
4.0004
3.96131
3.92232
3.88353
3.84504
3.80694
3.76933
3.73227
3.69583
3.66008
3.62504
3.59075
3.5572
3.52438
3.49223
3.46069
3.42967
3.39905
3.36872
3.33859
3.30855
3.27856
3.24859
3.21872
3.18905
3.15986
3.13042
3.09962
0.0572132
0.10834
0.135869
0.155741
0.172215
0.186849
0.2004
0.213315
0.225882
0.238305
0.250732
0.263279
0.276034
0.28907
0.302443
0.316202
0.330389
0.34504
0.360186
0.375856
0.392075
0.408866
0.426248
0.444239
0.462853
0.482103
0.502
0.522554
0.543775
0.565671
0.588252
0.611525
0.6355
0.660187
0.685594
0.711732
0.738612
0.766245
0.794644
0.823825
0.853802
0.884591
0.91621
0.948675
0.982004
1.01621
1.05132
1.08735
1.12431
1.16223
1.20111
1.24098
1.28184
1.32372
1.36662
1.41055
1.45553
1.50157
1.54865
1.59679
1.646
1.69625
1.74755
1.79989
1.85326
1.90763
1.963
2.01934
2.07662
2.13482
2.1939
2.25382
2.31456
2.37606
2.43828
2.50117
2.56468
2.62875
2.69332
2.75835
2.82375
2.88947
2.95544
3.02158
3.08784
3.15413
3.22037
3.2865
3.35243
3.41809
3.4834
3.54828
3.61264
3.6764
3.73949
3.80181
3.8633
3.92387
3.98344
4.04192
4.09924
4.15532
4.21006
4.2634
4.31524
4.36551
4.41412
4.461
4.50605
4.54919
4.59036
4.62945
4.6664
4.70113
4.73356
4.76363
4.79127
4.81642
4.83903
4.85906
4.87646
4.8912
4.90325
4.91259
4.91921
4.92307
4.92419
4.92261
4.91817
4.91096
4.90106
4.88853
4.87341
4.85578
4.83571
4.81328
4.78859
4.76174
4.73284
4.70201
4.66935
4.63501
4.5991
4.56176
4.5231
4.48327
4.44239
4.40059
4.35799
4.31474
4.27094
4.22674
4.18226
4.13762
4.09296
4.04839
4.00404
3.96004
3.9165
3.87353
3.83124
3.78972
3.74906
3.70932
3.67056
3.6328
3.59603
3.56022
3.5253
3.49121
3.45785
3.42512
3.39296
3.36128
3.33006
3.29929
3.26903
3.23941
3.20969
3.17898
0.0591194
0.111083
0.139126
0.159394
0.1762
0.191124
0.204931
0.218071
0.230834
0.243427
0.256002
0.268678
0.281549
0.29469
0.308161
0.322013
0.336288
0.351021
0.366244
0.381986
0.398272
0.415126
0.432568
0.450617
0.46929
0.488603
0.508572
0.529211
0.550532
0.572551
0.595279
0.618731
0.642918
0.667856
0.693559
0.72004
0.747316
0.775404
0.804321
0.834088
0.864724
0.896249
0.928684
0.962051
0.996371
1.03166
1.06795
1.10525
1.14359
1.18299
1.22346
1.26502
1.30769
1.35149
1.39642
1.4425
1.48974
1.53815
1.58773
1.63848
1.6904
1.74348
1.79772
1.8531
1.90962
1.96724
2.02595
2.08572
2.14652
2.20831
2.27106
2.33473
2.39927
2.46463
2.53075
2.59759
2.66507
2.73315
2.80175
2.87081
2.94025
3.01001
3.08
3.15015
3.22038
3.29061
3.36076
3.43075
3.50048
3.56989
3.63888
3.70738
3.77528
3.84252
3.909
3.97464
4.03935
4.10306
4.16569
4.22714
4.28734
4.34621
4.40367
4.45963
4.51402
4.56675
4.61774
4.66692
4.7142
4.7595
4.80273
4.84382
4.88269
4.91926
4.95344
4.98517
5.01438
5.041
5.06498
5.08626
5.1048
5.12055
5.13349
5.14359
5.15082
5.15516
5.15659
5.15517
5.15066
5.14315
5.13276
5.11953
5.10351
5.08476
5.06333
5.03933
5.01282
4.98392
4.95272
4.91935
4.88392
4.84655
4.80737
4.76651
4.72411
4.68029
4.63519
4.58894
4.54169
4.49356
4.4447
4.39525
4.34534
4.29513
4.24475
4.19436
4.1441
4.09414
4.04461
3.99567
3.94747
3.90013
3.85379
3.80857
3.76456
3.72184
3.68045
3.64039
3.60166
3.56418
3.52791
3.49277
3.45869
3.42557
3.39336
3.362
3.33146
3.30177
3.27215
3.24196
0.0602989
0.112741
0.141074
0.161583
0.178596
0.193705
0.207677
0.220962
0.233852
0.246553
0.25922
0.271971
0.2849
0.298082
0.311579
0.325444
0.339718
0.354441
0.369645
0.385359
0.40161
0.418423
0.435821
0.453825
0.472458
0.491738
0.511685
0.532318
0.553655
0.575715
0.598517
0.622078
0.646415
0.671547
0.69749
0.724263
0.751889
0.780395
0.809803
0.84014
0.871429
0.903696
0.936965
0.971262
1.00661
1.04304
1.08057
1.11922
1.15902
1.19999
1.24216
1.28553
1.33013
1.37597
1.42307
1.47144
1.52109
1.57202
1.62423
1.67773
1.73251
1.78856
1.84587
1.90442
1.9642
2.02516
2.0873
2.15057
2.21495
2.28037
2.34681
2.41421
2.48252
2.55169
2.62164
2.69232
2.76367
2.8356
2.90805
2.98094
3.05419
3.12772
3.20145
3.2753
3.34917
3.42299
3.49667
3.57011
3.64322
3.71593
3.78814
3.85977
3.93072
4.00091
4.07025
4.13865
4.20604
4.27232
4.33743
4.40126
4.46376
4.52483
4.5844
4.64239
4.69872
4.75333
4.80613
4.85704
4.90598
4.95289
4.99767
5.04025
5.08056
5.1185
5.154
5.18699
5.2174
5.24514
5.27017
5.29242
5.31184
5.32839
5.34202
5.35271
5.36042
5.36512
5.36679
5.36547
5.36087
5.35303
5.34214
5.32823
5.31134
5.29151
5.2688
5.24329
5.21505
5.18419
5.1508
5.115
5.0769
5.03662
4.99429
4.95003
4.90399
4.8563
4.80709
4.75651
4.70471
4.65181
4.59798
4.54337
4.48812
4.43241
4.3764
4.32025
4.26415
4.20828
4.15282
4.09796
4.04388
3.99076
3.93878
3.88811
3.8389
3.79127
3.74533
3.70111
3.65864
3.61792
3.57889
3.54152
3.50572
3.47142
3.43849
3.40684
3.37634
3.34695
3.31784
3.28862
0.0607261
0.113338
0.141841
0.162475
0.179591
0.194788
0.208839
0.222193
0.23514
0.247884
0.260577
0.273337
0.286258
0.299416
0.312873
0.326682
0.340888
0.355529
0.370641
0.386254
0.402398
0.4191
0.436388
0.454288
0.472824
0.492021
0.511904
0.532498
0.553827
0.575916
0.598787
0.622461
0.646961
0.672308
0.698518
0.725607
0.753622
0.7826
0.81257
0.843562
0.875606
0.908733
0.942972
0.978349
1.01489
1.05263
1.0916
1.13181
1.17329
1.21607
1.26016
1.30559
1.35237
1.40052
1.45005
1.50096
1.55327
1.60697
1.66207
1.71855
1.77641
1.83563
1.89619
1.95807
2.02124
2.08567
2.15132
2.21815
2.28612
2.35518
2.42526
2.49633
2.5683
2.64112
2.71473
2.78904
2.86398
2.93947
3.01544
3.0918
3.16846
3.24534
3.32235
3.39941
3.47641
3.55326
3.62989
3.70618
3.78206
3.85742
3.93219
4.00627
4.07956
4.15199
4.22347
4.2939
4.36321
4.43132
4.49814
4.5636
4.62763
4.69015
4.75108
4.81035
4.86789
4.92364
4.97752
5.02946
5.07939
5.12724
5.17293
5.21638
5.25753
5.2963
5.3326
5.36636
5.3975
5.42596
5.45165
5.47453
5.49453
5.5116
5.52569
5.53677
5.5448
5.54973
5.55153
5.55026
5.54552
5.53733
5.52595
5.51139
5.49367
5.47284
5.44893
5.42202
5.39218
5.35949
5.32405
5.28598
5.24537
5.20235
5.15705
5.10959
5.06011
5.00874
4.95562
4.9009
4.84473
4.78726
4.72865
4.66907
4.60867
4.54765
4.48618
4.42445
4.36267
4.30105
4.23982
4.17919
4.11938
4.06063
4.00315
3.94717
3.89288
3.84048
3.78998
3.74161
3.69546
3.65155
3.60989
3.57046
3.53319
3.49797
3.46467
3.43312
3.4031
3.37448
3.34639
3.31875
0.0606209
0.113167
0.141645
0.162272
0.179384
0.194578
0.208623
0.221964
0.234892
0.247609
0.260267
0.272984
0.285851
0.298944
0.312325
0.326047
0.340156
0.354693
0.369693
0.385191
0.401219
0.417809
0.434991
0.452797
0.471256
0.490394
0.510241
0.530832
0.552195
0.574364
0.597365
0.621225
0.645975
0.671647
0.698257
0.725815
0.754404
0.784059
0.814816
0.846712
0.879784
0.914071
0.949599
0.986398
1.0245
1.06392
1.10471
1.14689
1.19048
1.23549
1.28195
1.32988
1.37928
1.43016
1.48253
1.5364
1.59176
1.64861
1.70693
1.76671
1.82793
1.89056
1.95459
2.01997
2.08666
2.15463
2.22383
2.2942
2.3657
2.43826
2.51183
2.58632
2.66169
2.73784
2.81471
2.89222
2.97029
3.04882
3.12774
3.20696
3.28639
3.36593
3.44549
3.52499
3.60433
3.68341
3.76214
3.84042
3.91817
3.99529
4.07169
4.14729
4.22199
4.29571
4.36836
4.43987
4.51014
4.57911
4.6467
4.71285
4.77746
4.84049
4.90186
4.9615
5.01936
5.07538
5.12949
5.18164
5.23175
5.27976
5.32562
5.36924
5.41056
5.4495
5.48599
5.51996
5.55133
5.58001
5.60595
5.62906
5.64929
5.66658
5.68087
5.69213
5.70029
5.70532
5.70715
5.70587
5.70094
5.6924
5.68054
5.66538
5.64692
5.62517
5.60019
5.57203
5.54074
5.50641
5.46912
5.42899
5.3861
5.34059
5.29256
5.24215
5.18948
5.1347
5.07794
5.01936
4.95911
4.89735
4.83424
4.76997
4.70471
4.63865
4.572
4.50497
4.43778
4.37069
4.30395
4.2378
4.17241
4.10811
4.04519
3.98393
3.92463
3.8675
3.81285
3.76081
3.71142
3.66475
3.62086
3.57972
3.54129
3.50546
3.47206
3.44087
3.4116
3.38402
3.35727
3.33153
0.0601456
0.11252
0.140781
0.161276
0.178275
0.193363
0.207306
0.220547
0.233373
0.245987
0.258537
0.27114
0.283885
0.296849
0.310093
0.323673
0.337637
0.352027
0.366884
0.382246
0.39815
0.414635
0.431739
0.449501
0.467961
0.487156
0.507123
0.5279
0.549528
0.57206
0.595507
0.619904
0.645288
0.671693
0.699093
0.727586
0.757248
0.788127
0.820263
0.853694
0.888454
0.924571
0.962081
1.00101
1.0414
1.08327
1.12666
1.1716
1.2181
1.26616
1.31578
1.36698
1.41976
1.47411
1.53003
1.58751
1.64654
1.70709
1.76914
1.83266
1.89761
1.96397
2.03169
2.10072
2.17102
2.24253
2.31519
2.38894
2.46373
2.53948
2.61612
2.69358
2.77179
2.85066
2.93012
3.01008
3.09047
3.17118
3.25215
3.33326
3.41444
3.4956
3.57663
3.65746
3.73798
3.81811
3.89776
3.97682
4.05522
4.13285
4.20965
4.28551
4.36037
4.43413
4.50672
4.57806
4.64807
4.7167
4.78386
4.8495
4.91355
4.97595
5.03664
5.09557
5.15268
5.20793
5.26127
5.31265
5.362
5.40928
5.45443
5.4974
5.53811
5.5765
5.6125
5.64603
5.67703
5.7054
5.73108
5.75399
5.77406
5.79124
5.80544
5.81661
5.82471
5.82969
5.83144
5.83007
5.8249
5.816
5.80369
5.78797
5.76883
5.74628
5.72035
5.69108
5.65851
5.62272
5.58379
5.54181
5.49688
5.44911
5.39861
5.34551
5.28994
5.23203
5.17192
5.10977
5.04573
4.97997
4.91267
4.84401
4.77418
4.7033
4.63166
4.55949
4.48705
4.41464
4.34253
4.27102
4.20056
4.13135
4.06365
3.99781
3.93416
3.87297
3.81459
3.75904
3.70657
3.65734
3.61141
3.56881
3.52951
3.49339
3.46024
3.42983
3.40175
3.37572
3.35081
3.32759
0.0592488
0.111047
0.138963
0.159219
0.176006
0.190896
0.204652
0.217719
0.230383
0.242847
0.25526
0.267736
0.280363
0.293218
0.306366
0.319865
0.333767
0.348121
0.362975
0.378376
0.394367
0.410994
0.428305
0.446354
0.465206
0.484882
0.505423
0.526878
0.549287
0.572671
0.597051
0.622515
0.649126
0.676944
0.706037
0.73645
0.768235
0.80144
0.836107
0.872271
0.909963
0.949208
0.990032
1.03245
1.07649
1.12217
1.16948
1.21844
1.26903
1.32126
1.3751
1.43056
1.48761
1.54622
1.60638
1.66805
1.7312
1.79579
1.86179
1.92914
1.99779
2.06771
2.13883
2.2111
2.28446
2.35886
2.43422
2.51048
2.58758
2.66545
2.74401
2.8232
2.90294
2.98315
3.06375
3.14467
3.22582
3.30712
3.38849
3.46984
3.55109
3.63216
3.71294
3.79337
3.87334
3.95279
4.03162
4.10975
4.18709
4.26357
4.33909
4.41358
4.48698
4.5592
4.63017
4.69983