/*--------------------------------*- C++ -*----------------------------------*\
  =========                 |
  \\      /  F ield         | OpenFOAM: The Open Source CFD Toolbox
   \\    /   O peration     | Website:  https://openfoam.org
    \\  /    A nd           | Version:  8
     \\/     M anipulation  |
\*---------------------------------------------------------------------------*/
FoamFile
{
    version     2.0;
    format      ascii;
    class       volScalarField;
    location    "195";
    object      nut;
}
// * * * * * * * * * * * * * * * * * * * * * * * * * * * * * * * * * * * * * //

dimensions      [0 2 -1 0 0 0 0];

internalField   nonuniform List<scalar> 
12225
(
4.14965e-05
3.93424e-05
3.74831e-05
3.54334e-05
3.37837e-05
3.24215e-05
3.1509e-05
3.09117e-05
3.09176e-05
3.10974e-05
3.15703e-05
3.21063e-05
3.31485e-05
3.38084e-05
3.51284e-05
3.56757e-05
3.74003e-05
3.66052e-05
0.000332337
0.000215215
0.000179283
0.000157678
0.000146209
0.000138211
0.000132724
0.000131671
0.00012949
0.000130083
0.000129031
0.000129457
0.000128644
0.000128571
0.00012808
0.00012741
0.000127418
0.000126493
0.000674975
0.000450834
0.00035578
0.000309837
0.000275283
0.000251102
0.000231697
0.000217284
0.00020265
0.000192137
0.000182595
0.000175211
0.000169356
0.000163666
0.000160284
0.000155535
0.000153777
0.000149818
0.000833619
0.000684907
0.000571985
0.000499975
0.000449449
0.000411967
0.000380753
0.000356015
0.000333981
0.000314789
0.000298297
0.000281713
0.00027028
0.000256044
0.000248167
0.00023612
0.000230333
0.000220394
0.000861256
0.000802527
0.000742124
0.00067659
0.000623987
0.000581386
0.000545849
0.000514564
0.000489498
0.00046443
0.000445838
0.000424059
0.000409911
0.000390776
0.000379843
0.000363049
0.000354406
0.000339442
0.00085498
0.000840347
0.000822202
0.000786501
0.000750853
0.000715906
0.000685749
0.000656132
0.000632536
0.000607511
0.000588982
0.000567231
0.000552261
0.000533069
0.000520742
0.000503685
0.000493242
0.000477422
0.000852907
0.000850686
0.000844239
0.000832829
0.000817407
0.000797003
0.000777882
0.000756735
0.000738894
0.000719139
0.000703523
0.000685607
0.000672105
0.000655899
0.000644275
0.000629494
0.000619459
0.000605102
0.000851922
0.000851814
0.000850172
0.000847396
0.000841452
0.000833727
0.000824895
0.000813414
0.000802804
0.000790466
0.000779709
0.00076753
0.000757412
0.000745767
0.000736517
0.000725502
0.000717117
0.000706003
0.00085175
0.000851542
0.000851034
0.000850339
0.00084888
0.000846167
0.000843034
0.000838304
0.000833401
0.000827358
0.000821213
0.000814767
0.000808402
0.000801516
0.000795227
0.000788401
0.000782149
0.000775234
0.000851769
0.00085139
0.000851046
0.000850633
0.000850248
0.000849368
0.000848405
0.00084678
0.000844955
0.000842529
0.000839922
0.000836797
0.00083379
0.000830147
0.000826963
0.000822917
0.000819889
0.000815285
0.000851787
0.000851359
0.000851012
0.000850613
0.000850329
0.000849905
0.000849526
0.000848929
0.000848303
0.000847393
0.000846465
0.000845176
0.000843988
0.000842349
0.000840993
0.000839028
0.000837634
0.000835355
0.000851789
0.000851359
0.000850996
0.000850605
0.000850292
0.000849938
0.000849646
0.00084928
0.000848955
0.000848504
0.000848098
0.000847507
0.000846997
0.000846243
0.00084564
0.000844719
0.000844055
0.000842973
0.000851786
0.000851363
0.000850986
0.000850604
0.000850269
0.000849926
0.00084963
0.000849313
0.000849042
0.000848728
0.000848462
0.000848126
0.000847843
0.000847465
0.000847155
0.000846725
0.000846386
0.000845901
0.000851783
0.000851364
0.000850978
0.000850602
0.000850256
0.000849916
0.000849607
0.0008493
0.000849022
0.00084874
0.000848488
0.000848224
0.000847988
0.000847734
0.000847508
0.000847257
0.000847033
0.000846783
0.000851781
0.000851364
0.000850973
0.000850598
0.000850246
0.000849908
0.000849592
0.000849286
0.000849
0.000848723
0.000848463
0.000848211
0.000847975
0.000847745
0.000847528
0.000847316
0.000847115
0.000846919
0.00085178
0.000851363
0.000850969
0.000850594
0.000850239
0.000849901
0.00084958
0.000849275
0.000848984
0.000848707
0.000848443
0.000848191
0.000847951
0.000847721
0.000847503
0.000847293
0.000847093
0.000846902
0.000851779
0.000851362
0.000850967
0.000850591
0.000850234
0.000849895
0.000849572
0.000849265
0.000848973
0.000848694
0.000848429
0.000848175
0.000847933
0.000847702
0.000847481
0.000847269
0.000847068
0.000846875
0.000851779
0.000851362
0.000850965
0.000850588
0.000850231
0.00084989
0.000849567
0.000849259
0.000848965
0.000848685
0.000848418
0.000848163
0.00084792
0.000847687
0.000847465
0.000847252
0.000847049
0.000846855
0.000851779
0.000851362
0.000850965
0.000850588
0.00085023
0.000849889
0.000849565
0.000849256
0.000848962
0.000848682
0.000848414
0.000848158
0.000847914
0.00084768
0.000847457
0.000847244
0.000847039
0.000846844
0.000851779
0.000851362
0.000850966
0.000850589
0.000850231
0.000849891
0.000849567
0.000849259
0.000848965
0.000848685
0.000848417
0.000848162
0.000847917
0.000847684
0.00084746
0.000847246
0.000847041
0.000846845
0.000851779
0.000851363
0.000850967
0.000850592
0.000850235
0.000849897
0.000849573
0.000849267
0.000848973
0.000848694
0.000848424
0.000848169
0.00084792
0.000847684
0.000847451
0.000847231
0.000847013
0.000846806
0.000851778
0.000851366
0.000850968
0.000850599
0.00085024
0.000849907
0.00084958
0.000849274
0.000848965
0.000848671
0.000848365
0.000848072
0.000847757
0.000847456
0.000847123
0.000846812
0.000846457
0.000846136
0.000851777
0.000851374
0.000850971
0.000850615
0.000850241
0.000849889
0.000849478
0.000849054
0.00084853
0.000847978
0.000847301
0.000846605
0.000845767
0.00084494
0.000843955
0.00084303
0.000841918
0.00084094
0.000851802
0.000851411
0.00085097
0.000850549
0.000849861
0.000848967
0.000847607
0.00084598
0.000843904
0.000841636
0.000838955
0.000836215
0.000833117
0.000830114
0.000826763
0.00082368
0.000820185
0.000817178
0.000852138
0.000851404
0.000850234
0.000848252
0.000844472
0.000839356
0.000832712
0.000825763
0.000817914
0.000810001
0.000801616
0.000793628
0.000785332
0.000777707
0.000769744
0.000762701
0.000755124
0.000748796
0.000854143
0.000847719
0.000840125
0.000827122
0.000808708
0.000789647
0.000769973
0.000751418
0.000733305
0.000716896
0.000700934
0.000686781
0.000672831
0.000660672
0.00064838
0.000637942
0.000626955
0.000618022
0.00085497
0.000818337
0.000776229
0.000726634
0.00068494
0.000649857
0.00061846
0.000592023
0.000568382
0.000548312
0.000529689
0.000513994
0.000498751
0.000486018
0.000473204
0.00046271
0.000451625
0.000442807
0.000807487
0.00066688
0.00057055
0.000509855
0.000465649
0.000431195
0.000404133
0.000382502
0.000364194
0.000349068
0.000335941
0.000325079
0.000314481
0.000306249
0.000297964
0.00029137
0.000284283
0.000278934
0.000501854
0.000348405
0.00029269
0.000259175
0.000236323
0.000221177
0.000211544
0.000204016
0.00019848
0.00019506
0.000192218
0.000190368
0.000188582
0.000187439
0.000186164
0.000185474
0.000184554
0.000184142
7.27286e-05
7.02232e-05
6.79539e-05
6.56136e-05
6.33827e-05
6.12765e-05
5.94929e-05
5.79572e-05
5.67103e-05
5.57028e-05
5.49774e-05
5.44181e-05
5.41082e-05
5.38869e-05
5.38759e-05
5.39615e-05
5.4071e-05
5.43215e-05
5.35577e-07
1.17082e-05
2.07724e-05
2.9389e-05
3.84408e-05
4.80203e-05
5.81383e-05
6.87227e-05
7.95115e-05
9.02795e-05
0.000100742
0.000110755
0.000120182
0.000129065
0.000137484
0.000145684
0.000153889
0.000162653
0.000172484
0.000181588
0.000190008
0.000195778
0.00019865
0.000192572
0.000182606
0.000165413
3.25626e-05
3.26935e-05
3.34041e-05
3.52099e-05
3.7996e-05
4.07743e-05
4.39146e-05
4.49512e-05
5.07573e-05
0.000234947
4.59588e-05
4.97355e-05
5.01527e-05
5.14458e-05
5.25335e-05
5.36719e-05
5.47972e-05
5.59244e-05
5.70454e-05
5.81675e-05
5.92822e-05
6.03987e-05
6.15076e-05
6.26188e-05
6.37225e-05
6.48283e-05
6.59269e-05
6.70272e-05
6.81207e-05
6.92158e-05
7.0304e-05
7.13931e-05
7.24754e-05
7.35579e-05
7.46334e-05
7.57082e-05
7.67756e-05
7.78416e-05
7.88997e-05
7.99553e-05
8.10022e-05
8.20457e-05
8.30796e-05
8.41089e-05
8.51279e-05
8.6141e-05
8.71429e-05
8.81376e-05
8.912e-05
9.0094e-05
9.10545e-05
9.2005e-05
9.29412e-05
9.38659e-05
9.4775e-05
9.5671e-05
9.65502e-05
9.74145e-05
9.82602e-05
9.90888e-05
9.98967e-05
0.000100685
0.00010145
0.000102193
0.000102911
0.000103603
0.00010427
0.000104916
0.000105545
0.000106148
0.000106728
0.000107284
0.000107814
0.00010832
0.000108799
0.000109251
0.000109676
0.000110074
0.000110442
0.000110782
0.000111092
0.000111373
0.000111622
0.000111841
0.000112028
0.000112184
0.000112307
0.000112398
0.000112457
0.000112483
0.000112477
0.000112438
0.000112367
0.000112263
0.000112128
0.000111959
0.000111752
0.000111514
0.000111256
0.000110967
0.000110642
0.00011029
0.00010991
0.000109502
0.000109067
0.000108606
0.00010812
0.000107611
0.00010708
0.000106529
0.000105959
0.000105375
0.000104775
0.000104165
0.000103546
0.000102922
0.000102295
0.000101664
0.000101035
0.000100406
9.97788e-05
9.91602e-05
9.85426e-05
9.79301e-05
9.73212e-05
9.67245e-05
9.61443e-05
9.5586e-05
9.50463e-05
9.45294e-05
9.40334e-05
9.3557e-05
9.31002e-05
9.26645e-05
9.22534e-05
9.18669e-05
9.14992e-05
9.11515e-05
9.08184e-05
9.05303e-05
9.02251e-05
9.00486e-05
9.00333e-05
9.00413e-05
9.00465e-05
9.00463e-05
9.00228e-05
9.00576e-05
9.00614e-05
9.00133e-05
8.99483e-05
8.97875e-05
8.94306e-05
8.77751e-05
2.24903e-06
4.05266e-05
8.48466e-05
0.000115346
0.000135946
0.000151832
0.000165699
0.000178848
0.000191739
0.000204411
0.000216711
0.000228453
0.000239472
0.000249685
0.000259073
0.000267691
0.000275597
0.000282786
0.000288899
0.000292913
0.000293724
0.000289362
0.000277782
0.000257014
0.000227733
0.000192018
0.000154546
0.000156702
0.000164883
0.000176552
0.000191037
0.000207292
0.000224203
0.000243351
0.000269966
0.00030479
0.000274995
0.000285306
0.000291283
0.000298724
0.000306213
0.000313997
0.00032189
0.00032991
0.000338014
0.000346203
0.000354465
0.000362801
0.000371208
0.000379689
0.000388242
0.000396873
0.00040558
0.000414369
0.00042324
0.000432198
0.000441241
0.000450376
0.0004596
0.000468919
0.00047833
0.000487836
0.000497436
0.000507132
0.000516921
0.000526806
0.000536781
0.000546849
0.000557004
0.000567246
0.000577571
0.000587977
0.00059846
0.000609018
0.000619645
0.000630337
0.00064109
0.000651899
0.000662758
0.000673665
0.000684613
0.000695598
0.000706615
0.000717659
0.000728725
0.000739805
0.00075089
0.000761968
0.000773016
0.000784002
0.000794864
0.000805492
0.000815705
0.000825214
0.000834425
0.000843529
0.000852504
0.000861341
0.000870034
0.000878568
0.000886935
0.000895121
0.000903115
0.000910905
0.00091848
0.000925827
0.000932936
0.000939794
0.00094639
0.000952714
0.000958754
0.000964501
0.000969945
0.000975076
0.000979888
0.000984373
0.000988524
0.000992336
0.000995808
0.000998941
0.00100175
0.00100428
0.00100636
0.00100792
0.00100931
0.00101046
0.00101115
0.0010115
0.00101153
0.00101122
0.0010106
0.00100966
0.00100844
0.00100694
0.00100517
0.00100316
0.00100092
0.000998452
0.000995769
0.000992919
0.00098991
0.000986788
0.000983572
0.000980288
0.000976962
0.000973606
0.000970253
0.000966919
0.000963615
0.000960352
0.000957157
0.000954081
0.000951146
0.000948376
0.000945781
0.000943383
0.000941193
0.000939212
0.000937443
0.000935885
0.000934536
0.000933399
0.000932444
0.000931638
0.000930956
0.000930387
0.000929239
0.000926518
0.000922586
0.000918109
0.00091329
0.00090786
0.00090192
0.000895658
0.000889021
0.000881618
0.000873443
0.0008643
0.000852624
0.00082372
4.44207e-06
6.29298e-05
0.000129774
0.000180768
0.000218032
0.000245595
0.000267063
0.000284955
0.00030081
0.000315436
0.000329177
0.000342115
0.000354223
0.000365455
0.000375797
0.000385278
0.00039394
0.00040177
0.000408591
0.000413961
0.000417055
0.000416967
0.000412783
0.000404335
0.000392591
0.000380443
0.00037302
0.000382849
0.000399417
0.00041942
0.000441308
0.000463843
0.00048691
0.000509576
0.000531551
0.000549149
0.000556698
0.00057225
0.000587511
0.000603167
0.00061901
0.000635064
0.000651278
0.000667645
0.00068415
0.000700789
0.000717559
0.000734461
0.000751496
0.000768667
0.00078598
0.000803438
0.000821043
0.0008388
0.000856713
0.000874783
0.000893013
0.000911405
0.000929961
0.00094868
0.000967563
0.000986609
0.00100582
0.00102518
0.00104471
0.00106439
0.00108421
0.00110418
0.00112429
0.00114454
0.0011649
0.00118539
0.00120599
0.00122669
0.00124749
0.00126837
0.00128932
0.00131034
0.00133141
0.00135253
0.00137367
0.00139483
0.001416
0.00143716
0.00145829
0.00147937
0.00150038
0.00152128
0.00154204
0.00156259
0.00158287
0.00160278
0.00162224
0.00164121
0.00165989
0.00167833
0.0016965
0.00171439
0.00173197
0.00174923
0.00176614
0.00178267
0.0017988
0.00181452
0.00182979
0.00184459
0.0018589
0.0018727
0.00188597
0.00189867
0.0019108
0.00192233
0.00193324
0.00194352
0.00195315
0.0019621
0.00197038
0.00197797
0.00198486
0.00199106
0.00199656
0.00200137
0.00200574
0.00200899
0.00201153
0.00201363
0.00201488
0.00201543
0.00201529
0.00201449
0.00201304
0.00201095
0.00200826
0.00200499
0.00200118
0.00199685
0.00199203
0.00198676
0.00198106
0.001975
0.00196861
0.00196195
0.00195509
0.00194805
0.0019409
0.00193368
0.00192642
0.00191918
0.00191199
0.00190488
0.0018979
0.00189112
0.00188458
0.00187831
0.00187234
0.0018667
0.00186141
0.00185647
0.0018519
0.00184769
0.00184381
0.00184024
0.00183694
0.00183383
0.00183087
0.00182784
0.00182422
0.0018191
0.00181248
0.00180494
0.0017967
0.00178756
0.00177757
0.00176677
0.00175511
0.0017422
0.00172789
0.00171152
0.00169032
0.001643
6.72593e-06
7.99094e-05
0.00016373
0.000229774
0.000279379
0.000316717
0.000345615
0.000368952
0.000388717
0.000406173
0.000422046
0.000436715
0.000450365
0.000463104
0.000475041
0.00048633
0.000497172
0.000507779
0.000518303
0.000528734
0.000538847
0.000548249
0.000556525
0.000563565
0.000569918
0.000577098
0.000587493
0.000603405
0.000622684
0.000643937
0.000666367
0.000689463
0.000713049
0.000736564
0.000759482
0.000780998
0.000801204
0.000823068
0.000845316
0.000867836
0.000890542
0.000913424
0.000936477
0.000959698
0.000983087
0.00100664
0.00103037
0.00105427
0.00107835
0.00110261
0.00112706
0.0011517
0.00117655
0.0012016
0.00122686
0.00125233
0.00127801
0.00130391
0.00133001
0.00135633
0.00138286
0.0014096
0.00143654
0.00146368
0.00149101
0.00151853
0.00154623
0.0015741
0.00160214
0.00163033
0.00165867
0.00168713
0.00171572
0.00174442
0.00177321
0.00180208
0.00183101
0.00186
0.00188902
0.00191806
0.00194709
0.00197611
0.00200508
0.00203399
0.00206281
0.00209151
0.00212006
0.00214842
0.00217655
0.00220439
0.00223189
0.00225899
0.00228563
0.00231187
0.00233776
0.00236331
0.00238849
0.00241328
0.00243765
0.00246156
0.00248499
0.00250791
0.00253029
0.00255209
0.00257329
0.00259386
0.00261376
0.00263296
0.00265144
0.00266915
0.00268609
0.00270221
0.00271749
0.0027319
0.00274543
0.00275804
0.00276973
0.00278047
0.00279026
0.00279907
0.00280692
0.00281379
0.00282006
0.00282515
0.00282889
0.00283196
0.00283389
0.00283487
0.0028349
0.00283398
0.00283213
0.0028294
0.0028258
0.00282138
0.00281617
0.00281022
0.00280356
0.00279626
0.00278835
0.0027799
0.00277097
0.00276164
0.00275198
0.00274204
0.00273191
0.00272163
0.00271127
0.0027009
0.00269058
0.00268035
0.00267029
0.00266046
0.00265092
0.00264172
0.0026329
0.0026245
0.00261655
0.00260907
0.00260205
0.0025955
0.00258939
0.00258369
0.00257832
0.0025732
0.00256826
0.00256327
0.00255796
0.00255159
0.00254397
0.00253533
0.00252582
0.00251532
0.0025038
0.00249123
0.00247749
0.00246226
0.0024453
0.00242576
0.00240031
0.00234957
8.92598e-06
9.40499e-05
0.000191888
0.000270361
0.000330771
0.00037688
0.000412723
0.000441449
0.000465363
0.00048606
0.000504583
0.000521584
0.000537468
0.000552512
0.00056695
0.000581031
0.000595035
0.000609259
0.000623966
0.00063932
0.00065534
0.000671899
0.000688801
0.000705903
0.000723284
0.000741384
0.000760891
0.000782251
0.000805129
0.00082917
0.000854127
0.000879802
0.000906075
0.000932773
0.000959647
0.000986597
0.00101349
0.00104083
0.00106842
0.00109618
0.00112412
0.00115224
0.00118055
0.00120905
0.00123775
0.00126665
0.00129575
0.00132505
0.00135456
0.00138428
0.00141421
0.00144439
0.00147479
0.00150544
0.00153633
0.00156747
0.00159884
0.00163046
0.00166232
0.00169441
0.00172674
0.0017593
0.00179208
0.00182507
0.00185827
0.00189167
0.00192526
0.00195902
0.00199294
0.00202702
0.00206123
0.00209557
0.00213001
0.00216455
0.00219916
0.00223383
0.00226854
0.00230327
0.002338
0.00237271
0.00240737
0.00244197
0.00247648
0.00251087
0.00254512
0.00257919
0.00261305
0.00264666
0.00268
0.00271302
0.00274568
0.00277797
0.00280986
0.00284136
0.00287247
0.00290317
0.00293343
0.00296324
0.00299254
0.00302132
0.00304954
0.00307717
0.00310416
0.0031305
0.00315613
0.00318103
0.00320515
0.00322847
0.00325095
0.00327255
0.00329325
0.00331299
0.00333176
0.00334952
0.00336624
0.00338189
0.00339646
0.00340991
0.00342223
0.0034334
0.00344341
0.00345226
0.00346027
0.00346721
0.00347243
0.00347659
0.00347954
0.00348133
0.00348194
0.0034814
0.00347972
0.00347695
0.00347312
0.00346827
0.00346244
0.00345568
0.00344805
0.00343959
0.00343038
0.00342047
0.00340996
0.00339891
0.00338741
0.00337553
0.00336336
0.00335097
0.00333844
0.00332585
0.00331327
0.00330077
0.00328844
0.00327636
0.00326458
0.00325318
0.00324221
0.00323172
0.00322175
0.00321233
0.00320347
0.00319517
0.00318742
0.00318017
0.00317336
0.00316689
0.00316068
0.00315441
0.00314797
0.00314081
0.0031327
0.00312367
0.00311376
0.00310288
0.00309097
0.00307797
0.00306371
0.00304792
0.00303064
0.00301074
0.00298492
0.0029375
1.09779e-05
0.000105857
0.000215405
0.000304594
0.000374659
0.000428889
0.000471421
0.000505582
0.000533907
0.000558245
0.000579895
0.000599744
0.000618394
0.00063627
0.000653704
0.000670994
0.000688432
0.000706301
0.000724855
0.000744281
0.000764669
0.00078601
0.000808216
0.000831172
0.000854809
0.000879171
0.000904383
0.000930521
0.00095753
0.000985325
0.00101383
0.00104296
0.00107267
0.00110288
0.00113346
0.00116433
0.00119544
0.00122684
0.00125846
0.00129028
0.0013223
0.00135451
0.00138693
0.00141954
0.00145237
0.0014854
0.00151866
0.00155214
0.00158586
0.00161983
0.00165404
0.00168848
0.00172317
0.00175811
0.00179328
0.0018287
0.00186436
0.00190026
0.00193639
0.00197275
0.00200934
0.00204615
0.00208317
0.00212039
0.0021578
0.00219539
0.00223316
0.00227108
0.00230914
0.00234734
0.00238565
0.00242406
0.00246255
0.00250111
0.00253972
0.00257836
0.002617
0.00265564
0.00269426
0.00273281
0.0027713
0.00280969
0.00284796
0.00288608
0.00292403
0.00296178
0.0029993
0.00303656
0.00307354
0.0031102
0.00314651
0.00318248
0.00321806
0.00325325
0.00328802
0.00332236
0.00335624
0.00338963
0.00342249
0.00345479
0.00348651
0.00351759
0.00354801
0.00357773
0.00360671
0.00363492
0.00366231
0.00368884
0.00371449
0.0037392
0.00376294
0.00378567
0.00380735
0.00382795
0.00384743
0.00386576
0.0038829
0.00389883
0.00391352
0.00392695
0.0039391
0.00394995
0.00395978
0.00396855
0.00397551
0.00398104
0.00398532
0.00398827
0.00398988
0.00399016
0.00398915
0.00398688
0.00398338
0.00397869
0.00397287
0.00396595
0.003958
0.00394908
0.00393926
0.0039286
0.0039172
0.00390513
0.00389248
0.00387934
0.0038658
0.00385194
0.00383786
0.00382364
0.00380937
0.00379515
0.00378105
0.00376717
0.00375359
0.00374038
0.00372762
0.00371537
0.00370369
0.0036926
0.00368215
0.00367234
0.00366316
0.00365459
0.00364657
0.00363903
0.00363187
0.00362488
0.00361787
0.00361046
0.00360244
0.00359373
0.00358429
0.00357402
0.00356283
0.00355063
0.00353727
0.00352255
0.00350625
0.00348754
0.00346341
0.00342154
1.28326e-05
0.000115589
0.000234876
0.000333395
0.000412108
0.000473951
0.000522965
0.000562597
0.000595532
0.000623807
0.000648917
0.000671938
0.000693635
0.000714558
0.000735119
0.000755651
0.000776438
0.00079773
0.000819741
0.000842632
0.000866499
0.000891369
0.000917208
0.000943944
0.0009715
0.00099982
0.00102888
0.00105865
0.00108911
0.00112019
0.00115186
0.00118408
0.0012168
0.00124996
0.00128351
0.00131738
0.00135153
0.00138593
0.00142057
0.00145541
0.00149045
0.00152569
0.00156114
0.00159678
0.00163264
0.00166871
0.00170499
0.0017415
0.00177824
0.00181522
0.00185242
0.00188987
0.00192754
0.00196545
0.00200359
0.00204197
0.00208057
0.00211941
0.00215846
0.00219774
0.00223722
0.00227691
0.00231679
0.00235686
0.0023971
0.0024375
0.00247806
0.00251876
0.00255959
0.00260052
0.00264156
0.00268267
0.00272385
0.00276507
0.00280633
0.0028476
0.00288886
0.0029301
0.00297129
0.00301242
0.00305345
0.00309438
0.00313518
0.00317582
0.00321628
0.00325654
0.00329657
0.00333634
0.00337584
0.00341504
0.00345391
0.00349245
0.00353062
0.0035684
0.00360578
0.00364273
0.00367923
0.00371523
0.00375072
0.00378565
0.00382
0.00385373
0.0038868
0.00391918
0.00395082
0.00398169
0.00401174
0.00404094
0.00406925
0.00409661
0.00412299
0.00414835
0.00417264
0.00419581
0.00421784
0.00423867
0.00425828
0.00427661
0.00429365
0.00430936
0.00432372
0.00433669
0.0043485
0.00435918
0.00436809
0.00437529
0.00438119
0.00438563
0.00438858
0.00439006
0.00439011
0.00438874
0.00438601
0.00438194
0.00437658
0.00436998
0.00436219
0.00435328
0.00434332
0.00433239
0.00432056
0.00430792
0.00429456
0.00428058
0.00426607
0.00425112
0.00423583
0.00422031
0.00420465
0.00418895
0.00417332
0.00415784
0.00414262
0.00412774
0.0041133
0.00409937
0.00408601
0.0040733
0.00406126
0.00404994
0.00403934
0.00402945
0.00402025
0.00401167
0.00400363
0.00399597
0.00398852
0.003981
0.00397321
0.00396503
0.00395638
0.00394715
0.00393723
0.00392651
0.00391486
0.0039021
0.00388803
0.00387192
0.00385122
0.00381696
1.44548e-05
0.000123427
0.000250697
0.000357523
0.000443786
0.000512684
0.00056792
0.000612966
0.000650594
0.000682959
0.000711697
0.000738025
0.000762836
0.000786783
0.000810349
0.000833899
0.000857717
0.000882033
0.000907025
0.000932824
0.000959513
0.000987129
0.00101566
0.00104508
0.00107532
0.00110632
0.00113803
0.00117039
0.00120335
0.00123688
0.00127093
0.00130546
0.00134044
0.0013758
0.00141151
0.00144753
0.00148381
0.00152033
0.00155707
0.00159401
0.00163115
0.00166847
0.00170599
0.0017437
0.00178161
0.00181971
0.00185802
0.00189654
0.00193527
0.00197421
0.00201337
0.00205275
0.00209234
0.00213215
0.00217217
0.00221241
0.00225286
0.00229352
0.00233439
0.00237545
0.0024167
0.00245814
0.00249976
0.00254154
0.00258349
0.00262558
0.00266781
0.00271017
0.00275264
0.00279521
0.00283786
0.00288059
0.00292337
0.0029662
0.00300904
0.0030519
0.00309475
0.00313757
0.00318034
0.00322305
0.00326568
0.00330821
0.00335061
0.00339287
0.00343496
0.00347687
0.00351857
0.00356004
0.00360126
0.00364221
0.00368287
0.00372322
0.00376324
0.0038029
0.00384219
0.00388108
0.00391954
0.00395754
0.00399506
0.00403206
0.00406851
0.00410438
0.00413962
0.00417421
0.0042081
0.00424125
0.00427363
0.00430518
0.00433586
0.00436564
0.00439445
0.00442226
0.00444901
0.00447466
0.00449916
0.00452247
0.00454454
0.00456532
0.00458477
0.00460286
0.00461954
0.0046348
0.0046488
0.00466152
0.00467256
0.00468175
0.00468955
0.00469576
0.00470036
0.00470335
0.00470478
0.00470465
0.00470302
0.00469991
0.00469536
0.00468942
0.00468214
0.00467358
0.00466381
0.00465291
0.00464095
0.00462803
0.00461423
0.00459965
0.00458438
0.00456854
0.00455222
0.00453554
0.00451859
0.0045015
0.00448437
0.00446731
0.00445044
0.00443385
0.00441765
0.00440194
0.00438681
0.00437232
0.00435856
0.00434557
0.0043334
0.00432205
0.00431153
0.0043018
0.00429279
0.00428441
0.0042765
0.00426886
0.00426133
0.00425376
0.00424606
0.00423812
0.00422983
0.00422106
0.00421168
0.00420155
0.00419049
0.00417785
0.00416156
0.00413522
1.58231e-05
0.00012954
0.000263214
0.000377136
0.000470099
0.000545462
0.000606577
0.000656875
0.000699151
0.000735624
0.000768016
0.000797646
0.000825499
0.000852313
0.000878628
0.000904851
0.00093128
0.000958137
0.000985579
0.00101372
0.00104262
0.00107233
0.00110283
0.00113416
0.00116627
0.00119909
0.00123258
0.00126666
0.0013013
0.00133644
0.00137206
0.00140811
0.00144456
0.00148138
0.00151848
0.00155585
0.00159346
0.00163129
0.0016693
0.0017075
0.00174586
0.0017844
0.0018231
0.00186197
0.00190101
0.00194023
0.00197963
0.00201922
0.00205899
0.00209895
0.00213911
0.00217946
0.00222
0.00226074
0.00230167
0.00234279
0.00238411
0.00242562
0.00246732
0.0025092
0.00255126
0.0025935
0.0026359
0.00267846
0.00272117
0.00276403
0.00280702
0.00285013
0.00289336
0.0029367
0.00298012
0.00302362
0.00306719
0.0031108
0.00315446
0.00319814
0.00324182
0.0032855
0.00332915
0.00337276
0.00341631
0.00345979
0.00350317
0.00354643
0.00358957
0.00363255
0.00367537
0.003718
0.00376042
0.00380261
0.00384456
0.00388624
0.00392764
0.00396872
0.00400948
0.00404989
0.00408992
0.00412954
0.00416873
0.00420745
0.00424569
0.00428339
0.00432053
0.00435707
0.00439298
0.0044282
0.00446271
0.00449645
0.00452937
0.00456144
0.0045926
0.00462279
0.00465197
0.00468009
0.00470708
0.0047329
0.00475749
0.0047808
0.00480278
0.00482338
0.00484256
0.00486028
0.00487666
0.00489162
0.00490497
0.00491647
0.00492643
0.00493468
0.0049412
0.00494598
0.00494906
0.00495047
0.00495022
0.00494836
0.0049449
0.00493989
0.00493339
0.00492544
0.0049161
0.00490546
0.00489359
0.00488057
0.0048665
0.00485147
0.00483558
0.00481895
0.00480167
0.00478386
0.00476565
0.00474715
0.00472848
0.00470977
0.00469113
0.0046727
0.00465459
0.00463692
0.0046198
0.00460333
0.00458762
0.00457273
0.00455874
0.00454569
0.00453363
0.00452254
0.0045124
0.00450315
0.00449468
0.00448684
0.0044795
0.00447254
0.00446587
0.00445937
0.00445293
0.00444643
0.00443974
0.00443273
0.00442521
0.00441665
0.00440533
0.00438673
1.69277e-05
0.000134081
0.000272705
0.00039254
0.000491366
0.000572562
0.000639131
0.000694409
0.000741166
0.000781638
0.000817594
0.000850412
0.000881149
0.000910595
0.000939342
0.000967833
0.000996436
0.00102536
0.00105473
0.00108466
0.00111521
0.00114638
0.00117815
0.00121071
0.00124396
0.00127786
0.00131237
0.00134742
0.00138298
0.001419
0.00145545
0.00149229
0.00152949
0.00156701
0.0016047
0.00164264
0.00168083
0.00171919
0.00175769
0.00179632
0.00183508
0.00187397
0.00191299
0.00195215
0.00199145
0.0020309
0.00207049
0.00211024
0.00215016
0.00219023
0.00223048
0.00227089
0.00231148
0.00235225
0.0023932
0.00243433
0.00247564
0.00251714
0.00255881
0.00260067
0.00264271
0.00268492
0.00272731
0.00276986
0.00281258
0.00285546
0.00289848
0.00294166
0.00298496
0.0030284
0.00307195
0.00311561
0.00315937
0.00320321
0.00324713
0.0032911
0.00333512
0.00337916
0.00342323
0.00346729
0.00351134
0.00355536
0.00359933
0.00364323
0.00368705
0.00373077
0.00377437
0.00381784
0.00386114
0.00390428
0.00394723
0.00398996
0.00403246
0.00407472
0.0041167
0.00415838
0.00419975
0.00424077
0.00428143
0.00432169
0.00436152
0.00440089
0.00443978
0.00447813
0.00451592
0.00455311
0.00458964
0.00462549
0.00466059
0.00469491
0.00472838
0.00476096
0.00479258
0.00482319
0.00485272
0.00488113
0.00490833
0.00493428
0.00495892
0.00498218
0.00500402
0.00502439
0.00504335
0.00506078
0.00507661
0.00509067
0.00510304
0.00511364
0.00512234
0.00512916
0.00513415
0.00513734
0.00513875
0.00513838
0.00513627
0.00513244
0.00512695
0.00511983
0.00511115
0.00510096
0.00508936
0.00507641
0.00506221
0.00504685
0.00503044
0.00501307
0.00499488
0.00497598
0.00495649
0.00493654
0.00491626
0.0048958
0.00487528
0.00485485
0.00483466
0.00481483
0.0047955
0.00477681
0.00475889
0.00474184
0.00472577
0.00471076
0.0046969
0.00468422
0.00467273
0.00466241
0.00465321
0.00464504
0.00463779
0.00463139
0.00462574
0.00462075
0.00461632
0.00461232
0.00460862
0.00460507
0.00460151
0.00459742
0.00459144
0.00458036
1.777e-05
0.00013721
0.000279451
0.000404051
0.000507888
0.000594227
0.000665737
0.000725615
0.000776565
0.000820807
0.000860113
0.00089589
0.0009293
0.000961121
0.000991927
0.00102211
0.0010522
0.00108244
0.001113
0.001144
0.00117552
0.0012076
0.0012403
0.00127362
0.0013075
0.00134191
0.00137681
0.00141216
0.00144792
0.00148406
0.00152054
0.00155733
0.00159441
0.00163176
0.00166939
0.00170725
0.00174532
0.00178346
0.00182165
0.0018599
0.00189822
0.00193661
0.00197507
0.00201363
0.0020523
0.00209108
0.00212997
0.002169
0.00220817
0.00224748
0.00228694
0.00232656
0.00236635
0.00240631
0.00244645
0.00248678
0.0025273
0.00256801
0.00260892
0.00265004
0.00269135
0.00273288
0.0027746
0.00281654
0.00285867
0.002901
0.00294353
0.00298626
0.00302916
0.00307225
0.00311551
0.00315893
0.0032025
0.00324621
0.00329006
0.00333402
0.00337808
0.00342224
0.00346647
0.00351076
0.00355509
0.00359945
0.00364382
0.00368818
0.00373252
0.00377682
0.00382105
0.00386521
0.00390927
0.00395321
0.00399703
0.00404069
0.00408417
0.00412747
0.00417056
0.00421341
0.00425601
0.00429833
0.00434035
0.00438204
0.00442337
0.00446433
0.00450487
0.00454496
0.00458456
0.00462364
0.00466216
0.00470007
0.00473733
0.00477387
0.00480966
0.00484463
0.00487871
0.00491186
0.00494399
0.00497505
0.00500496
0.00503366
0.00506107
0.00508713
0.00511179
0.00513498
0.00515669
0.00517684
0.00519537
0.00521222
0.00522725
0.00524048
0.0052516
0.00526069
0.00526784
0.00527306
0.00527636
0.00527775
0.00527723
0.00527483
0.00527058
0.00526451
0.00525669
0.00524717
0.00523602
0.00522331
0.00520913
0.00519357
0.00517674
0.00515875
0.00513971
0.00511974
0.00509899
0.00507758
0.00505566
0.00503338
0.00501089
0.00498835
0.00496592
0.00494376
0.00492205
0.00490093
0.00488057
0.00486112
0.00484272
0.0048255
0.00480959
0.00479506
0.00478199
0.0047704
0.00476029
0.00475162
0.00474433
0.00473838
0.00473371
0.00473025
0.00472791
0.00472655
0.00472604
0.00472621
0.00472687
0.00472757
0.00472715
0.00472341
1.83623e-05
0.000139109
0.000283739
0.00041199
0.000519958
0.000610685
0.000686526
0.000750503
0.000805219
0.000852905
0.000895242
0.000933538
0.000969003
0.00100257
0.00103494
0.00106669
0.00109821
0.00112966
0.00116121
0.001193
0.0012251
0.00125759
0.00129048
0.00132377
0.00135746
0.00139156
0.00142602
0.00146083
0.00149595
0.00153134
0.001567
0.00160289
0.00163898
0.00167523
0.00171167
0.00174832
0.00178521
0.00182225
0.00185929
0.00189633
0.00193334
0.00197032
0.00200732
0.00204436
0.00208147
0.00211866
0.00215596
0.00219337
0.00223091
0.00226859
0.00230643
0.00234444
0.00238263
0.00242103
0.00245963
0.00249845
0.0025375
0.0025768
0.00261634
0.00265614
0.00269621
0.00273655
0.00277716
0.00281804
0.0028592