/*--------------------------------*- C++ -*----------------------------------*\
  =========                 |
  \\      /  F ield         | OpenFOAM: The Open Source CFD Toolbox
   \\    /   O peration     | Website:  https://openfoam.org
    \\  /    A nd           | Version:  8
     \\/     M anipulation  |
\*---------------------------------------------------------------------------*/
FoamFile
{
    version     2.0;
    format      ascii;
    class       volScalarField;
    location    "195";
    object      p;
}
// * * * * * * * * * * * * * * * * * * * * * * * * * * * * * * * * * * * * * //

dimensions      [0 2 -2 0 0 0 0];

internalField   nonuniform List<scalar> 
12225
(
-1.94883
-4.13677
-5.23671
-5.55729
-5.73849
-5.90744
-6.03892
-6.13398
-6.21049
-6.27777
-6.33764
-6.39233
-6.44189
-6.48789
-6.53058
-6.56509
-6.60778
-6.57262
-5.11121
-5.87998
-6.04042
-5.94812
-5.93552
-6.0033
-6.08077
-6.14643
-6.20596
-6.26329
-6.31777
-6.3685
-6.41615
-6.46088
-6.50361
-6.54047
-6.58303
-6.60882
-5.51184
-5.4976
-5.62496
-5.70327
-5.7981
-5.9182
-6.02535
-6.11011
-6.18184
-6.24709
-6.30707
-6.36182
-6.41277
-6.46017
-6.50551
-6.5464
-6.59308
-6.63316
-5.39046
-5.33379
-5.57536
-5.73363
-5.83529
-5.94142
-6.03903
-6.11899
-6.18764
-6.25062
-6.30906
-6.36294
-6.41337
-6.4607
-6.50632
-6.5494
-6.59642
-6.6435
-5.38054
-5.40487
-5.63287
-5.77435
-5.85789
-5.94986
-6.04099
-6.11862
-6.18607
-6.24819
-6.30618
-6.36003
-6.41067
-6.45858
-6.50502
-6.55009
-6.59777
-6.64795
-5.43865
-5.4874
-5.66159
-5.7854
-5.86683
-5.95457
-6.04252
-6.11893
-6.1858
-6.2474
-6.30507
-6.35888
-6.40964
-6.45796
-6.50495
-6.55113
-6.59903
-6.64949
-5.49897
-5.54306
-5.67815
-5.79438
-5.87803
-5.96208
-6.0459
-6.12043
-6.18642
-6.24732
-6.30448
-6.3581
-6.40885
-6.45738
-6.50464
-6.55131
-6.599
-6.64844
-5.55245
-5.58999
-5.69987
-5.80807
-5.89097
-5.97047
-6.04979
-6.12216
-6.18711
-6.24722
-6.30379
-6.35713
-6.40777
-6.45635
-6.50366
-6.55036
-6.59744
-6.64531
-5.60212
-5.6352
-5.72604
-5.8239
-5.90388
-5.97916
-6.05422
-6.12423
-6.18794
-6.24714
-6.30301
-6.35593
-6.40631
-6.45475
-6.50186
-6.54819
-6.59435
-6.64045
-5.64913
-5.67834
-5.75379
-5.84091
-5.91702
-5.98846
-6.05947
-6.12687
-6.18908
-6.24719
-6.30222
-6.35455
-6.4045
-6.45256
-6.49923
-6.54489
-6.58991
-6.6342
-5.6934
-5.71886
-5.78199
-5.85907
-5.93066
-5.99839
-6.06551
-6.1301
-6.19058
-6.24745
-6.30149
-6.35305
-6.40239
-6.44986
-6.49585
-6.54062
-6.58438
-6.6269
-5.73139
-5.75371
-5.80784
-5.87658
-5.94361
-6.0079
-6.07163
-6.13357
-6.1923
-6.24789
-6.30088
-6.35159
-6.4002
-6.44697
-6.49218
-6.53598
-6.57852
-6.61951
-5.76646
-5.78616
-5.83292
-5.89422
-5.95663
-6.01753
-6.07804
-6.13737
-6.19425
-6.24847
-6.30034
-6.35008
-6.39785
-6.4438
-6.48812
-6.5309
-6.57221
-6.61177
-5.80321
-5.82038
-5.86034
-5.91428
-5.97152
-6.0286
-6.08563
-6.14203
-6.19673
-6.24927
-6.29975
-6.34828
-6.39495
-6.43984
-6.48304
-6.52459
-6.56451
-6.60258
-5.84038
-5.85515
-5.88909
-5.93612
-5.98793
-6.04084
-6.09422
-6.14746
-6.19965
-6.25021
-6.29902
-6.34608
-6.39139
-6.43496
-6.47682
-6.51695
-6.55536
-6.59188
-5.876
-5.88861
-5.91751
-5.95841
-6.00492
-6.05356
-6.10325
-6.15325
-6.20273
-6.25107
-6.29796
-6.3433
-6.38701
-6.42905
-6.46937
-6.50796
-6.5448
-6.57977
-5.90717
-5.91803
-5.94296
-5.97887
-6.02071
-6.06539
-6.1116
-6.1585
-6.20529
-6.2513
-6.29615
-6.33962
-6.38159
-6.42195
-6.46065
-6.49763
-6.53289
-6.56636
-5.92953
-5.93918
-5.96142
-5.99387
-6.03229
-6.07391
-6.11733
-6.16168
-6.20613
-6.25004
-6.29297
-6.33465
-6.3749
-6.41362
-6.45072
-6.48616
-6.51992
-6.55198
-5.9362
-5.94535
-5.96656
-5.9977
-6.03478
-6.07505
-6.1171
-6.16004
-6.2031
-6.24564
-6.28719
-6.32749
-6.36637
-6.40374
-6.4395
-6.47364
-6.50615
-6.53706
-5.91998
-5.92975
-5.95235
-5.98542
-6.02442
-6.06611
-6.10906
-6.15258
-6.19595
-6.23853
-6.27988
-6.31981
-6.35819
-6.39495
-6.43004
-6.46348
-6.49525
-6.52545
-5.89307
-5.90387
-5.92914
-5.96615
-6.00892
-6.05343
-6.09852
-6.14375
-6.18838
-6.23173
-6.27351
-6.31361
-6.352
-6.38862
-6.42349
-6.45662
-6.48807
-6.51791
-5.85782
-5.86964
-5.89899
-5.94257
-5.99085
-6.03883
-6.08664
-6.13436
-6.18091
-6.2255
-6.26803
-6.30859
-6.34721
-6.38389
-6.41869
-6.45168
-6.48293
-6.51255
-5.81725
-5.82915
-5.8636
-5.91687
-5.97241
-6.02436
-6.07525
-6.12569
-6.1742
-6.22008
-6.26351
-6.3047
-6.34369
-6.38055
-6.41539
-6.44835
-6.47951
-6.50903
-5.77355
-5.78451
-5.82628
-5.89069
-5.95287
-6.00955
-6.06517
-6.11902
-6.16929
-6.2161
-6.26023
-6.30191
-6.34117
-6.37812
-6.41296
-6.44586
-6.47693
-6.50633
-5.72665
-5.7321
-5.79475
-5.87295
-5.93489
-5.99314
-6.05428
-6.11264
-6.16516
-6.21321
-6.25823
-6.30049
-6.34003
-6.37706
-6.41187
-6.44469
-6.47568
-6.50502
-5.68338
-5.64694
-5.75646
-5.86743
-5.92968
-5.98497
-6.04718
-6.10692
-6.16014
-6.20886
-6.25458
-6.29738
-6.33724
-6.37447
-6.40938
-6.44225
-6.47326
-6.50261
-5.69748
-5.53849
-5.66741
-5.8215
-5.91161
-5.98298
-6.05191
-6.11283
-6.16563
-6.21391
-6.25919
-6.30145
-6.34073
-6.37739
-6.41176
-6.44413
-6.47473
-6.50379
-5.8202
-5.6402
-5.65441
-5.72656
-5.81494
-5.91416
-6.00486
-6.07864
-6.14034
-6.19549
-6.2458
-6.29156
-6.33336
-6.37185
-6.40753
-6.44086
-6.47228
-6.50242
-5.52751
-6.11909
-6.20795
-6.08371
-6.02937
-6.05653
-6.10352
-6.14676
-6.18832
-6.23051
-6.272
-6.31132
-6.34828
-6.383
-6.41556
-6.4461
-6.47483
-6.50355
-2.53926
-4.30203
-5.30673
-5.60587
-5.75505
-5.89867
-6.0127
-6.09367
-6.1579
-6.21476
-6.26602
-6.31205
-6.35372
-6.39195
-6.42723
-6.45937
-6.4882
-6.51197
-7.41441
-7.41446
-7.41498
-7.41613
-7.41777
-7.41984
-7.42232
-7.4252
-7.42848
-7.43219
-7.43635
-7.44101
-7.4462
-7.45197
-7.45837
-7.46543
-7.47318
-7.48161
-7.49078
-7.50089
-7.51194
-7.52363
-7.53599
-7.54968
-7.56497
-7.58157
-7.59916
-7.61814
-7.63959
-7.66222
-7.6847
-7.70793
-7.73195
-7.75546
-7.77618
-7.79351
-7.81272
-7.83576
-7.86015
-7.88568
-7.91197
-7.93887
-7.96622
-7.99391
-8.02183
-8.04992
-8.07807
-8.10622
-8.13426
-8.16214
-8.18976
-8.21704
-8.24388
-8.27019
-8.29584
-8.32077
-8.34483
-8.36792
-8.38988
-8.41063
-8.42997
-8.4478
-8.46392
-8.47821
-8.49046
-8.50055
-8.50824
-8.51338
-8.51575
-8.51517
-8.5114
-8.50429
-8.49355
-8.47904
-8.46047
-8.43769
-8.4104
-8.37843
-8.34151
-8.29946
-8.25202
-8.19901
-8.14018
-8.07536
-8.00432
-7.9269
-7.8429
-7.75218
-7.65462
-7.55016
-7.43881
-7.32053
-7.19506
-7.06193
-6.92098
-6.7724
-6.61626
-6.45263
-6.28158
-6.10319
-5.91756
-5.72481
-5.52509
-5.3186
-5.10554
-4.88617
-4.66075
-4.42958
-4.19296
-3.95125
-3.70479
-3.45396
-3.19914
-2.94074
-2.67916
-2.41483
-2.14818
-1.87961
-1.60954
-1.33836
-1.06648
-0.79432
-0.522256
-0.250657
0.0201514
0.289832
0.558096
0.82464
1.08924
1.35164
1.61169
1.86919
2.12405
2.37616
2.62549
2.87199
3.11573
3.35676
3.5952
3.8311
4.06458
4.29581
4.52503
4.75256
4.97866
5.2037
5.42799
5.65194
5.87592
6.10035
6.32565
6.55228
6.78066
7.01126
7.24451
7.48086
7.7207
7.96441
8.21232
8.46467
8.72165
8.98334
9.24973
9.52066
9.79587
10.075
10.3573
10.6417
10.9271
11.2125
11.4967
11.7787
12.0571
12.3306
12.5983
12.8592
13.1137
13.3625
13.623
13.8875
-7.41206
-7.41263
-7.41346
-7.41436
-7.4152
-7.41611
-7.41735
-7.41904
-7.42123
-7.42395
-7.42721
-7.43102
-7.43538
-7.44032
-7.44587
-7.45204
-7.45885
-7.46633
-7.47458
-7.4836
-7.49331
-7.50397
-7.51644
-7.53066
-7.54559
-7.56063
-7.57583
-7.59172
-7.607
-7.6219
-7.63849
-7.6567
-7.67642
-7.69821
-7.72242
-7.75181
-7.78227
-7.80955
-7.83614
-7.86271
-7.88948
-7.91654
-7.94386
-7.97142
-7.99916
-8.02703
-8.05494
-8.08284
-8.11064
-8.13829
-8.1657
-8.19278
-8.21944
-8.24559
-8.27113
-8.29597
-8.31996
-8.34303
-8.36501
-8.38581
-8.40525
-8.42322
-8.43953
-8.45406
-8.46661
-8.47702
-8.48511
-8.4907
-8.49357
-8.49355
-8.49041
-8.48397
-8.47399
-8.46027
-8.44259
-8.42074
-8.39447
-8.36357
-8.32781
-8.28699
-8.24086
-8.18923
-8.13187
-8.0686
-7.99921
-7.92351
-7.84132
-7.75247
-7.65681
-7.55419
-7.44447
-7.32743
-7.20288
-7.07095
-6.93172
-6.78507
-6.63097
-6.46942
-6.30045
-6.12413
-5.94055
-5.74983
-5.55212
-5.3476
-5.13647
-4.91896
-4.69535
-4.4659
-4.23094
-3.99078
-3.74579
-3.49632
-3.24277
-2.98551
-2.72497
-2.46156
-2.19571
-1.92782
-1.65831
-1.38757
-1.11603
-0.844081
-0.572123
-0.300503
-0.0295785
0.240338
0.508924
0.775903
1.041
1.30401
1.56471
1.82295
2.07858
2.33152
2.58168
2.82906
3.07368
3.31559
3.55488
3.7916
4.02585
4.2578
4.48768
4.71579
4.94238
5.16781
5.3924
5.61652
5.84056
6.06493
6.29004
6.51633
6.74425
6.97423
7.20673
7.44218
7.68098
7.92352
8.17011
8.42103
8.67646
8.93653
9.20124
9.47047
9.74389
10.0211
10.3014
10.5838
10.8672
11.1509
11.4337
11.7145
11.9921
12.2653
12.5331
12.7948
13.0513
13.3027
13.5662
13.8208
-7.40584
-7.40757
-7.40999
-7.41184
-7.41296
-7.41383
-7.41483
-7.41617
-7.41798
-7.42031
-7.42319
-7.42665
-7.43069
-7.43536
-7.44067
-7.44668
-7.45341
-7.46089
-7.46919
-7.47835
-7.48837
-7.49927
-7.51121
-7.52422
-7.53812
-7.5529
-7.56859
-7.58519
-7.60212
-7.61922
-7.63691
-7.65504
-7.67362
-7.69324
-7.71485
-7.73934
-7.76547
-7.79157
-7.81769
-7.84395
-7.8704
-7.89707
-7.92395
-7.95102
-7.97823
-8.00556
-8.03293
-8.06029
-8.08758
-8.11472
-8.14164
-8.16827
-8.19451
-8.22027
-8.24546
-8.26997
-8.29369
-8.31652
-8.33831
-8.35896
-8.37831
-8.39623
-8.41255
-8.42714
-8.43981
-8.4504
-8.45873
-8.46462
-8.46786
-8.46828
-8.46566
-8.4598
-8.45048
-8.4375
-8.42064
-8.39968
-8.37439
-8.34456
-8.30995
-8.27035
-8.22554
-8.17531
-8.11945
-8.05775
-7.99001
-7.91605
-7.83569
-7.74875
-7.65506
-7.55448
-7.44686
-7.33199
-7.20973
-7.0801
-6.94315
-6.79882
-6.64708
-6.48792
-6.32138
-6.14749
-5.96633
-5.77802
-5.5827
-5.38053
-5.17171
-4.95647
-4.73506
-4.50775
-4.27484
-4.03665
-3.79353
-3.54584
-3.29395
-3.03826
-2.77916
-2.51707
-2.2524
-1.98558
-1.717
-1.44707
-1.17622
-0.904838
-0.633327
-0.362022
-0.0912946
0.178542
0.447156
0.714281
0.979623
1.24297
1.50409
1.76283
2.01901
2.27255
2.52335
2.7714
3.01668
3.25926
3.49918
3.7365
3.9713
4.20372
4.43402
4.66243
4.88924
5.11474
5.33929
5.5632
5.78689
6.01072
6.23512
6.4605
6.68732
6.916
7.14699
7.38071
7.6176
7.858
8.10228
8.35074
8.60359
8.86096
9.12293
9.38946
9.66027
9.93494
10.2128
10.4931
10.7748
11.0571
11.3389
11.6191
11.8965
12.1701
12.4391
12.7027
12.9622
13.2167
13.4827
13.7211
-7.39646
-7.3995
-7.40412
-7.40765
-7.40987
-7.41145
-7.41286
-7.41437
-7.41618
-7.4184
-7.42112
-7.42438
-7.42822
-7.43267
-7.43776
-7.44352
-7.44999
-7.45722
-7.46527
-7.47418
-7.48399
-7.4947
-7.50631
-7.51877
-7.53202
-7.54612
-7.56113
-7.5771
-7.59395
-7.61162
-7.63009
-7.64926
-7.66902
-7.68953
-7.71116
-7.73416
-7.75829
-7.78305
-7.80827
-7.83384
-7.85971
-7.88585
-7.91222
-7.9388
-7.96554
-7.9924
-8.01931
-8.04624
-8.07312
-8.09987
-8.12643
-8.15273
-8.17867
-8.20417
-8.22912
-8.25345
-8.27702
-8.29973
-8.32146
-8.34208
-8.36144
-8.37942
-8.39586
-8.4106
-8.42348
-8.43432
-8.44296
-8.4492
-8.45286
-8.45373
-8.45163
-8.44635
-8.43766
-8.42537
-8.40926
-8.3891
-8.36468
-8.33576
-8.30214
-8.26358
-8.21987
-8.17079
-8.11613
-8.05569
-7.98926
-7.91665
-7.83768
-7.75216
-7.65993
-7.56084
-7.45474
-7.34147
-7.22091
-7.09304
-6.95784
-6.81527
-6.6653
-6.50792
-6.34315
-6.17105
-5.99167
-5.80513
-5.61155
-5.4111
-5.20397
-4.99037
-4.77055
-4.54478
-4.31335
-4.07657
-3.83479
-3.58835
-3.33764
-3.08303
-2.82494
-2.56376
-2.29991
-2.03381
-1.76586
-1.49647
-1.22606
-0.955032
-0.68378
-0.412649
-0.141992
0.127854
0.396569
0.663875
0.929488
1.19317
1.4547
1.7139
1.9706
2.22471
2.4761
2.72477
2.9707
3.2139
3.45443
3.69233
3.92767
4.16061
4.39136
4.62017
4.84731
5.07305
5.29772
5.52165
5.74521
5.96879
6.19278
6.41759
6.64365
6.8714
7.10125
7.33362
7.56895
7.80762
8.04993
8.29623
8.54676
8.80168
9.06103
9.32478
9.59271
9.86449
10.1396
10.4173
10.6967
10.9771
11.2573
11.5362
11.8129
12.0863
12.3554
12.6198
12.8804
13.1353
13.3989
13.6213
-7.3864
-7.39079
-7.39776
-7.40321
-7.40679
-7.4094
-7.41158
-7.41364
-7.41582
-7.41829
-7.42117
-7.42455
-7.42847
-7.43298
-7.43812
-7.44391
-7.45041
-7.45764
-7.46568
-7.47458
-7.48437
-7.4951
-7.50676
-7.5193
-7.53266
-7.54681
-7.56176
-7.57752
-7.59413
-7.61162
-7.62998
-7.6492
-7.66924
-7.6901
-7.71185
-7.7345
-7.75792
-7.78197
-7.80652
-7.83149
-7.85682
-7.88246
-7.90837
-7.93451
-7.96083
-7.98729
-8.01383
-8.04041
-8.06696
-8.09341
-8.1197
-8.14574
-8.17147
-8.19678
-8.22158
-8.24578
-8.26927
-8.29193
-8.31365
-8.33429
-8.35371
-8.37179
-8.38836
-8.40327
-8.41636
-8.42746
-8.43638
-8.44295
-8.44697
-8.44826
-8.44661
-8.44181
-8.43366
-8.42195
-8.40644
-8.38694
-8.3632
-8.33502
-8.30216
-8.26441
-8.22155
-8.17335
-8.1196
-8.0601
-7.99464
-7.92302
-7.84506
-7.76058
-7.6694
-7.57138
-7.46638
-7.35425
-7.23489
-7.10823
-6.97422
-6.83283
-6.68402
-6.5278
-6.36417
-6.19318
-6.01491
-5.82944
-5.63691
-5.43749
-5.23134
-5.01869
-4.79978
-4.57487
-4.34425
-4.10824
-3.86716
-3.62138
-3.37127
-3.11721
-2.8596
-2.59886
-2.3354
-2.06962
-1.80194
-1.53277
-1.26254
-0.991643
-0.720465
-0.449381
-0.178706
0.0911826
0.360004
0.627433
0.893236
1.15711
1.41889
1.67832
1.93531
2.18968
2.44137
2.69032
2.93654
3.18
3.42074
3.65881
3.89428
4.12735
4.35817
4.58703
4.81414
5.03982
5.26434
5.48806
5.71132
5.93452
6.15802
6.38224
6.6076
6.83454
7.06346
7.29476
7.52886
7.76616
8.00699
8.25165
8.50039
8.75337
9.01067
9.27226
9.53797
9.8075
10.0804
10.356
10.6336
10.9123
11.1912
11.4692
11.7452
12.0181
12.2872
12.5516
12.812
13.0654
13.3243
13.5326
-7.37769
-7.38332
-7.39233
-7.39953
-7.40448
-7.40821
-7.41131
-7.41411
-7.41688
-7.41982
-7.42309
-7.42679
-7.431
-7.43578
-7.44118
-7.44724
-7.45398
-7.46147
-7.46975
-7.47886
-7.48885
-7.49974
-7.51154
-7.52424
-7.53778
-7.55215
-7.56731
-7.58324
-7.59995
-7.61744
-7.63573
-7.65482
-7.67471
-7.6954
-7.71687
-7.73912
-7.76204
-7.78556
-7.80959
-7.83407
-7.85894
-7.88416
-7.90967
-7.93544
-7.96142
-7.98756
-8.01381
-8.04012
-8.06642
-8.09265
-8.11875
-8.14463
-8.17022
-8.19543
-8.22016
-8.24432
-8.2678
-8.29049
-8.31225
-8.33298
-8.35252
-8.37074
-8.38749
-8.40262
-8.41594
-8.42731
-8.43653
-8.44343
-8.44782
-8.4495
-8.44826
-8.44391
-8.43623
-8.42502
-8.41004
-8.39109
-8.36793
-8.34035
-8.30811
-8.27101
-8.2288
-8.18129
-8.12824
-8.06945
-8.00471
-7.93383
-7.85661
-7.77287
-7.68245
-7.58518
-7.48095
-7.3696
-7.25102
-7.12513
-6.99189
-6.85123
-6.70313
-6.54759
-6.38463
-6.21427
-6.03659
-5.85169
-5.65971
-5.46078
-5.25511
-5.04289
-4.82437
-4.59981
-4.3695
-4.13376
-3.89292
-3.64734
-3.39739
-3.14346
-2.88596
-2.62529
-2.36186
-2.0961
-1.82842
-1.55924
-1.28898
-1.01803
-0.746802
-0.475649
-0.204913
0.0650604
0.333957
0.601482
0.867364
1.13133
1.39317
1.65267
1.90968
2.16406
2.41574
2.66465
2.91078
3.1541
3.39464
3.63244
3.86761
4.10032
4.33076
4.55917
4.78579
5.01091
5.23483
5.45787
5.68038
5.90278
6.12543
6.34872
6.57306
6.7989
7.02666
7.25673
7.48955
7.72549
7.9649
8.20808
8.45531
8.70673
8.96248
9.2225
9.48667
9.75469
10.0261
10.3004
10.5769
10.8547
11.1329
11.4104
11.6862
11.9591
12.2282
12.4926
12.7523
13.0037
13.2578
13.454
-7.37174
-7.3784
-7.38893
-7.39754
-7.40371
-7.4085
-7.41251
-7.41609
-7.41953
-7.42305
-7.42682
-7.43097
-7.43559
-7.44076
-7.44653
-7.45295
-7.46006
-7.46791
-7.47653
-7.48595
-7.49621
-7.50733
-7.5193
-7.53214
-7.54581
-7.56029
-7.57556
-7.59161
-7.60841
-7.62597
-7.64427
-7.66331
-7.68309
-7.7036
-7.72482
-7.74673
-7.76927
-7.79239
-7.81603
-7.84013
-7.86464
-7.88952
-7.91473
-7.94021
-7.96593
-7.99184
-8.01788
-8.04401
-8.07016
-8.09627
-8.12226
-8.14808
-8.17362
-8.19882
-8.22356
-8.24777
-8.27131
-8.29409
-8.31598
-8.33686
-8.35658
-8.375
-8.39197
-8.40734
-8.42094
-8.4326
-8.44213
-8.44937
-8.4541
-8.45615
-8.45531
-8.45136
-8.44411
-8.43333
-8.4188
-8.40031
-8.37763
-8.35053
-8.31879
-8.28219
-8.24049
-8.19349
-8.14095
-8.08268
-8.01846
-7.94809
-7.87138
-7.78815
-7.69821
-7.60144
-7.49768
-7.3868
-7.26868
-7.14323
-7.0104
-6.87012
-6.72238
-6.56716
-6.40447
-6.23436
-6.0569
-5.87219
-5.68035
-5.48154
-5.27594
-5.06376
-4.84524
-4.62066
-4.39029
-4.15445
-3.9135
-3.66777
-3.41766
-3.16356
-2.90586
-2.64499
-2.38136
-2.11539
-1.84751
-1.57813
-1.30768
-1.03656
-0.765171
-0.493867
-0.22302
0.0470661
0.31604
0.583648
0.849559
1.11355
1.37535
1.6348
1.89169
2.14593
2.3974
2.64606
2.89186
3.13478
3.37485
3.6121
3.84668
4.07872
4.30845
4.53606
4.76185
4.98607
5.20904
5.43103
5.65245
5.87366
6.09507
6.31706
6.54006
6.7645
6.9908
7.21939
7.4507
7.68511
7.923
8.16469
8.41044
8.66045
8.91484
9.17359
9.43659
9.70355
9.97406
10.2476
10.5235
10.8009
11.0789
11.3565
11.6324
11.9056
12.1751
12.4395
12.6986
12.9479
13.1977
13.384
-7.36932
-7.37668
-7.3882
-7.39782
-7.40494
-7.41062
-7.41545
-7.41976
-7.42385
-7.42796
-7.43226
-7.43689
-7.44196
-7.44756
-7.45374
-7.46055
-7.46804
-7.47626
-7.48522
-7.49495
-7.50549
-7.51684
-7.529
-7.54198
-7.55575
-7.57032
-7.58565
-7.60174
-7.61857
-7.63614
-7.65442
-7.67341
-7.6931
-7.71348
-7.73452
-7.7562
-7.77848
-7.80132
-7.82467
-7.8485
-7.87276
-7.89741
-7.92241
-7.94771
-7.97327
-7.99904
-8.02498
-8.05102
-8.07711
-8.10319
-8.12918
-8.15501
-8.1806
-8.20587
-8.23071
-8.25503
-8.27872
-8.30166
-8.32374
-8.34482
-8.36476
-8.38342
-8.40066
-8.4163
-8.43019
-8.44215
-8.45201
-8.45957
-8.46465
-8.46704
-8.46655
-8.46297
-8.45608
-8.44568
-8.43153
-8.41341
-8.39111
-8.36439
-8.33303
-8.29679
-8.25547
-8.20882
-8.15664
-8.09871
-8.03482
-7.96477
-7.88836
-7.80541
-7.71575
-7.61922
-7.51569
-7.40502
-7.28709
-7.1618
-7.02909
-6.88891
-6.74122
-6.58602
-6.42331
-6.25314
-6.07559
-5.89074
-5.69874
-5.49973
-5.2939
-5.08145
-4.86264
-4.63773
-4.40702
-4.17082
-3.92947
-3.68336
-3.43284
-3.17834
-2.92024
-2.65898
-2.39497
-2.12864
-1.86042
-1.59073
-1.32
-1.04863
-0.77702
-0.505542
-0.234557
0.0356206
0.304674
0.57231
0.838221
1.10215
1.36384
1.62311
1.87978
2.13374
2.38488
2.63313
2.87844
3.12078
3.36019
3.59671
3.83051
4.06173
4.29056
4.5172
4.74194
4.96503
5.18681
5.40756
5.62766
5.84749
6.06745
6.28794
6.50939
6.73223
6.95691
7.18386
7.41351
7.6463
7.88258
8.12271
8.36697
8.6156
8.8687
9.12631
9.3883
9.65443
9.9243
10.1974
10.473
10.7504
11.0285
11.3064
11.5828
11.8566
12.1265
12.391
12.6495
12.8969
13.1431
13.3214
-7.37066
-7.37838
-7.39036
-7.40056
-7.40834
-7.41469
-7.42017
-7.4251
-7.42976
-7.43439
-7.43918
-7.44427
-7.44976
-7.45575
-7.4623
-7.46946
-7.47729
-7.48582
-7.49506
-7.50506
-7.51583
-7.52737
-7.53968
-7.55278
-7.56665
-7.58128
-7.59665
-7.61277
-7.6296
-7.64716
-7.66541
-7.68435
-7.70396
-7.72424
-7.74515
-7.76668
-7.7888
-7.81146
-7.83465
-7.85831
-7.88242
-7.90694
-7.93183
-7.95704
-7.98254
-8.00827
-8.03419
-8.06024
-8.08636
-8.1125
-8.13856
-8.1645
-8.19021
-8.21562
-8.24063
-8.26513
-8.28902
-8.31219
-8.3345
-8.35582
-8.37602
-8.39496
-8.41248
-8.42841
-8.4426
-8.45486
-8.46502
-8.47289
-8.47828
-8.48099
-8.48081
-8.47754
-8.47096
-8.46086
-8.447
-8.42918
-8.40716
-8.38071
-8.3496
-8.31362
-8.27252
-8.22609
-8.17411
-8.11636
-8.05264
-7.98273
-7.90644
-7.82359
-7.73398
-7.6375
-7.53398
-7.42331
-7.30533
-7.17997
-7.04714
-6.90681
-6.75893
-6.6035
-6.44052
-6.27005
-6.09215
-5.90693
-5.71451
-5.51505
-5.30874
-5.09579
-4.87645
-4.65099
-4.41971
-4.18293
-3.94101
-3.69431
-3.44322
-3.18815
-2.92951
-2.66773
-2.40322
-2.13644
-1.8678
-1.59775
-1.3267
-1.05507
-0.783231
-0.511598
-0.240503
0.0297161
0.298795
0.566385
0.832219
1.09597
1.35745
1.6164
1.87273
2.12625
2.37691
2.6246
2.86925
3.11086
3.34943
3.58508
3.81791
4.04812
4.27585
4.50137
4.72489
4.94673
5.16715
5.38651
5.60514
5.82346
6.04185
6.26074
6.48053
6.70171
6.9247
7.14997
7.37795
7.60909
7.84378
8.08239
8.32522
8.57252
8.82445
9.08103
9.34218
9.60767
9.87711
10.15
10.4256
10.7032
10.9818
11.2602
11.5373
11.8117
12.0822
12.3469
12.6049
12.8505
13.0939
13.266
-7.37559
-7.38335
-7.39532
-7.4057
-7.41383
-7.4206
-7.42652
-7.43191
-7.43701
-7.44207
-7.44725
-7.4527
-7.45853
-7.46484
-7.47168
-7.47913
-7.48721
-7.49597
-7.50543
-7.51561
-7.52653
-7.53821
-7.55063
-7.56381
-7.57774
-7.59241
-7.6078
-7.62393
-7.64076
-7.6583
-7.67653
-7.69543
-7.715
-7.73522
-7.75606
-7.77752
-7.79955
-7.82213
-7.84524
-7.86884
-7.89289
-7.91738
-7.94225
-7.96747
-7.99299
-8.01877
-8.04476
-8.0709
-8.09714
-8.1234
-8.14962
-8.17573
-8.20163
-8.22725
-8.25247
-8.27721
-8.30134
-8.32476
-8.34733
-8.36892
-8.3894
-8.40861
-8.42641
-8.44263
-8.45709
-8.46964
-8.48007
-8.48822
-8.49387
-8.49684
-8.49691
-8.49388
-8.48753
-8.47764
-8.46399
-8.44635
-8.42451
-8.39821
-8.36725
-8.33138
-8.29039
-8.24404
-8.19211
-8.1344
-8.07067
-8.00075
-7.92441
-7.84148
-7.75178
-7.65514
-7.55147
-7.44058
-7.32237
-7.19673
-7.0636
-6.92291
-6.77464
-6.61878
-6.45533
-6.28435
-6.10591
-5.92012
-5.7271
-5.527
-5.32003
-5.10639
-4.88635
-4.66017
-4.42816
-4.19065
-3.94801
-3.7006
-3.44882
-3.19308
-2.93381
-2.67142
-2.40637
-2.13908
-1.87001
-1.59958
-1.32822
-1.05634
-0.784323
-0.512577
-0.24145
0.0287582
0.297755
0.565223
0.830858
1.09435
1.35548
1.61403
1.86985
2.12281
2.3728
2.61974
2.86356
3.10424
3.34182
3.5764
3.80811
4.03711
4.2636
4.48779
4.70993
4.93033
5.14926
5.36708
5.58414
5.80084
6.01758
6.23478
6.45289
6.67236
6.89365
7.11723
7.34356
7.57309
7.80624
8.04339
8.28489
8.53097
8.78184
9.03753
9.29801
9.56303
9.83224
10.1051
10.381
10.6589
10.9381
11.2172
11.4952
11.7704
12.0415
12.3065
12.5641
12.8083
13.0495
13.2169
-7.38365
-7.39119
-7.40273
-7.41293
-7.42112
-7.42806
-7.43422
-7.43987
-7.44526
-7.45059
-7.45604
-7.46175
-7.46782
-7.47435
-7.48139
-7.48902
-7.49726
-7.50616
-7.51574
-7.52603
-7.53704
-7.54878
-7.56126
-7.57447
-7.58842
-7.6031
-7.6185
-7.63463
-7.65146
-7.66899
-7.68721
-7.7061
-7.72566
-7.74586
-7.76669
-7.78814
-7.81016
-7.83274
-7.85585
-7.87948
-7.90357
-7.9281
-7.95304
-7.97835
-8.00398
-8.02989
-8.05602
-8.08232
-8.10873
-8.13519
-8.16162
-8.18794
-8.21407
-8.23993
-8.2654
-8.29039
-8.31478
-8.33846
-8.36129
-8.38315
-8.40388
-8.42335
-8.4414
-8.45786
-8.47256
-8.48533
-8.49598
-8.50433
-8.51017
-8.51332
-8.51355
-8.51067
-8.50445
-8.49468
-8.48112
-8.46356
-8.44177
-8.41551
-8.38456
-8.34869
-8.30766
-8.26125
-8.20925
-8.15142
-8.08756
-8.01746
-7.94093
-7.85777
-7.7678
-7.67089
-7.56688
-7.45563
-7.33703
-7.21096
-7.07735
-6.93616
-6.78734
-6.63089
-6.46682
-6.29519
-6.11606
-5.92955
-5.73578
-5.53491
-5.32714
-5.1127
-4.89183
-4.66482
-4.43198
-4.19366
-3.95021
-3.70202
-3.44949
-3.19304
-2.93309
-2.67009
-2.40447
-2.1367
-1.8672
-1.59642
-1.32479
-1.05269
-0.780558
-0.508759
-0.237661
0.0324659
0.301285
0.56853
0.833838
1.09695
1.35758
1.61557
1.87074
2.12296
2.37212
2.61811
2.86089
3.10043
3.33682
3.57013
3.80052
4.02813
4.25317
4.47586
4.69647
4.91526
5.13258
5.34873
5.56411
5.77909
5.9941
6.20957
6.42594
6.64369
6.86328
7.08519
7.30991
7.5379
7.76959
8.0054
8.24567
8.49069
8.74065
8.99564
9.25561
9.52037
9.78954
10.0626
10.3389
10.6175
10.8974
11.1775
11.4563
11.7325
12.0044
12.2697
12.5271
12.7702
13.0097
13.1736
-7.39424
-7.40134
-7.41213
-7.42185
-7.42982
-7.43669
-7.44287
-7.4486
-7.4541
-7.45956
-7.46514
-7.47097
-7.47715
-7.48378
-7.49091
-7.49861
-7.50691
-7.51586
-7.52548
-7.53579
-7.54681
-7.55856
-7.57104
-7.58425
-7.59819
-7.61286
-7.62826
-7.64439
-7.66122
-7.67876
-7.69699
-7.71591
-7.73549
-7.75572
-7.77659
-7.79807
-7.82014
-7.84279
-7.86599
-7.88971
-7.91391
-7.93857
-7.96365
-7.98911
-8.0149
-8.04099
-8.06731
-8.09382
-8.12045
-8.14713
-8.17378
-8.20035
-8.22672
-8.25281
-8.27853
-8.30376
-8.32838
-8.35229
-8.37534
-8.39741
-8.41835
-8.43802
-8.45624
-8.47287
-8.48772
-8.50063
-8.5114
-8.51985
-8.52579
-8.529
-8.52929
-8.52643
-8.52023
-8.51044
-8.49686
-8.47925
-8.45739
-8.43104
-8.39997
-8.36395
-8.32276
-8.27616
-8.22394
-8.16587
-8.10174
-8.03134
-7.95449
-7.87097
-7.78062
-7.68328
-7.57882
-7.46709
-7.34796
-7.22134
-7.08715
-6.94533
-6.79585
-6.63871
-6.47392
-6.30153
-6.12162
-5.9343
-5.7397
-5.53798
-5.32935
-5.11402
-4.89227
-4.66439
-4.43069
-4.19151
-3.94723
-3.69824
-3.44494
-3.18777
-2.92715
-2.66353
-2.39738
-2.12913
-1.85925
-1.58816
-1.3163
-1.04408
-0.771898
-0.500137
-0.229141
0.0407776
0.309313
0.576174
0.841021
1.10356
1.36354
1.62077
1.8751
2.12637
2.37448
2.61932
2.86085
3.09908
3.33408
3.56594
3.79481
4.02086
4.24428
4.46532
4.68422
4.90129
5.11684
5.33122
5.5448
5.75799
5.97121
6.18489
6.39949
6.6155
6.83339
7.05367
7.27681
7.50332
7.73364
7.96821
8.20737
8.45146
8.70067
8.95513
9.21478
9.47945
9.74878
10.0222
10.2991
10.5785
10.8593
11.1404
11.4204
11.6976
11.9703
12.2361
12.4935
12.7357
12.9739
13.1354
-7.40668
-7.41318
-7.42299
-7.43198
-7.4395
-7.44608
-7.45208
-7.45769
-7.46312
-7.46853
-7.47408
-7.47989
-7.48604
-7.49264
-7.49974
-7.5074
-7.51566
-7.52457
-7.53415
-7.54442
-7.5554
-7.56712
-7.57956
-7.59274
-7.60666
-7.62133
-7.63672
-7.65285
-7.6697
-7.68727
-7.70553
-7.72449
-7.74411
-7.76439
-7.78532
-7.80689
-7.82906
-7.85183
-7.87516
-7.89903
-7.9234
-7.94824
-7.9735
-7.99915
-8.02514
-8.05143
-8.07796
-8.10467
-8.13151
-8.1584
-8.18527
-8.21204
-8.23861
-8.2649
-8.2908
-8.3162
-8.34099
-8.36505
-8.38824
-8.41042
-8.43146
-8.45121
-8.4695
-8.48617
-8.50105
-8.51397
-8.52473
-8.53315
-8.53903
-8.54218
-8.54237
-8.53941
-8.53308
-8.52315
-8.5094
-8.4916
-8.46953
-8.44295
-8.41163
-8.37535
-8.33386
-8.28696
-8.2344
-8.17597
-8.11146
-8.04066
-7.96337
-7.8794
-7.78855
-7.69071
-7.5857
-7.47341
-7.35368
-7.22643
-7.09158
-6.94908
-6.79889
-6.64101
-6.47545
-6.30228
-6.12155
-5.93339
-5.73793
-5.53534
-5.32583
-5.10961
-4.88697
-4.6582
-4.42363
-4.18359
-3.93848
-3.68869
-3.43465
-3.17677
-2.91551
-2.65133
-2.38469
-2.11604
-1.84585
-1.57455
-1.30258
-1.03036
-0.75826
-0.486678
-0.215943
0.0535883
0.321663
0.587942
0.852137
1.1139
1.37303
1.6293
1.88258
2.13269
2.37953
2.62301
2.86309
3.09981
3.33322
3.56346
3.79063
4.01494
4.23659
4.45582
4.67288
4.8881
5.10178
5.31428
5.52599
5.73732
5.94869
6.16055
6.37338
6.58766
6.80389
7.02257
7.24422
7.46933
7.69839
7.93184
8.17006
8.41337
8.66201
8.9161
9.17563
9.44041
9.71009
9.98411
10.2617
10.5421
10.824
11.1063
11.3875
11.6658
11.9394
12.2058
12.4632
12.7048
12.9421
13.1021
-7.42033
-7.42612
-7.43479
-7.44287
-7.44976
-7.45586
-7.46146
-7.46676
-7.47192
-7.4771
-7.48245
-7.48807
-7.49406
-7.5005
-7.50745
-7.51498
-7.52312
-7.53192
-7.54139
-7.55158
-7.56248
-7.57412
-7.5865
-7.59964
-7.61352
-7.62816
-7.64354
-7.65966
-7.67652
-7.6941
-7.7124
-7.7314
-7.75108
-7.77145
-7.79248
-7.81416
-7.83647
-7.85939
-7.88288
-7.90692
-7.93147
-7.95648
-7.98192
-8.00775
-8.03391
-8.06036
-8.08705
-8.11392
-8.1409
-8.16793
-8.19493
-8.22182
-8.24849
-8.27486
-8.30083
-8.32627
-8.35109
-8.37515
-8.39832
-8.42046
-8.44144
-8.46111
-8.4793
-8.49585
-8.51059
-8.52335
-8.53393
-8.54216
-8.54783
-8.55074
-8.5507
-8.54747
-8.54086
-8.53065
-8.51659
-8.49848
-8.47608
-8.44916
-8.41748
-8.38083
-8.33896
-8.29165
-8.23868
-8.17981
-8.11485
-8.04358
-7.96581
-7.88133
-7.78997
-7.69156
-7.58599
-7.47309
-7.35275
-7.22485
-7.08932
-6.94612
-6.79521
-6.63658
-6.47025
-6.29629
-6.11475
-5.92576
-5.72945
-5.52601
-5.31562
-5.09854
-4.87504
-4.64542
-4.41
-4.16917
-3.92329
-3.67277
-3.41805
-3.15957
-2.89778
-2.63314
-2.36614
-2.09723
-1.82687
-1.55552
-1.28361
-1.01154
-0.739698
-0.468466
-0.198212
0.0707473
0.338135
0.60364
0.866943
1.12773
1.38577
1.64088
1.89287
2.14161
2.38697
2.62887
2.86731
3.10232
3.33398
3.56239
3.78771
4.01013
4.22985
4.44713
4.66225
4.8755
5.08723
5.29778
5.50757
5.71699
5.92649
6.13653
6.3476
6.56018
6.77479
6.99194
7.21218
7.436
7.66392
7.89638
8.1338
8.37649
8.62473
8.87864
9.13822
9.40329
9.67349
9.94825
10.2268
10.5082
10.7914
11.0749
11.3574
11.6369
11.9115
12.1785
12.4361
12.6774
12.914
13.0732
-7.43461
-7.43964
-7.44711
-7.45416
-7.46023
-7.46565
-7.47066
-7.47543
-7.48012
-7.48489
-7.48985
-7.49513
-7.50081
-7.50698
-7.51368
-7.52099
-7.52893
-7.53755
-7.54686
-7.5569
-7.56767
-7.5792
-7.59148
-7.60453
-7.61835
-7.63293
-7.64828
-7.66438
-7.68123
-7.69883
-7.71716
-7.73622
-7.75598
-7.77643
-7.79756
-7.81936
-7.84179
-7.86483
-7.88844
-7.9126
-7.93725
-7.96237
-7.9879
-8.0138
-8.04002
-8.06652
-8.09324
-8.12013
-8.14712
-8.17413
-8.20109
-8.22792
-8.25451
-8.28078
-8.30661
-8.33191
-8.35655
-8.38041
-8.40336
-8.42526
-8.44598
-8.46537
-8.48327
-8.49951
-8.51393
-8.52634
-8.53658
-8.54445
-8.54975
-8.55229
-8.55186
-8.54825
-8.54125
-8.53062
-8.51616
-8.49763
-8.47481
-8.44747
-8.41537
-8.37827
-8.33596
-8.2882
-8.23476
-8.17543
-8.10999
-8.03824
-7.95998
-7.87497
-7.78309
-7.68414
-7.578
-7.46452
-7.34357
-7.21505
-7.07888
-6.93502
-6.78342
-6.62409
-6.45706
-6.28236
-6.10007
-5.91032
-5.71324
-5.50902
-5.29785
-5.08
-4.85574
-4.62537
-4.38924
-4.14772
-3.9012
-3.65011
-3.39486
-3.13592
-2.87376
-2.60884
-2.34166
-2.07268
-1.80236
-1.53115
-1.25949
-0.987763
-0.716384
-0.445731
-0.176187
0.0919785
0.358447
0.62295
0.88512
1.1447
1.40143
1.65514
1.90562
2.15276
2.39643
2.63656
2.87318
3.10631
3.33603
3.56247
3.7858
4.00618
4.22387
4.43911
4.65219
4.86341
5.07312
5.2817
5.48953
5.69705
5.9047
6.11296
6.3223
6.53325
6.74632
6.96206
7.18099
7.40366
7.63056
7.86219
8.09895
8.34121
8.5892
8.84311
9.10291
9.36843
9.6393
9.91495
10.1945
10.4772
10.7616
11.0465
11.3303
11.6111
11.8867
12.1544
12.4123
12.6534
12.8894
13.0485
-7.44964
-7.45392
-7.46019
-7.46612
-7.4712
-7.47571
-7.47987
-7.48386
-7.48783
-7.49194
-7.49631
-7.50105
-7.50624
-7.51197
-7.51828
-7.52524
-7.53286
-7.5412
-7.55026
-7.56007
-7.57064
-7.58198
-7.5941
-7.607
-7.62069
-7.63517
-7.65043
-7.66646
-7.68326
-7.70081
-7.7191
-7.73814
-7.7579
-7.77836
-7.79951
-7.82131
-7.84373
-7.86674
-7.89031
-7.91441
-7.93899
-7.96402
-7.98945
-8.01522
-8.0413
-8.06764
-8.09416
-8.12084
-8.1476
-8.17436
-8.20103
-8.22755
-8.2538
-8.27971
-8.30516
-8.33005
-8.35426
-8.37768
-8.40017
-8.42161
-8.44184
-8.46074
-8.47814
-8.49388
-8.50779
-8.51971
-8.52944
-8.53681
-8.54161
-8.54365
-8.54272
-8.53862
-8.53112
-8.52002
-8.50508
-8.48608
-8.4628
-8.43498
-8.40243
-8.36487
-8.32211
-8.27389
-8.22002
-8.16024
-8.09436
-8.02215
-7.94342
-7.85797
-7.76559
-7.66616
-7.55951
-7.44552
-7.32404
-7.19499
-7.05827
-6.91384
-6.76167
-6.60176
-6.43413
-6.25882
-6.07592
-5.88555
-5.68785
-5.483
-5.27123
-5.05277
-4.82792
-4.597
-4.36035
-4.11834
-3.87139
-3.61992
-3.36437
-3.1052
-2.8429
-2.57795
-2.31083
-2.04203
-1.77199
-1.50117
-1.22999
-0.958867
-0.688215
-0.41842
-0.149826
0.117272
0.382581
0.6458
0.906599
1.16471
1.41989
1.67194
1.92069
2.16601
2.40777
2.64596