/*--------------------------------*- C++ -*----------------------------------*\
  =========                 |
  \\      /  F ield         | OpenFOAM: The Open Source CFD Toolbox
   \\    /   O peration     | Website:  https://openfoam.org
    \\  /    A nd           | Version:  8
     \\/     M anipulation  |
\*---------------------------------------------------------------------------*/
FoamFile
{
    version     2.0;
    format      ascii;
    class       surfaceScalarField;
    location    "195";
    object      phi;
}
// * * * * * * * * * * * * * * * * * * * * * * * * * * * * * * * * * * * * * //

dimensions      [0 3 -1 0 0 0 0];

internalField   nonuniform List<scalar> 
24170
(
3.12889e-06
5.95173e-08
3.04663e-06
8.22525e-08
2.97353e-06
7.3097e-08
2.90488e-06
6.86459e-08
2.84055e-06
6.43325e-08
2.78322e-06
5.73309e-08
2.73388e-06
4.93306e-08
2.69192e-06
4.19601e-08
2.65623e-06
3.56847e-08
2.62577e-06
3.04606e-08
2.59955e-06
2.62178e-08
2.57673e-06
2.28154e-08
2.55664e-06
2.00853e-08
2.5387e-06
1.7942e-08
2.52249e-06
1.62048e-08
2.50701e-06
1.54806e-08
2.49257e-06
1.44366e-08
2.042e-08
2.47215e-06
3.45314e-06
2.36267e-08
3.45702e-06
7.83736e-08
3.45054e-06
7.95681e-08
3.43908e-06
8.01022e-08
3.4243e-06
7.91135e-08
3.40704e-06
7.45824e-08
3.38782e-06
6.85532e-08
3.36728e-06
6.24914e-08
3.34613e-06
5.68384e-08
3.32493e-06
5.16516e-08
3.30418e-06
4.69615e-08
3.28416e-06
4.28391e-08
3.26504e-06
3.9196e-08
3.24688e-06
3.61026e-08
3.22977e-06
3.33156e-08
3.2136e-06
3.16457e-08
3.19875e-06
2.92865e-08
3.18006e-08
3.18737e-06
3.66826e-06
1.78825e-08
3.67918e-06
6.74486e-08
3.68541e-06
7.33366e-08
3.68945e-06
7.60629e-08
3.69104e-06
7.75187e-08
3.69007e-06
7.55513e-08
3.68693e-06
7.16944e-08
3.68208e-06
6.73383e-08
3.67592e-06
6.29979e-08
3.66877e-06
5.88007e-08
3.66091e-06
5.48227e-08
3.65258e-06
5.1166e-08
3.64397e-06
4.78054e-08
3.63523e-06
4.48365e-08
3.62643e-06
4.21149e-08
3.61793e-06
4.01455e-08
3.6092e-06
3.8016e-08
3.79531e-08
3.60305e-06
3.92587e-06
1.73978e-08
3.93592e-06
5.74024e-08
3.94256e-06
6.66882e-08
3.9481e-06
7.05228e-08
3.95251e-06
7.31066e-08
3.95545e-06
7.26063e-08
3.95712e-06
7.00289e-08
3.95774e-06
6.67103e-08
3.95752e-06
6.32188e-08
3.95659e-06
5.97239e-08
3.9551e-06
5.6315e-08
3.95315e-06
5.31065e-08
3.95085e-06
5.01038e-08
3.9483e-06
4.73909e-08
3.94551e-06
4.48961e-08
3.94277e-06
4.28827e-08
3.93984e-06
4.0953e-08
3.97576e-08
3.93803e-06
4.20819e-06
1.63315e-08
4.21598e-06
4.96118e-08
4.22168e-06
6.09911e-08
4.22678e-06
6.54222e-08
4.23152e-06
6.83623e-08
4.23549e-06
6.86399e-08
4.23865e-06
6.68671e-08
4.24111e-06
6.42414e-08
4.243e-06
6.13371e-08
4.24438e-06
5.83418e-08
4.24534e-06
5.53535e-08
4.24596e-06
5.24839e-08
4.2463e-06
4.97631e-08
4.24643e-06
4.72563e-08
4.24639e-06
4.49349e-08
4.24635e-06
4.29218e-08
4.24627e-06
4.10315e-08
3.93731e-08
4.24666e-06
4.51069e-06
1.47307e-08
4.51688e-06
4.34162e-08
4.52213e-06
5.57425e-08
4.52694e-06
6.06092e-08
4.53165e-06
6.36531e-08
4.53589e-06
6.43958e-08
4.53955e-06
6.3199e-08
4.54271e-06
6.10874e-08
4.54542e-06
5.86235e-08
4.54775e-06
5.60072e-08
4.54975e-06
5.33465e-08
4.55149e-06
5.07453e-08
4.553e-06
4.82503e-08
4.55435e-06
4.59095e-08
4.55556e-06
4.37164e-08
4.55677e-06
4.17171e-08
4.55799e-06
3.98121e-08
3.79479e-08
4.55941e-06
4.83431e-06
1.31439e-08
4.83963e-06
3.80959e-08
4.84475e-06
5.06193e-08
4.84945e-06
5.59098e-08
4.85407e-06
5.90247e-08
4.85838e-06
6.00841e-08
4.86225e-06
5.93337e-08
4.8657e-06
5.76307e-08
4.86881e-06
5.55183e-08
4.87161e-06
5.32076e-08
4.87414e-06
5.08145e-08
4.87645e-06
4.8436e-08
4.87857e-06
4.61273e-08
4.88055e-06
4.39252e-08
4.88244e-06
4.18323e-08
4.8843e-06
3.98564e-08
4.88617e-06
3.79351e-08
3.59858e-08
4.88813e-06
5.18103e-06
1.16942e-08
5.18575e-06
3.33744e-08
5.19075e-06
4.56179e-08
5.1954e-06
5.1261e-08
5.19998e-06
5.44428e-08
5.20433e-06
5.57299e-08
5.20832e-06
5.53437e-08
5.21196e-06
5.39877e-08
5.2153e-06
5.21745e-08
5.21838e-06
5.01262e-08
5.22123e-06
4.79634e-08
5.22388e-06
4.57786e-08
5.22638e-06
4.36303e-08
5.22875e-06
4.15498e-08
5.23104e-06
3.95425e-08
5.2333e-06
3.76013e-08
5.23555e-06
3.56821e-08
3.37169e-08
5.23782e-06
5.55268e-06
1.03487e-08
5.55688e-06
2.9172e-08
5.56169e-06
4.08126e-08
5.56629e-06
4.66556e-08
5.57085e-06
4.98832e-08
5.57525e-06
5.13308e-08
5.57935e-06
5.1246e-08
5.58314e-06
5.01956e-08
5.58666e-06
4.86494e-08
5.58995e-06
4.68367e-08
5.59303e-06
4.48814e-08
5.59594e-06
4.28728e-08
5.59869e-06
4.08698e-08
5.60134e-06
3.89022e-08
5.60391e-06
3.69767e-08
5.60642e-06
3.50838e-08
5.60891e-06
3.31913e-08
3.12571e-08
5.61137e-06
5.95103e-06
9.09107e-09
5.95478e-06
2.54231e-08
5.95935e-06
3.62404e-08
5.9639e-06
4.21024e-08
5.96844e-06
4.53399e-08
5.97288e-06
4.68913e-08
5.97707e-06
4.70489e-08
5.981e-06
4.6267e-08
5.98469e-06
4.49628e-08
5.98815e-06
4.33668e-08
5.99143e-06
4.16044e-08
5.99454e-06
3.9762e-08
5.99751e-06
3.78977e-08
6.00037e-06
3.60416e-08
6.00314e-06
3.42027e-08
6.00585e-06
3.23743e-08
6.0085e-06
3.05353e-08
2.86658e-08
6.01109e-06
6.37798e-06
7.92266e-09
6.38134e-06
2.20623e-08
6.38566e-06
3.19141e-08
6.39015e-06
3.76198e-08
6.39466e-06
4.08201e-08
6.39913e-06
4.24247e-08
6.40341e-06
4.27659e-08
6.40746e-06
4.22134e-08
6.4113e-06
4.11278e-08
6.41493e-06
3.97321e-08
6.41838e-06
3.81516e-08
6.42167e-06
3.64695e-08
6.42483e-06
3.47422e-08
6.42787e-06
3.30013e-08
6.43081e-06
3.12584e-08
6.43367e-06
2.95128e-08
6.43645e-06
2.77519e-08
2.59746e-08
6.43914e-06
5.74176e-06
6.998e-09
5.74434e-06
1.94809e-08
5.7478e-06
2.84459e-08
5.75153e-06
3.38939e-08
5.75533e-06
3.70206e-08
5.75911e-06
3.86364e-08
5.76279e-06
3.9088e-08
5.7663e-06
3.86973e-08
5.76965e-06
3.77781e-08
5.77284e-06
3.65402e-08
5.77589e-06
3.5106e-08
5.7788e-06
3.35567e-08
5.78159e-06
3.19468e-08
5.78428e-06
3.03082e-08
5.78689e-06
2.86564e-08
5.7894e-06
2.69944e-08
5.79184e-06
2.53175e-08
2.36349e-08
5.79418e-06
6.99914e-06
6.01542e-09
7.00187e-06
1.67501e-08
7.00563e-06
2.46833e-08
7.00979e-06
2.97292e-08
7.01411e-06
3.27034e-08
7.01845e-06
3.42858e-08
7.02272e-06
3.48186e-08
7.02684e-06
3.45768e-08
7.03079e-06
3.3825e-08
7.03458e-06
3.27533e-08
7.0382e-06
3.14797e-08
7.04168e-06
3.00799e-08
7.04502e-06
2.86069e-08
7.04823e-06
2.70935e-08
7.05133e-06
2.55571e-08
7.05432e-06
2.40072e-08
7.05719e-06
2.2443e-08
2.08863e-08
7.05994e-06
8.53188e-06
4.98327e-09
8.53473e-06
1.38963e-08
8.53876e-06
2.06538e-08
8.54335e-06
2.5133e-08
8.54821e-06
2.78502e-08
8.55315e-06
2.93358e-08
8.55807e-06
2.99031e-08
8.56286e-06
2.97836e-08
8.56749e-06
2.91908e-08
8.57195e-06
2.829e-08
8.57624e-06
2.71874e-08
8.58037e-06
2.59556e-08
8.58433e-06
2.46422e-08
8.58814e-06
2.32808e-08
8.59181e-06
2.18908e-08
8.59533e-06
2.04858e-08
8.5987e-06
1.90711e-08
1.76713e-08
8.60192e-06
1.04003e-05
3.91014e-09
1.04032e-05
1.09393e-08
1.04075e-05
1.63787e-08
1.04125e-05
2.01135e-08
1.04179e-05
2.24445e-08
1.04235e-05
2.37488e-08
1.04291e-05
2.42876e-08
1.04347e-05
2.42482e-08
1.04401e-05
2.37956e-08
1.04453e-05
2.30616e-08
1.04503e-05
2.21406e-08
1.04552e-05
2.10934e-08
1.04599e-05
1.99658e-08
1.04644e-05
1.87869e-08
1.04687e-05
1.75797e-08
1.04728e-05
1.63575e-08
1.04768e-05
1.5131e-08
1.39252e-08
1.04805e-05
1.26779e-05
2.80139e-09
1.2681e-05
7.87272e-09
1.26855e-05
1.18565e-08
1.26909e-05
1.46646e-08
1.26969e-05
1.64578e-08
1.27032e-05
1.74753e-08
1.27096e-05
1.7907e-08
1.27159e-05
1.78925e-08
1.27222e-05
1.75489e-08
1.27283e-05
1.69739e-08
1.27342e-05
1.62391e-08
1.27399e-05
1.53963e-08
1.27453e-05
1.44807e-08
1.27506e-05
1.35204e-08
1.27556e-05
1.25336e-08
1.27605e-05
1.15371e-08
1.27651e-05
1.05385e-08
9.56607e-09
1.27694e-05
1.54543e-05
1.64569e-09
1.54576e-05
4.65083e-09
1.54624e-05
7.02854e-09
1.54683e-05
8.72546e-09
1.5475e-05
9.81556e-09
1.5482e-05
1.04239e-08
1.54893e-05
1.066e-08
1.54965e-05
1.06077e-08
1.55038e-05
1.03373e-08
1.55108e-05
9.90828e-09
1.55177e-05
9.36686e-09
1.55243e-05
8.74739e-09
1.55307e-05
8.07517e-09
1.55369e-05
7.36997e-09
1.55428e-05
6.64678e-09
1.55484e-05
5.9183e-09
1.55537e-05
5.19194e-09
4.49094e-09
1.55588e-05
1.88389e-05
4.03108e-10
1.88424e-05
1.14791e-09
1.88477e-05
1.72029e-09
1.88543e-05
2.10405e-09
1.88618e-05
2.31901e-09
1.88698e-05
2.3926e-09
1.88781e-05
2.3468e-09
1.88865e-05
2.20118e-09
1.88949e-05
1.97577e-09
1.89031e-05
1.68865e-09
1.89111e-05
1.35494e-09
1.89189e-05
9.87064e-10
1.89264e-05
5.95633e-10
1.89335e-05
1.89771e-10
1.89404e-05
-2.22764e-10
1.8947e-05
-6.3477e-10
1.89532e-05
-1.04216e-09
-1.42726e-09
1.89591e-05
2.29648e-05
-1.02805e-09
2.29688e-05
-2.92582e-09
2.2975e-05
-4.48869e-09
2.29828e-05
-5.67638e-09
2.29916e-05
-6.51042e-09
2.30011e-05
-7.07633e-09
2.30109e-05
-7.4628e-09
2.30208e-05
-7.72306e-09
2.30307e-05
-7.89548e-09
2.30404e-05
-8.00979e-09
2.30499e-05
-8.09148e-09
2.3059e-05
-8.15366e-09
2.30678e-05
-8.20575e-09
2.30762e-05
-8.25081e-09
2.30843e-05
-8.29217e-09
2.3092e-05
-8.32874e-09
2.30993e-05
-8.3622e-09
-8.38066e-09
2.31063e-05
1.68118e-05
-2.15184e-09
1.6815e-05
-6.0996e-09
1.68198e-05
-9.32358e-09
1.68258e-05
-1.16812e-08
1.68326e-05
-1.32309e-08
1.68397e-05
-1.42026e-08
1.6847e-05
-1.47815e-08
1.68543e-05
-1.50744e-08
1.68616e-05
-1.51571e-08
1.68687e-05
-1.5105e-08
1.68756e-05
-1.49677e-08
1.68822e-05
-1.47814e-08
1.68885e-05
-1.45637e-08
1.68946e-05
-1.43317e-08
1.69004e-05
-1.40907e-08
1.69059e-05
-1.38485e-08
1.69112e-05
-1.36051e-08
-1.33571e-08
1.69162e-05
1.46356e-05
-3.23109e-09
1.46387e-05
-9.18901e-09
1.46435e-05
-1.40432e-08
1.46492e-05
-1.74318e-08
1.46555e-05
-1.95271e-08
1.46621e-05
-2.07785e-08
1.46687e-05
-2.14573e-08
1.46754e-05
-2.16983e-08
1.46818e-05
-2.16341e-08
1.46881e-05
-2.13798e-08
1.46941e-05
-2.10124e-08
1.46999e-05
-2.05755e-08
1.47055e-05
-2.01003e-08
1.47107e-05
-1.96069e-08
1.47158e-05
-1.91097e-08
1.47205e-05
-1.86149e-08
1.47251e-05
-1.81284e-08
-1.76447e-08
1.47293e-05
1.27411e-05
-4.24135e-09
1.27443e-05
-1.23181e-08
1.27491e-05
-1.88789e-08
1.27548e-05
-2.30847e-08
1.27607e-05
-2.55157e-08
1.27669e-05
-2.69466e-08
1.27731e-05
-2.764e-08
1.27791e-05
-2.77458e-08
1.2785e-05
-2.74708e-08
1.27906e-05
-2.69803e-08
1.27959e-05
-2.63645e-08
1.2801e-05
-2.56741e-08
1.28059e-05
-2.49474e-08
1.28105e-05
-2.42084e-08
1.28148e-05
-2.34745e-08
1.2819e-05
-2.27516e-08
1.28229e-05
-2.20467e-08
-2.13549e-08
1.28266e-05
1.10918e-05
-5.08422e-09
1.1095e-05
-1.55414e-08
1.11001e-05
-2.40096e-08
1.11058e-05
-2.87154e-08
1.11115e-05
-3.12579e-08
1.11173e-05
-3.27679e-08
1.1123e-05
-3.33766e-08
1.11286e-05
-3.32664e-08
1.11338e-05
-3.27396e-08
1.11388e-05
-3.19938e-08
1.11436e-05
-3.11204e-08
1.11481e-05
-3.01768e-08
1.11524e-05
-2.92049e-08
1.11564e-05
-2.8235e-08
1.11602e-05
-2.72801e-08
1.11638e-05
-2.63506e-08
1.11672e-05
-2.5448e-08
-2.45723e-08
1.11704e-05
9.65581e-06
-5.68446e-09
9.65924e-06
-1.89718e-08
9.66459e-06
-2.93602e-08
9.67009e-06
-3.42176e-08
9.67566e-06
-3.6821e-08
9.68122e-06
-3.83322e-08
9.68655e-06
-3.87148e-08
9.69159e-06
-3.83002e-08
9.69634e-06
-3.74908e-08
9.70082e-06
-3.64809e-08
9.70505e-06
-3.53492e-08
9.70903e-06
-3.41555e-08
9.71277e-06
-3.29474e-08
9.71628e-06
-3.17537e-08
9.71959e-06
-3.05902e-08
9.7227e-06
-2.94634e-08
9.72563e-06
-2.83755e-08
-2.73235e-08
9.72838e-06
8.4053e-06
-5.63156e-09
8.40964e-06
-2.33111e-08
8.41488e-06
-3.46007e-08
8.41991e-06
-3.92487e-08
8.42527e-06
-4.21898e-08
8.43068e-06
-4.37434e-08
8.43577e-06
-4.3804e-08
8.44048e-06
-4.30103e-08
8.44485e-06
-4.18643e-08
8.44891e-06
-4.05421e-08
8.45268e-06
-3.91139e-08
8.45616e-06
-3.7642e-08
8.45939e-06
-3.61755e-08
8.46238e-06
-3.47423e-08
8.46514e-06
-3.33573e-08
8.4677e-06
-3.20269e-08
8.47008e-06
-3.07532e-08
-2.95318e-08
8.47229e-06
7.3145e-06
-2.84917e-09
7.32119e-06
-3.00025e-08
7.32675e-06
-4.01571e-08
7.3317e-06
-4.41996e-08
7.3371e-06
-4.75895e-08
7.34242e-06
-4.90667e-08
7.3473e-06
-4.86844e-08
7.35171e-06
-4.74261e-08
7.35569e-06
-4.58456e-08
7.35925e-06
-4.4101e-08
7.36241e-06
-4.22734e-08
7.3652e-06
-4.04366e-08
7.36767e-06
-3.86412e-08
7.36984e-06
-3.6912e-08
7.37174e-06
-3.52642e-08
7.37341e-06
-3.37009e-08
7.37488e-06
-3.22221e-08
-3.08183e-08
7.37617e-06
6.36243e-06
4.78269e-09
6.3719e-06
-3.94672e-08
6.37932e-06
-4.75843e-08
6.38596e-06
-5.08393e-08
6.39224e-06
-5.38731e-08
6.39756e-06
-5.4382e-08
6.40185e-06
-5.29811e-08
6.40534e-06
-5.09092e-08
6.40814e-06
-4.86484e-08
6.41033e-06
-4.62881e-08
6.41196e-06
-4.39091e-08
6.41311e-06
-4.15862e-08
6.41384e-06
-3.93707e-08
6.41421e-06
-3.72808e-08
6.41427e-06
-3.53291e-08
6.41408e-06
-3.35136e-08
6.41369e-06
-3.18344e-08
-3.02717e-08
6.41314e-06
5.54129e-06
8.9534e-09
5.55032e-06
-4.84982e-08
5.55834e-06
-5.55996e-08
5.56604e-06
-5.8548e-08
5.57251e-06
-6.03362e-08
5.57683e-06
-5.87096e-08
5.57908e-06
-5.52246e-08
5.57964e-06
-5.1471e-08
5.57889e-06
-4.78977e-08
5.5771e-06
-4.45057e-08
5.57451e-06
-4.13182e-08
5.5713e-06
-3.83754e-08
5.56761e-06
-3.56854e-08
5.56357e-06
-3.32423e-08
5.55928e-06
-3.10377e-08
5.55483e-06
-2.90605e-08
5.5503e-06
-2.73117e-08
-2.57368e-08
5.54577e-06
4.86019e-06
-2.36298e-08
4.86538e-06
-5.36907e-08
4.86523e-06
-5.54526e-08
4.86217e-06
-5.54875e-08
4.857e-06
-5.51663e-08
4.8495e-06
-5.12093e-08
4.83981e-06
-4.55343e-08
4.82841e-06
-4.00806e-08
4.81584e-06
-3.5323e-08
4.80256e-06
-3.12304e-08
4.78897e-06
-2.77229e-08
4.77533e-06
-2.47403e-08
4.76185e-06
-2.22033e-08
4.74865e-06
-2.00464e-08
4.73583e-06
-1.82132e-08
4.72344e-06
-1.66803e-08
4.71162e-06
-1.54846e-08
-1.51365e-08
4.70101e-06
4.17905e-06
4.12536e-06
4.0699e-06
4.01442e-06
3.95925e-06
3.90804e-06
3.8625e-06
3.82242e-06
3.7871e-06
3.75587e-06
3.72815e-06
3.70341e-06
3.6812e-06
3.66116e-06
3.64294e-06
3.62626e-06
3.61078e-06
3.59564e-06
1.5048e-08
-1.51102e-08
2.82842e-08
-1.33642e-08
3.5039e-08
-6.802e-09
3.46219e-08
3.17644e-10
2.80524e-08
6.54889e-09
1.65791e-08
1.13857e-08
1.6856e-09
1.48957e-08
-1.57606e-08
1.73695e-08
-3.48835e-08
1.91353e-08
-5.53854e-08
2.04352e-08
-7.68323e-08
2.14621e-08
-9.92292e-08
2.23381e-08
-1.2236e-07
2.31459e-08
-1.46333e-07
2.3922e-08
-1.71005e-07
2.46885e-08
-1.96489e-07
2.54413e-08
-2.22652e-07
2.61832e-08
-2.49566e-07
2.6876e-08
-2.76951e-07
2.74027e-08
-3.04761e-07
2.77731e-08
-3.32726e-07
2.79821e-08
-3.60726e-07
2.79596e-08
-3.88883e-07
2.81682e-08
-4.18161e-07
2.9235e-08
-4.48759e-07
3.06028e-08
-4.8047e-07
3.16686e-08
-5.13263e-07
3.27999e-08
-5.47455e-07
3.4156e-08
-5.833e-07
3.58513e-08
-6.21143e-07
3.78132e-08
-6.59556e-07
3.84219e-08
-6.96921e-07
3.73413e-08
-7.34996e-07
3.80809e-08
-7.77967e-07
4.29433e-08
-8.27621e-07
4.96626e-08
-8.70707e-07
4.30469e-08
-9.04373e-07
3.36742e-08
-9.42617e-07
3.81947e-08
-9.83044e-07
4.04366e-08
-1.02482e-06
4.17208e-08
-1.0672e-06
4.23927e-08
-1.10998e-06
4.27231e-08
-1.15282e-06
4.28633e-08
-1.19576e-06
4.2887e-08
-1.23858e-06
4.28469e-08
-1.28139e-06
4.27568e-08
-1.324e-06
4.26422e-08
-1.36655e-06
4.24996e-08
-1.40887e-06
4.23456e-08
-1.45108e-06
4.21704e-08
-1.49305e-06
4.19881e-08
-1.53489e-06
4.17853e-08
-1.57646e-06
4.15739e-08
-1.61785e-06
4.13412e-08
-1.65894e-06
4.10977e-08
-1.69982e-06
4.0828e-08
-1.74035e-06
4.05424e-08
-1.78062e-06
4.02272e-08
-1.8205e-06
3.98922e-08
-1.86007e-06
3.9522e-08
-1.89918e-06
3.91265e-08
-1.93791e-06
3.86927e-08
-1.97612e-06
3.82298e-08
-2.01387e-06
3.77232e-08
-2.05103e-06
3.71831e-08
-2.08765e-06
3.65956e-08
-2.1236e-06
3.5971e-08
-2.15891e-06
3.52961e-08
-2.19348e-06
3.45815e-08
-2.22731e-06
3.38142e-08
-2.26029e-06
3.30047e-08
-2.29245e-06
3.21407e-08
-2.32367e-06
3.1232e-08
-2.35395e-06
3.02671e-08
-2.38319e-06
2.9256e-08
-2.41141e-06
2.81875e-08
-2.43847e-06
2.70713e-08
-2.46439e-06
2.58988e-08
-2.48906e-06
2.46783e-08
-2.51248e-06
2.33998e-08
-2.53454e-06
2.20714e-08
-2.55523e-06
2.06846e-08
-2.57446e-06
1.92458e-08
-2.59221e-06
1.77454e-08
-2.60838e-06
1.61883e-08
-2.62295e-06
1.45651e-08
-2.63581e-06
1.28771e-08
-2.64691e-06
1.11115e-08
-2.65615e-06
9.26435e-09
-2.66344e-06
7.31812e-09
-2.66868e-06
5.2578e-09
-2.67176e-06
3.07699e-09
-2.67262e-06
8.46135e-10
-2.67139e-06
-1.24556e-09
-2.66826e-06
-3.14202e-09
-2.66333e-06
-4.96047e-09
-2.65659e-06
-6.75604e-09
-2.64806e-06
-8.55141e-09
-2.63773e-06
-1.03484e-08
-2.62559e-06
-1.21474e-08
-2.61166e-06
-1.39436e-08
-2.59593e-06
-1.57334e-08
-2.57841e-06
-1.75122e-08
-2.55913e-06
-1.92748e-08
-2.53809e-06
-2.10187e-08
-2.51532e-06
-2.27372e-08
-2.49086e-06
-2.4429e-08
-2.46474e-06
-2.60855e-08
-2.437e-06
-2.77066e-08
-2.40768e-06
-2.92821e-08
-2.37684e-06
-3.08133e-08
-2.34452e-06
-3.22888e-08
-2.31079e-06
-3.37111e-08
-2.27569e-06
-3.50684e-08
-2.23932e-06
-3.63649e-08
-2.20172e-06
-3.75888e-08
-2.16297e-06
-3.87443e-08
-2.12315e-06
-3.98191e-08
-2.08235e-06
-4.08174e-08
-2.04063e-06
-4.17298e-08
-1.99808e-06
-4.2563e-08
-1.95477e-06
-4.33108e-08
-1.91079e-06
-4.39876e-08
-1.86622e-06
-4.45837e-08
-1.82116e-06
-4.50972e-08
-1.7757e-06
-4.55213e-08
-1.72992e-06
-4.58616e-08
-1.68391e-06
-4.61135e-08
-1.63776e-06
-4.62824e-08
-1.59154e-06
-4.63675e-08
-1.54534e-06
-4.63682e-08
-1.49923e-06
-4.62915e-08
-1.45329e-06
-4.61322e-08
-1.40759e-06
-4.59054e-08
-1.36218e-06
-4.56004e-08
-1.31713e-06
-4.52417e-08
-1.27246e-06
-4.48107e-08
-1.22821e-06
-4.43347e-08
-1.18438e-06
-4.3785e-08
-1.14102e-06
-4.32056e-08
-1.09819e-06
-4.25931e-08
-1.05592e-06
-4.19889e-08
-1.01423e-06
-4.13949e-08
-9.73091e-07
-4.08335e-08
-9.32461e-07
-4.02935e-08
-8.92308e-07
-3.98e-08
-8.52588e-07
-3.93418e-08
-8.13242e-07
-3.89499e-08
-7.74203e-07
-3.8616e-08
-7.35384e-07
-3.83713e-08
-6.96702e-07
-3.82048e-08
-6.58048e-07
-3.81472e-08
-6.19316e-07
-3.81942e-08
-5.80376e-07
-3.83737e-08
-5.41109e-07
-3.86758e-08
-5.01366e-07
-3.91275e-08
-4.61008e-07
-3.97279e-08
-4.19869e-07
-4.04919e-08
-3.77804e-07
-4.1416e-08
-3.34613e-07
-4.25312e-08
-2.90148e-07
-4.38146e-08
-2.44229e-07
-4.52659e-08
-1.96642e-07
-4.69513e-08
-1.47239e-07
-4.87729e-08
-9.60522e-08
-5.0587e-08
-4.31315e-08
-5.23347e-08
1.14024e-08
-5.39909e-08
6.79356e-08
-5.60241e-08
1.27129e-07
-5.87461e-08
1.89387e-07
-6.18491e-08
2.5484e-07
-6.51025e-08
3.23506e-07
-6.83495e-08
3.95239e-07
-7.14723e-08
4.69751e-07
-7.4284e-08
5.46477e-07
-7.65522e-08
6.24477e-07
-7.78601e-08
7.01993e-07
-7.74281e-08
7.75272e-07
-7.3214e-08
8.35329e-07
-6.00188e-08
-4.09381e-09
8.395e-07
7.69589e-09
-2.28596e-08
7.35232e-09
-1.30972e-08
2.36401e-09
-1.84422e-09
-5.88724e-09
8.52445e-09
-1.69496e-08
1.75956e-08
-3.08058e-08
2.52053e-08
-4.72724e-08
3.13539e-08
-6.61394e-08
3.62035e-08
-8.70185e-08
4.00102e-08
-1.0966e-07
4.30459e-08
-1.33754e-07
4.55539e-08
-1.59169e-07
4.77254e-08
-1.85724e-07
4.96994e-08
-2.13391e-07
5.15651e-08
-2.42076e-07
5.33732e-08
-2.71795e-07
5.5141e-08
-3.02471e-07
5.6862e-08
-3.34118e-07
5.85055e-08
-3.66748e-07
6.0037e-08
-4.00453e-07
6.14613e-08
-4.3529e-07
6.28215e-08
-4.71536e-07
6.41875e-08
-5.09153e-07
6.57859e-08
-5.47766e-07
6.78265e-08
-5.87283e-07
7.01181e-08
-6.27977e-07
7.2343e-08
-6.69685e-07
7.4505e-08
-7.12225e-07
7.66785e-08
-7.55201e-07
7.8826e-08
-7.98134e-07
8.0733e-08
-8.41728e-07
8.20154e-08
-8.87353e-07
8.29542e-08
-9.3375e-07
8.4477e-08
-9.77372e-07
8.65533e-08
-1.01552e-06
8.78101e-08
-1.05818e-06
8.56936e-08
-1.10721e-06
8.26966e-08
-1.15148e-06
8.24455e-08
-1.19365e-06
8.26021e-08
-1.23468e-06
8.27229e-08
-1.27501e-06
8.27219e-08
-1.3149e-06
8.2595e-08
-1.35441e-06
8.23697e-08
-1.39361e-06
8.2071e-08
-1.43249e-06
8.17217e-08
-1.47108e-06
8.13335e-08
-1.50935e-06
8.09175e-08
-1.54734e-06
8.04762e-08
-1.58501e-06
8.00144e-08
-1.62238e-06
7.95294e-08
-1.65942e-06
7.90226e-08
-1.69614e-06
7.84893e-08
-1.7325e-06
7.79298e-08
-1.76851e-06
7.73379e-08
-1.80413e-06
7.67121e-08
-1.83937e-06
7.60458e-08
-1.87417e-06
7.53378e-08
-1.90854e-06
7.45811e-08
-1.94243e-06
7.37742e-08
-1.97583e-06
7.29101e-08
-2.00869e-06
7.19881e-08
-2.04101e-06
7.10015e-08
-2.07273e-06
6.99496e-08
-2.10384e-06
6.88257e-08
-2.13429e-06
6.76296e-08
-2.16406e-06
6.63552e-08
-2.19309e-06
6.50031e-08
-2.22136e-06
6.35678e-08
-2.24883e-06
6.20505e-08
-2.27547e-06
6.04459e-08
-2.30121e-06
5.87557e-08
-2.32605e-06
5.69749e-08
-2.34992e-06
5.51054e-08
-2.3728e-06
5.31427e-08
-2.39463e-06
5.1089e-08
-2.41539e-06
4.89407e-08
-2.43502e-06
4.67008e-08
-2.45349e-06
4.43663e-08
-2.47075e-06
4.19396e-08
-2.48678e-06
3.94174e-08
-2.5015e-06
3.68026e-08
-2.51491e-06
3.40922e-08
-2.52695e-06
3.12887e-08
-2.53759e-06
2.83892e-08
-2.54679e-06
2.53964e-08
-2.55453e-06
2.23081e-08
-2.56078e-06
1.91273e-08
-2.56551e-06
1.58541e-08
-2.56873e-06
1.24928e-08
-2.57044e-06
9.05304e-09
-2.57073e-06
5.55112e-09
-2.56968e-06
2.02697e-09
-2.56737e-06
-1.46955e-09
-2.56369e-06
-4.9415e-09
-2.55842e-06
-8.4258e-09
-2.55147e-06
-1.193e-08
-2.54279e-06
-1.54493e-08
-2.53237e-06
-1.89835e-08
-2.5202e-06
-2.25271e-08
-2.50628e-06
-2.60743e-08
-2.49061e-06
-2.96159e-08
-2.4732e-06
-3.3144e-08
-2.45406e-06
-3.66487e-08
-2.43321e-06
-4.01218e-08
-2.41065e-06
-4.35539e-08
-2.38644e-06
-4.69364e-08
-2.36058e-06
-5.02603e-08
-2.33313e-06
-5.35157e-08
-2.30412e-06
-5.66936e-08
-2.2736e-06
-5.97835e-08
-2.24161e-06
-6.27772e-08
-2.20822e-06
-6.56642e-08
-2.17348e-06
-6.84372e-08
-2.13745e-06
-7.10863e-08
-2.1002e-06
-7.36058e-08
-2.06179e-06
-7.59864e-08
-2.02231e-06
-7.82235e-08
-1.98182e-06
-8.03079e-08
-1.94041e-06
-8.22359e-08
-1.89815e-06
-8.4e-08
-1.85511e-06
-8.56009e-08
-1.81138e-06
-8.70357e-08
-1.76705e-06
-8.83196e-08
-1.7222e-06
-8.94472e-08
-1.67691e-06
-9.04102e-08
-1.63126e-06
-9.12028e-08
-1.58533e-06
-9.18297e-08
-1.53922e-06
-9.22869e-08
-1.49299e-06
-9.25828e-08
-1.44672e-06
-9.27142e-08
-1.4005e-06
-9.26881e-08
-1.35438e-06
-9.2507e-08
-1.30844e-06
-9.21797e-08
-1.26273e-06
-9.17136e-08
-1.21732e-06
-9.11181e-08
-1.17225e-06
-9.04059e-08
-1.12755e-06
-8.95857e-08
-1.08324e-06
-8.86603e-08
-1.03934e-06
-8.76461e-08
-9.95871e-07
-8.65592e-08
-9.52879e-07
-8.54472e-08
-9.10375e-07
-8.43304e-08
-8.68358e-07
-8.32578e-08
-8.26789e-07
-8.2225e-08
-7.85638e-07
-8.12712e-08
-7.44848e-07
-8.03888e-08
-7.04373e-07
-7.96209e-08
-6.64134e-07
-7.89632e-08
-6.24061e-07
-7.84672e-08
-5.84049e-07
-7.81282e-08
-5.44004e-07
-7.79964e-08
-5.03798e-07
-7.80657e-08
-4.63311e-07
-7.83932e-08
-4.22392e-07
-7.89721e-08
-3.80898e-07
-7.98515e-08
-3.38655e-07
-8.10236e-08
-2.95495e-07
-8.25478e-08
-2.5122e-07
-8.44036e-08
-2.05649e-07
-8.66353e-08
-1.58561e-07
-8.92515e-08
-1.0976e-07
-9.22625e-08
-5.90551e-08
-9.56106e-08
-6.37253e-09
-9.9293e-08
4.84316e-08
-1.0324e-07
1.05683e-07
-1.07527e-07
1.6576e-07
-1.12114e-07
2.28996e-07
-1.16955e-07
2.95421e-07
-1.22197e-07
3.64813e-07
-1.2791e-07
4.37064e-07
-1.33896e-07
5.12081e-07
-1.39938e-07
5.89696e-07
-1.45811e-07
6.69629e-07
-1.51271e-07
7.51456e-07
-1.56008e-07
8.34533e-07
-1.59545e-07
9.17872e-07
-1.61147e-07
9.99749e-07
-1.59273e-07
1.07771e-06
-1.51176e-07
1.14578e-06
-1.28089e-07
-6.48102e-08
1.2065e-06
-3.88748e-09
-1.9009e-08
-1.36946e-08
-3.33748e-09
-2.57669e-08
1.02109e-08
-3.93691e-08
2.21006e-08
-5.43372e-08
3.25541e-08
-7.08046e-08
4.16496e-08
-8.88893e-08
4.9432e-08
-1.08704e-07
5.59963e-08
-1.30204e-07
6.15046e-08
-1.53339e-07
6.61598e-08
-1.77962e-07
7.01716e-08
-2.03985e-07
7.37294e-08
-2.31278e-07
7.69889e-08
-2.59797e-07
8.00661e-08
-2.89465e-07
8.30395e-08
-3.20291e-07
8.59525e-08
-3.52248e-07
8.88199e-08
-3.85387e-07
9.16314e-08
-4.19709e-07
9.43615e-08
-4.55247e-07
9.6987e-08
-4.91927e-07
9.9504e-08
-5.29686e-07
1.01935e-07
-5.68263e-07
1.04363e-07
-6.07321e-07
1.06872e-07
-6.46612e-07
1.09408e-07
-6.86128e-07
1.11848e-07
-7.25766e-07
1.14142e-07
-7.65384e-07
1.16285e-07
-8.04786e-07
1.18227e-07
-8.4391e-07
1.19849e-07
-8.8295e-07
1.21055e-07
-9.21933e-07
1.21929e-07
-9.60185e-07
1.22727e-07
-9.96883e-07
1.23244e-07
-1.03222e-06
1.2314e-07
-1.06872e-06
1.22184e-07
-1.10691e-06
1.20888e-07
-1.14449e-06
1.20011e-07
-1.18128e-06
1.19383e-07
-1.21743e-06
1.18866e-07
-1.25309e-06
1.18375e-07
-1.28838e-06
1.1787e-07
-1.32335e-06
1.17338e-07
-1.35807e-06
1.16776e-07
-1.39253e-06
1.16186e-07
-1.42678e-06
1.15572e-07
-1.4608e-06
1.14933e-07
-1.49459e-06
1.14269e-07
-1.52816e-06
1.13579e-07
-1.5615e-06
1.1286e-07
-1.59458e-06
1.12108e-07
-1.62742e-06
1.11319e-07
-1.65998e-06
1.10488e-07
-1.69226e-06
1.09609e-07
-1.72423e-06
1.08677e-07
-1.75587e-06
1.07687e-07
-1.78717e-06
1.06631e-07
-1.81811e-06
1.05506e-07
-1.84864e-06
1.04304e-07
-1.87876e-06
1.0302e-07
-1.90843e-06
1.0165e-07
-1.93762e-06
1.00187e-07
-1.9663e-06
9.86269e-08
-1.99444e-06
9.69647e-08
-2.02201e-06
9.51964e-08
-2.04898e-06
9.33172e-08
-2.0753e-06
9.13243e-08
-2.10095e-06
8.92136e-08
-2.12589e-06
8.69828e-08
-2.15007e-06
8.46286e-08
-2.17346e-06
8.21492e-08
-2.19603e-06
7.95417e-08
-2.21773e-06
7.68049e-08
-2.23852e-06
7.39365e-08
-2.25837e-06
7.0936e-08
-2.27723e-06
6.7802e-08
-2.29507e-06
6.45349e-08
-2.31183e-06
6.11341e-08
-2.32749e-06
5.76e-08
-2.34201e-06
5.39322e-08
-2.35534e-06
5.01321e-08
-2.36744e-06
4.62e-08
-2.37829e-06
4.21377e-08
-2.38784e-06
3.79465e-08
-2.39608e-06
3.36299e-08
-2.40296e-06
2.91909e-08
-2.40846e-06
2.46353e-08
-2.41257e-06
1.99696e-08
-2.41528e-06
1.52051e-08
-2.41657e-06
1.03543e-08
-2.41645e-06
5.43802e-09
-2.4149e-06
4.79915e-10
-2.41188e-06
-4.50658e-09
-2.40729e-06
-9.53482e-09
-2.40111e-06
-1.46213e-08
-2.39329e-06
-1.97583e-08
-2.38381e-06
-2.49356e-08
-2.37266e-06
-3.01413e-08
-2.35983e-06
-3.53652e-08
-2.34531e-06
-4.05944e-08
-2.32912e-06
-4.58165e-08
-2.31124e-06
-5.10176e-08
-2.2917e-06
-5.61839e-08
-2.27051e-06
-6.13024e-08
-2.24769e-06
-6.63586e-08
-2.22327e-06
-7.13402e-08
-2.19728e-06
-7.62317e-08
-2.16976e-06
-8.10205e-08
-2.14075e-06
-8.56905e-08
-2.11029e-06
-9.02293e-08
-2.07843e-06
-9.46213e-08
-2.04523e-06
-9.88549e-08
-2.01073e-06
-1.02915e-07
-1.97502e-06
-1.06793e-07
-1.93814e-06
-1.10474e-07
-1.90018e-06
-1.1395e-07
-1.86118e-06
-1.17211e-07
-1.82125e-06
-1.20248e-07
-1.78043e-06
-1.23053e-07
-1.73882e-06
-1.25619e-07
-1.69648e-06
-1.27941e-07
-1.65349e-06
-1.30019e-07
-1.60995e-06
-1.31864e-07
-1.56592e-06
-1.33483e-07
-1.52148e-06
-1.34858e-07
-1.47672e-06
-1.35989e-07
-1.43171e-06
-1.36876e-07
-1.38651e-06
-1.37521e-07
-1.34122e-06
-1.37929e-07
-1.29589e-06
-1.38102e-07
-1.25059e-06
-1.38046e-07
-1.2054e-06
-1.3777e-07
-1.16037e-06
-1.37286e-07
-1.11556e-06
-1.36605e-07
-1.07101e-06
-1.35746e-07
-1.02676e-06
-1.34723e-07
-9.82841e-07
-1.33553e-07
-9.39273e-07
-1.32248e-07
-8.96063e-07
-1.30829e-07
-8.53236e-07
-1.29329e-07
-8.10806e-07
-1.27795e-07
-7.68788e-07
-1.26277e-07
-7.27155e-07
-1.2481e-07
-6.85882e-07
-1.23426e-07
-6.44916e-07
-1.22151e-07
-6.04214e-07
-1.21013e-07
-5.63702e-07
-1.2004e-07
-5.23315e-07
-1.19265e-07
-4.82958e-07
-1.18726e-07
-4.42539e-07
-1.18456e-07
-4.01937e-07
-1.18491e-07
-3.61039e-07
-1.18863e-07
-3.19701e-07
-1.19616e-07
-2.77781e-07
-1.20783e-07
-2.35113e-07
-1.22397e-07
-1.91535e-07
-1.24489e-07
-1.46854e-07
-1.27105e-07
-1.00884e-07
-1.3026e-07
-5.34285e-08
-1.33971e-07
-4.32383e-09
-1.38248e-07
4.66171e-08
-1.43092e-07
9.96237e-08
-1.4852e-07
1.5494e-07
-1.54512e-07
2.12803e-07
-1.61019e-07
2.73402e-07
-1.68042e-07
3.36882e-07
-1.75522e-07
4.03399e-07
-1.834e-07
4.72952e-07
-1.91687e-07
5.45402e-07
-2.00298e-07
6.20604e-07
-2.09043e-07
6.98389e-07
-2.17668e-07
7.7852e-07
-2.25893e-07
8.60667e-07
-2.3337e-07
9.44368e-07
-2.39666e-07
1.02898e-06
-2.44118e-07
1.11358e-06
-2.45718e-07
1.19687e-06
-2.42536e-07
1.27712e-06
-2.31395e-07
1.35272e-06
-2.03665e-07
-1.42202e-07
1.43015e-06
-1.27034e-08
-6.33227e-09
-2.86988e-08
1.26248e-08
-4.56288e-08
2.71303e-08
-6.31556e-08
3.96081e-08
-8.12864e-08
5.06784e-08
-1.00204e-07
6.05498e-08
-1.20082e-07
6.93037e-08
-1.41112e-07
7.70092e-08
-1.63381e-07
8.37687e-08
-1.86958e-07
8.97194e-08
-2.11809e-07
9.50179e-08
-2.37915e-07
9.98201e-08
-2.65196e-07
1.04266e-07
-2.93614e-07
1.0847e-07
-3.2309e-07
1.12514e-07
-3.53599e-07
1.16448e-07
-3.85071e-07
1.20292e-07
-4.17484e-07
1.24034e-07
-4.50762e-07
1.2764e-07
-4.84848e-07
1.31064e-07
-5.19613e-07
1.34271e-07
-5.54933e-07
1.37247e-07
-5.90585e-07
1.40016e-07
-6.26337e-07
1.42616e-07
-6.61977e-07
1.45048e-07
-6.97424e-07
1.47286e-07
-7.32591e-07
1.49309e-07
-7.67416e-07
1.51102e-07
-8.01827e-07
1.52638e-07
-8.35848e-07
1.53863e-07
-8.69537e-07
1.54744e-07
-9.02913e-07
1.553e-07
-9.35768e-07
1.5558e-07
-9.68063e-07
1.55533e-07
-1.00004e-06
1.55117e-07
-1.03224e-06
1.54367e-07
-1.0648e-06
1.53446e-07
-1.09735e-06
1.52555e-07
-1.12971e-06
1.51732e-07
-1.16182e-06
1.50966e-07
-1.19368e-06
1.50233e-07
-1.22533e-06
1.49511e-07
-1.25678e-06
1.48787e-07
-1.28807e-06
1.48051e-07
-1.31918e-06
1.47301e-07
-1.35015e-06
1.4653e-07
-1.38095e-06
1.45735e-07
-1.4116e-06
1.44913e-07
-1.44208e-06
1.44058e-07
-1.47238e-06
1.43165e-07
-1.5025e-06
1.42227e-07
-1.53243e-06
1.41239e-07
-1.56213e-06
1.40193e-07
-1.59161e-06
1.39083e-07
-1.62084e-06
1.37902e-07
-1.6498e-06
1.3664e-07
-1.67846e-06
1.35293e-07
-1.70681e-06
1.33852e-07
-1.73482e-06
1.32309e-07
-1.76246e-06
1.30659e-07
-1.78971e-06
1.28895e-07
-1.81654e-06
1.27009e-07
-1.84292e-06
1.24996e-07
-1.86881e-06
1.2285e-07
-1.89418e-06
1.20565e-07
-1.919e-06
1.18136e-07
-1.94324e-06
1.15559e-07
-1.96686e-06
1.12829e-07
-1.98982e-06
1.09942e-07
-2.01209e-06
1.06896e-07
-2.03363e-06
1.03686e-07
-2.05439e-06
1.0031e-07
-2.07435e-06
9.67666e-08
-2.09347e-06
9.30522e-08
-2.1117e-06
8.91662e-08
-2.129e-06
8.51075e-08
-2.14534e-06
8.08759e-08
-2.16068e-06
7.64712e-08
-2.17497e-06
7.18938e-08
-2.18818e-06
6.71444e-08
-2.20027e-06
6.22246e-08
-2.21121e-06
5.71361e-08
-2.22095e-06
5.18818e-08
-2.22947e-06
4.64652e-08
-2.23673e-06
4.08908e-08
-2.2427e-06
3.51646e-08
-2.24736e-06
2.92941e-08
-2.25067e-06
2.32889e-08
-2.25262e-06
1.71597e-08
-2.25318e-06
1.09221e-08
-2.25233e-06
4.58848e-09
-2.25003e-06
-1.82516e-09
-2.24622e-06
-8.31396e-09
-2.24089e-06
-1.48815e-08
-2.23398e-06
-2.153e-08
-2.2255e-06
-2.82483e-08
-2.21542e-06
-3.50232e-08
-2.20373e-06
-4.18382e-08
-2.19042e-06
-4.86783e-08
-2.17549e-06
-5.55259e-08
-2.15894e-06
-6.23641e-08
-2.14078e-06
-6.91745e-08
-2.12102e-06
-7.59389e-08
-2.09967e-06
-8.26396e-08
-2.07676e-06
-8.92577e-08
-2.05231e-06
-9.57756e-08
-2.02636e-06
-1.02173e-07
-1.99893e-06
-1.08434e-07
-1.97007e-06
-1.14535e-07
-1.93982e-06
-1.20462e-07
-1.90824e-06
-1.26194e-07
-1.87537e-06
-1.31715e-07
-1.84127e-06
-1.37006e-07
-1.806e-06
-1.42055e-07
-1.76962e-06
-1.46844e-07