/*--------------------------------*- C++ -*----------------------------------*\
  =========                 |
  \\      /  F ield         | OpenFOAM: The Open Source CFD Toolbox
   \\    /   O peration     | Website:  https://openfoam.org
    \\  /    A nd           | Version:  8
     \\/     M anipulation  |
\*---------------------------------------------------------------------------*/
FoamFile
{
    version     2.0;
    format      ascii;
    class       volVectorField;
    location    "195";
    object      U;
}
// * * * * * * * * * * * * * * * * * * * * * * * * * * * * * * * * * * * * * //

dimensions      [0 1 -1 0 0 0 0];

internalField   nonuniform List<vector> 
12225
(
(9.85699 -0.886633 0)
(9.66629 -0.740717 0)
(9.45576 -0.429419 0)
(9.22448 -0.222143 0)
(9.00644 -0.106393 0)
(8.81429 -0.0458068 0)
(8.64735 -0.0151198 0)
(8.50514 0.000502311 0)
(8.3834 0.00843316 0)
(8.28057 0.0123238 0)
(8.19205 0.0140328 0)
(8.11575 0.0150446 0)
(8.04879 0.0154775 0)
(7.98955 0.0156688 0)
(7.93584 0.0157708 0)
(7.88894 0.0157341 0)
(7.83341 0.0180437 0)
(7.82384 0.0128056 0)
(10.0545 0.227707 0)
(10.1213 0.326967 0)
(10.1196 0.261655 0)
(10.0856 0.186598 0)
(10.0434 0.134706 0)
(9.99668 0.101145 0)
(9.94395 0.0793154 0)
(9.88516 0.0645938 0)
(9.82378 0.0542917 0)
(9.76121 0.0467117 0)
(9.6997 0.0409585 0)
(9.63981 0.0364256 0)
(9.58243 0.0327877 0)
(9.52791 0.0299826 0)
(9.47591 0.0275721 0)
(9.42819 0.0268888 0)
(9.38009 0.0240418 0)
(9.34627 0.0343189 0)
(10.0035 0.058156 0)
(10.0305 0.055953 0)
(10.056 0.0337814 0)
(10.0703 0.0328968 0)
(10.077 0.0406501 0)
(10.0778 0.0465534 0)
(10.0725 0.0493735 0)
(10.0613 0.0503262 0)
(10.046 0.0502347 0)
(10.0276 0.0495349 0)
(10.007 0.0485112 0)
(9.98472 0.0473753 0)
(9.9615 0.0462358 0)
(9.93775 0.0452402 0)
(9.91368 0.0442935 0)
(9.8901 0.0440854 0)
(9.86651 0.0435432 0)
(9.84477 0.0465396 0)
(9.99772 0.0109503 0)
(10.0111 0.0266242 0)
(10.035 0.0371306 0)
(10.0525 0.0480788 0)
(10.0643 0.0554548 0)
(10.0734 0.0581946 0)
(10.0794 0.0583737 0)
(10.0823 0.0576426 0)
(10.0827 0.0566082 0)
(10.0811 0.0554317 0)
(10.0779 0.0541867 0)
(10.0735 0.0529967 0)
(10.0681 0.0518655 0)
(10.0619 0.0509091 0)
(10.055 0.0500485 0)
(10.0479 0.0497275 0)
(10.0407 0.049339 0)
(10.0338 0.0502819 0)
(9.99935 0.00710229 0)
(10.009 0.0317012 0)
(10.0275 0.043919 0)
(10.0418 0.049926 0)
(10.0527 0.0536231 0)
(10.0628 0.0552554 0)
(10.0715 0.0555456 0)
(10.0783 0.0552686 0)
(10.0833 0.0547424 0)
(10.0871 0.054062 0)
(10.0899 0.0532856 0)
(10.0917 0.0525137 0)
(10.0928 0.0517703 0)
(10.0934 0.0511426 0)
(10.0935 0.050604 0)
(10.0933 0.0503812 0)
(10.0932 0.0501945 0)
(10.0932 0.0504382 0)
(10.0003 0.00915203 0)
(10.0083 0.0312191 0)
(10.0227 0.0409591 0)
(10.0349 0.0454079 0)
(10.045 0.0490584 0)
(10.0547 0.0514009 0)
(10.0637 0.0523927 0)
(10.0713 0.05264 0)
(10.0778 0.0525252 0)
(10.0833 0.0521885 0)
(10.0881 0.0517093 0)
(10.0922 0.0511808 0)
(10.0958 0.0506462 0)
(10.099 0.05017 0)
(10.1018 0.0497528 0)
(10.1044 0.0494949 0)
(10.1071 0.0492618 0)
(10.1099 0.0490659 0)
(10.0004 0.00892709 0)
(10.0071 0.0271213 0)
(10.0191 0.0364331 0)
(10.0301 0.0414134 0)
(10.0396 0.0454416 0)
(10.0486 0.0481148 0)
(10.0572 0.049395 0)
(10.0648 0.0498797 0)
(10.0716 0.0499733 0)
(10.0777 0.0498239 0)
(10.0832 0.049513 0)
(10.0882 0.0491227 0)
(10.0927 0.0487029 0)
(10.097 0.0483 0)
(10.1009 0.0479222 0)
(10.1048 0.0476035 0)
(10.1086 0.0472622 0)
(10.1126 0.0468031 0)
(10.0004 0.00790482 0)
(10.006 0.0233997 0)
(10.0161 0.0327574 0)
(10.0263 0.038129 0)
(10.0351 0.0421294 0)
(10.0436 0.0448212 0)
(10.0517 0.046244 0)
(10.0591 0.0468934 0)
(10.0658 0.0471365 0)
(10.072 0.0471204 0)
(10.0777 0.046927 0)
(10.083 0.0466304 0)
(10.088 0.0462815 0)
(10.0927 0.0459147 0)
(10.0971 0.0455379 0)
(10.1015 0.0451524 0)
(10.1058 0.0446978 0)
(10.1102 0.0440719 0)
(10.0004 0.00695575 0)
(10.005 0.0204387 0)
(10.0137 0.0294758 0)
(10.0228 0.0348913 0)
(10.0312 0.0387496 0)
(10.0391 0.0414211 0)
(10.0468 0.0429658 0)
(10.0539 0.0437561 0)
(10.0605 0.0441172 0)
(10.0666 0.0442016 0)
(10.0724 0.0440928 0)
(10.0777 0.0438597 0)
(10.0828 0.0435512 0)
(10.0877 0.0431949 0)
(10.0924 0.0427962 0)
(10.0969 0.0423435 0)
(10.1014 0.0417881 0)
(10.1059 0.0410533 0)
(10.0004 0.00612922 0)
(10.0043 0.01787 0)
(10.0116 0.0262982 0)
(10.0198 0.0316134 0)
(10.0276 0.0353474 0)
(10.0351 0.0379845 0)
(10.0424 0.0396099 0)
(10.0492 0.0405042 0)
(10.0556 0.0409531 0)
(10.0616 0.0411114 0)
(10.0673 0.0410631 0)
(10.0726 0.0408725 0)
(10.0777 0.0405847 0)
(10.0826 0.0402241 0)
(10.0874 0.0397942 0)
(10.092 0.0392813 0)
(10.0964 0.038647 0)
(10.1009 0.0378441 0)
(10.0003 0.00537179 0)
(10.0037 0.0155607 0)
(10.0099 0.0232607 0)
(10.0172 0.0283794 0)
(10.0245 0.0319727 0)
(10.0315 0.0345342 0)
(10.0383 0.0361856 0)
(10.0449 0.0371446 0)
(10.0511 0.0376545 0)
(10.0569 0.0378651 0)
(10.0625 0.0378594 0)
(10.0678 0.0376962 0)
(10.0728 0.0374177 0)
(10.0777 0.037046 0)
(10.0824 0.0365852 0)
(10.0869 0.0360242 0)
(10.0913 0.0353351 0)
(10.0957 0.0344955 0)
(10.0003 0.00470808 0)
(10.0032 0.0136214 0)
(10.0086 0.0206153 0)
(10.0152 0.0254693 0)
(10.0219 0.0288974 0)
(10.0285 0.0313541 0)
(10.035 0.0329868 0)
(10.0413 0.0339725 0)
(10.0473 0.0345159 0)
(10.053 0.0347568 0)
(10.0584 0.0347756 0)
(10.0636 0.0346273 0)
(10.0686 0.0343507 0)
(10.0733 0.0339672 0)
(10.0779 0.0334824 0)
(10.0824 0.0328896 0)
(10.0867 0.0321701 0)
(10.0909 0.0313196 0)
(10.0003 0.00409407 0)
(10.0028 0.0118533 0)
(10.0075 0.0181169 0)
(10.0134 0.0226299 0)
(10.0196 0.0258582 0)
(10.0259 0.0281842 0)
(10.032 0.0297654 0)
(10.038 0.0307503 0)
(10.0438 0.0313082 0)
(10.0493 0.0315652 0)
(10.0546 0.0315981 0)
(10.0597 0.031458 0)
(10.0646 0.031181 0)
(10.0693 0.0307877 0)
(10.0738 0.0302859 0)
(10.0781 0.029674 0)
(10.0823 0.0289403 0)
(10.0864 0.0280953 0)
(10.0002 0.00345974 0)
(10.0024 0.0100163 0)
(10.0064 0.0154375 0)
(10.0117 0.0194843 0)
(10.0174 0.0224289 0)
(10.0232 0.0245643 0)
(10.029 0.0260429 0)
(10.0347 0.0269886 0)
(10.0402 0.0275354 0)
(10.0456 0.0277912 0)
(10.0507 0.0278261 0)
(10.0556 0.0276873 0)
(10.0604 0.0274068 0)
(10.0649 0.0270057 0)
(10.0693 0.0264932 0)
(10.0735 0.0258734 0)
(10.0776 0.0251409 0)
(10.0815 0.0243173 0)
(10.0002 0.002801 0)
(10.002 0.00810835 0)
(10.0055 0.0125869 0)
(10.0101 0.0160377 0)
(10.0153 0.0185962 0)
(10.0206 0.0204652 0)
(10.026 0.0217765 0)
(10.0314 0.0226307 0)
(10.0367 0.023129 0)
(10.0418 0.0233574 0)
(10.0467 0.0233769 0)
(10.0515 0.0232285 0)
(10.0561 0.0229415 0)
(10.0605 0.0225348 0)
(10.0647 0.022021 0)
(10.0688 0.0214068 0)
(10.0727 0.0206943 0)
(10.0764 0.0199089 0)
(10.0002 0.00211711 0)
(10.0017 0.0061312 0)
(10.0047 0.0095734 0)
(10.0087 0.0122942 0)
(10.0134 0.0143472 0)
(10.0183 0.0158565 0)
(10.0233 0.016921 0)
(10.0283 0.0176169 0)
(10.0333 0.0180157 0)
(10.0382 0.0181807 0)
(10.0429 0.0181604 0)
(10.0475 0.0179881 0)
(10.0519 0.0176888 0)
(10.0561 0.0172798 0)
(10.0602 0.0167739 0)
(10.0641 0.0161807 0)
(10.0678 0.015505 0)
(10.0714 0.0147756 0)
(10.0002 0.00140505 0)
(10.0015 0.00407049 0)
(10.0041 0.00638008 0)
(10.0076 0.00823605 0)
(10.0118 0.00965217 0)
(10.0163 0.0106927 0)
(10.0209 0.0114183 0)
(10.0256 0.011878 0)
(10.0304 0.0121163 0)
(10.035 0.0121742 0)
(10.0395 0.012084 0)
(10.0439 0.0118705 0)
(10.0481 0.0115515 0)
(10.0522 0.0111419 0)
(10.0561 0.0106522 0)
(10.0598 0.0100931 0)
(10.0633 0.00946913 0)
(10.0667 0.00880894 0)
(10.0001 0.000648229 0)
(10.0013 0.00187399 0)
(10.0036 0.00293398 0)
(10.0069 0.00378218 0)
(10.0107 0.0044193 0)
(10.0148 0.00486762 0)
(10.0192 0.00515001 0)
(10.0237 0.0052863 0)
(10.0281 0.00529556 0)
(10.0326 0.0051958 0)
(10.0369 0.00500213 0)
(10.0411 0.00472677 0)
(10.0451 0.00437956 0)
(10.049 0.00396917 0)
(10.0527 0.00350293 0)
(10.0563 0.00298838 0)
(10.0597 0.00242953 0)
(10.0629 0.00185006 0)
(10.0001 -0.000196582 0)
(10.0012 -0.000581008 0)
(10.0034 -0.000939006 0)
(10.0066 -0.00126074 0)
(10.0102 -0.00154567 0)
(10.0143 -0.00180767 0)
(10.0185 -0.00206505 0)
(10.0228 -0.00232956 0)
(10.0272 -0.00260924 0)
(10.0314 -0.00290936 0)
(10.0356 -0.00323508 0)
(10.0397 -0.00358849 0)
(10.0436 -0.00397111 0)
(10.0473 -0.004382 0)
(10.0509 -0.00482041 0)
(10.0544 -0.00528327 0)
(10.0576 -0.00577012 0)
(10.0607 -0.00626353 0)
(10.0001 -0.0010051 0)
(10.0013 -0.00293785 0)
(10.0037 -0.00466339 0)
(10.007 -0.00610083 0)
(10.0108 -0.0072467 0)
(10.015 -0.0081613 0)
(10.0193 -0.00890572 0)
(10.0237 -0.00952258 0)
(10.0281 -0.0100456 0)
(10.0324 -0.0105073 0)
(10.0365 -0.0109316 0)
(10.0405 -0.0113364 0)
(10.0444 -0.011732 0)
(10.0481 -0.0121269 0)
(10.0517 -0.0125251 0)
(10.055 -0.0129301 0)
(10.0582 -0.013343 0)
(10.0613 -0.0137542 0)
(10.0002 -0.00170245 0)
(10.0015 -0.0049966 0)
(10.0041 -0.00791887 0)
(10.0078 -0.0102659 0)
(10.012 -0.0120587 0)
(10.0165 -0.0134479 0)
(10.021 -0.0145392 0)
(10.0256 -0.0153904 0)
(10.0301 -0.0160577 0)
(10.0344 -0.0166005 0)
(10.0386 -0.0170625 0)
(10.0427 -0.0174734 0)
(10.0466 -0.0178515 0)
(10.0503 -0.0182116 0)
(10.0538 -0.018562 0)
(10.0571 -0.0189092 0)
(10.0603 -0.0192563 0)
(10.0633 -0.0195973 0)
(10.0002 -0.00236452 0)
(10.0016 -0.00703044 0)
(10.0047 -0.0111719 0)
(10.009 -0.0143387 0)
(10.0137 -0.016632 0)
(10.0185 -0.0183623 0)
(10.0234 -0.0196901 0)
(10.0282 -0.0206858 0)
(10.0329 -0.0214317 0)
(10.0374 -0.0220081 0)
(10.0417 -0.0224724 0)
(10.0458 -0.0228605 0)
(10.0497 -0.0232 0)
(10.0534 -0.0235092 0)
(10.0569 -0.0238025 0)
(10.0603 -0.0240861 0)
(10.0634 -0.0243671 0)
(10.0664 -0.0246392 0)
(10.0002 -0.00298365 0)
(10.0018 -0.00909002 0)
(10.0054 -0.0144476 0)
(10.0105 -0.0183355 0)
(10.0159 -0.0210772 0)
(10.0212 -0.0230971 0)
(10.0263 -0.0245503 0)
(10.0314 -0.0255623 0)
(10.0363 -0.0262872 0)
(10.041 -0.026835 0)
(10.0454 -0.0272623 0)
(10.0495 -0.0276047 0)
(10.0535 -0.0278916 0)
(10.0572 -0.0281456 0)
(10.0607 -0.0283806 0)
(10.0641 -0.0286052 0)
(10.0672 -0.0288248 0)
(10.0702 -0.029037 0)
(10.0001 -0.00352786 0)
(10.0018 -0.0115485 0)
(10.0063 -0.0178885 0)
(10.0123 -0.0219847 0)
(10.0183 -0.0250491 0)
(10.0241 -0.0274566 0)
(10.0297 -0.0290928 0)
(10.0351 -0.0301014 0)
(10.0402 -0.0307526 0)
(10.0449 -0.0312113 0)
(10.0494 -0.0315449 0)
(10.0537 -0.0317945 0)
(10.0577 -0.0319934 0)
(10.0614 -0.0321662 0)
(10.065 -0.0323254 0)
(10.0683 -0.0324794 0)
(10.0714 -0.0326306 0)
(10.0744 -0.0327771 0)
(9.99991 -0.00337213 0)
(10.0016 -0.0149819 0)
(10.0073 -0.0227334 0)
(10.0142 -0.0262403 0)
(10.0206 -0.0288236 0)
(10.0269 -0.0311869 0)
(10.0331 -0.0329067 0)
(10.039 -0.0339937 0)
(10.0445 -0.0346926 0)
(10.0495 -0.0351558 0)
(10.0541 -0.0354537 0)
(10.0584 -0.0356407 0)
(10.0624 -0.0357627 0)
(10.0661 -0.0358504 0)
(10.0695 -0.0359221 0)
(10.0727 -0.0359876 0)
(10.0756 -0.0360518 0)
(10.0783 -0.0361133 0)
(9.99859 -0.000379824 0)
(9.99904 -0.0157938 0)
(10.0076 -0.0274324 0)
(10.0166 -0.0324871 0)
(10.0238 -0.0348617 0)
(10.0306 -0.0362165 0)
(10.0376 -0.0369676 0)
(10.0441 -0.0374343 0)
(10.0499 -0.0377829 0)
(10.055 -0.0380298 0)
(10.0596 -0.0381749 0)
(10.0637 -0.0382437 0)
(10.0672 -0.0382652 0)
(10.0704 -0.0382611 0)
(10.0732 -0.0382464 0)
(10.0756 -0.0382297 0)
(10.0778 -0.038215 0)
(10.0796 -0.0381997 0)
(9.99487 0.00140704 0)
(9.99287 -0.00812093 0)
(10.006 -0.0203274 0)
(10.0202 -0.0322587 0)
(10.0307 -0.0404649 0)
(10.0392 -0.0441384 0)
(10.0467 -0.0450516 0)
(10.0529 -0.0449083 0)
(10.0578 -0.0444421 0)
(10.0617 -0.0438462 0)
(10.0647 -0.0432022 0)
(10.0668 -0.0425664 0)
(10.0683 -0.0419727 0)
(10.0691 -0.0414296 0)
(10.0695 -0.040946 0)
(10.0693 -0.0405198 0)
(10.0689 -0.0401476 0)
(10.0681 -0.0398036 0)
(9.9947 -0.0305764 0)
(9.99943 -0.022848 0)
(10.0146 -0.00261653 0)
(10.0304 -0.00189669 0)
(10.0434 -0.0116482 0)
(10.0533 -0.0209141 0)
(10.0594 -0.0272729 0)
(10.0619 -0.0315003 0)
(10.0615 -0.0342755 0)
(10.0591 -0.035972 0)
(10.0551 -0.0369046 0)
(10.0498 -0.0373386 0)
(10.0435 -0.0374646 0)
(10.0365 -0.037403 0)
(10.029 -0.0372423 0)
(10.021 -0.0370407 0)
(10.0129 -0.0368616 0)
(10.0047 -0.0366726 0)
(10.0274 -0.183006 0)
(10.0766 -0.288323 0)
(10.0871 -0.247819 0)
(10.0777 -0.186556 0)
(10.0664 -0.140319 0)
(10.0538 -0.108238 0)
(10.0365 -0.0858899 0)
(10.0146 -0.0704305 0)
(9.98939 -0.0596584 0)
(9.96236 -0.0518815 0)
(9.93439 -0.0460585 0)
(9.90608 -0.0415602 0)
(9.87791 -0.0380036 0)
(9.85022 -0.0351273 0)
(9.82323 -0.0327643 0)
(9.79707 -0.0308409 0)
(9.77198 -0.0293233 0)
(9.74799 -0.0285086 0)
(9.93575 0.689542 0)
(9.86828 0.609596 0)
(9.76459 0.380607 0)
(9.62663 0.217413 0)
(9.4859 0.119244 0)
(9.35722 0.0631627 0)
(9.24271 0.031551 0)
(9.14114 0.0135998 0)
(9.05148 0.0032466 0)
(8.97251 -0.00281401 0)
(8.90262 -0.00636728 0)
(8.84045 -0.00848536 0)
(8.78476 -0.0097319 0)
(8.73465 -0.0104901 0)
(8.68924 -0.0109712 0)
(8.64789 -0.0112483 0)
(8.60971 -0.0114734 0)
(8.57436 -0.0121128 0)
(0.00719019 -0.0167257 -8.11954e-19)
(0.0207008 -0.0198264 6.26511e-19)
(0.0293313 -0.0126239 0)
(0.0322912 -0.00282076 0)
(0.0289558 0.00590967 0)
(0.0206555 0.0123148 -2.78587e-19)
(0.00868062 0.0164831 0)
(-0.00588179 0.0189447 0)
(-0.0222379 0.0203213 0)
(-0.0399317 0.0211159 0)
(-0.0586422 0.0216498 1.52803e-19)
(-0.0781936 0.0220854 0)
(-0.0984954 0.0224919 0)
(-0.119513 0.0228516 0)
(-0.14124 0.0231048 0)
(-0.163681 0.0231519 1.05376e-19)
(-0.186812 0.0229156 0)
(-0.210583 0.0222326 0)
(-0.23499 0.0207735 0)
(-0.259925 0.0189687 0)
(-0.285171 0.0173252 0)
(-0.310538 0.0160793 0)
(-0.335848 0.0167178 0)
(-0.361422 0.0206778 6.8135e-20)
(-0.388256 0.025518 -6.56366e-20)
(-0.416498 0.0293202 6.38473e-20)
(-0.445506 0.0331673 6.2458e-20)
(-0.475706 0.0375046 0)
(-0.507365 0.0430197 0)
(-0.540539 0.0496671 -6.07853e-20)
(-0.57522 0.0523533 -6.03153e-20)
(-0.610785 0.0512934 0)
(-0.645082 0.0586067 0)
(-0.681575 0.0782535 -5.84699e-20)
(-0.721743 0.100024 0)
(-0.763682 0.0727875 0)
(-0.802449 0.0290431 8.19168e-20)
(-0.833286 0.0322087 0)
(-0.869658 0.0333922 7.62907e-20)
(-0.907185 0.0344259 1.47505e-19)
(-0.945799 0.0349102 0)
(-0.984899 0.0350768 0)
(-1.02426 0.0350436 0)
(-1.06374 0.0349002 0)
(-1.10327 0.0346961 0)
(-1.14278 0.0344504 1.23383e-19)
(-1.18225 0.0341857 1.202e-19)
(-1.22166 0.0339015 1.17203e-19)
(-1.26099 0.0336119 0)
(-1.30023 0.0333101 -1.11707e-19)
(-1.33936 0.0330075 0)
(-1.37838 0.0326941 1.06784e-19)
(-1.41728 0.0323794 1.04509e-19)
(-1.45603 0.0320537 0)
(-1.49462 0.0317249 0)
(-1.53304 0.0313816 0)
(-1.57126 0.0310315 9.6439e-20)
(-1.60927 0.0306647 0)
(-1.64704 0.0302882 0)
(-1.68455 0.029891 0)
(-1.72177 0.0294804 0)
(-1.75867 0.0290473 0)
(-1.79521 0.0285979 0)
(-1.83137 0.0281227 0)
(-1.86711 0.0276284 0)
(-1.90239 0.0271063 -8.25753e-20)
(-1.93718 0.0265632 0)
(-1.97144 0.0259909 0)
(-2.00511 0.0253963 7.88432e-20)
(-2.03817 0.0247716 7.7669e-20)
(-2.07056 0.0241235 0)
(-2.10224 0.0234445 -7.54091e-20)
(-2.13316 0.0227413 7.43183e-20)
(-2.16328 0.0220066 0)
(-2.19254 0.021247 -7.22031e-20)
(-2.22091 0.0204559 0)
(-2.24832 0.0196394 0)
(-2.27473 0.018792 6.91627e-20)
(-2.30009 0.0179183 0)
(-2.32434 0.017012 -6.71988e-20)
(-2.34743 0.0160768 0)
(-2.3693 0.0151068 6.52665e-20)
(-2.38991 0.0141035 6.43073e-20)
(-2.4092 0.0130588 6.33504e-20)
(-2.42711 0.0119724 1.24787e-19)
(-2.44359 0.0108354 -1.22872e-19)
(-2.45856 0.0096446 0)
(-2.47195 0.00839064 0)
(-2.48369 0.00707159 0)
(-2.49368 0.00568638 -1.15126e-19)
(-2.50184 0.0042489 -1.13164e-19)
(-2.50809 0.00279731 1.1119e-19)
(-2.51227 0.00141009 0)
(-2.51429 0.000165291 -1.07142e-19)
(-2.51457 -0.000957858 -1.0503e-19)
(-2.51315 -0.00203487 -1.02871e-19)
(-2.51004 -0.00309738 0)
(-2.50524 -0.004158 0)
(-2.49875 -0.00521722 0)
(-2.49057 -0.00627376 -9.36737e-20)
(-2.48068 -0.00732464 0)
(-2.46908 -0.0083688 0)
(-2.45578 -0.00940454 8.60846e-20)
(-2.44078 -0.0104294 0)
(-2.42409 -0.0114423 0)
(-2.40573 -0.0124396 7.78042e-20)
(-2.38572 -0.0134205 0)
(-2.36408 -0.0143803 0)
(-2.34085 -0.0153187 -6.87543e-20)
(-2.31607 -0.0162301 -6.55554e-20)
(-2.28976 -0.017115 0)
(-2.26198 -0.0179671 5.88717e-20)
(-2.23276 -0.0187876 0)
(-2.20217 -0.0195703 -5.1797e-20)
(-2.17026 -0.020317 0)
(-2.13709 -0.021021 -4.43223e-20)
(-2.10273 -0.0216837 -4.04335e-20)
(-2.06723 -0.0222982 0)
(-2.03067 -0.0228667 0)
(-1.99313 -0.0233857 0)
(-1.95468 -0.0238603 0)
(-1.91537 -0.0242833 0)
(-1.87531 -0.024661 0)
(-1.83455 -0.0249912 0)
(-1.79318 -0.0252699 -5.69906e-21)
(-1.7513 -0.0254899 9.16685e-22)
(-1.70897 -0.0256563 0)
(-1.6663 -0.0257659 0)
(-1.62334 -0.0258209 0)
(-1.5802 -0.0258187 0)
(-1.53693 -0.0257592 -4.87209e-20)
(-1.49363 -0.0256437 0)
(-1.45035 -0.0254704 7.01383e-20)
(-1.40718 -0.025245 -8.10832e-20)
(-1.36417 -0.024964 0)
(-1.32138 -0.0246371 0)
(-1.27886 -0.0242562 0)
(-1.23664 -0.0238321 1.26316e-19)
(-1.19472 -0.0233539 1.37965e-19)
(-1.15314 -0.0228441 0)
(-1.11196 -0.0223037 1.6162e-19)
(-1.07123 -0.0217508 1.73615e-19)
(-1.03096 -0.0211891 -1.85719e-19)
(-0.991147 -0.0206261 0)
(-0.951762 -0.0200599 0)
(-0.91277 -0.0195004 -2.2277e-19)
(-0.874131 -0.0189464 0)
(-0.835795 -0.0184138 0)
(-0.797699 -0.0179029 0)
(-0.759763 -0.0174284 0)
(-0.721903 -0.016988 2.87962e-19)
(-0.684022 -0.0166002 3.018e-19)
(-0.646008 -0.0162722 0)
(-0.607738 -0.0160201 3.30713e-19)
(-0.569086 -0.0158474 0)
(-0.529911 -0.0157732 0)
(-0.490061 -0.0158073 3.78601e-19)
(-0.449377 -0.0159662 0)
(-0.407692 -0.016263 4.15186e-19)
(-0.364821 -0.0167229 0)
(-0.320581 -0.0173476 0)
(-0.274791 -0.0181499 4.81412e-19)
(-0.227227 -0.0191655 0)
(-0.17771 -0.020465 5.37101e-19)
(-0.126134 -0.0220459 0)
(-0.0724269 -0.023797 0)
(-0.0166461 -0.0254381 0)
(0.0407459 -0.026479 -6.41308e-19)
(0.100717 -0.0272201 0)
(0.164168 -0.0281455 6.04027e-19)
(0.231126 -0.0291673 0)
(0.301703 -0.0302097 0)
(0.375887 -0.031229 0)
(0.453467 -0.0321586 0)
(0.534059 -0.0328894 0)
(0.616755 -0.0332745 0)
(0.701053 -0.0329782 0)
(0.78077 -0.0312884 -1.0129e-18)
(0.863643 -0.026174 0)
(0.88277 -0.00430299 0)
(0.00436502 -0.0416892 1.82334e-18)
(0.00768764 -0.0304881 -9.84313e-19)
(0.00497936 -0.0123919 0)
(-0.000919153 0.00490434 2.96627e-19)
(-0.00944097 0.019807 0)
(-0.0205744 0.031722 1.09737e-19)
(-0.0341406 0.0407081 -1.98899e-19)
(-0.0499446 0.0472192 -1.82614e-19)
(-0.0677123 0.0518695 0)
(-0.0871576 0.055233 -1.57409e-19)
(-0.10803 0.0577693 -7.37842e-20)
(-0.130139 0.0597975 0)
(-0.15335 0.0615323 0)
(-0.177581 0.0630946 0)
(-0.202787 0.0645545 0)
(-0.228947 0.0659351 -5.83298e-20)
(-0.256036 0.0672475 0)
(-0.28404 0.0684852 1.09586e-19)
(-0.312977 0.0696457 0)
(-0.342855 0.0707159 0)
(-0.373682 0.0717094 -9.94499e-20)
(-0.405606 0.0726452 0)
(-0.438757 0.0738078 9.25436e-20)
(-0.473036 0.0755279 -4.48628e-20)
(-0.508341 0.0775932 4.37381e-20)
(-0.54462 0.0794632 -4.28294e-20)
(-0.58194 0.0811541 -4.21004e-20)
(-0.620101 0.0827676 0)
(-0.658858 0.0841746 0)
(-0.697857 0.0851502 4.13892e-20)
(-0.737293 0.0854106 -4.08585e-20)
(-0.777526 0.0852547 0)
(-0.81938 0.085289 0)
(-0.860204 0.086124 4.08885e-20)
(-0.897021 0.0871322 0)
(-0.935816 0.0870719 0)
(-0.977229 0.0874407 -4.07676e-20)
(-1.01963 0.0893041 0)
(-1.05918 0.0903773 3.85025e-20)
(-1.09732 0.0906711 -7.56415e-20)
(-1.13472 0.0905026 0)
(-1.17167 0.0900253 0)
(-1.20831 0.089359 -1.41093e-19)
(-1.24469 0.0885672 -1.38159e-19)
(-1.28083 0.0877021 -1.35371e-19)
(-1.31675 0.0867843 6.61934e-20)
(-1.35244 0.0858388 -6.52569e-20)
(-1.38792 0.0848679 -1.91821e-19)
(-1.42317 0.083885 1.25464e-19)
(-1.45819 0.0828845 6.17886e-20)
(-1.49298 0.0818751 0)
(-1.52752 0.0808479 -5.97108e-20)
(-1.56181 0.079809 5.8415e-20)
(-1.59584 0.0787487 0)
(-1.62957 0.0776716 0)
(-1.66301 0.076566 0)
(-1.69613 0.0754366 -5.51524e-20)
(-1.7289 0.0742731 0)
(-1.76131 0.0730795 1.06765e-19)
(-1.79334 0.0718448 0)
(-1.82495 0.0705741 1.03716e-19)
(-1.85612 0.0692578 0)
(-1.88682 0.0679005 -1.00827e-19)
(-1.91702 0.0664925 0)
(-1.94668 0.065039 9.80729e-20)
(-1.97579 0.0635314 -4.8237e-20)
(-2.0043 0.0619755 0)
(-2.03217 0.0603637 -9.41488e-20)
(-2.05938 0.0587022 -4.65661e-20)
(-2.08589 0.0569838 -4.59406e-20)
(-2.11165 0.055215 0)
(-2.13664 0.0533891 -4.44892e-20)
(-2.16081 0.0515126 -4.41079e-20)
(-2.18412 0.0495795 0)
(-2.20655 0.0475963 4.29124e-20)
(-2.22804 0.0455579 -8.44518e-20)
(-2.24856 0.0434713 0)
(-2.26806 0.0413328 -4.11382e-20)
(-2.28651 0.0391484 0)
(-2.30387 0.0369135 1.19725e-19)
(-2.32009 0.034634 0)
(-2.33513 0.0323065 -1.16181e-19)
(-2.34896 0.0299357 -3.81666e-20)
(-2.36155 0.0275176 3.74688e-20)
(-2.37284 0.0250559 7.3745e-20)
(-2.38282 0.0225465 -7.25407e-20)
(-2.39144 0.0199909 0)
(-2.39869 0.0173832 0)
(-2.40454 0.0147218 0)
(-2.409 0.0120022 2.02725e-19)
(-2.41211 0.00922649 6.62585e-20)
(-2.41392 0.00641998 -6.49279e-20)
(-2.41453 0.00365254 0)
(-2.41404 0.0010144 -6.22679e-20)
(-2.41212 -0.00149951 6.07114e-20)
(-2.40865 -0.00395371 5.92447e-20)
(-2.40357 -0.00637032 0)
(-2.39686 -0.00876065 0)
(-2.38851 -0.0111243 0)
(-2.3785 -0.0134593 5.30825e-20)
(-2.36684 -0.0157601 0)
(-2.35351 -0.0180218 -1.00037e-19)
(-2.33852 -0.0202386 -1.44832e-19)
(-2.32189 -0.0224054 9.33064e-20)
(-2.30361 -0.0245178 0)
(-2.28372 -0.0265705 4.34368e-20)
(-2.26223 -0.0285599 0)
(-2.23916 -0.0304795 7.90147e-20)
(-2.21456 -0.0323263 -3.79792e-20)
(-2.18846 -0.0340935 -3.60904e-20)
(-2.16089 -0.035779 0)
(-2.13191 -0.0373757 -9.50305e-20)
(-2.10155 -0.0388826 5.96067e-20)
(-2.06988 -0.0402932 2.73316e-20)
(-2.03696 -0.041608 0)
(-2.00283 -0.0428208 2.31363e-20)
(-1.96757 -0.0439325 6.39521e-20)
(-1.93124 -0.0449371 0)
(-1.89391 -0.045836 3.43102e-20)
(-1.85565 -0.046625 2.99213e-20)
(-1.81654 -0.0473086 2.54925e-20)
(-1.77664 -0.0478879 0)
(-1.73603 -0.0483742 0)
(-1.69479 -0.0487596 0)
(-1.653 -0.0490456 -4.29048e-21)
(-1.61074 -0.0492305 -9.05021e-22)
(-1.56808 -0.049318 0)
(-1.52511 -0.0493063 6.21477e-21)
(-1.48189 -0.049203 1.0787e-20)
(-1.4385 -0.0490073 0)
(-1.39502 -0.0487245 2.10233e-20)
(-1.35151 -0.0483578 4.89155e-20)
(-1.30804 -0.0479118 -3.00696e-20)
(-1.26468 -0.0473935 -3.24064e-20)
(-1.22148 -0.0468065 0)
(-1.17849 -0.0461618 0)
(-1.13575 -0.0454606 0)
(-1.09328 -0.0447103 -5.20915e-20)
(-1.0511 -0.0439125 5.44349e-20)
(-1.00924 -0.0430833 1.19241e-19)
(-0.967718 -0.0422425 -6.4677e-20)
(-0.926577 -0.0414081 6.70011e-20)
(-0.885818 -0.0405998 7.27045e-20)
(-0.84542 -0.0398206 0)
(-0.805349 -0.0390824 0)
(-0.765561 -0.0383867 -8.26922e-20)
(-0.726005 -0.0377469 0)
(-0.686619 -0.037167 0)
(-0.647327 -0.0366643 1.88352e-19)
(-0.60804 -0.036242 0)
(-0.568657 -0.0359164 1.00398e-19)
(-0.529063 -0.0356898 -1.04667e-19)
(-0.489132 -0.0355812 0)
(-0.448722 -0.0355927 1.1005e-19)
(-0.40768 -0.0357393 0)
(-0.365842 -0.0360226 0)
(-0.323025 -0.0364636 -1.19863e-19)
(-0.27904 -0.0370569 2.45025e-19)
(-0.233681 -0.0378168 -1.25831e-19)
(-0.186732 -0.0387534 0)
(-0.137977 -0.039883 0)
(-0.0871948 -0.0411939 1.34701e-19)
(-0.0341633 -0.0426847 0)
(0.0210641 -0.0442075 1.40223e-19)
(0.0788085 -0.0457451 0)
(0.139552 -0.0473783 0)
(0.203647 -0.0490984 0)
(0.271316 -0.0509605 1.43496e-19)
(0.342447 -0.0530256 0)
(0.416877 -0.0552286 -1.46085e-19)
(0.494535 -0.057448 0)
(0.57532 -0.0595812 0)
(0.659026 -0.0615269 3.01326e-19)
(0.745311 -0.0631617 -3.05575e-19)
(0.833679 -0.0642978 0)
(0.92321 -0.0646464 0)
(1.01307 -0.0635571 0)
(1.09907 -0.0599429 9.85116e-19)
(1.18515 -0.0496307 0)
(1.23799 -0.0201237 -7.03121e-19)
(-0.00287497 -0.0428446 -1.00218e-21)
(-0.00824804 -0.0179803 9.37555e-19)
(-0.0172374 0.00563985 0)
(-0.0284693 0.0265246 -3.74458e-19)
(-0.0411937 0.0445604 0)
(-0.0551896 0.0597611 0)
(-0.0705628 0.0722174 3.43089e-24)
(-0.0874437 0.0821842 1.16395e-19)
(-0.105868 0.0900615 1.09728e-19)
(-0.125792 0.0963106 1.04158e-19)
(-0.147123 0.101376 0)
(-0.169756 0.105634 0)
(-0.193594 0.109377 -9.16853e-20)
(-0.218565 0.112812 -1.77187e-19)
(-0.24462 0.116076 1.71871e-19)
(-0.271737 0.119242 0)
(-0.299911 0.122337 1.63306e-19)
(-0.329151 0.125341 -7.97719e-20)
(-0.359495 0.128205 0)
(-0.390945 0.130899 1.52683e-19)
(-0.423447 0.133404 7.43677e-20)
(-0.45694 0.135738 -1.44803e-19)
(-0.49132 0.138109 -7.03883e-20)
(-0.526363 0.140769 0)
(-0.561793 0.143616 1.33306e-19)
(-0.597453 0.146395 1.30047e-19)
(-0.633318 0.149047 0)
(-0.669288 0.151613 1.24639e-19)
(-0.705192 0.154 0)
(-0.74088 0.155899 1.20445e-19)
(-0.7764 0.156928 5.93507e-20)
(-0.811832 0.157153 0)
(-0.847025 0.157356 0)
(-0.881179 0.15729 0)
(-0.914062 0.156323 0)
(-0.947189 0.153458 0)
(-0.981488 0.150015 0)
(-1.01623 0.148 1.04572e-19)
(-1.05035 0.146456 -1.53643e-19)
(-1.08389 0.145037 0)
(-1.11698 0.143598 0)
(-1.14973 0.142097 0)
(-1.18222 0.140538 1.78336e-22)
(-1.2145 0.138931 9.28167e-20)
(-1.24659 0.137293 1.82058e-19)
(-1.27852 0.135631 -1.78801e-19)
(-1.31028 0.133954 -8.77508e-20)
(-1.3419 0.132264 8.64278e-20)
(-1.37335 0.130562 -1.77776e-22)
(-1.40464 0.128846 8.34186e-20)
(-1.43576 0.127115 0)
(-1.46671 0.125363 8.07849e-20)
(-1.49746 0.123589 -1.79373e-22)
(-1.528 0.121785 0)
(-1.55832 0.119948 0)
(-1.58841 0.118072 -7.60072e-20)
(-1.61824 0.116152 0)
(-1.64779 0.114183 0)
(-1.67704 0.112162 7.25939e-20)
(-1.70597 0.110081 1.43484e-19)
(-1.73455 0.107941 -7.09091e-20)
(-1.76276 0.105734 0)
(-1.79056 0.10346 6.89615e-20)
(-1.81793 0.101114 0)
(-1.84485 0.0986944 6.67673e-20)
(-1.87127 0.0961982 6.61709e-20)
(-1.89717 0.0936256 -1.30234e-19)
(-1.92251 0.0909737 -6.40831e-20)
(-1.94726 0.0882437 0)
(-1.97138 0.0854332 1.24982e-19)
(-1.99484 0.0825442 0)
(-2.0176 0.0795748 1.82479e-19)
(-2.03963 0.0765275 1.19876e-19)
(-2.06088 0.0734009 1.18195e-19)
(-2.08132 0.0701981 -1.1652e-19)
(-2.10091 0.0669188 1.7238e-19)
(-2.11962 0.0635667 0)
(-2.13739 0.0601422 0)
(-2.1542 0.0566489 -1.09834e-19)
(-2.17 0.053087 -1.62311e-19)
(-2.18476 0.0494606 0)
(-2.19844 0.0457706 5.24493e-20)
(-2.21099 0.0420211 0)
(-2.22239 0.0382135 -1.52057e-19)
(-2.23261 0.0343529 -7.74019e-23)
(-2.24161 0.0304426 5.9527e-23)
(-2.24936 0.0264893 9.60712e-20)
(-2.25585 0.0224997 0)
(-2.26104 0.0184852 -9.24597e-20)
(-2.26494 0.0144605 1.77297e-23)
(-2.26755 0.0104464 0)
(-2.26884 0.00646887 0)
(-2.26879 0.00254361 0)
(-2.26733 -0.00135058 8.27937e-20)
(-2.26439 -0.00523294 0)
(-2.25994 -0.00909358 0)
(-2.25394 -0.0129244 0)
(-2.24637 -0.0167187 0)
(-2.23721 -0.0204697 0)
(-2.22646 -0.0241697 7.01967e-20)
(-2.21411 -0.02781 0)
(-2.20016 -0.0313819 6.53969e-20)
(-2.18461 -0.0348764 6.30632e-20)
(-2.16747 -0.0382854 -6.0693e-20)
(-2.14875 -0.0416005 0)
(-2.12847 -0.0448144 -5.58446e-20)
(-2.10666 -0.0479186 0)
(-2.08334 -0.050906 -5.08555e-20)
(-2.05854 -0.0537682 4.83103e-20)
(-2.03229 -0.0564985 1.38144e-19)
(-2.00465 -0.0590894 0)
(-1.97564 -0.0615351 1.22488e-19)
(-1.94533 -0.0638293 3.8888e-20)
(-1.91376 -0.0659673 0)
(-1.88099 -0.0679447 6.59716e-20)
(-1.84708 -0.069758 6.05342e-20)
(-1.81209 -0.0714039 -8.19857e-20)
(-1.77609 -0.07288 0)
(-1.73913 -0.0741841 -2.13766e-20)
(-1.7013 -0.0753152 -1.85838e-20)
(-1.66265 -0.0762746 -4.86484e-20)
(-1.62327 -0.0770653 0)
(-1.58322 -0.0777014 0)
(-1.54258 -0.0781854 0)
(-1.50142 -0.0785095 -5.92447e-21)
(-1.45982 -0.0786767 0)
(-1.41786 -0.0786918 0)
(-1.37558 -0.0785573 -3.76198e-21)
(-1.33308 -0.0782803 -6.50863e-21)
(-1.29042 -0.0778638 0)
(-1.24767 -0.0773154 0)
(-1.20488 -0.0766414 -2.92306e-20)
(-1.16213 -0.0758517 0)
(-1.11946 -0.0749551 3.97579e-20)
(-1.07692 -0.0739628 4.36443e-20)
(-1.03457 -0.0728864 0)
(-0.992428 -0.0717355 0)
(-0.950518 -0.0705169 -5.87403e-20)
(-0.908854 -0.0692442 -1.15485e-21)
(-0.867451 -0.0679355 -1.11971e-21)
(-0.826331 -0.06662 0)
(-0.78551 -0.065322 -1.56169e-19)
(-0.744982 -0.064066 0)
(-0.70472 -0.0628616 0)
(-0.664684 -0.061726 0)
(-0.624825 -0.060666 9.54488e-20)
(-0.585086 -0.0596995 0)
(-0.545395 -0.0588353 -2.04711e-19)
(-0.505672 -0.0580955 -1.0679e-19)
(-0.465819 -0.057489 0)
(-0.42573 -0.0570358 -1.13735e-19)
(-0.385282 -0.0567431 0)
(-0.344342 -0.0566341 0)
(-0.302762 -0.0567161 -3.68879e-19)
(-0.260383 -0.0570063 2.51634e-19)
(-0.217029 -0.0575097 0)
(-0.172512 -0.0582511 2.63267e-19)
(-0.126638 -0.0592322 -1.34836e-19)
(-0.0791939 -0.0604664 0)
(-0.0299657 -0.0619519 0)
(0.0211854 -0.0636639 0)
(0.0745056 -0.0655861 -4.30845e-19)
(0.130278 -0.067727 0)
(0.188744 -0.0700964 -1.46152e-19)
(0.250168 -0.0727216 0)
(0.314724 -0.0755454 0)
(0.382597 -0.0785298 0)
(0.453912 -0.0816935 0)
(0.528592 -0.0850151 0)
(0.606503 -0.0884008 0)
(0.68751 -0.091732 -3.17028e-19)
(0.771428 -0.0948812 0)
(0.857989 -0.0977008 -1.65488e-19)
(0.9468 -0.100009 5.04416e-19)
(1.03734 -0.101531 0)
(1.12873 -0.101843 0)
(1.22017 -0.100108 -3.59048e-19)
(1.30868 -0.0948816 -3.71027e-19)
(1.39764 -0.0819837 3.80181e-19)
(1.46801 -0.0517851 3.98563e-19)
(-0.00906041 -0.0256462 -2.76071e-18)
(-0.0199561 0.00683147 -1.12051e-18)
(-0.0329664 0.0331267 -4.05097e-19)
(-0.0479698 0.0556904 -1.45537e-19)
(-0.0638708 0.0752917 0)
(-0.0803636 0.0922588 2.10873e-19)
(-0.0976096 0.106765 -9.63801e-20)
(-0.115811 0.119001 0)
(-0.135104 0.129243 -8.51803e-20)
(-0.155557 0.137825 0)
(-0.177185 0.145108 1.56097e-19)
(-0.199964 0.151427 0)
(-0.22385 0.157071 7.2746e-20)
(-0.24879 0.162262 1.41208e-19)
(-0.274738 0.16716 -1.37454e-19)
(-0.301648 0.171859 0)
(-0.329481 0.176395 -1.31168e-19)
(-0.358197 0.180753 0)
(-0.387752 0.184877 0)
(-0.418084 0.18869 -1.23009e-19)
(-0.449104 0.192149 0)
(-0.4807 0.195256 -3.1318e-23)
(-0.512731 0.198085 0)
(-0.545005 0.200728 0)
(-0.57731 0.203174 8.6391e-24)
(-0.609503 0.205352 -1.05459e-19)
(-0.641517 0.207224 -1.02862e-19)
(-0.673293 0.208777 -1.00449e-19)
(-0.70476 0.209957 0)
(-0.73588 0.210645 -1.91971e-19)
(-0.766695 0.210751 0)
(-0.797258 0.210349 -9.18684e-20)
(-0.827494 0.209592 0)
(-0.857264 0.208363 0)
(-0.886686 0.206462 8.61762e-20)
(-0.916146 0.203783 0)
(-0.945905 0.200783 -8.26521e-20)
(-0.975841 0.198054 -5.74322e-23)
(-1.00571 0.195559 1.58732e-19)
(-1.03542 0.193212 -1.55549e-19)
(-1.06495 0.19094 0)
(-1.09431 0.188701 0)
(-1.12353 0.186473 -7.34039e-20)
(-1.15262 0.184248 0)
(-1.1816 0.182022 -7.09706e-20)
(-1.21048 0.179794 6.97553e-20)
(-1.23926 0.17756 6.85859e-20)
(-1.26794 0.175317 0)
(-1.29652 0.173062 -6.63736e-20)
(-1.32498 0.17079 -6.53248e-20)
(-1.35332 0.168495 1.2846e-19)
(-1.38154 0.166171 -6.33286e-20)
(-1.40961 0.163811 -6.23763e-20)
(-1.43752 0.161409 0)
(-1.46525 0.158958 0)