# vtk DataFile Version 2.0
track0
ASCII
DATASET POLYDATA
POINTS 12075 float
-0.0205 0.001 1e-05
-0.02052 0.000999985 1e-05
-0.02054 0.000999974 1e-05
-0.02056 0.000999965 1e-05
-0.02058 0.000999959 1e-05
-0.0206 0.000999956 1e-05
-0.0205 0.00367778 1e-05
-0.02052 0.00367778 1e-05
-0.02054 0.00367777 1e-05
-0.02056 0.00367777 1e-05
-0.02058 0.00367777 1e-05
-0.0206 0.00367777 1e-05
-0.0205 0.00635556 1e-05
-0.02052 0.00635555 1e-05
-0.02054 0.00635555 1e-05
-0.02056 0.00635555 1e-05
-0.02058 0.00635555 1e-05
-0.0206 0.00635555 1e-05
-0.0205 0.00903333 1e-05
-0.02052 0.00903333 1e-05
-0.02054 0.00903333 1e-05
-0.02056 0.00903333 1e-05
-0.02058 0.00903333 1e-05
-0.0206 0.00903333 1e-05
-0.0205 0.0117111 1e-05
-0.02052 0.0117111 1e-05
-0.02054 0.0117111 1e-05
-0.02056 0.0117111 1e-05
-0.02058 0.0117111 1e-05
-0.0206 0.0117111 1e-05
-0.0205 0.0143889 1e-05
-0.02052 0.0143889 1e-05
-0.02054 0.0143889 1e-05
-0.02056 0.0143889 1e-05
-0.02058 0.0143889 1e-05
-0.0206 0.0143889 1e-05
-0.0205 0.0170667 1e-05
-0.02052 0.0170667 1e-05
-0.02054 0.0170667 1e-05
-0.02056 0.0170667 1e-05
-0.02058 0.0170667 1e-05
-0.0206 0.0170667 1e-05
-0.0205 0.0197444 1e-05
-0.02052 0.0197444 1e-05
-0.02054 0.0197444 1e-05
-0.02056 0.0197444 1e-05
-0.02058 0.0197444 1e-05
-0.0206 0.0197444 1e-05
-0.0205 0.0224222 1e-05
-0.02052 0.0224222 1e-05
-0.02054 0.0224222 1e-05
-0.02056 0.0224222 1e-05
-0.02058 0.0224222 1e-05
-0.0206 0.0224222 1e-05
-0.0205 0.0251 1e-05
-0.02052 0.0250998 1e-05
-0.02054 0.0250997 1e-05
-0.02056 0.0250995 1e-05
-0.02058 0.0250995 1e-05
-0.0206 0.0250994 1e-05
-0.0205 0.001 1e-05
-0.0202034 0.00100022 1e-05
-0.0199069 0.00100067 1e-05
-0.0196103 0.00100132 1e-05
-0.0193137 0.00100219 1e-05
-0.0190172 0.00100326 1e-05
-0.0187132 0.00100466 1e-05
-0.0184093 0.00100588 1e-05
-0.0181054 0.0010071 1e-05
-0.0178015 0.00100832 1e-05
-0.0174976 0.00100953 1e-05
-0.0172058 0.00101083 1e-05
-0.016914 0.00101193 1e-05
-0.0166222 0.00101303 1e-05
-0.0163305 0.00101413 1e-05
-0.0160387 0.00101522 1e-05
-0.0157586 0.00101636 1e-05
-0.0154784 0.00101744 1e-05
-0.0151983 0.00101856 1e-05
-0.0149182 0.00101971 1e-05
-0.0146381 0.0010209 1e-05
-0.0143746 0.00102209 1e-05
-0.0141112 0.00102327 1e-05
-0.0138477 0.00102449 1e-05
-0.0135843 0.00102574 1e-05
-0.0133618 0.00102682 1e-05
-0.0133481 0.00102688 1e-05
-0.0133345 0.00102695 1e-05
-0.0133208 0.00102702 1e-05
-0.0133071 0.00102709 1e-05
-0.0132934 0.00102716 1e-05
-0.0130353 0.00102844 1e-05
-0.0127771 0.00102975 1e-05
-0.0125189 0.00103107 1e-05
-0.0122607 0.0010324 1e-05
-0.0120025 0.00103375 1e-05
-0.0117547 0.00103506 1e-05
-0.0115068 0.00103638 1e-05
-0.0112589 0.0010377 1e-05
-0.0110111 0.00103902 1e-05
-0.0107632 0.00104035 1e-05
-0.0105252 0.00104163 1e-05
-0.0102873 0.00104291 1e-05
-0.0100493 0.00104419 1e-05
-0.00981133 0.00104547 1e-05
-0.00957337 0.00104675 1e-05
-0.00934491 0.00104797 1e-05
-0.00911645 0.00104919 1e-05
-0.00888799 0.00105041 1e-05
-0.00865954 0.00105163 1e-05
-0.00843108 0.00105284 1e-05
-0.00821175 0.001054 1e-05
-0.00799242 0.00105516 1e-05
-0.00777309 0.00105631 1e-05
-0.00755376 0.00105746 1e-05
-0.00733443 0.00105861 1e-05
-0.00712387 0.0010597 1e-05
-0.0069133 0.00106079 1e-05
-0.00670273 0.00106188 1e-05
-0.00649216 0.00106296 1e-05
-0.0062816 0.00106404 1e-05
-0.00607944 0.00106507 1e-05
-0.00587729 0.0010661 1e-05
-0.00567514 0.00106712 1e-05
-0.00547298 0.00106814 1e-05
-0.00527083 0.00106916 1e-05
-0.00507675 0.00107012 1e-05
-0.00488267 0.00107109 1e-05
-0.0046886 0.00107205 1e-05
-0.00449452 0.00107301 1e-05
-0.00430044 0.00107397 1e-05
-0.00411412 0.00107488 1e-05
-0.0039278 0.00107579 1e-05
-0.00374147 0.0010767 1e-05
-0.00355515 0.0010776 1e-05
-0.00336883 0.0010785 1e-05
-0.00318995 0.00107936 1e-05
-0.00301107 0.00108022 1e-05
-0.00283219 0.00108108 1e-05
-0.00265331 0.00108194 1e-05
-0.00247443 0.00108279 1e-05
-0.0023027 0.00108361 1e-05
-0.00213097 0.00108443 1e-05
-0.00195924 0.00108525 1e-05
-0.0017875 0.00108606 1e-05
-0.00161577 0.00108688 1e-05
-0.0014509 0.00108766 1e-05
-0.00128603 0.00108844 1e-05
-0.00112116 0.00108923 1e-05
-0.000956289 0.00109001 1e-05
-0.000791418 0.0010908 1e-05
-0.000633135 0.00109156 1e-05
-0.000474851 0.00109232 1e-05
-0.000316567 0.00109309 1e-05
-0.000158284 0.00109385 1e-05
0 0.00109462 1e-05
0.000105677 0.00109513 1e-05
0.000211355 0.00109564 1e-05
0.000317032 0.00109615 1e-05
0.00042271 0.00109666 1e-05
0.000528387 0.00109716 1e-05
0.000634886 0.00109767 1e-05
0.000741385 0.00109817 1e-05
0.000847885 0.00109866 1e-05
0.000954384 0.00109916 1e-05
0.00106088 0.00109965 1e-05
0.00116821 0.00110013 1e-05
0.00127554 0.00110062 1e-05
0.00138286 0.0011011 1e-05
0.00149019 0.00110157 1e-05
0.00159752 0.00110203 1e-05
0.00170568 0.00110249 1e-05
0.00181384 0.00110294 1e-05
0.001922 0.00110338 1e-05
0.00203016 0.00110382 1e-05
0.00213833 0.00110424 1e-05
0.00224733 0.00110466 1e-05
0.00235633 0.00110507 1e-05
0.00246533 0.00110548 1e-05
0.00257434 0.00110587 1e-05
0.00268334 0.00110626 1e-05
0.00279319 0.00110663 1e-05
0.00290304 0.00110701 1e-05
0.00301289 0.00110737 1e-05
0.00312274 0.00110773 1e-05
0.00323259 0.00110808 1e-05
0.00334329 0.00110842 1e-05
0.003454 0.00110875 1e-05
0.0035647 0.00110908 1e-05
0.0036754 0.0011094 1e-05
0.00378611 0.00110971 1e-05
0.00389767 0.00111001 1e-05
0.00400924 0.00111031 1e-05
0.0041208 0.0011106 1e-05
0.00423237 0.00111089 1e-05
0.00434393 0.00111116 1e-05
0.00445636 0.00111142 1e-05
0.00456879 0.00111168 1e-05
0.00468123 0.00111194 1e-05
0.00479366 0.00111218 1e-05
0.00490609 0.00111242 1e-05
0.0050194 0.00111264 1e-05
0.0051327 0.00111287 1e-05
0.00524601 0.00111308 1e-05
0.00535932 0.00111329 1e-05
0.00547262 0.00111349 1e-05
0.00558681 0.00111367 1e-05
0.005701 0.00111386 1e-05
0.00581518 0.00111404 1e-05
0.00592937 0.0011142 1e-05
0.00604356 0.00111437 1e-05
0.00615863 0.00111452 1e-05
0.00627371 0.00111466 1e-05
0.00638878 0.0011148 1e-05
0.00650386 0.00111493 1e-05
0.00661893 0.00111506 1e-05
0.0067349 0.00111517 1e-05
0.00685087 0.00111528 1e-05
0.00696684 0.00111538 1e-05
0.00708281 0.00111547 1e-05
0.00719878 0.00111556 1e-05
0.00731495 0.00111563 1e-05
0.00743112 0.0011157 1e-05
0.0075473 0.00111577 1e-05
0.00766347 0.00111582 1e-05
0.00777305 0.00111586 1e-05
0.00777507 0.00111586 1e-05
0.00777709 0.00111586 1e-05
0.0077791 0.00111586 1e-05
0.00778112 0.00111586 1e-05
0.00778313 0.00111587 1e-05
0.00790091 0.0011159 1e-05
0.00801869 0.00111593 1e-05
0.00813647 0.00111596 1e-05
0.00825425 0.00111597 1e-05
0.00837203 0.00111598 1e-05
0.00849073 0.00111597 1e-05
0.00860942 0.00111596 1e-05
0.00872812 0.00111594 1e-05
0.00884682 0.00111591 1e-05
0.00896551 0.00111588 1e-05
0.00908513 0.00111583 1e-05
0.00920475 0.00111578 1e-05
0.00932437 0.00111571 1e-05
0.00944398 0.00111565 1e-05
0.0095636 0.00111557 1e-05
0.00968415 0.00111547 1e-05
0.0098047 0.00111538 1e-05
0.00992525 0.00111527 1e-05
0.0100458 0.00111516 1e-05
0.0101663 0.00111504 1e-05
0.0102878 0.0011149 1e-05
0.0104093 0.00111476 1e-05
0.0105308 0.00111461 1e-05
0.0106523 0.00111445 1e-05
0.0107738 0.00111429 1e-05
0.0108962 0.0011141 1e-05
0.0110186 0.00111391 1e-05
0.0111411 0.00111372 1e-05
0.0112635 0.00111351 1e-05
0.0113859 0.0011133 1e-05
0.0115093 0.00111306 1e-05
0.0116327 0.00111283 1e-05
0.0117561 0.00111259 1e-05
0.0118795 0.00111234 1e-05
0.0120028 0.00111208 1e-05
0.0121272 0.00111179 1e-05
0.0122515 0.00111151 1e-05
0.0123759 0.00111122 1e-05
0.0125002 0.00111092 1e-05
0.0126245 0.00111061 1e-05
0.0127498 0.00111028 1e-05
0.0128752 0.00110995 1e-05
0.0130005 0.00110961 1e-05
0.0131258 0.00110926 1e-05
0.0132511 0.0011089 1e-05
0.0133774 0.00110852 1e-05
0.0135036 0.00110814 1e-05
0.0136299 0.00110774 1e-05
0.0137562 0.00110734 1e-05
0.0138825 0.00110693 1e-05
0.0140098 0.0011065 1e-05
0.014137 0.00110606 1e-05
0.0142643 0.00110562 1e-05
0.0143915 0.00110517 1e-05
0.0145188 0.0011047 1e-05
0.0146471 0.00110422 1e-05
0.0147753 0.00110373 1e-05
0.0149036 0.00110323 1e-05
0.0150318 0.00110272 1e-05
0.0151601 0.00110221 1e-05
0.0152893 0.00110167 1e-05
0.0154186 0.00110113 1e-05
0.0155478 0.00110058 1e-05
0.0156771 0.00110001 1e-05
0.0158063 0.00109944 1e-05
0.0159366 0.00109886 1e-05
0.0160668 0.00109826 1e-05
0.0161971 0.00109765 1e-05
0.0163274 0.00109703 1e-05
0.0164576 0.00109641 1e-05
0.0165889 0.00109577 1e-05
0.0167201 0.00109512 1e-05
0.0168514 0.00109445 1e-05
0.0169827 0.00109378 1e-05
0.0171139 0.0010931 1e-05
0.0172462 0.00109241 1e-05
0.0173785 0.0010917 1e-05
0.0175108 0.00109098 1e-05
0.0176431 0.00109025 1e-05
0.0177754 0.00108951 1e-05
0.0179087 0.00108877 1e-05
0.018042 0.001088 1e-05
0.0181753 0.00108723 1e-05
0.0183087 0.00108644 1e-05
0.018442 0.00108565 1e-05
0.0185763 0.00108485 1e-05
0.0187107 0.00108403 1e-05
0.018845 0.0010832 1e-05
0.0189794 0.00108235 1e-05
0.0191137 0.0010815 1e-05
0.0192491 0.00108065 1e-05
0.0193845 0.00107978 1e-05
0.0195199 0.00107889 1e-05
0.0196553 0.00107798 1e-05
0.0197907 0.00107708 1e-05
0.0199272 0.00107617 1e-05
0.0200636 0.00107524 1e-05
0.0202001 0.00107429 1e-05
0.0203365 0.00107333 1e-05
0.020473 0.00107237 1e-05
0.0206105 0.00107141 1e-05
0.020748 0.00107042 1e-05
0.0208855 0.00106941 1e-05
0.021023 0.00106839 1e-05
0.0211606 0.00106738 1e-05
0.0212991 0.00106636 1e-05
0.0214377 0.00106532 1e-05
0.0215763 0.00106425 1e-05
0.0217149 0.00106317 1e-05
0.0218535 0.0010621 1e-05
0.0219931 0.00106103 1e-05
0.0221328 0.00105993 1e-05
0.0222724 0.0010588 1e-05
0.0224121 0.00105767 1e-05
0.0225517 0.00105654 1e-05
0.0226925 0.00105541 1e-05
0.0228332 0.00105425 1e-05
0.022974 0.00105307 1e-05
0.0231147 0.00105187 1e-05
0.0232555 0.00105068 1e-05
0.0233973 0.0010495 1e-05
0.0235391 0.00104828 1e-05
0.023681 0.00104704 1e-05
0.0238228 0.00104578 1e-05
0.0239647 0.00104453 1e-05
0.0241076 0.00104329 1e-05
0.0242505 0.00104201 1e-05
0.0243935 0.00104071 1e-05
0.0245364 0.00103939 1e-05
0.0246794 0.00103809 1e-05
0.0248234 0.00103678 1e-05
0.0249675 0.00103545 1e-05
0.0251115 0.00103408 1e-05
0.0252556 0.00103271 1e-05
[...]
POINT_DATA 12075
 FIELD attributes 2
p 1 12075 float
-5.69196 -5.68864 -5.68532 -5.68201 -5.6787 -5.67538
-5.84428 -5.84426 -5.84424 -5.84422 -5.8442 -5.84417
-6.01836 -6.01824 -6.01811 -6.01799 -6.01787 -6.01776
-6.11166 -6.1116 -6.11155 -6.1115 -6.11144 -6.11139
-6.15675 -6.15664 -6.15653 -6.15641 -6.1563 -6.15619
-6.16334 -6.16318 -6.16302 -6.16286 -6.1627 -6.16254
-6.13648 -6.13641 -6.13634 -6.13627 -6.1362 -6.13613
-6.06699 -6.06695 -6.06691 -6.06687 -6.06683 -6.06679
-5.94575 -5.94576 -5.94576 -5.94577 -5.94578 -5.94578
-3.73317 -3.7525 -3.7717 -3.79077 -3.80971 -3.82851
-5.69196 -5.69124 -5.68762 -5.68393 -5.68015 -5.67177 -5.68562 -5.70058 -5.71555 -5.73051 -5.75493 -5.77669 -5.80661 -5.83653 -5.86645 -5.89919 -5.91483 -5.93651 -5.9582 -5.97988 -6.00319 -6.02206 -6.04293 -6.06381 -6.08469 -6.10233 -6.10341 -6.10449 -6.10557 -6.10665 -6.10773 -6.12936 -6.15099 -6.17263 -6.19426 -6.21562 -6.23435 -6.25288 -6.27141 -6.28995 -6.30791 -6.32349 -6.33878 -6.35408 -6.36938 -6.38412 -6.39783 -6.41129 -6.42475 -6.43822 -6.45123 -6.46386 -6.47622 -6.48858 -6.50094 -6.51287 -6.52456 -6.53594 -6.54732 -6.55871 -6.56966 -6.58048 -6.59102 -6.60155 -6.61208 -6.62225 -6.6324 -6.64225 -6.65209 -6.66194 -6.67146 -6.68103 -6.69037 -6.69971 -6.70905 -6.71818 -6.72734 -6.73616 -6.74498 -6.7538 -6.76242 -6.77129 -6.78026 -6.78923 -6.79819 -6.80743 -6.81693 -6.82605 -6.83518 -6.8443 -6.85344 -6.8635 -6.87487 -6.88624 -6.89761 -6.90971 -6.92115 -6.93415 -6.94714 -6.96013 -6.97274 -6.98422 -6.99542 -7.00663 -7.01783 -7.0279 -7.03629 -7.04537 -7.05444 -7.06352 -7.07311 -7.08168 -7.09046 -7.09924 -7.10803 -7.11684 -7.12533 -7.13272 -7.1401 -7.14749 -7.1539 -7.16099 -7.16673 -7.17247 -7.1782 -7.18278 -7.18868 -7.19349 -7.19829 -7.2031 -7.2069 -7.21189 -7.21596 -7.22004 -7.22411 -7.22737 -7.23137 -7.23463 -7.23789 -7.24114 -7.24382 -7.24685 -7.24935 -7.25184 -7.25433 -7.25646 -7.25884 -7.26085 -7.26287 -7.26489 -7.26671 -7.26879 -7.27064 -7.27248 -7.27433 -7.27608 -7.27798 -7.27975 -7.28151 -7.28328 -7.285 -7.28675 -7.28843 -7.29011 -7.2918 -7.29338 -7.29341 -7.29344 -7.29347 -7.2935 -7.29353 -7.29519 -7.29686 -7.29852 -7.30018 -7.30201 -7.3035 -7.30518 -7.30686 -7.30854 -7.31062 -7.31193 -7.31368 -7.31544 -7.31719 -7.31966 -7.32079 -7.32267 -7.32456 -7.32644 -7.3294 -7.33035 -7.33237 -7.33438 -7.3364 -7.33983 -7.34058 -7.34269 -7.34481 -7.34693 -7.3508 -7.35136 -7.35359 -7.35581 -7.35803 -7.36234 -7.36278 -7.36513 -7.36748 -7.36983 -7.37454 -7.37489 -7.37738 -7.37986 -7.38235 -7.3874 -7.38771 -7.39032 -7.39294 -7.39556 -7.40089 -7.40121 -7.40395 -7.4067 -7.40953 -7.415 -7.41557 -7.41826 -7.42114 -7.42436 -7.42974 -7.43066 -7.43327 -7.43627 -7.43984 -7.44511 -7.44638 -7.44894 -7.45208 -7.45594 -7.46111 -7.46272 -7.46528 -7.46854 -7.47265 -7.4777 -7.47964 -7.48224 -7.48562 -7.48992 -7.49487 -7.49713 -7.49979 -7.50329 -7.50776 -7.51261 -7.51516 -7.51792 -7.52154 -7.52612 -7.53089 -7.53371 -7.5366 -7.54033 -7.54499 -7.5497 -7.55277 -7.55584 -7.55969 -7.56436 -7.56902 -7.57232 -7.57562 -7.57958 -7.58421 -7.58884 -7.59236 -7.59589 -7.59995 -7.60453 -7.60912 -7.61284 -7.61658 -7.62071 -7.62525 -7.62979 -7.63369 -7.63759 -7.64179 -7.6463 -7.6508 -7.65483 -7.65887 -7.66313 -7.66761 -7.67209 -7.67622 -7.68035 -7.68466 -7.68914 -7.69362 -7.69781 -7.70201 -7.70638 -7.71087 -7.71536 -7.71962 -7.72389 -7.7283 -7.73279 -7.73731 -7.74161 -7.74595 -7.75038 -7.75489 -7.75943 -7.76375 -7.76814 -7.7726 -7.77711 -7.78166 -7.786 -7.79042 -7.7949 -7.7994 -7.80396 -7.80831 -7.81275 -7.81723 -7.82172 -7.82628 -7.83062 -7.83508 -7.83955 -7.84402 -7.84857 -7.8529 -7.85734 -7.86179 -7.86624 -7.87076 -7.87508 -7.87949 -7.88391 -7.88833 -7.8928 -7.8971 -7.90147 -7.90585 -7.91023 -7.91464 -7.9189 -7.92322 -7.92755 -7.93187 -7.93621 -7.94043 -7.94468 -7.94893 -7.95318 -7.95744 -7.96063 -7.96384 -7.96705 -7.97026 -7.97336 -7.97433 -7.97531 -7.97629 -7.97726 -7.97824 -7.98231 -7.98637 -7.99044 -7.99451 -7.99859 -8.00254 -8.0065 -8.01045 -8.0144 -8.01837 -8.02221 -8.02604 -8.02987 -8.0337 -8.03754 -8.04125 -8.04493 -8.04861 -8.05229 -8.05597 -8.05954 -8.06304 -8.06653 -8.07003 -8.07352 -8.07692 -8.08022 -8.08352 -8.08682 -8.09009 -8.09329 -8.09641 -8.0995 -8.10257 -8.10562 -8.10862 -8.11154 -8.1144 -8.11722 -8.12001 -8.12277 -8.12548 -8.12807 -8.1306 -8.13311 -8.1356 -8.13809 -8.14039 -8.1426 -8.1448 -8.147 -8.14921 -8.15121 -8.15307 -8.15493 -8.15681 -8.1587 -8.16037 -8.16187 -8.16336 -8.16489 -8.16642 -8.16775 -8.16885 -8.16994 -8.17109 -8.17224 -8.1732 -8.17387 -8.17454 -8.17528 -8.17601 -8.17654 -8.1768 -8.17702 -8.17732 -8.17756 -8.17762 -8.17749 -8.17723 -8.17706 -8.17676 -8.17633 -8.17578 -8.175 -8.17434 -8.17344 -8.17248 -8.1715 -8.17017 -8.16895 -8.16742 -8.1659 -8.16438 -8.16255 -8.16067 -8.15854 -8.15642 -8.1543 -8.15197 -8.14937 -8.1466 -8.14384 -8.14109 -8.13825 -8.13623 -8.13414 -8.13206 -8.12997 -8.12798 -8.12663 -8.12529 -8.12394 -8.1226 -8.1212 -8.11717 -8.11307 -8.10897 -8.10489 -8.1006 -8.096 -8.09115 -8.08631 -8.08147 -8.07626 -8.07108 -8.06544 -8.05981 -8.05417 -8.04799 -8.04212 -8.03574 -8.02928 -8.02263 -8.01559 -8.00887 -8.00186 -7.99453 -7.98679 -7.97884 -7.97124 -7.96357 -7.95533 -7.94644 -7.93754 -7.92901 -7.92048 -7.91126 -7.90137 -7.89148 -7.88197 -7.87247 -7.86228 -7.85136 -7.84044 -7.82992 -7.8194 -7.80812 -7.79621 -7.78422 -7.77265 -7.76079 -7.74842 -7.73572 -7.72263 -7.70996 -7.69668 -7.68319 -7.66968 -7.65544 -7.64153 -7.62686 -7.6122 -7.59754 -7.58245 -7.567 -7.55112 -7.53525 -7.51939 -7.50345 -7.50023 -7.49693 -7.49364 -7.49034 -7.48709 -7.47339 -7.45968 -7.44599 -7.43229 -7.41833 -7.40037 -7.38213 -7.36391 -7.34569 -7.32682 -7.30793 -7.28839 -7.26885 -7.2491 -7.22872 -7.20852 -7.18802 -7.16714 -7.14562 -7.12386 -7.1023 -7.08075 -7.0584 -7.03524 -7.01207 -6.98912 -6.96617 -6.9424 -6.9178 -6.8932 -6.86883 -6.84424 -6.81891 -6.79317 -6.76712 -6.7413 -6.71474 -6.68794 -6.66115 -6.6337 -6.60612 -6.57782 -6.54954 -6.52127 -6.49286 -6.48505 -6.4771 -6.46914 -6.46118 -6.45339 -6.43162 -6.40985 -6.38809 -6.36634 -6.34428 -6.31337 -6.28221 -6.25106 -6.21993 -6.18804 -6.15587 -6.12333 -6.09068 -6.05762 -6.0242 -5.99051 -5.95683 -5.92259 -5.88765 -5.85272 -5.81752 -5.78233 -5.74649 -5.71006 -5.67363 -5.63692 -5.59995 -5.56249 -5.52488 -5.48697 -5.44878 -5.40983 -5.37089 -5.33197 -5.29283 -5.27169 -5.25029 -5.22889 -5.2075 -5.18688 -5.16779 -5.1487 -5.12962 -5.11054 -5.0912 -5.04968 -5.00799 -4.96632 -4.92465 -4.8822 -4.83952 -4.79658 -4.75352 -4.70996 -4.66612 -4.62207 -4.57803 -4.53349 -4.48835 -4.4432 -4.39783 -4.35244 -4.30639 -4.2601 -4.21371 -4.16708 -4.11995 -4.07268 -4.02543 -3.97795 -3.9466 -3.91495 -3.88331 -3.85167 -3.82134 -3.80434 -3.78734 -3.77034 -3.75334 -3.73617 -3.68685 -3.63744 -3.58805 -3.53867 -3.48867 -3.43846 -3.38816 -3.33778 -3.28699 -3.23606 -3.1849 -3.13376 -3.0823 -3.03056 -2.9788 -2.92678 -2.87463 -2.82224 -2.76984 -2.71734 -2.66452 -2.61143 -2.55835 -2.50529 -2.45221 -2.45142 -2.45063 -2.44983 -2.44904 -2.44825 -2.39536 -2.34249 -2.28964 -2.23679 -2.18368 -2.12949 -2.07534 -2.02121 -1.96694 -1.91255 -1.85793 -1.80333 -1.74871 -1.69406 -1.63937 -1.58443 -1.52948 -1.47449 -1.41954 -1.36467 -1.31631 -1.26796 -1.21961 -1.17128 -1.12494 -1.11774 -1.11054 -1.10334 -1.09614 -1.08894 -1.0336 -0.978319 -0.923046 -0.867785 -0.812507 -0.75701 -0.701643 -0.646422 -0.591287 -0.536129 -0.480732 -0.425348 -0.370112 -0.315209 -0.260273 -0.205078 -0.150053 -0.0951038 -0.040165 0.0145976 0.0360317 0.0573579 0.0786827 0.100006 0.121035 0.154491 0.187944 0.221394 0.254841 0.288186 0.3429 0.397271 0.451634 0.505868 0.559997 0.614287 0.668569 0.722455 0.77601 0.829593 0.883349 0.936982 0.990401 1.04376 1.09675 1.13464 1.17229 1.20993 1.24757 1.28456 1.29994 1.31531 1.33068 1.34606 1.36136 1.41398 1.4664 1.51881 1.57115 1.62324 1.67543 1.7276 1.77921 1.8305 1.8818 1.93323 1.9846 2.03559 2.08633 2.1368 2.18428 2.23135 2.27842 2.32549 2.37203 2.37524 2.37846 2.38167 2.38489 2.38808 2.43775 2.48735 2.53696 2.58656 2.63578 2.68505 2.73411 2.78283 2.83114 2.87945 2.92782 2.97619 3.02416 3.07163 3.11901 3.16646 3.21352 3.26053 3.30753 3.35439 3.36182 3.36917 3.37653 3.38388 3.39124 3.43021 3.46919 3.50816 3.54714 3.58579 3.63179 3.67737 3.7228 3.76793 3.81295 3.85801 3.90307 3.94772 3.99179 4.03585 4.07998 4.12386 4.16756 4.21128 4.25457 4.27462 4.29448 4.31434 4.3342 4.35416 4.37723 4.4003 4.42337 4.44644 4.46931 4.51192 4.55411 4.5963 4.63833 4.68013 4.72199 4.76385 4.80518 4.84614 4.88709 4.92812 4.96907 5.00974 5.05025 5.09038 5.12703 5.16338 5.19974 5.2361 5.27302 5.27647 5.27992 5.28337 5.28681 5.29023 5.32968 5.36906 5.40845 5.44784 5.4869 5.52607 5.56501 5.60371 5.64216 5.68055 5.71907 5.7576 5.79587 5.83368 5.87147 5.90941 5.94719 5.98489 6.02259 6.05997 6.07934 6.09862 6.11789 6.13717 6.15658 6.17456 6.19255 6.21053 6.22851 6.24639 6.28358 6.32052 6.35746 6.39434 6.4311 6.468 6.50491 6.5415 6.57796 6.61441 6.65101 6.68759 6.72411 6.7605 6.79673 6.83261 6.86847 6.90433 6.94018 6.97621 6.97666 6.97711 6.97756 6.97801 6.97845 7.01478 7.05109 7.08741 7.12372 7.16005 7.19653 7.23291 7.26921 7.30557 7.34193 7.37844 7.41495 7.45156 7.48806 7.52456 7.5612 7.59798 7.6348 7.67162 7.70841 7.71969 7.73105 7.74241 7.75376 7.76506 7.79082 7.81657 7.84233 7.86808 7.894 7.93147 7.96893 8.00638 8.04404 8.08182 8.1197 8.15758 8.19571 8.234 8.2723 8.31069 8.34936 8.38819 8.42702 8.46591 8.47957 8.4934 8.50723 8.52106 8.53475 8.56037 8.58599 8.61162 8.63725 8.6632 8.70315 8.74323 8.78335 8.82384 8.86451 8.90523 8.94594 8.98712 9.02863 9.07015 9.1117 9.15378 9.19595 9.23813 9.28037 9.28307 9.2858 9.28854 9.29128 9.29401 9.33419 9.37438 9.41456 9.45481 9.49563 9.53921 9.58282 9.62675 9.67125 9.71577 9.76026 9.80493 9.85008 9.89525 9.94068 9.96323 9.98606 10.0089 10.0318 10.0546 10.0776 10.1007 10.1238 10.1469 10.1703 10.2168 10.2634 10.31 10.3572 10.4044 10.4516 10.4987 10.5464 10.5943 10.6422 10.6798 10.7178 10.7559 10.7939 10.8329 10.8428 10.8528 10.8628 10.8728 10.8829 10.9314 10.98 11.0286 11.0773 11.1263 11.1752 11.2241 11.2727 11.3212 11.3696 11.4177 11.467 11.5168 11.5666 11.6164 11.6275 11.637 11.6464 11.6558 11.6655 11.7012 11.7369 11.7725 11.8079 11.838 11.8763 11.9199 11.9667 12.0257 12.0873 12.1483 12.2085 12.2457 12.28 12.3067 12.3172 12.3294 12.3427 12.356 12.3701 12.388 12.4058 12.4236 12.443 12.465 12.5015 12.538 12.5742 12.6105 12.6467 12.6825 12.7163 12.7485 12.7805 12.8119 12.815 12.818 12.8208 12.8236 12.8265 12.8519 12.8772 12.9024 12.9268 12.9493 12.9732 12.997 13.0186 13.0381 13.0575 13.0752 13.0909 13.105 13.1191 13.132 13.1344 13.1359 13.1373 13.1387 13.1402 13.1466 13.1528 13.159 13.1649 13.1684 13.1699 13.1698 13.1683 13.1629 13.1569 13.1475 13.138 13.1244 13.1075 13.0901 13.0691 13.0436 13.0169 12.9902 12.9617 12.9498 12.9363 12.9228 12.9093 12.8942 12.8695 12.8448 12.82 12.7951 12.7673 12.7185 12.6661 12.6135 12.5589 12.4998 12.4359 12.3711 12.302 12.2262 12.1503 12.0693 11.9882 11.9008 11.8071 11.7133 11.614 11.5124 11.4057 11.2963 11.1839 11.0655 10.9399 10.8129 10.6859 10.5537 10.4108 10.2634 10.1158 9.96825 9.81938 9.75658 9.69174 9.6269 9.56206 9.48686 9.3825 9.2781 9.17366 9.06919 8.96154 8.76943 8.57611 8.38272 8.18928 7.99271 7.78135 7.5523 7.32312 7.0938 6.83821 6.57312 6.32467 6.07847 5.83781 5.61177 5.3779 5.09261 4.76462 4.37612 3.94465 3.49759 3.08916 2.80951 2.67058 2.56223 2.44969 2.3374 1.82 0.909325 0