# vtk DataFile Version 2.0
track0
ASCII
DATASET POLYDATA
POINTS 12075 float
-0.0205 0.001 1e-05
-0.02052 0.000999985 1e-05
-0.02054 0.000999974 1e-05
-0.02056 0.000999965 1e-05
-0.02058 0.000999959 1e-05
-0.0206 0.000999956 1e-05
-0.0205 0.00367778 1e-05
-0.02052 0.00367778 1e-05
-0.02054 0.00367777 1e-05
-0.02056 0.00367777 1e-05
-0.02058 0.00367777 1e-05
-0.0206 0.00367777 1e-05
-0.0205 0.00635556 1e-05
-0.02052 0.00635555 1e-05
-0.02054 0.00635555 1e-05
-0.02056 0.00635555 1e-05
-0.02058 0.00635555 1e-05
-0.0206 0.00635555 1e-05
-0.0205 0.00903333 1e-05
-0.02052 0.00903333 1e-05
-0.02054 0.00903333 1e-05
-0.02056 0.00903333 1e-05
-0.02058 0.00903333 1e-05
-0.0206 0.00903333 1e-05
-0.0205 0.0117111 1e-05
-0.02052 0.0117111 1e-05
-0.02054 0.0117111 1e-05
-0.02056 0.0117111 1e-05
-0.02058 0.0117111 1e-05
-0.0206 0.0117111 1e-05
-0.0205 0.0143889 1e-05
-0.02052 0.0143889 1e-05
-0.02054 0.0143889 1e-05
-0.02056 0.0143889 1e-05
-0.02058 0.0143889 1e-05
-0.0206 0.0143889 1e-05
-0.0205 0.0170667 1e-05
-0.02052 0.0170667 1e-05
-0.02054 0.0170667 1e-05
-0.02056 0.0170667 1e-05
-0.02058 0.0170667 1e-05
-0.0206 0.0170667 1e-05
-0.0205 0.0197444 1e-05
-0.02052 0.0197444 1e-05
-0.02054 0.0197444 1e-05
-0.02056 0.0197444 1e-05
-0.02058 0.0197444 1e-05
-0.0206 0.0197444 1e-05
-0.0205 0.0224222 1e-05
-0.02052 0.0224222 1e-05
-0.02054 0.0224222 1e-05
-0.02056 0.0224222 1e-05
-0.02058 0.0224222 1e-05
-0.0206 0.0224222 1e-05
-0.0205 0.0251 1e-05
-0.02052 0.0250998 1e-05
-0.02054 0.0250997 1e-05
-0.02056 0.0250995 1e-05
-0.02058 0.0250995 1e-05
-0.0206 0.0250994 1e-05
-0.0205 0.001 1e-05
-0.0202034 0.00100022 1e-05
-0.0199069 0.00100067 1e-05
-0.0196103 0.00100132 1e-05
-0.0193137 0.00100219 1e-05
-0.0190172 0.00100326 1e-05
-0.0187132 0.00100466 1e-05
-0.0184093 0.00100588 1e-05
-0.0181054 0.0010071 1e-05
-0.0178015 0.00100832 1e-05
-0.0174976 0.00100953 1e-05
-0.0172058 0.00101083 1e-05
-0.016914 0.00101193 1e-05
-0.0166222 0.00101303 1e-05
-0.0163305 0.00101413 1e-05
-0.0160387 0.00101522 1e-05
-0.0157586 0.00101636 1e-05
-0.0154784 0.00101744 1e-05
-0.0151983 0.00101856 1e-05
-0.0149182 0.00101971 1e-05
-0.0146381 0.0010209 1e-05
-0.0143746 0.00102209 1e-05
-0.0141112 0.00102327 1e-05
-0.0138477 0.00102449 1e-05
-0.0135843 0.00102574 1e-05
-0.0133618 0.00102682 1e-05
-0.0133481 0.00102688 1e-05
-0.0133345 0.00102695 1e-05
-0.0133208 0.00102702 1e-05
-0.0133071 0.00102709 1e-05
-0.0132934 0.00102716 1e-05
-0.0130353 0.00102844 1e-05
-0.0127771 0.00102975 1e-05
-0.0125189 0.00103107 1e-05
-0.0122607 0.0010324 1e-05
-0.0120025 0.00103375 1e-05
-0.0117547 0.00103506 1e-05
-0.0115068 0.00103638 1e-05
-0.0112589 0.0010377 1e-05
-0.0110111 0.00103902 1e-05
-0.0107632 0.00104035 1e-05
-0.0105252 0.00104163 1e-05
-0.0102873 0.00104291 1e-05
-0.0100493 0.00104419 1e-05
-0.00981133 0.00104547 1e-05
-0.00957337 0.00104675 1e-05
-0.00934491 0.00104797 1e-05
-0.00911645 0.00104919 1e-05
-0.00888799 0.00105041 1e-05
-0.00865954 0.00105163 1e-05
-0.00843108 0.00105284 1e-05
-0.00821175 0.001054 1e-05
-0.00799242 0.00105516 1e-05
-0.00777309 0.00105631 1e-05
-0.00755376 0.00105746 1e-05
-0.00733443 0.00105861 1e-05
-0.00712387 0.0010597 1e-05
-0.0069133 0.00106079 1e-05
-0.00670273 0.00106188 1e-05
-0.00649216 0.00106296 1e-05
-0.0062816 0.00106404 1e-05
-0.00607944 0.00106507 1e-05
-0.00587729 0.0010661 1e-05
-0.00567514 0.00106712 1e-05
-0.00547298 0.00106814 1e-05
-0.00527083 0.00106916 1e-05
-0.00507675 0.00107012 1e-05
-0.00488267 0.00107109 1e-05
-0.0046886 0.00107205 1e-05
-0.00449452 0.00107301 1e-05
-0.00430044 0.00107397 1e-05
-0.00411412 0.00107488 1e-05
-0.0039278 0.00107579 1e-05
-0.00374147 0.0010767 1e-05
-0.00355515 0.0010776 1e-05
-0.00336883 0.0010785 1e-05
-0.00318995 0.00107936 1e-05
-0.00301107 0.00108022 1e-05
-0.00283219 0.00108108 1e-05
-0.00265331 0.00108194 1e-05
-0.00247443 0.00108279 1e-05
-0.0023027 0.00108361 1e-05
-0.00213097 0.00108443 1e-05
-0.00195924 0.00108525 1e-05
-0.0017875 0.00108606 1e-05
-0.00161577 0.00108688 1e-05
-0.0014509 0.00108766 1e-05
-0.00128603 0.00108844 1e-05
-0.00112116 0.00108923 1e-05
-0.000956289 0.00109001 1e-05
-0.000791418 0.0010908 1e-05
-0.000633135 0.00109156 1e-05
-0.000474851 0.00109232 1e-05
-0.000316567 0.00109309 1e-05
-0.000158284 0.00109385 1e-05
0 0.00109462 1e-05
0.000105677 0.00109513 1e-05
0.000211355 0.00109564 1e-05
0.000317032 0.00109615 1e-05
0.00042271 0.00109666 1e-05
0.000528387 0.00109716 1e-05
0.000634886 0.00109767 1e-05
0.000741385 0.00109817 1e-05
0.000847885 0.00109866 1e-05
0.000954384 0.00109916 1e-05
0.00106088 0.00109965 1e-05
0.00116821 0.00110013 1e-05
0.00127554 0.00110062 1e-05
0.00138286 0.0011011 1e-05
0.00149019 0.00110157 1e-05
0.00159752 0.00110203 1e-05
0.00170568 0.00110249 1e-05
0.00181384 0.00110294 1e-05
0.001922 0.00110338 1e-05
0.00203016 0.00110382 1e-05
0.00213833 0.00110424 1e-05
0.00224733 0.00110466 1e-05
0.00235633 0.00110507 1e-05
0.00246533 0.00110548 1e-05
0.00257434 0.00110587 1e-05
0.00268334 0.00110626 1e-05
0.00279319 0.00110663 1e-05
0.00290304 0.00110701 1e-05
0.00301289 0.00110737 1e-05
0.00312274 0.00110773 1e-05
0.00323259 0.00110808 1e-05
0.00334329 0.00110842 1e-05
0.003454 0.00110875 1e-05
0.0035647 0.00110908 1e-05
0.0036754 0.0011094 1e-05
0.00378611 0.00110971 1e-05
0.00389767 0.00111001 1e-05
0.00400924 0.00111031 1e-05
0.0041208 0.0011106 1e-05
0.00423237 0.00111089 1e-05
0.00434393 0.00111116 1e-05
0.00445636 0.00111142 1e-05
0.00456879 0.00111168 1e-05
0.00468123 0.00111194 1e-05
0.00479366 0.00111218 1e-05
0.00490609 0.00111242 1e-05
0.0050194 0.00111264 1e-05
0.0051327 0.00111287 1e-05
0.00524601 0.00111308 1e-05
0.00535932 0.00111329 1e-05
0.00547262 0.00111349 1e-05
0.00558681 0.00111367 1e-05
0.005701 0.00111386 1e-05
0.00581518 0.00111404 1e-05
0.00592937 0.0011142 1e-05
0.00604356 0.00111437 1e-05
0.00615863 0.00111452 1e-05
0.00627371 0.00111466 1e-05
0.00638878 0.0011148 1e-05
0.00650386 0.00111493 1e-05
0.00661893 0.00111506 1e-05
0.0067349 0.00111517 1e-05
0.00685087 0.00111528 1e-05
0.00696684 0.00111538 1e-05
0.00708281 0.00111547 1e-05
0.00719878 0.00111556 1e-05
0.00731495 0.00111563 1e-05
0.00743112 0.0011157 1e-05
0.0075473 0.00111577 1e-05
0.00766347 0.00111582 1e-05
0.00777305 0.00111586 1e-05
0.00777507 0.00111586 1e-05
0.00777709 0.00111586 1e-05
0.0077791 0.00111586 1e-05
0.00778112 0.00111586 1e-05
0.00778313 0.00111587 1e-05
0.00790091 0.0011159 1e-05
0.00801869 0.00111593 1e-05
0.00813647 0.00111596 1e-05
0.00825425 0.00111597 1e-05
0.00837203 0.00111598 1e-05
0.00849073 0.00111597 1e-05
0.00860942 0.00111596 1e-05
0.00872812 0.00111594 1e-05
0.00884682 0.00111591 1e-05
0.00896551 0.00111588 1e-05
0.00908513 0.00111583 1e-05
0.00920475 0.00111578 1e-05
0.00932437 0.00111571 1e-05
0.00944398 0.00111565 1e-05
0.0095636 0.00111557 1e-05
0.00968415 0.00111547 1e-05
0.0098047 0.00111538 1e-05
0.00992525 0.00111527 1e-05
0.0100458 0.00111516 1e-05
0.0101663 0.00111504 1e-05
0.0102878 0.0011149 1e-05
0.0104093 0.00111476 1e-05
0.0105308 0.00111461 1e-05
0.0106523 0.00111445 1e-05
0.0107738 0.00111429 1e-05
0.0108962 0.0011141 1e-05
0.0110186 0.00111391 1e-05
0.0111411 0.00111372 1e-05
0.0112635 0.00111351 1e-05
0.0113859 0.0011133 1e-05
0.0115093 0.00111306 1e-05
0.0116327 0.00111283 1e-05
0.0117561 0.00111259 1e-05
0.0118795 0.00111234 1e-05
0.0120028 0.00111208 1e-05
0.0121272 0.00111179 1e-05
0.0122515 0.00111151 1e-05
0.0123759 0.00111122 1e-05
0.0125002 0.00111092 1e-05
0.0126245 0.00111061 1e-05
0.0127498 0.00111028 1e-05
0.0128752 0.00110995 1e-05
0.0130005 0.00110961 1e-05
0.0131258 0.00110926 1e-05
0.0132511 0.0011089 1e-05
0.0133774 0.00110852 1e-05
0.0135036 0.00110814 1e-05
0.0136299 0.00110774 1e-05
0.0137562 0.00110734 1e-05
0.0138825 0.00110693 1e-05
0.0140098 0.0011065 1e-05
0.014137 0.00110606 1e-05
0.0142643 0.00110562 1e-05
0.0143915 0.00110517 1e-05
0.0145188 0.0011047 1e-05
0.0146471 0.00110422 1e-05
0.0147753 0.00110373 1e-05
0.0149036 0.00110323 1e-05
0.0150318 0.00110272 1e-05
0.0151601 0.00110221 1e-05
0.0152893 0.00110167 1e-05
0.0154186 0.00110113 1e-05
0.0155478 0.00110058 1e-05
0.0156771 0.00110001 1e-05
0.0158063 0.00109944 1e-05
0.0159366 0.00109886 1e-05
0.0160668 0.00109826 1e-05
0.0161971 0.00109765 1e-05
0.0163274 0.00109703 1e-05
0.0164576 0.00109641 1e-05
0.0165889 0.00109577 1e-05
0.0167201 0.00109512 1e-05
0.0168514 0.00109445 1e-05
0.0169827 0.00109378 1e-05
0.0171139 0.0010931 1e-05
0.0172462 0.00109241 1e-05
0.0173785 0.0010917 1e-05
0.0175108 0.00109098 1e-05
0.0176431 0.00109025 1e-05
0.0177754 0.00108951 1e-05
0.0179087 0.00108877 1e-05
0.018042 0.001088 1e-05
0.0181753 0.00108723 1e-05
0.0183087 0.00108644 1e-05
0.018442 0.00108565 1e-05
0.0185763 0.00108485 1e-05
0.0187107 0.00108403 1e-05
0.018845 0.0010832 1e-05
0.0189794 0.00108235 1e-05
0.0191137 0.0010815 1e-05
0.0192491 0.00108065 1e-05
0.0193845 0.00107978 1e-05
0.0195199 0.00107889 1e-05
0.0196553 0.00107798 1e-05
0.0197907 0.00107708 1e-05
0.0199272 0.00107617 1e-05
0.0200636 0.00107524 1e-05
0.0202001 0.00107429 1e-05
0.0203365 0.00107333 1e-05
0.020473 0.00107237 1e-05
0.0206105 0.00107141 1e-05
0.020748 0.00107042 1e-05
0.0208855 0.00106941 1e-05
0.021023 0.00106839 1e-05
0.0211606 0.00106738 1e-05
0.0212991 0.00106636 1e-05
0.0214377 0.00106532 1e-05
0.0215763 0.00106425 1e-05
0.0217149 0.00106317 1e-05
0.0218535 0.0010621 1e-05
0.0219931 0.00106103 1e-05
0.0221328 0.00105993 1e-05
0.0222724 0.0010588 1e-05
0.0224121 0.00105767 1e-05
0.0225517 0.00105654 1e-05
0.0226925 0.00105541 1e-05
0.0228332 0.00105425 1e-05
0.022974 0.00105307 1e-05
0.0231147 0.00105187 1e-05
0.0232555 0.00105068 1e-05
0.0233973 0.0010495 1e-05
0.0235391 0.00104828 1e-05
0.023681 0.00104704 1e-05
0.0238228 0.00104578 1e-05
0.0239647 0.00104453 1e-05
0.0241076 0.00104329 1e-05
0.0242505 0.00104201 1e-05
0.0243935 0.00104071 1e-05
0.0245364 0.00103939 1e-05
0.0246794 0.00103809 1e-05
0.0248234 0.00103678 1e-05
0.0249675 0.00103545 1e-05
0.0251115 0.00103408 1e-05
0.0252556 0.00103271 1e-05
[...]
POINT_DATA 12075
 FIELD attributes 1
U 3 12075 float
10.0004 	0.00731839 	0 10.0004 	0.00585471 	0 10.0003 	0.00439103 	0 10.0002 	0.00292735 	0 10.0001 	0.00146368 	0 10 	0 	0
10.0001 	0.00087988 	0 10 	0.000703904 	0 10 	0.000527928 	0 10 	0.000351952 	0 10 	0.000175976 	0 10 	0 	0
10.0001 	0.000467034 	0 10.0001 	0.000373438 	0 10.0001 	0.000279842 	0 10 	0.000186246 	0 10 	9.26503e-05 	0 10 	0 	0
10 	0.000267446 	0 10 	0.000213957 	0 10 	0.000160468 	0 10 	0.000106979 	0 10 	5.34893e-05 	0 10 	0 	0
10 	8.18101e-05 	0 10 	6.5448e-05 	0 10 	4.9086e-05 	0 10 	3.2724e-05 	0 10 	1.6362e-05 	0 10 	0 	0
10 	-2.49391e-05 	0 10 	-1.99513e-05 	0 10 	-1.49634e-05 	0 10 	-9.97563e-06 	0 10 	-4.98781e-06 	0 10 	0 	0
10 	-0.000215206 	0 10 	-0.000172165 	0 10 	-0.000129124 	0 10 	-8.60825e-05 	0 10 	-4.30413e-05 	0 10 	0 	0
10 	-0.000377206 	0 10 	-0.000301765 	0 10 	-0.000226324 	0 10 	-0.000150883 	0 10 	-7.54413e-05 	0 10 	0 	0
9.99999 	-0.000427165 	0 9.99999 	-0.000341732 	0 9.99999 	-0.000256299 	0 10 	-0.000170866 	0 10 	-8.5433e-05 	0 10 	0 	0
9.17387 	0.0870992 	0 9.1308 	0.0696794 	0 9.08741 	0.0522592 	0 9.04368 	0.0348389 	0 8.99962 	0.0174184 	0 8.95524 	0 	0
10.0004 	0.00731839 	0 10.0024 	0.0151688 	0 10.0045 	0.0221877 	0 10.0065 	0.0291623 	0 10.0085 	0.0360931 	0 10.0135 	0.0463083 	0 10.0163 	0.0402075 	0 10.0207 	0.0401661 	0 10.0252 	0.0401248 	0 10.0296 	0.0400837 	0 10.0356 	0.0445444 	0 10.0384 	0.0379043 	0 10.0424 	0.0378607 	0 10.0464 	0.037817 	0 10.0504 	0.0377733 	0 10.0545 	0.0408749 	0 10.0567 	0.0387977 	0 10.0591 	0.0401074 	0 10.0616 	0.0414188 	0 10.064 	0.0427317 	0 10.0661 	0.0451902 	0 10.0677 	0.0453018 	0 10.069 	0.0465044 	0 10.0703 	0.0477082 	0 10.0717 	0.048913 	0 10.0728 	0.0499316 	0 10.0729 	0.0499946 	0 10.0729 	0.0500576 	0 10.073 	0.0501206 	0 10.0731 	0.0501836 	0 10.0732 	0.0502371 	0 10.0737 	0.0508649 	0 10.0742 	0.0514867 	0 10.0747 	0.0521089 	0 10.0752 	0.0527317 	0 10.0757 	0.0531904 	0 10.0756 	0.0534876 	0 10.0752 	0.0536793 	0 10.0749 	0.0538711 	0 10.0745 	0.054063 	0 10.074 	0.0540164 	0 10.0736 	0.0541635 	0 10.0725 	0.0541421 	0 10.0714 	0.0541208 	0 10.0703 	0.0540994 	0 10.0687 	0.0538088 	0 10.0683 	0.0538922 	0 10.0667 	0.0537616 	0 10.0651 	0.0536309 	0 10.0634 	0.0535003 	0 10.0609 	0.0530832 	0 10.0609 	0.0531416 	0 10.0588 	0.0529511 	0 10.0568 	0.0527606 	0 10.0548 	0.05257 	0 10.0512 	0.0520807 	0 10.0518 	0.0521397 	0 10.0495 	0.0519248 	0 10.0472 	0.0517098 	0 10.0449 	0.0514948 	0 10.0402 	0.0509733 	0 10.0417 	0.0510551 	0 10.0391 	0.0508383 	0 10.0366 	0.0506215 	0 10.0341 	0.0504046 	0 10.0283 	0.0498684 	0 10.0307 	0.049981 	0 10.0281 	0.049781 	0 10.0254 	0.0495809 	0 10.0227 	0.0493807 	0 10.0158 	0.0488549 	0 10.0194 	0.0490111 	0 10.0167 	0.0488317 	0 10.0139 	0.0486522 	0 10.0111 	0.0484726 	0 10.003 	0.0479507 	0 10.0078 	0.0481568 	0 10.0051 	0.0480468 	0 10.0023 	0.0479368 	0 9.99954 	0.0478268 	0 9.99025 	0.0473872 	0 9.99641 	0.0476879 	0 9.99368 	0.0476208 	0 9.99094 	0.0475537 	0 9.9882 	0.0474866 	0 9.9777 	0.047034 	0 9.98527 	0.0473811 	0 9.98264 	0.0475209 	0 9.98001 	0.0476607 	0 9.97739 	0.0478005 	0 9.96575 	0.0476237 	0 9.97488 	0.0481227 	1.0851e-21 9.97297 	0.0482069 	7.21325e-21 9.97106 	0.0482912 	1.33413e-20 9.96915 	0.0483755 	1.94692e-20 9.95713 	0.0479636 	1.6464e-20 9.96761 	0.0482217 	1.14543e-19 9.96599 	0.0480079 	1.0642e-19 9.96436 	0.0477941 	9.82934e-20 9.96274 	0.0475803 	9.0164e-20 9.95053 	0.0469284 	-1.81865e-20 9.96093 	0.0468661 	-4.94251e-20 9.95935 	0.0465075 	-5.49771e-20 9.95776 	0.0461489 	-6.05268e-20 9.95617 	0.0457902 	-6.60743e-20 9.94408 	0.0451512 	-2.57001e-20 9.95403 	0.0448761 	-2.26475e-20 9.95221 	0.0442178 	-1.57365e-20 9.95038 	0.0435594 	-8.82617e-21 9.94855 	0.0429009 	-1.91644e-21 9.93653 	0.0420351 	8.64867e-21 9.94606 	0.041701 	-6.56281e-21 9.94396 	0.0408326 	-2.89192e-20 9.94185 	0.0399641 	-5.12781e-20 9.93974 	0.0390954 	-7.36397e-20 9.9277 	0.0379417 	-1.05395e-19 9.93669 	0.0377102 	-1.50266e-19 9.93421 	0.0368608 	-1.35433e-19 9.93172 	0.0360112 	-1.20591e-19 9.92923 	0.0351613 	-1.05739e-19 9.9171 	0.0338816 	-3.58306e-20 9.92541 	0.0337738 	4.3063e-20 9.9225 	0.0330078 	5.92895e-20 9.91959 	0.0322416 	7.55044e-20 9.91668 	0.0314752 	9.17077e-20 9.90452 	0.0301762 	4.40867e-20 9.91206 	0.0300966 	-5.88775e-20 9.90874 	0.0293644 	-6.62124e-20 9.90541 	0.0286319 	-7.35294e-20 9.90208 	0.0278992 	-8.08285e-20 9.88999 	0.0266195 	-4.0758e-22 9.89664 	0.026498 	7.567e-20 9.89287 	0.0257744 	6.4463e-20 9.8891 	0.0250505 	5.32381e-20 9.88532 	0.0243263 	4.19954e-20 9.87338 	0.0231032 	-3.37167e-20 9.87894 	0.0229178 	-1.01221e-19 9.87469 	0.0222016 	-1.27837e-19 9.87044 	0.021485 	-1.54447e-19 9.86617 	0.0207681 	-1.8105e-19 9.85446 	0.019627 	-1.62621e-19 9.85873 	0.0193769 	-1.87978e-19 9.85398 	0.0186721 	-1.73084e-19 9.84922 	0.0179671 	-1.58186e-19 9.84445 	0.0172618 	-1.43282e-19 9.83314 	0.0162146 	-9.91348e-20 9.83585 	0.0159082 	-8.36026e-20 9.83059 	0.0152195 	-6.14555e-20 9.82533 	0.0145306 	-3.93104e-20 9.82007 	0.0138414 	-1.71676e-20 9.8094 	0.0128879 	2.73528e-21 9.81023 	0.0125174 	0 9.80449 	0.0118387 	0 9.79875 	0.0111596 	0 9.79299 	0.0104803 	0 9.78328 	0.00961469 	0 9.78187 	0.00916537 	-1.93457e-20 9.77565 	0.00849226 	-4.20208e-20 9.76942 	0.00781881 	-6.4698e-20 9.76319 	0.00714503 	-8.73773e-20 9.75479 	0.00637125 	-1.11144e-19 9.75076 	0.00583023 	-1.17716e-19 9.74411 	0.00516702 	-1.18584e-19 9.73746 	0.00450344 	-1.19445e-19 9.7308 	0.0038395 	-1.20299e-19 9.72451 	0.00321288 	-1.21099e-19 9.72439 	0.00320129 	-1.21137e-19 9.72427 	0.00318969 	-1.21175e-19 9.72415 	0.00317809 	-1.21213e-19 9.72404 	0.0031665 	-1.21251e-19 9.72381 	0.00314986 	-1.2125e-19 9.7167 	0.0024889 	-8.65714e-20 9.70948 	0.00182293 	-5.1726e-20 9.70225 	0.00115653 	-1.68925e-20 9.69501 	0.000489717 	1.79291e-20 9.6813 	-0.000465816 	6.06195e-20 9.67958 	-0.000868812 	6.17364e-20 9.67192 	-0.00153132 	6.30816e-20 9.66425 	-0.00219429 	6.4424e-20 9.65657 	-0.00285773 	6.57637e-20 9.63622 	-0.00406203 	6.92608e-20 9.63974 	-0.00424047 	5.46683e-20 9.63166 	-0.00489937 	4.00732e-20 9.62357 	-0.00555877 	2.54766e-20 9.61547 	-0.00621868 	1.08785e-20 9.58884 	-0.00762441 	-1.14671e-21 9.59728 	-0.00762501 	-1.02609e-20 9.5888 	-0.00828166 	-2.419e-20 9.58032 	-0.00893886 	-3.81177e-20 9.57182 	-0.0095966 	-5.20438e-20 9.53943 	-0.0111498 	-6.59869e-20 9.55236 	-0.0110251 	-6.65171e-20 9.54352 	-0.0116816 	-7.52937e-20 9.53467 	-0.0123388 	-8.40663e-20 9.52581 	-0.0129966 	-9.28349e-20 9.48828 	-0.0146403 	-1.14472e-19 9.5052 	-0.0144417 	-1.75403e-19 9.49603 	-0.015098 	-1.64024e-19 9.48684 	-0.0157549 	-1.52662e-19 9.47764 	-0.0164124 	-1.41316e-19 9.43568 	-0.0180855 	-4.9439e-20 9.456 	-0.0178643 	-3.19691e-20 9.44651 	-0.0185204 	-2.24996e-20 9.43702 	-0.0191772 	-1.30291e-20 9.42751 	-0.0198347 	-3.55767e-21 9.38185 	-0.02148 	0 9.40498 	-0.0212878 	0 9.39522 	-0.0219454 	0 9.38544 	-0.0226038 	0 9.37564 	-0.0232629 	0 9.32706 	-0.0248281 	0 9.3524 	-0.024716 	2.18901e-21 9.34239 	-0.0253761 	1.0983e-20 9.33235 	-0.0260368 	1.9776e-20 9.3223 	-0.0266983 	2.8568e-20 9.27153 	-0.0281295 	4.95848e-20 9.29851 	-0.0281457 	1.86876e-19 9.28827 	-0.0288071 	1.90391e-19 9.27801 	-0.0294694 	1.93925e-19 9.26774 	-0.0301324 	1.97477e-19 9.21547 	-0.0313772 	4.98146e-20 9.24357 	-0.0315629 	2.69704e-20 9.23312 	-0.0322244 	1.90748e-20 9.22266 	-0.0328868 	1.11781e-20 9.2109 	-0.0335606 	4.03867e-21 9.15906 	-0.0345641 	2.04917e-20 9.18503 	-0.0349727 	1.24898e-19 9.17718 	-0.0356144 	1.34208e-19 9.16655 	-0.0362761 	1.35731e-19 9.15069 	-0.036949 	1.20924e-19 9.1025 	-0.0376867 	4.66612e-21 9.12513 	-0.0383137 	-1.18807e-19 9.12068 	-0.0389674 	-1.52073e-19 9.1099 	-0.039628 	-1.64253e-19 9.09066 	-0.0402481 	-1.53402e-19 9.04593 	-0.0407442 	-7.29436e-20 9.06545 	-0.0415668 	-2.12689e-19 9.06385 	-0.0422757 	-2.57382e-19 9.05293 	-0.0429349 	-2.60173e-19 9.03098 	-0.0434575 	-2.07335e-19 8.98951 	-0.0437372 	-5.60024e-20 9.00614 	-0.0447326 	-2.94665e-20 9.00689 	-0.0455338 	-1.32044e-20 8.99586 	-0.0461915 	-4.54261e-21 8.9718 	-0.0465786 	0 8.93337 	-0.046667 	0 8.94736 	-0.0478127 	0 8.94998 	-0.0487368 	0 8.93888 	-0.0493929 	0 8.91325 	-0.049614 	2.33555e-21 8.87763 	-0.0495358 	6.27768e-21 8.88921 	-0.0508106 	2.52243e-21 8.89331 	-0.0518823 	0 8.88214 	-0.0525366 	0 8.85542 	-0.0525679 	2.80884e-21 8.8224 	-0.0523464 	6.75615e-21 8.8318 	-0.0537298 	3.00053e-21 8.83703 	-0.0549673 	1.57216e-21 8.82582 	-0.0556201 	9.39743e-21 8.79842 	-0.0554446 	2.90358e-20 8.76777 	-0.0551027 	5.10441e-20 8.7752 	-0.0565767 	2.00679e-19 8.78127 	-0.0579937 	3.39996e-19 8.77003 	-0.0586457 	3.44215e-19 8.7423 	-0.0582527 	2.01298e-19 8.71383 	-0.0578119 	5.16759e-20 8.7195 	-0.0593608 	2.99949e-20 8.72511 	-0.0609115 	8.31553e-21 8.71365 	-0.0615217 	3.10768e-22 8.68715 	-0.060999 	4.09818e-21 8.66066 	-0.060476 	7.8854e-21 8.66474 	-0.0620798 	4.2951e-21 8.66876 	-0.0636852 	7.05838e-22 8.6577 	-0.0642647 	2.65008e-21 8.633 	-0.0636818 	-1.98713e-21 8.60831 	-0.0630985 	-6.6232e-21 8.61098 	-0.0647494 	-5.83517e-20 8.6136 	-0.066402 	-1.10085e-19 8.60298 	-0.0669525 	-1.11705e-19 8.57991 	-0.0663209 	-6.43981e-20 8.55686 	-0.065689 	-1.70893e-20 8.55829 	-0.0673783 	1.00778e-19 8.55966 	-0.0690693 	2.18638e-19 8.54951 	-0.0695909 	2.2877e-19 8.52792 	-0.0689195 	1.30565e-19 8.50635 	-0.0682476 	3.23608e-20 8.50669 	-0.0699623 	1.87983e-20 8.50697 	-0.0716786 	5.23124e-21 8.49732 	-0.0721732 	5.14283e-22 8.47705 	-0.0714781 	6.05041e-21 8.4568 	-0.0707825 	1.15885e-20 8.45619 	-0.0725113 	4.92362e-21 8.45552 	-0.0742417 	-1.7478e-21 8.44639 	-0.0747114 	-2.45529e-20 8.42731 	-0.0740072 	-8.39687e-20 8.40824 	-0.0733026 	-1.43387e-19 8.40679 	-0.0750295 	-2.98705e-19 8.40529 	-0.076758 	-4.54017e-19 8.39668 	-0.0772044 	-4.35755e-19 8.37867 	-0.076509 	-2.57709e-19 8.36068 	-0.0758132 	-7.96651e-20 8.35849 	-0.0775329 	6.75237e-20 8.35611 	-0.0792245 	2.11367e-19 8.3477 	-0.0796209 	2.0846e-19 8.33114 	-0.0790032 	1.07341e-19 8.31411 	-0.0783257 	4.68987e-22 8.31127 	-0.0800348 	-1.05519e-19 8.3075 	-0.0815297 	-1.95805e-19 8.29923 	-0.0819357 	-2.06695e-19 8.2847 	-0.0815024 	-1.35931e-19 8.26855 	-0.0808502 	-4.3912e-20 8.26514 	-0.0825469 	-3.06571e-20 8.26023 	-0.083848 	-1.75199e-20 8.25209 	-0.0842654 	-4.63877e-21 8.23933 	-0.084018 	1.55972e-20 8.22399 	-0.0833961 	3.99748e-20 8.22005 	-0.0850795 	1.40789e-20 8.21424 	-0.0861914 	-3.11862e-21 8.20623 	-0.0866219 	-9.9517e-21 8.19501 	-0.0865598 	-4.91389e-21 8.18039 	-0.0859719 	1.27915e-20 8.176 	-0.087642 	-6.91285e-21 8.16949 	-0.0885709 	-1.92404e-20 8.16158 	-0.0890159 	-2.67511e-20 8.1517 	-0.0891371 	-4.01268e-20 8.13774 	-0.0885859 	-6.56677e-20 8.13295 	-0.0902431 	6.22977e-20 8.12589 	-0.0909961 	9.56051e-20 8.1181 	-0.091457 	9.8303e-20 8.10937 	-0.0917584 	8.25704e-20 8.09602 	-0.0912462 	-2.69921e-20 8.09086 	-0.0928915 	8.09207e-20 8.08341 	-0.0934762 	9.40539e-20 8.07571 	-0.0939543 	9.76234e-20 8.06799 	-0.0944323 	1.01152e-19 8.05519 	-0.0939608 	1.13777e-20 8.04958 	-0.0955234 	-7.32196e-22 8.04199 	-0.0960196 	-5.00911e-22 8.03438 	-0.0965162 	-2.69654e-22 8.02675 	-0.0970131 	-3.84257e-23 8.01522 	-0.0967376 	1.95373e-20 8.00908 	-0.0981187 	0 8.00157 	-0.0986348 	0 7.99404 	-0.0991513 	0 7.9865 	-0.099668 	0 7.97608 	-0.0995846 	1.56946e-20 7.96954 	-0.100792 	0 7.96211 	-0.10133 	0 7.95466 	-0.101867 	0 7.94718 	-0.102405 	0 7.93775 	-0.102509 	0 7.93091 	-0.103552 	0 7.92355 	-0.104112 	0 7.91616 	-0.104672 	0 7.90875 	-0.105232 	0 7.90017 	-0.10552 	-7.2462e-21 7.89313 	-0.106406 	0 7.88582 	-0.106989 	0 7.87849 	-0.107572 	0 7.87114 	-0.108156 	0 7.8633 	-0.108623 	-6.347e-21 7.8578 	-0.109221 	0 7.8522 	-0.10969 	0 7.84659 	-0.110159 	0 7.84097 	-0.110628 	0 7.83552 	-0.111081 	0 7.83376 	-0.111224 	0 7.832 	-0.111367 	0 7.83023 	-0.111509 	0 7.82847 	-0.111652 	0 7.8269 	-0.111755 	0 7.81942 	-0.112426 	-1.07447e-20 7.81198 	-0.113061 	-2.19867e-20 7.80453 	-0.113697 	-3.32269e-20 7.79704 	-0.114333 	-4.44652e-20 7.79059 	-0.114765 	-5.57131e-20 7.78282 	-0.115612 	-5.22464e-20 7.77541 	-0.116275 	-5.14432e-20 7.76799 	-0.116938 	-5.06362e-20 7.76053 	-0.117602 	-4.98252e-20 7.75494 	-0.1179 	-5.39087e-20 7.74687 	-0.118921 	-4.17139e-20 7.73949 	-0.119613 	-2.94951e-20 7.73209 	-0.120304 	-1.72743e-20 7.72465 	-0.120996 	-5.05148e-21 7.71991 	-0.121169 	0 7.71153 	-0.122359 	-2.0345e-21 7.70417 	-0.12308 	-7.56522e-21 7.69678 	-0.123801 	-1.30949e-20 7.68936 	-0.124523 	-1.86235e-20 7.68543 	-0.124577 	-2.41205e-20 7.67675 	-0.125932 	-6.13363e-20 7.66939 	-0.126684 	-8.42529e-20 7.66201 	-0.127437 	-1.07172e-19 7.65459 	-0.12819 	-1.30093e-19 7.65146 	-0.128134 	-1.1264e-19 7.64253 	-0.129622 	-8.34479e-20 7.63511 	-0.130438 	-6.97057e-20 7.62772 	-0.131224 	-5.66543e-20 7.621 	-0.131881 	-5.00911e-20 7.61795 	-0.13185 	-7.809e-20 7.60904 	-0.133354 	-9.41806e-20 7.60127 	-0.13435 	-8.24587e-20 7.59387 	-0.135171 	-6.12113e-20 7.58798 	-0.135709 	-3.39015e-20 7.58486 	-0.135732 	4.42924e-21 7.57595 	-0.137255 	9.31696e-21 7.56783 	-0.138425 	8.50947e-21 7.56042 	-0.139282 	2.61935e-21 7.55533 	-0.139707 	0 7.55212 	-0.139786 	0 7.54321 	-0.141327 	0 7.53474 	-0.14267 	0 7.5273 	-0.143563 	0 7.52299 	-0.143881 	0 7.51968 	-0.144017 	0 7.51077 	-0.145579 	0 7.50194 	-0.147091 	-1.63274e-21 7.49446 	-0.148022 	-2.18721e-20 7.49092 	-0.148238 	-4.21989e-20 7.4875 	-0.14843 	-6.25282e-20 7.47858 	-0.150015 	-4.03968e-20 7.4696 	-0.151601 	-1.8257e-20 7.46257 	-0.152535 	3.94522e-21 7.45905 	-0.152784 	8.61036e-21 7.45553 	-0.153034 	1.32753e-20 7.44658 	-0.154643 	5.0372e-20 7.43758 	-0.156254 	8.74665e-20 7.431 	-0.15722 	9.99925e-20 7.42736 	-0.157527 	8.29958e-20 7.4237 	-0.157834 	6.5996e-20 7.41473 	-0.15947 	3.83384e-20 7.4057 	-0.161106 	1.06698e-20 7.39954 	-0.162106 	6.53435e-21 7.39576 	-0.162471 	1.71704e-20 7.39198 	-0.162836 	2.7808e-20 7.38297 	-0.164501 	9.99542e-20 7.3739 	-0.166166 	1.72104e-19 7.36814 	-0.167201 	1.72937e-19 7.36423 	-0.167624 	1.01619e-19 7.3603 	-0.168048 	3.02981e-20 7.35124 	-0.169742 	2.068e-20 7.34239 	-0.171391 	1.17969e-20 7.33694 	-0.172436 	1.2393e-20 7.33269 	-0.172991 	2.14592e-20 7.32861 	-0.173473 	3.18119e-20 7.3195 	-0.1752 	1.02054e-19 7.31145 	-0.176731 	1.4986e-19 7.30588 	-0.177822 	1.47052e-19 7.30112 	-0.178578 	1.03801e-19 7.29687 	-0.179118 	3.44229e-20 7.28769 	-0.180877 	2.51244e-20 7.28042 	-0.182296 	1.573e-20 7.27472 	-0.183433 	6.25613e-21 7.26944 	-0.184387 	0 7.26502 	-0.184986 	0 7.25577 	-0.18678 	0 7.24925 	-0.18809 	0 7.24341 	-0.189275 	0 7.23761 	-0.190425 	0 7.23301 	-0.191083 	0 7.22383 	-0.192885 	0 7.21788 	-0.194117 	0 7.21189 	-0.19535 	0 7.20585 	-0.196582 	0 7.20078 	-0.197412 	1.39315e-20 7.19237 	-0.1991 	2.95244e-21 7.18626 	-0.200381 	1.27134e-20 7.18011 	-0.201661 	2.24774e-20 7.17391 	-0.202942 	3.22447e-20 7.16828 	-0.203976 	4.43193e-20 7.16062 	-0.205554 	8.90401e-20 7.15434 	-0.206883 	9.35567e-20 7.14802 	-0.208212 	9.80431e-20 7.14165 	-0.209541 	1.02499e-19 7.13546 	-0.210778 	8.40935e-20 7.13104 	-0.211706 	9.80727e-20 7.12714 	-0.212541 	8.95966e-20 7.12322 	-0.213375 	8.11092e-20 7.11928 	-0.21421 	7.26104e-20 7.11549 	-0.215011 	6.44488e-20 7.1128 	-0.215559 	5.9219e-20 7.11009 	-0.216108 	5.39852e-20 7.10738 	-0.216657 	4.87475e-20 7.10466 	-0.217205 	4.35058e-20 7.10244 	-0.217699 	4.43208e-20 7.09536 	-0.219178 	4.22608e-20 7.08851 	-0.220602 	4.07037e-20 7.08161 	-0.222027 	3.91393e-20 7.07466 	-0.223451 	3.75674e-20 7.06942 	-0.224683 	4.18385e-20 7.06142 	-0.226349 	3.51075e-20 7.05437 	-0.227824 	3.39613e-20 7.04726 	-0.229298 	3.28077e-20 7.0401 	-0.230772 	3.16465e-20 7.03594 	-0.231919 	4.34852e-20 7.02699 	-0.233771 	5.53206e-20 7.01972 	-0.235295 	4.81693e-20 7.0124 	-0.236819 	4.10294e-20 7.00506 	-0.238338 	3.36688e-20 7.00193 	-0.239404 	4.15166e-21 6.99234 	-0.241381 	3.04636e-22 6.98451 	-0.243014 	-1.85975e-22 6.97696 	-0.244587 	-7.50795e-23 6.97073 	-0.246014 	0 6.96736 	-0.247137 	0 6.95754 	-0.249155 	0 6.94869 	-0.250981 	-7.32197e-21 6.9409 	-0.252602 	-2.24394e-20 6.93579 	-0.253938 	-3.48567e-20 6.93215 	-0.255116 	-4.57764e-20 6.9221 	-0.257177 	-3.2089e-20 6.9122 	-0.259195 	-1.80245e-20 6.90415 	-0.260864 	-9.35529e-22 6.90016 	-0.262109 	7.40389e-21 6.89626 	-0.263343 	1.54908e-20 6.88596 	-0.265445 	8.61466e-21 6.87558 	-0.267548 	1.74405e-21 6.86797 	-0.269241 	1.32533e-20 6.86382 	-0.270527 	3.64988e-20 6.85962 	-0.271814 	5.9744e-20 6.84906 	-0.273958 	3.53202e-20 6.83843 	-0.276102 	1.08911e-20 6.83113 	-0.277849 	-2.46938e-21 6.82668 	-0.279187 	-6.15464e-21 6.8222 	-0.280526 	-9.8419e-21 6.81137 	-0.28271 	-6.66571e-20 6.8005 	-0.284891 	-1.23054e-19 6.79367 	-0.286659 	-1.31105e-19 6.78872 	-0.288084 	-9.16263e-20 6.78392 	-0.289472 	-4.70987e-20 6.77281 	-0.291696 	-9.2622e-20 6.76316 	-0.293766 	-1.18765e-19 6.75604 	-0.295578 	-1.12298e-19 6.74986 	-0.29721 	-8.63546e-20 6.74474 	-0.298646 	-3.89619e-20 6.73334 	-0.300908 	-8.67834e-20 6.72493 	-0.302866 	-9.09048e-20 6.71749 	-0.304719 	-8.01406e-20 6.71006 	-0.306561 	-6.79826e-20 6.70461 	-0.308043 	-1.42319e-20 6.69343 	-0.310289 	-1.1219e-20 6.68573 	-0.312184 	-7.94402e-21 6.67798 	-0.314079 	-4.6712e-21 6.67016 	-0.315972 	-1.4006e-21 6.66347 	-0.317657 	0 6.65356 	-0.319782 	0 6.64554 	-0.321716 	0 6.63745 	-0.323649 	0 6.62929 	-0.325582 	0 6.62127 	-0.32748 	0 6.61935 	-0.32789 	-3.98836e-22 6.61775 	-0.328269 	-1.07276e-21 6.61615 	-0.328648 	-1.74675e-21 6.61455 	-0.329027 	-2.42083e-21 6.61297 	-0.329401 	-3.08523e-21 6.60581 	-0.330989 	-5.43915e-21 6.59861 	-0.332577 	-7.79158e-21 6.59136 	-0.334165 	-1.01425e-20 6.58407 	-0.335752 	-1.24919e-20 6.57762 	-0.337222 	-1.47802e-20 6.56805 	-0.339355 	-5.22405e-22 6.55881 	-0.341354 	2.63717e-21 6.54949 	-0.343353 	5.8199e-21 6.5401 	-0.345352 	9.0259e-21 6.53268 	-0.347086 	-1.8468e-20 6.52218 	-0.349418 	-9.6562e-21 6.51254 	-0.351449 	-6.12864e-22 6.50282 	-0.35348 	8.42813e-21 6.49369 	-0.355425 	1.64837e-20 6.48639 	-0.357128 	2.17421e-20 6.47545 	-0.359492 	1.52025e-20 6.46486 	-0.361719 	1.22136e-20 6.45472 	-0.363778 	1.35836e-20 6.4464 	-0.365599 	2.47957e-20 6.4387 	-0.367334 	3.96112e-20 6.42732 	-0.36972 	4.78473e-20 6.41586 	-0.372105 	5.60803e-20 6.4057 	-0.374165 	5.06303e-20 6.39765 	-0.375928 	2.63913e-20 6.38953 	-0.37769 	2.13921e-21 6.37771 	-0.380095 	2.32023e-20 6.3658 	-0.3825 	4.42545e-20 6.35588 	-0.384609 	4.1231e-20 6.3474 	-0.386396 	9.84446e-21 6.33885 	-0.388182 	-2.15519e-20 6.32657 	-0.390603 	-1.38141e-20 6.3148 	-0.392951 	-5.44792e-21 6.30494 	-0.395056 	5.04317e-21 6.29559 	-0.396987 	9.92917e-21 6.28659 	-0.398793 	1.07387e-20 6.27385 	-0.401227 	1.24993e-20 6.26298 	-0.403422 	1.38803e-20 6.25267 	-0.405541 	1.51444e-20 6.24227 	-0.407658 	1.64173e-20 6.23271 	-0.40951 	2.17932e-20 6.22026 	-0.411859 	1.72607e-20 6.20956 	-0.413988 	1.27187e-20 6.19878 	-0.416116 	8.1813e-21 6.18791 	-0.418243 	3.64869e-21 6.17715 	-0.420313 	0 6.17379 	-0.42093 	0 6.17082 	-0.421499 	0 6.16785 	-0.422069 	0 6.16487 	-0.422639 	0 6.16194 	-0.423197 	0 6.15406 	-0.424766 	0 6.14614 	-0.426335 	0 6.13818 	-0.427903 	0 6.13016 	-0.42947 	0 6.12219 	-0.430909 	-4.27784e-21 6.11151 	-0.433206 	1.87886e-21 6.10033 	-0.435342 	5.76875e-21 6.08906 	-0.437478 	9.65453e-21 6.0777 	-0.439613 	1.35361e-20 6.06645 	-0.441439 	2.70905e-20 6.05567 	-0.443876 	5.01808e-20 6.0442 	-0.446082 	5.85633e-20 6.03243 	-0.44821 	6.2055e-20 6.02068 	-0.450165 	5.30736e-20 6.00893 	-0.451972 	3.3483e-20 5.99765 	-0.454394 	3.60505e-20 5.98627 	-0.456815 	3.86247e-20 5.97403 	-0.458893 	3.09184e-20 5.96185 	-0.460686 	1.23991e-20 5.94959 	-0.46248 	-6.12168e-21 5.93779 	-0.46488 	-3.6053e-20 5.92589 	-0.46728 	-6.59765e-20 5.91388 	-0.469388 	-7.26722e-20 5.90117 	-0.471161 	-4.84902e-20 5.88837 	-0.472934 	-2.43053e-20 5.87605 	-0.475307 	1.41215e-20 5.86369 	-0.477565 	3.61978e-20 5.85133 	-0.479617 	2.91763e-20 5.83861 	-0.481562 	9.29711e-21 5.82526 	-0.483309 	-3.45308