# vtk DataFile Version 2.0
track0
ASCII
DATASET POLYDATA
POINTS 12075 float
-0.0205 0.001 1e-05
-0.02052 0.000999985 1e-05
-0.02054 0.000999974 1e-05
-0.02056 0.000999965 1e-05
-0.02058 0.000999959 1e-05
-0.0206 0.000999956 1e-05
-0.0205 0.00367778 1e-05
-0.02052 0.00367778 1e-05
-0.02054 0.00367777 1e-05
-0.02056 0.00367777 1e-05
-0.02058 0.00367777 1e-05
-0.0206 0.00367777 1e-05
-0.0205 0.00635556 1e-05
-0.02052 0.00635555 1e-05
-0.02054 0.00635555 1e-05
-0.02056 0.00635555 1e-05
-0.02058 0.00635555 1e-05
-0.0206 0.00635555 1e-05
-0.0205 0.00903333 1e-05
-0.02052 0.00903333 1e-05
-0.02054 0.00903333 1e-05
-0.02056 0.00903333 1e-05
-0.02058 0.00903333 1e-05
-0.0206 0.00903333 1e-05
-0.0205 0.0117111 1e-05
-0.02052 0.0117111 1e-05
-0.02054 0.0117111 1e-05
-0.02056 0.0117111 1e-05
-0.02058 0.0117111 1e-05
-0.0206 0.0117111 1e-05
-0.0205 0.0143889 1e-05
-0.02052 0.0143889 1e-05
-0.02054 0.0143889 1e-05
-0.02056 0.0143889 1e-05
-0.02058 0.0143889 1e-05
-0.0206 0.0143889 1e-05
-0.0205 0.0170667 1e-05
-0.02052 0.0170667 1e-05
-0.02054 0.0170667 1e-05
-0.02056 0.0170667 1e-05
-0.02058 0.0170667 1e-05
-0.0206 0.0170667 1e-05
-0.0205 0.0197444 1e-05
-0.02052 0.0197444 1e-05
-0.02054 0.0197444 1e-05
-0.02056 0.0197444 1e-05
-0.02058 0.0197444 1e-05
-0.0206 0.0197444 1e-05
-0.0205 0.0224222 1e-05
-0.02052 0.0224222 1e-05
-0.02054 0.0224222 1e-05
-0.02056 0.0224222 1e-05
-0.02058 0.0224222 1e-05
-0.0206 0.0224222 1e-05
-0.0205 0.0251 1e-05
-0.02052 0.0250998 1e-05
-0.02054 0.0250997 1e-05
-0.02056 0.0250995 1e-05
-0.02058 0.0250995 1e-05
-0.0206 0.0250994 1e-05
-0.0205 0.001 1e-05
-0.0202034 0.00100022 1e-05
-0.0199069 0.00100067 1e-05
-0.0196103 0.00100133 1e-05
-0.0193137 0.00100219 1e-05
-0.0190172 0.00100326 1e-05
-0.0187132 0.00100467 1e-05
-0.0184093 0.00100589 1e-05
-0.0181054 0.00100711 1e-05
-0.0178015 0.00100833 1e-05
-0.0174976 0.00100954 1e-05
-0.0172058 0.00101083 1e-05
-0.016914 0.00101194 1e-05
-0.0166222 0.00101303 1e-05
-0.0163305 0.00101413 1e-05
-0.0160387 0.00101523 1e-05
-0.0157586 0.00101637 1e-05
-0.0154784 0.00101745 1e-05
-0.0151983 0.00101856 1e-05
-0.0149182 0.00101972 1e-05
-0.0146381 0.00102091 1e-05
-0.0143747 0.00102209 1e-05
-0.0141113 0.00102327 1e-05
-0.0138479 0.00102449 1e-05
-0.0135845 0.00102574 1e-05
-0.013362 0.00102682 1e-05
-0.0133483 0.00102689 1e-05
-0.0133346 0.00102695 1e-05
-0.0133209 0.00102702 1e-05
-0.0133072 0.00102709 1e-05
-0.0132934 0.00102716 1e-05
-0.0130353 0.00102845 1e-05
-0.0127771 0.00102975 1e-05
-0.0125189 0.00103107 1e-05
-0.0122607 0.0010324 1e-05
-0.0120025 0.00103375 1e-05
-0.0117547 0.00103506 1e-05
-0.0115068 0.00103638 1e-05
-0.0112589 0.0010377 1e-05
-0.0110111 0.00103902 1e-05
-0.0107632 0.00104035 1e-05
-0.0105252 0.00104163 1e-05
-0.0102873 0.00104291 1e-05
-0.0100493 0.00104419 1e-05
-0.00981133 0.00104547 1e-05
-0.00957337 0.00104674 1e-05
-0.00934491 0.00104796 1e-05
-0.00911645 0.00104919 1e-05
-0.00888799 0.00105041 1e-05
-0.00865954 0.00105162 1e-05
-0.00843108 0.00105284 1e-05
-0.00821175 0.001054 1e-05
-0.00799242 0.00105515 1e-05
-0.00777309 0.00105631 1e-05
-0.00755376 0.00105746 1e-05
-0.00733443 0.00105861 1e-05
-0.00712387 0.0010597 1e-05
-0.0069133 0.00106079 1e-05
-0.00670273 0.00106188 1e-05
-0.00649216 0.00106296 1e-05
-0.0062816 0.00106404 1e-05
-0.00607944 0.00106506 1e-05
-0.00587729 0.00106609 1e-05
-0.00567514 0.00106711 1e-05
-0.00547298 0.00106813 1e-05
-0.00527083 0.00106915 1e-05
-0.00507675 0.00107011 1e-05
-0.00488267 0.00107108 1e-05
-0.0046886 0.00107204 1e-05
-0.00449452 0.001073 1e-05
-0.00430044 0.00107396 1e-05
-0.00411412 0.00107487 1e-05
-0.0039278 0.00107578 1e-05
-0.00374147 0.00107668 1e-05
-0.00355515 0.00107759 1e-05
-0.00336883 0.00107849 1e-05
-0.00318995 0.00107935 1e-05
-0.00301107 0.0010802 1e-05
-0.00283219 0.00108106 1e-05
-0.00265331 0.00108192 1e-05
-0.00247443 0.00108277 1e-05
-0.0023027 0.00108359 1e-05
-0.00213097 0.0010844 1e-05
-0.00195924 0.00108522 1e-05
-0.0017875 0.00108603 1e-05
-0.00161577 0.00108685 1e-05
-0.0014509 0.00108762 1e-05
-0.00128603 0.0010884 1e-05
-0.00112116 0.00108919 1e-05
-0.000956289 0.00108997 1e-05
-0.000791418 0.00109076 1e-05
-0.000633135 0.00109151 1e-05
-0.000474851 0.00109227 1e-05
-0.000316567 0.00109303 1e-05
-0.000158284 0.00109379 1e-05
0 0.00109455 1e-05
0.000105677 0.00109505 1e-05
0.000211355 0.00109556 1e-05
0.000317032 0.00109607 1e-05
0.00042271 0.00109657 1e-05
0.000528387 0.00109707 1e-05
0.000634886 0.00109757 1e-05
0.000741385 0.00109806 1e-05
0.000847885 0.00109856 1e-05
0.000954384 0.00109905 1e-05
0.00106088 0.00109953 1e-05
0.00116821 0.00110002 1e-05
0.00127554 0.0011005 1e-05
0.00138286 0.00110097 1e-05
0.00149019 0.00110144 1e-05
0.00159752 0.0011019 1e-05
0.00170568 0.00110235 1e-05
0.00181384 0.0011028 1e-05
0.001922 0.00110324 1e-05
0.00203016 0.00110368 1e-05
0.00213833 0.0011041 1e-05
0.00224733 0.00110451 1e-05
0.00235633 0.00110492 1e-05
0.00246533 0.00110533 1e-05
0.00257434 0.00110572 1e-05
0.00268334 0.0011061 1e-05
0.00279319 0.00110647 1e-05
0.00290304 0.00110684 1e-05
0.00301289 0.00110721 1e-05
0.00312274 0.00110756 1e-05
0.00323259 0.00110791 1e-05
0.00334329 0.00110824 1e-05
0.003454 0.00110858 1e-05
0.0035647 0.0011089 1e-05
0.0036754 0.00110922 1e-05
0.00378611 0.00110953 1e-05
0.00389767 0.00110983 1e-05
0.00400924 0.00111012 1e-05
0.0041208 0.00111041 1e-05
0.00423237 0.00111069 1e-05
0.00434393 0.00111097 1e-05
0.00445636 0.00111123 1e-05
0.00456879 0.00111149 1e-05
0.00468123 0.00111174 1e-05
0.00479366 0.00111198 1e-05
0.00490609 0.00111221 1e-05
0.0050194 0.00111244 1e-05
0.0051327 0.00111266 1e-05
0.00524601 0.00111287 1e-05
0.00535932 0.00111308 1e-05
0.00547262 0.00111327 1e-05
0.00558681 0.00111346 1e-05
0.005701 0.00111364 1e-05
0.00581518 0.00111382 1e-05
0.00592937 0.00111399 1e-05
0.00604356 0.00111415 1e-05
0.00615863 0.0011143 1e-05
0.00627371 0.00111444 1e-05
0.00638878 0.00111458 1e-05
0.00650386 0.00111471 1e-05
0.00661893 0.00111483 1e-05
0.0067349 0.00111494 1e-05
0.00685087 0.00111505 1e-05
0.00696684 0.00111515 1e-05
0.00708281 0.00111524 1e-05
0.00719878 0.00111533 1e-05
0.00731059 0.0011154 1e-05
0.00742241 0.00111547 1e-05
0.00753422 0.00111552 1e-05
0.00764604 0.00111558 1e-05
0.00775178 0.00111562 1e-05
0.00775805 0.00111562 1e-05
0.00776432 0.00111562 1e-05
0.00777059 0.00111562 1e-05
0.00777686 0.00111563 1e-05
0.00778313 0.00111563 1e-05
0.00790091 0.00111567 1e-05
0.00801869 0.0011157 1e-05
0.00813647 0.00111572 1e-05
0.00825425 0.00111573 1e-05
0.00837203 0.00111574 1e-05
0.00849073 0.00111573 1e-05
0.00860942 0.00111572 1e-05
0.00872812 0.0011157 1e-05
0.00884682 0.00111567 1e-05
0.00896551 0.00111564 1e-05
0.00908513 0.00111559 1e-05
0.00920475 0.00111553 1e-05
0.00932437 0.00111547 1e-05
0.00944398 0.0011154 1e-05
0.0095636 0.00111532 1e-05
0.00968415 0.00111523 1e-05
0.0098047 0.00111513 1e-05
0.00992525 0.00111503 1e-05
0.0100458 0.00111492 1e-05
0.0101663 0.0011148 1e-05
0.0102878 0.00111465 1e-05
0.0104093 0.00111451 1e-05
0.0105308 0.00111437 1e-05
0.0106523 0.00111421 1e-05
0.0107738 0.00111404 1e-05
0.0108962 0.00111385 1e-05
0.0110186 0.00111367 1e-05
0.0111411 0.00111347 1e-05
0.0112635 0.00111327 1e-05
0.0113859 0.00111306 1e-05
0.0115093 0.00111282 1e-05
0.0116327 0.00111259 1e-05
0.0117561 0.00111235 1e-05
0.0118795 0.0011121 1e-05
0.0120028 0.00111184 1e-05
0.0121272 0.00111156 1e-05
0.0122515 0.00111128 1e-05
0.0123759 0.00111099 1e-05
0.0125002 0.00111069 1e-05
0.0126245 0.00111038 1e-05
0.0127498 0.00111005 1e-05
0.0128752 0.00110972 1e-05
0.0130005 0.00110938 1e-05
0.0131258 0.00110903 1e-05
0.0132511 0.00110868 1e-05
0.0133774 0.00110829 1e-05
0.0135036 0.00110791 1e-05
0.0136299 0.00110752 1e-05
0.0137562 0.00110712 1e-05
0.0138825 0.00110671 1e-05
0.0140098 0.00110628 1e-05
0.014137 0.00110585 1e-05
0.0142643 0.00110541 1e-05
0.0143915 0.00110496 1e-05
0.0145188 0.00110449 1e-05
0.0146471 0.00110401 1e-05
0.0147753 0.00110353 1e-05
0.0149036 0.00110303 1e-05
0.0150318 0.00110253 1e-05
0.0151601 0.00110201 1e-05
0.0152893 0.00110148 1e-05
0.0154186 0.00110094 1e-05
0.0155478 0.00110039 1e-05
0.0156771 0.00109983 1e-05
0.0158063 0.00109926 1e-05
0.0159366 0.00109867 1e-05
0.0160668 0.00109808 1e-05
0.0161971 0.00109747 1e-05
0.0163274 0.00109686 1e-05
0.0164576 0.00109623 1e-05
0.0165889 0.0010956 1e-05
0.0167201 0.00109495 1e-05
0.0168514 0.00109429 1e-05
0.0169827 0.00109362 1e-05
0.0171139 0.00109294 1e-05
0.0172462 0.00109225 1e-05
0.0173785 0.00109155 1e-05
0.0175108 0.00109083 1e-05
0.0176431 0.0010901 1e-05
0.0177754 0.00108937 1e-05
0.0179087 0.00108863 1e-05
0.018042 0.00108787 1e-05
0.0181753 0.0010871 1e-05
0.0183087 0.00108631 1e-05
0.018442 0.00108552 1e-05
0.0185763 0.00108473 1e-05
0.0187107 0.00108392 1e-05
0.018845 0.00108309 1e-05
0.0189794 0.00108224 1e-05
0.0191137 0.0010814 1e-05
0.0192491 0.00108055 1e-05
0.0193845 0.00107969 1e-05
0.0195199 0.0010788 1e-05
0.0196553 0.0010779 1e-05
0.0197907 0.001077 1e-05
0.0199272 0.0010761 1e-05
0.0200636 0.00107517 1e-05
0.0202001 0.00107423 1e-05
0.0203365 0.00107327 1e-05
0.020473 0.00107231 1e-05
0.0206105 0.00107136 1e-05
0.020748 0.00107038 1e-05
0.0208855 0.00106938 1e-05
0.021023 0.00106836 1e-05
0.0211606 0.00106735 1e-05
0.0212991 0.00106634 1e-05
0.0214377 0.00106531 1e-05
0.0215763 0.00106425 1e-05
0.0217149 0.00106317 1e-05
0.0218535 0.00106211 1e-05
0.0219931 0.00106104 1e-05
0.0221328 0.00105995 1e-05
0.0222724 0.00105883 1e-05
0.0224121 0.0010577 1e-05
0.0225517 0.00105658 1e-05
0.0226925 0.00105546 1e-05
0.0228332 0.00105431 1e-05
0.022974 0.00105313 1e-05
0.0231147 0.00105194 1e-05
0.0232555 0.00105076 1e-05
0.0233973 0.00104959 1e-05
0.0235391 0.00104838 1e-05
0.023681 0.00104714 1e-05
0.0238228 0.0010459 1e-05
0.0239647 0.00104466 1e-05
0.0241076 0.00104342 1e-05
0.0242505 0.00104216 1e-05
0.0243935 0.00104086 1e-05
0.0245364 0.00103956 1e-05
0.0246794 0.00103826 1e-05
0.0248234 0.00103697 1e-05
0.0249675 0.00103564 1e-05
0.0251115 0.00103429 1e-05
0.0252556 0.00103292 1e-05
[...]
POINT_DATA 12075
 FIELD attributes 2
p 1 12075 float
-5.81959 -5.81628 -5.81297 -5.80967 -5.80636 -5.80305
-5.9727 -5.97268 -5.97266 -5.97263 -5.97261 -5.97259
-6.1467 -6.14658 -6.14646 -6.14633 -6.14621 -6.1461
-6.23996 -6.23991 -6.23986 -6.2398 -6.23975 -6.23969
-6.28503 -6.28491 -6.2848 -6.28469 -6.28457 -6.28446
-6.29159 -6.29143 -6.29127 -6.29111 -6.29095 -6.29079
-6.26471 -6.26464 -6.26457 -6.2645 -6.26442 -6.26435
-6.1952 -6.19516 -6.19512 -6.19508 -6.19504 -6.195
-6.07403 -6.07404 -6.07404 -6.07405 -6.07406 -6.07406
-3.86155 -3.88088 -3.90007 -3.91913 -3.93806 -3.95685
-5.81959 -5.81892 -5.81535 -5.81171 -5.80798 -5.79971 -5.81362 -5.82864 -5.84366 -5.85868 -5.88314 -5.90491 -5.93484 -5.96477 -5.9947 -6.02744 -6.04309 -6.06478 -6.08647 -6.10816 -6.13147 -6.15034 -6.17121 -6.19209 -6.21297 -6.23061 -6.23169 -6.23278 -6.23386 -6.23494 -6.23602 -6.25766 -6.2793 -6.30094 -6.32258 -6.34394 -6.36267 -6.38121 -6.39975 -6.4183 -6.43626 -6.45185 -6.46716 -6.48246 -6.49777 -6.51252 -6.52625 -6.53972 -6.5532 -6.56668 -6.5797 -6.59235 -6.60473 -6.61711 -6.62949 -6.64144 -6.65315 -6.66456 -6.67596 -6.68737 -6.69834 -6.7092 -6.71976 -6.73033 -6.74089 -6.7511 -6.76128 -6.77117 -6.78105 -6.79094 -6.8005 -6.81012 -6.81951 -6.82891 -6.8383 -6.84748 -6.8567 -6.86559 -6.87447 -6.88336 -6.89204 -6.90098 -6.91002 -6.91905 -6.92809 -6.93738 -6.94693 -6.95611 -6.9653 -6.97449 -6.98367 -6.99372 -7.00503 -7.01634 -7.02765 -7.03962 -7.05089 -7.06362 -7.07635 -7.08908 -7.10142 -7.11264 -7.12357 -7.1345 -7.14543 -7.15526 -7.16351 -7.17248 -7.18145 -7.19042 -7.19993 -7.20846 -7.21723 -7.226 -7.23477 -7.24358 -7.25204 -7.25942 -7.26679 -7.27416 -7.28057 -7.28764 -7.29336 -7.29907 -7.30479 -7.30936 -7.31525 -7.32004 -7.32484 -7.32963 -7.33343 -7.33842 -7.34249 -7.34657 -7.35064 -7.3539 -7.3579 -7.36116 -7.36441 -7.36767 -7.37034 -7.37337 -7.37586 -7.37835 -7.38083 -7.38296 -7.38533 -7.38733 -7.38934 -7.39135 -7.39316 -7.39522 -7.39706 -7.39889 -7.40073 -7.40246 -7.40435 -7.4061 -7.40785 -7.4096 -7.41131 -7.41297 -7.41458 -7.41618 -7.41778 -7.4193 -7.41939 -7.41948 -7.41957 -7.41966 -7.41976 -7.42139 -7.42304 -7.42468 -7.42633 -7.42814 -7.42961 -7.43127 -7.43293 -7.43459 -7.43665 -7.43794 -7.43967 -7.4414 -7.44314 -7.44558 -7.44669 -7.44855 -7.45041 -7.45227 -7.45521 -7.45614 -7.45813 -7.46012 -7.46211 -7.46552 -7.46624 -7.46833 -7.47043 -7.47252 -7.47637 -7.4769 -7.4791 -7.4813 -7.4835 -7.48779 -7.4882 -7.49053 -7.49286 -7.49519 -7.49987 -7.50019 -7.50266 -7.50512 -7.50759 -7.51262 -7.5129 -7.51549 -7.51808 -7.52068 -7.52599 -7.52628 -7.529 -7.53172 -7.53453 -7.53999 -7.54052 -7.54319 -7.54604 -7.54925 -7.55462 -7.55549 -7.55807 -7.56105 -7.5646 -7.56987 -7.57109 -7.57362 -7.57673 -7.58058 -7.58573 -7.5873 -7.58983 -7.59306 -7.59716 -7.6022 -7.6041 -7.60666 -7.61001 -7.61431 -7.61924 -7.62146 -7.62408 -7.62756 -7.63201 -7.63685 -7.63935 -7.64208 -7.64566 -7.65023 -7.65499 -7.65777 -7.66061 -7.66431 -7.66896 -7.67366 -7.67668 -7.67971 -7.68353 -7.68818 -7.69283 -7.69608 -7.69934 -7.70327 -7.70789 -7.71251 -7.71599 -7.71948 -7.72351 -7.72809 -7.73267 -7.73636 -7.74005 -7.74416 -7.74869 -7.75322 -7.75709 -7.76095 -7.76513 -7.76962 -7.77411 -7.77811 -7.78211 -7.78634 -7.79082 -7.79529 -7.79938 -7.80348 -7.80777 -7.81225 -7.81672 -7.8209 -7.82508 -7.82943 -7.83391 -7.83841 -7.84264 -7.84691 -7.8513 -7.85579 -7.86031 -7.8646 -7.86893 -7.87335 -7.87785 -7.88239 -7.88671 -7.89109 -7.89554 -7.90005 -7.9046 -7.90894 -7.91336 -7.91782 -7.92233 -7.92689 -7.93124 -7.93568 -7.94015 -7.94464 -7.94921 -7.95355 -7.95801 -7.96248 -7.96695 -7.97151 -7.97584 -7.9803 -7.98476 -7.98921 -7.99374 -7.99807 -8.0025 -8.00693 -8.01136 -8.01585 -8.02016 -8.02455 -8.02895 -8.03335 -8.03778 -8.04206 -8.04641 -8.05076 -8.05511 -8.05948 -8.06372 -8.068 -8.07228 -8.07657 -8.08086 -8.08445 -8.08807 -8.09168 -8.09529 -8.09877 -8.09938 -8.1 -8.10061 -8.10123 -8.10184 -8.10595 -8.11006 -8.11417 -8.11828 -8.1224 -8.1264 -8.1304 -8.1344 -8.13841 -8.14242 -8.14631 -8.1502 -8.15408 -8.15796 -8.16186 -8.16563 -8.16937 -8.17312 -8.17686 -8.18062 -8.18425 -8.18782 -8.1914 -8.19498 -8.19855 -8.20202 -8.20541 -8.2088 -8.21218 -8.21556 -8.21884 -8.22205 -8.22524 -8.22842 -8.23157 -8.23466 -8.23768 -8.24065 -8.24359 -8.2465 -8.24936 -8.25218 -8.2549 -8.25756 -8.2602 -8.26281 -8.2654 -8.26785 -8.27021 -8.27256 -8.27489 -8.27723 -8.27938 -8.28141 -8.28344 -8.28546 -8.28749 -8.28933 -8.29101 -8.29269 -8.29438 -8.29607 -8.29757 -8.29887 -8.30016 -8.30149 -8.30282 -8.30396 -8.30485 -8.30574 -8.30668 -8.30761 -8.30836 -8.30884 -8.3093 -8.30982 -8.3103 -8.3106 -8.3107 -8.31071 -8.31078 -8.31075 -8.31059 -8.31029 -8.3098 -8.3094 -8.30881 -8.30814 -8.30743 -8.30641 -8.3055 -8.30431 -8.30311 -8.30191 -8.30039 -8.29886 -8.29708 -8.29531 -8.29355 -8.29155 -8.28935 -8.28697 -8.2846 -8.28223 -8.27974 -8.27698 -8.27413 -8.27129 -8.26845 -8.26578 -8.26558 -8.26538 -8.26518 -8.26498 -8.26478 -8.26115 -8.25751 -8.25388 -8.25026 -8.2465 -8.24233 -8.23798 -8.23365 -8.22931 -8.22469 -8.21997 -8.21488 -8.2098 -8.20473 -8.19919 -8.19389 -8.18803 -8.18218 -8.17621 -8.16981 -8.16371 -8.15724 -8.15057 -8.1436 -8.13634 -8.12941 -8.12232 -8.11479 -8.10675 -8.0986 -8.0908 -8.083 -8.07454 -8.06546 -8.05639 -8.04767 -8.03896 -8.02959 -8.01955 -8.00952 -7.99985 -7.99019 -7.97987 -7.96882 -7.95778 -7.94713 -7.93633 -7.92494 -7.91309 -7.90101 -7.88933 -7.87721 -7.86476 -7.85214 -7.83899 -7.82625 -7.81274 -7.79919 -7.78564 -7.77151 -7.75739 -7.74269 -7.728 -7.71331 -7.69837 -7.68727 -7.67592 -7.66457 -7.65323 -7.64248 -7.63788 -7.63328 -7.62868 -7.62408 -7.61939 -7.60254 -7.58561 -7.56868 -7.55176 -7.53442 -7.51668 -7.4985 -7.48033 -7.46216 -7.44319 -7.42439 -7.40509 -7.38564 -7.3658 -7.34552 -7.32543 -7.30522 -7.28446 -7.26287 -7.24124 -7.21982 -7.19841 -7.1762 -7.15318 -7.13017 -7.10739 -7.08461 -7.06097 -7.03658 -7.01216 -6.98798 -6.96338 -6.93825 -6.9129 -6.88704 -6.86145 -6.83488 -6.8083 -6.78172 -6.75468 -6.72992 -6.70465 -6.67939 -6.65414 -6.63056 -6.62744 -6.62432 -6.6212 -6.61808 -6.61491 -6.5855 -6.55607 -6.52664 -6.49722 -6.46734 -6.43679 -6.40585 -6.37491 -6.34385 -6.31213 -6.28018 -6.24798 -6.21553 -6.18248 -6.14921 -6.11573 -6.08225 -6.04814 -6.01334 -5.97853 -5.94351 -5.9085 -5.8727 -5.83641 -5.80007 -5.76351 -5.72648 -5.68911 -5.65171 -5.61384 -5.57557 -5.53665 -5.49774 -5.45884 -5.41985 -5.41181 -5.40367 -5.39553 -5.38739 -5.37936 -5.34715 -5.31496 -5.28277 -5.25059 -5.21794 -5.17649 -5.13469 -5.09292 -5.05099 -5.00832 -4.96552 -4.92255 -4.8793 -4.8353 -4.79116 -4.74689 -4.70263 -4.65772 -4.61217 -4.56661 -4.5209 -4.47498 -4.42847 -4.38179 -4.33485 -4.28774 -4.23985 -4.19197 -4.1441 -4.09608 -4.08026 -4.06426 -4.04825 -4.03225 -4.0166 -3.98342 -3.95024 -3.91708 -3.88392 -3.85033 -3.80026 -3.74993 -3.69962 -3.64913 -3.59804 -3.54684 -3.4956 -3.44409 -3.39189 -3.33967 -3.28731 -3.23497 -3.1821 -3.12885 -3.07558 -3.02215 -2.96836 -2.91436 -2.86038 -2.80619 -2.77109 -2.73572 -2.70035 -2.66498 -2.63102 -2.61122 -2.59142 -2.57161 -2.55182 -2.53184 -2.47621 -2.42052 -2.36484 -2.30911 -2.2529 -2.19658 -2.14024 -2.08384 -2.02701 -1.97015 -1.91314 -1.85616 -1.79888 -1.74151 -1.6841 -1.62652 -1.56876 -1.51095 -1.45315 -1.39531 -1.37283 -1.35029 -1.32775 -1.30522 -1.28316 -1.24737 -1.21159 -1.17582 -1.14005 -1.10414 -1.04555 -0.987033 -0.928528 -0.869972 -0.811297 -0.75248 -0.693678 -0.634958 -0.576261 -0.517518 -0.458607 -0.399725 -0.34088 -0.282079 -0.223386 -0.179931 -0.136574 -0.0932237 -0.0498814 -0.00802835 0.0077038 0.023435 0.0391653 0.0548946 0.0706163 0.129425 0.188127 0.246816 0.305464 0.36405 0.422733 0.481397 0.539719 0.597847 0.656021 0.714312 0.772537 0.830505 0.888333 0.945988 0.992998 1.03973 1.08645 1.13317 1.17851 1.18955 1.20059 1.21164 1.22268 1.23368 1.29093 1.34807 1.4052 1.46228 1.51917 1.57609 1.63301 1.68945 1.74561 1.80181 1.85807 1.91423 1.97004 2.02572 2.08112 2.12091 2.16036 2.19979 2.23922 2.27794 2.29372 2.3095 2.32529 2.34107 2.35673 2.41139 2.4658 2.52021 2.57448 2.62844 2.6824 2.73635 2.78972 2.84264 2.89558 2.94854 3.00127 3.05366 3.10605 3.15793 3.18575 3.21329 3.2408 3.26831 3.29566 3.31967 3.34369 3.36771 3.39172 3.4155 3.46654 3.51714 3.56774 3.61806 3.66812 3.71815 3.76818 3.81765 3.86654 3.91544 3.96433 4.01287 4.06116 4.10945 4.15737 4.17422 4.19086 4.20749 4.22412 4.24076 4.27151 4.30225 4.333 4.36374 4.39413 4.44102 4.48742 4.53376 4.57971 4.62547 4.67119 4.71691 4.76213 4.80668 4.85124 4.89577 4.93987 4.98381 5.02776 5.07144 5.08206 5.09252 5.10299 5.11345 5.12396 5.15652 5.18909 5.22166 5.25423 5.28633 5.32887 5.37097 5.41293 5.45443 5.49576 5.53714 5.57852 5.61939 5.65958 5.69975 5.74 5.77981 5.81946 5.85911 5.89846 5.90975 5.92086 5.93198 5.94309 5.9543 5.98194 6.00959 6.03724 6.06489 6.09209 6.13045 6.16837 6.20618 6.24357 6.28077 6.31809 6.35542 6.39226 6.42848 6.46468 6.50102 6.53698 6.57277 6.60857 6.64405 6.65601 6.6678 6.67959 6.69138 6.70331 6.72655 6.74979 6.77303 6.79626 6.81916 6.85391 6.88821 6.92248 6.95646 6.99023 7.02415 7.05806 7.09155 7.12455 7.15753 7.19067 7.22359 7.25631 7.28903 7.32136 7.33928 7.35699 7.37471 7.39243 7.41052 7.42485 7.43919 7.45353 7.46786 7.48205 7.5139 7.54551 7.57712 7.60862 7.63989 7.67129 7.70268 7.7337 7.76447 7.79522 7.8261 7.85692 7.88757 7.91809 7.9484 7.97768 8.0068 8.03592 8.06503 8.09512 8.09605 8.09698 8.09792 8.09885 8.09978 8.12983 8.15986 8.18989 8.21992 8.24981 8.27981 8.30968 8.33946 8.36917 8.39885 8.42864 8.45843 8.48818 8.51776 8.54733 8.577 8.60669 8.6364 8.66611 8.69569 8.71119 8.72673 8.74228 8.75782 8.7735 8.78768 8.80186 8.81603 8.83021 8.84444 8.87434 8.90421 8.93407 8.96399 8.99404 9.02412 9.0542 9.08431 9.11462 9.14491 9.17524 9.20561 9.23624 9.26688 9.29752 9.3282 9.35923 9.39025 9.42128 9.45231 9.45464 9.457 9.45937 9.46173 9.46409 9.49317 9.52225 9.55133 9.58041 9.60985 9.64172 9.67364 9.70561 9.73794 9.77039 9.80282 9.83524 9.86806 9.90114 9.93421 9.96726 10.0006 10.0342 10.0678 10.1014 10.119 10.1369 10.1548 10.1727 10.191 10.2072 10.2235 10.2397 10.2559 10.2725 10.3072 10.3418 10.3764 10.411 10.4458 10.4805 10.5152 10.5512 10.589 10.6267 10.6643 10.701 10.7319 10.76 10.7857 10.8111 10.8521 10.8934 10.9347 10.9789 10.9859 10.9909 10.9948 10.9988 11.0028 11.0379 11.0729 11.1079 11.1371 11.1534 11.1721 11.1907 11.2157 11.2471 11.2783 11.3077 11.3373 11.3671 11.3967 11.4299 11.4312 11.4325 11.4338 11.4351 11.4364 11.4676 11.4986 11.5296 11.5597 11.5885 11.6171 11.6456 11.6731 11.6996 11.7259 11.7477 11.7687 11.7894 11.81 11.8337 11.8371 11.8405 11.8439 11.8473 11.8505 11.8733 11.8955 11.9176 11.9389 11.9589 11.9779 11.9968 12.0134 12.0277 12.0418 12.0547 12.0648 12.0739 12.083 12.0915 12.092 12.0922 12.0923 12.0924 12.0925 12.0955 12.0984 12.1012 12.1036 12.1032 12.1 12.0955 12.0888 12.0774 12.0659 12.0513 12.0364 12.0164 11.9939 11.97 11.9427 11.9091 11.8751 11.841 11.8058 11.7988 11.7907 11.7826 11.7745 11.7659 11.7268 11.6876 11.6483 11.6088 11.5644 11.5054 11.441 11.3761 11.3072 11.2341 11.156 11.0778 10.992 10.899 10.8059 10.7071 10.6082 10.5 10.3842 10.2678 10.1451 10.0173 9.88553 9.75299 9.61435 9.46699 9.30755 9.14807 8.98856 8.82439 8.70716 8.58831 8.46944 8.35055 8.19912 8.1416 8.08406 8.02652 7.96897 7.91048 7.695 7.47496 7.25473 7.03431 6.79675 6.54377 6.30307 6.06238 5.8217 5.59977 5.371 5.06119 4.73756 4.37625 3.94457 3.49738 3.12429 2.84391 2.67862 2.57527 2.46793 2.34922 1.84237 0.920534 0