# vtk DataFile Version 2.0
track0
ASCII
DATASET POLYDATA
POINTS 12075 float
-0.0205 0.001 1e-05
-0.02052 0.000999985 1e-05
-0.02054 0.000999974 1e-05
-0.02056 0.000999965 1e-05
-0.02058 0.000999959 1e-05
-0.0206 0.000999956 1e-05
-0.0205 0.00367778 1e-05
-0.02052 0.00367778 1e-05
-0.02054 0.00367777 1e-05
-0.02056 0.00367777 1e-05
-0.02058 0.00367777 1e-05
-0.0206 0.00367777 1e-05
-0.0205 0.00635556 1e-05
-0.02052 0.00635555 1e-05
-0.02054 0.00635555 1e-05
-0.02056 0.00635555 1e-05
-0.02058 0.00635555 1e-05
-0.0206 0.00635555 1e-05
-0.0205 0.00903333 1e-05
-0.02052 0.00903333 1e-05
-0.02054 0.00903333 1e-05
-0.02056 0.00903333 1e-05
-0.02058 0.00903333 1e-05
-0.0206 0.00903333 1e-05
-0.0205 0.0117111 1e-05
-0.02052 0.0117111 1e-05
-0.02054 0.0117111 1e-05
-0.02056 0.0117111 1e-05
-0.02058 0.0117111 1e-05
-0.0206 0.0117111 1e-05
-0.0205 0.0143889 1e-05
-0.02052 0.0143889 1e-05
-0.02054 0.0143889 1e-05
-0.02056 0.0143889 1e-05
-0.02058 0.0143889 1e-05
-0.0206 0.0143889 1e-05
-0.0205 0.0170667 1e-05
-0.02052 0.0170667 1e-05
-0.02054 0.0170667 1e-05
-0.02056 0.0170667 1e-05
-0.02058 0.0170667 1e-05
-0.0206 0.0170667 1e-05
-0.0205 0.0197444 1e-05
-0.02052 0.0197444 1e-05
-0.02054 0.0197444 1e-05
-0.02056 0.0197444 1e-05
-0.02058 0.0197444 1e-05
-0.0206 0.0197444 1e-05
-0.0205 0.0224222 1e-05
-0.02052 0.0224222 1e-05
-0.02054 0.0224222 1e-05
-0.02056 0.0224222 1e-05
-0.02058 0.0224222 1e-05
-0.0206 0.0224222 1e-05
-0.0205 0.0251 1e-05
-0.02052 0.0250998 1e-05
-0.02054 0.0250997 1e-05
-0.02056 0.0250995 1e-05
-0.02058 0.0250995 1e-05
-0.0206 0.0250994 1e-05
-0.0205 0.001 1e-05
-0.0202034 0.00100022 1e-05
-0.0199069 0.00100067 1e-05
-0.0196103 0.00100133 1e-05
-0.0193137 0.00100219 1e-05
-0.0190172 0.00100326 1e-05
-0.0187132 0.00100467 1e-05
-0.0184093 0.00100589 1e-05
-0.0181054 0.00100711 1e-05
-0.0178015 0.00100833 1e-05
-0.0174976 0.00100954 1e-05
-0.0172058 0.00101083 1e-05
-0.016914 0.00101194 1e-05
-0.0166222 0.00101303 1e-05
-0.0163305 0.00101413 1e-05
-0.0160387 0.00101523 1e-05
-0.0157586 0.00101637 1e-05
-0.0154784 0.00101745 1e-05
-0.0151983 0.00101856 1e-05
-0.0149182 0.00101972 1e-05
-0.0146381 0.00102091 1e-05
-0.0143747 0.00102209 1e-05
-0.0141113 0.00102327 1e-05
-0.0138479 0.00102449 1e-05
-0.0135845 0.00102574 1e-05
-0.013362 0.00102682 1e-05
-0.0133483 0.00102689 1e-05
-0.0133346 0.00102695 1e-05
-0.0133209 0.00102702 1e-05
-0.0133072 0.00102709 1e-05
-0.0132934 0.00102716 1e-05
-0.0130353 0.00102845 1e-05
-0.0127771 0.00102975 1e-05
-0.0125189 0.00103107 1e-05
-0.0122607 0.0010324 1e-05
-0.0120025 0.00103375 1e-05
-0.0117547 0.00103506 1e-05
-0.0115068 0.00103638 1e-05
-0.0112589 0.0010377 1e-05
-0.0110111 0.00103902 1e-05
-0.0107632 0.00104035 1e-05
-0.0105252 0.00104163 1e-05
-0.0102873 0.00104291 1e-05
-0.0100493 0.00104419 1e-05
-0.00981133 0.00104547 1e-05
-0.00957337 0.00104674 1e-05
-0.00934491 0.00104796 1e-05
-0.00911645 0.00104919 1e-05
-0.00888799 0.00105041 1e-05
-0.00865954 0.00105162 1e-05
-0.00843108 0.00105284 1e-05
-0.00821175 0.001054 1e-05
-0.00799242 0.00105515 1e-05
-0.00777309 0.00105631 1e-05
-0.00755376 0.00105746 1e-05
-0.00733443 0.00105861 1e-05
-0.00712387 0.0010597 1e-05
-0.0069133 0.00106079 1e-05
-0.00670273 0.00106188 1e-05
-0.00649216 0.00106296 1e-05
-0.0062816 0.00106404 1e-05
-0.00607944 0.00106506 1e-05
-0.00587729 0.00106609 1e-05
-0.00567514 0.00106711 1e-05
-0.00547298 0.00106813 1e-05
-0.00527083 0.00106915 1e-05
-0.00507675 0.00107011 1e-05
-0.00488267 0.00107108 1e-05
-0.0046886 0.00107204 1e-05
-0.00449452 0.001073 1e-05
-0.00430044 0.00107396 1e-05
-0.00411412 0.00107487 1e-05
-0.0039278 0.00107578 1e-05
-0.00374147 0.00107668 1e-05
-0.00355515 0.00107759 1e-05
-0.00336883 0.00107849 1e-05
-0.00318995 0.00107935 1e-05
-0.00301107 0.0010802 1e-05
-0.00283219 0.00108106 1e-05
-0.00265331 0.00108192 1e-05
-0.00247443 0.00108277 1e-05
-0.0023027 0.00108359 1e-05
-0.00213097 0.0010844 1e-05
-0.00195924 0.00108522 1e-05
-0.0017875 0.00108603 1e-05
-0.00161577 0.00108685 1e-05
-0.0014509 0.00108762 1e-05
-0.00128603 0.0010884 1e-05
-0.00112116 0.00108919 1e-05
-0.000956289 0.00108997 1e-05
-0.000791418 0.00109076 1e-05
-0.000633135 0.00109151 1e-05
-0.000474851 0.00109227 1e-05
-0.000316567 0.00109303 1e-05
-0.000158284 0.00109379 1e-05
0 0.00109455 1e-05
0.000105677 0.00109505 1e-05
0.000211355 0.00109556 1e-05
0.000317032 0.00109607 1e-05
0.00042271 0.00109657 1e-05
0.000528387 0.00109707 1e-05
0.000634886 0.00109757 1e-05
0.000741385 0.00109806 1e-05
0.000847885 0.00109856 1e-05
0.000954384 0.00109905 1e-05
0.00106088 0.00109953 1e-05
0.00116821 0.00110002 1e-05
0.00127554 0.0011005 1e-05
0.00138286 0.00110097 1e-05
0.00149019 0.00110144 1e-05
0.00159752 0.0011019 1e-05
0.00170568 0.00110235 1e-05
0.00181384 0.0011028 1e-05
0.001922 0.00110324 1e-05
0.00203016 0.00110368 1e-05
0.00213833 0.0011041 1e-05
0.00224733 0.00110451 1e-05
0.00235633 0.00110492 1e-05
0.00246533 0.00110533 1e-05
0.00257434 0.00110572 1e-05
0.00268334 0.0011061 1e-05
0.00279319 0.00110647 1e-05
0.00290304 0.00110684 1e-05
0.00301289 0.00110721 1e-05
0.00312274 0.00110756 1e-05
0.00323259 0.00110791 1e-05
0.00334329 0.00110824 1e-05
0.003454 0.00110858 1e-05
0.0035647 0.0011089 1e-05
0.0036754 0.00110922 1e-05
0.00378611 0.00110953 1e-05
0.00389767 0.00110983 1e-05
0.00400924 0.00111012 1e-05
0.0041208 0.00111041 1e-05
0.00423237 0.00111069 1e-05
0.00434393 0.00111097 1e-05
0.00445636 0.00111123 1e-05
0.00456879 0.00111149 1e-05
0.00468123 0.00111174 1e-05
0.00479366 0.00111198 1e-05
0.00490609 0.00111221 1e-05
0.0050194 0.00111244 1e-05
0.0051327 0.00111266 1e-05
0.00524601 0.00111287 1e-05
0.00535932 0.00111308 1e-05
0.00547262 0.00111327 1e-05
0.00558681 0.00111346 1e-05
0.005701 0.00111364 1e-05
0.00581518 0.00111382 1e-05
0.00592937 0.00111399 1e-05
0.00604356 0.00111415 1e-05
0.00615863 0.0011143 1e-05
0.00627371 0.00111444 1e-05
0.00638878 0.00111458 1e-05
0.00650386 0.00111471 1e-05
0.00661893 0.00111483 1e-05
0.0067349 0.00111494 1e-05
0.00685087 0.00111505 1e-05
0.00696684 0.00111515 1e-05
0.00708281 0.00111524 1e-05
0.00719878 0.00111533 1e-05
0.00731059 0.0011154 1e-05
0.00742241 0.00111547 1e-05
0.00753422 0.00111552 1e-05
0.00764604 0.00111558 1e-05
0.00775178 0.00111562 1e-05
0.00775805 0.00111562 1e-05
0.00776432 0.00111562 1e-05
0.00777059 0.00111562 1e-05
0.00777686 0.00111563 1e-05
0.00778313 0.00111563 1e-05
0.00790091 0.00111567 1e-05
0.00801869 0.0011157 1e-05
0.00813647 0.00111572 1e-05
0.00825425 0.00111573 1e-05
0.00837203 0.00111574 1e-05
0.00849073 0.00111573 1e-05
0.00860942 0.00111572 1e-05
0.00872812 0.0011157 1e-05
0.00884682 0.00111567 1e-05
0.00896551 0.00111564 1e-05
0.00908513 0.00111559 1e-05
0.00920475 0.00111553 1e-05
0.00932437 0.00111547 1e-05
0.00944398 0.0011154 1e-05
0.0095636 0.00111532 1e-05
0.00968415 0.00111523 1e-05
0.0098047 0.00111513 1e-05
0.00992525 0.00111503 1e-05
0.0100458 0.00111492 1e-05
0.0101663 0.0011148 1e-05
0.0102878 0.00111465 1e-05
0.0104093 0.00111451 1e-05
0.0105308 0.00111437 1e-05
0.0106523 0.00111421 1e-05
0.0107738 0.00111404 1e-05
0.0108962 0.00111385 1e-05
0.0110186 0.00111367 1e-05
0.0111411 0.00111347 1e-05
0.0112635 0.00111327 1e-05
0.0113859 0.00111306 1e-05
0.0115093 0.00111282 1e-05
0.0116327 0.00111259 1e-05
0.0117561 0.00111235 1e-05
0.0118795 0.0011121 1e-05
0.0120028 0.00111184 1e-05
0.0121272 0.00111156 1e-05
0.0122515 0.00111128 1e-05
0.0123759 0.00111099 1e-05
0.0125002 0.00111069 1e-05
0.0126245 0.00111038 1e-05
0.0127498 0.00111005 1e-05
0.0128752 0.00110972 1e-05
0.0130005 0.00110938 1e-05
0.0131258 0.00110903 1e-05
0.0132511 0.00110868 1e-05
0.0133774 0.00110829 1e-05
0.0135036 0.00110791 1e-05
0.0136299 0.00110752 1e-05
0.0137562 0.00110712 1e-05
0.0138825 0.00110671 1e-05
0.0140098 0.00110628 1e-05
0.014137 0.00110585 1e-05
0.0142643 0.00110541 1e-05
0.0143915 0.00110496 1e-05
0.0145188 0.00110449 1e-05
0.0146471 0.00110401 1e-05
0.0147753 0.00110353 1e-05
0.0149036 0.00110303 1e-05
0.0150318 0.00110253 1e-05
0.0151601 0.00110201 1e-05
0.0152893 0.00110148 1e-05
0.0154186 0.00110094 1e-05
0.0155478 0.00110039 1e-05
0.0156771 0.00109983 1e-05
0.0158063 0.00109926 1e-05
0.0159366 0.00109867 1e-05
0.0160668 0.00109808 1e-05
0.0161971 0.00109747 1e-05
0.0163274 0.00109686 1e-05
0.0164576 0.00109623 1e-05
0.0165889 0.0010956 1e-05
0.0167201 0.00109495 1e-05
0.0168514 0.00109429 1e-05
0.0169827 0.00109362 1e-05
0.0171139 0.00109294 1e-05
0.0172462 0.00109225 1e-05
0.0173785 0.00109155 1e-05
0.0175108 0.00109083 1e-05
0.0176431 0.0010901 1e-05
0.0177754 0.00108937 1e-05
0.0179087 0.00108863 1e-05
0.018042 0.00108787 1e-05
0.0181753 0.0010871 1e-05
0.0183087 0.00108631 1e-05
0.018442 0.00108552 1e-05
0.0185763 0.00108473 1e-05
0.0187107 0.00108392 1e-05
0.018845 0.00108309 1e-05
0.0189794 0.00108224 1e-05
0.0191137 0.0010814 1e-05
0.0192491 0.00108055 1e-05
0.0193845 0.00107969 1e-05
0.0195199 0.0010788 1e-05
0.0196553 0.0010779 1e-05
0.0197907 0.001077 1e-05
0.0199272 0.0010761 1e-05
0.0200636 0.00107517 1e-05
0.0202001 0.00107423 1e-05
0.0203365 0.00107327 1e-05
0.020473 0.00107231 1e-05
0.0206105 0.00107136 1e-05
0.020748 0.00107038 1e-05
0.0208855 0.00106938 1e-05
0.021023 0.00106836 1e-05
0.0211606 0.00106735 1e-05
0.0212991 0.00106634 1e-05
0.0214377 0.00106531 1e-05
0.0215763 0.00106425 1e-05
0.0217149 0.00106317 1e-05
0.0218535 0.00106211 1e-05
0.0219931 0.00106104 1e-05
0.0221328 0.00105995 1e-05
0.0222724 0.00105883 1e-05
0.0224121 0.0010577 1e-05
0.0225517 0.00105658 1e-05
0.0226925 0.00105546 1e-05
0.0228332 0.00105431 1e-05
0.022974 0.00105313 1e-05
0.0231147 0.00105194 1e-05
0.0232555 0.00105076 1e-05
0.0233973 0.00104959 1e-05
0.0235391 0.00104838 1e-05
0.023681 0.00104714 1e-05
0.0238228 0.0010459 1e-05
0.0239647 0.00104466 1e-05
0.0241076 0.00104342 1e-05
0.0242505 0.00104216 1e-05
0.0243935 0.00104086 1e-05
0.0245364 0.00103956 1e-05
0.0246794 0.00103826 1e-05
0.0248234 0.00103697 1e-05
0.0249675 0.00103564 1e-05
0.0251115 0.00103429 1e-05
0.0252556 0.00103292 1e-05
[...]
POINT_DATA 12075
 FIELD attributes 1
U 3 12075 float
10.0004 	0.0073483 	0 10.0004 	0.00587864 	0 10.0003 	0.00440898 	0 10.0002 	0.00293932 	0 10.0001 	0.00146966 	0 10 	0 	0
10.0001 	0.000878762 	0 10 	0.00070301 	0 10 	0.000527257 	0 10 	0.000351505 	0 10 	0.000175752 	0 10 	0 	0
10.0001 	0.000467001 	0 10.0001 	0.00037341 	0 10.0001 	0.00027982 	0 10 	0.000186229 	0 10 	9.26382e-05 	0 10 	0 	0
10 	0.000267212 	0 10 	0.00021377 	0 10 	0.000160327 	0 10 	0.000106885 	0 10 	5.34424e-05 	0 10 	0 	0
10 	8.15899e-05 	0 10 	6.52719e-05 	0 10 	4.89539e-05 	0 10 	3.2636e-05 	0 10 	1.6318e-05 	0 10 	0 	0
10 	-2.51367e-05 	0 10 	-2.01093e-05 	0 10 	-1.5082e-05 	0 10 	-1.00547e-05 	0 10 	-5.02733e-06 	0 10 	0 	0
10 	-0.000215318 	0 10 	-0.000172254 	0 10 	-0.000129191 	0 10 	-8.61271e-05 	0 10 	-4.30635e-05 	0 10 	0 	0
10 	-0.00037713 	0 10 	-0.000301704 	0 10 	-0.000226278 	0 10 	-0.000150852 	0 10 	-7.5426e-05 	0 10 	0 	0
9.99999 	-0.000426167 	0 9.99999 	-0.000340934 	0 9.99999 	-0.0002557 	0 10 	-0.000170467 	0 10 	-8.52334e-05 	0 10 	0 	0
9.17387 	0.0871273 	0 9.1308 	0.0697019 	0 9.08741 	0.0522761 	0 9.04368 	0.0348502 	0 8.99963 	0.017424 	0 8.95524 	0 	0
10.0004 	0.0073483 	0 10.0024 	0.0152069 	0 10.0045 	0.0222292 	0 10.0065 	0.029207 	0 10.0086 	0.0361405 	0 10.0136 	0.046333 	0 10.0164 	0.0402143 	0 10.0208 	0.0401653 	0 10.0253 	0.0401165 	0 10.0297 	0.0400679 	0 10.0356 	0.0445267 	0 10.0385 	0.0378892 	0 10.0425 	0.0378463 	0 10.0464 	0.0378035 	0 10.0504 	0.0377606 	0 10.0545 	0.0408625 	0 10.0567 	0.0387857 	0 10.0591 	0.0400958 	0 10.0616 	0.0414075 	0 10.064 	0.0427209 	0 10.0661 	0.0451796 	0 10.0677 	0.0452913 	0 10.069 	0.046494 	0 10.0703 	0.0476978 	0 10.0717 	0.0489027 	0 10.0728 	0.0499212 	0 10.0729 	0.0499845 	0 10.0729 	0.0500477 	0 10.073 	0.0501109 	0 10.0731 	0.0501742 	0 10.0731 	0.0502279 	0 10.0737 	0.0508558 	0 10.0742 	0.0514777 	0 10.0747 	0.0521001 	0 10.0752 	0.052723 	0 10.0757 	0.0531818 	0 10.0756 	0.053479 	0 10.0752 	0.0536706 	0 10.0749 	0.0538624 	0 10.0745 	0.0540543 	0 10.074 	0.0540078 	0 10.0736 	0.0541547 	0 10.0725 	0.0541332 	0 10.0714 	0.0541117 	0 10.0703 	0.0540901 	0 10.0687 	0.0537995 	0 10.0683 	0.0538824 	0 10.0667 	0.0537514 	0 10.0651 	0.0536205 	0 10.0635 	0.0534895 	0 10.0609 	0.0530722 	0 10.0609 	0.0531299 	0 10.0589 	0.0529389 	0 10.0568 	0.0527478 	0 10.0548 	0.0525567 	0 10.0512 	0.0520669 	0 10.0519 	0.0521249 	0 10.0495 	0.0519091 	0 10.0472 	0.0516933 	0 10.0449 	0.0514774 	0 10.0403 	0.050955 	0 10.0417 	0.0510351 	0 10.0392 	0.0508167 	0 10.0366 	0.0505982 	0 10.0341 	0.0503797 	0 10.0283 	0.0498416 	0 10.0308 	0.0499517 	0 10.0281 	0.0497494 	0 10.0255 	0.049547 	0 10.0228 	0.0493446 	0 10.0159 	0.0488167 	0 10.0195 	0.0489691 	0 10.0167 	0.0487849 	0 10.014 	0.0486006 	0 10.0112 	0.0484163 	0 10.0031 	0.0478884 	0 10.0079 	0.048087 	0 10.0052 	0.0479717 	0 10.0024 	0.0478564 	0 9.99963 	0.047741 	0 9.99034 	0.0472984 	0 9.9965 	0.0475937 	0 9.99377 	0.0475178 	0 9.99104 	0.0474419 	0 9.98831 	0.0473659 	0 9.97783 	0.0469036 	0 9.98539 	0.0472427 	0 9.98277 	0.0473491 	0 9.98015 	0.0474554 	0 9.97753 	0.0475618 	0 9.96589 	0.0473368 	0 9.975 	0.0478083 	1.05495e-21 9.97308 	0.0478689 	6.9912e-21 9.97115 	0.0479294 	1.29274e-20 9.96922 	0.04799 	1.88634e-20 9.95718 	0.0475608 	1.59592e-20 9.96763 	0.0478112 	1.10882e-19 9.96599 	0.0476065 	1.03003e-19 9.96435 	0.0474017 	9.51216e-20 9.9627 	0.0471968 	8.72374e-20 9.95048 	0.0465584 	-1.76208e-20 9.96086 	0.0464947 	-4.78597e-20 9.95926 	0.0461475 	-5.32349e-20 9.95767 	0.0458002 	-5.86081e-20 9.95607 	0.0454529 	-6.39791e-20 9.94398 	0.0448321 	-2.49254e-20 9.9539 	0.0445602 	-2.19601e-20 9.95207 	0.0439103 	-1.52622e-20 9.95023 	0.0432604 	-8.56493e-21 9.94839 	0.0426104 	-1.86821e-21 9.93639 	0.0417561 	8.36367e-21 9.94589 	0.0414206 	-6.40082e-21 9.94379 	0.0405581 	-2.80843e-20 9.94168 	0.0396954 	-4.97703e-20 9.93957 	0.0388325 	-7.14588e-20 9.92756 	0.0376902 	-1.02231e-19 9.93652 	0.0374549 	-1.45582e-19 9.93403 	0.0366088 	-1.31193e-19 9.93155 	0.0357624 	-1.16794e-19 9.92905 	0.0349159 	-1.02386e-19 9.91697 	0.0336465 	-3.47607e-20 9.92523 	0.033536 	4.15573e-20 9.92233 	0.0327736 	5.72926e-20 9.91943 	0.0320109 	7.30168e-20 9.91652 	0.0312481 	8.87297e-20 9.90441 	0.0299591 	4.2776e-20 9.9119 	0.0298795 	-5.67427e-20 9.90859 	0.0291517 	-6.38526e-20 9.90527 	0.0284236 	-7.09453e-20 9.90195 	0.0276953 	-7.80208e-20 9.88992 	0.0264245 	-3.92829e-22 9.89651 	0.0263039 	7.30187e-20 9.89276 	0.0255845 	6.21371e-20 9.88901 	0.0248649 	5.12383e-20 9.88524 	0.024145 	4.03223e-20 9.87337 	0.0229293 	-3.27922e-20 9.87887 	0.0227449 	-9.80634e-20 9.87464 	0.0220327 	-1.23888e-19 9.8704 	0.0213202 	-1.49705e-19 9.86616 	0.0206074 	-1.75517e-19 9.85453 	0.019473 	-1.57939e-19 9.85873 	0.0192235 	-1.82272e-19 9.854 	0.0185228 	-1.67821e-19 9.84926 	0.0178219 	-1.53364e-19 9.84452 	0.0171206 	-1.38902e-19 9.83331 	0.0160802 	-9.63158e-20 9.83594 	0.015774 	-8.11859e-20 9.83071 	0.0150895 	-5.96943e-20 9.82548 	0.0144048 	-3.82047e-20 9.82023 	0.0137197 	-1.67172e-20 9.80967 	0.0127738 	2.62228e-21 9.81043 	0.012403 	0 9.80472 	0.0117286 	0 9.799 	0.011054 	0 9.79327 	0.010379 	0 9.78367 	0.00952155 	0 9.78218 	0.00907131 	-1.88369e-20 9.77599 	0.00840225 	-4.08466e-20 9.7698 	0.00773285 	-6.28584e-20 9.7636 	0.00706313 	-8.48722e-20 9.75531 	0.00629738 	-1.07903e-19 9.75146 	0.00577981 	-1.14048e-19 9.74509 	0.00514515 	-1.14861e-19 9.73872 	0.00451017 	-1.15668e-19 9.73234 	0.00387485 	-1.1647e-19 9.72629 	0.00327371 	-1.17223e-19 9.72593 	0.00323785 	-1.17337e-19 9.72557 	0.00320199 	-1.17452e-19 9.72521 	0.00316613 	-1.17567e-19 9.72484 	0.00313027 	-1.17682e-19 9.72414 	0.00307878 	-1.1768e-19 9.71728 	0.00243153 	-8.43844e-20 9.71009 	0.00176966 	-5.05623e-20 9.7029 	0.00110736 	-1.67517e-20 9.69569 	0.000444647 	1.70475e-20 9.68178 	-0.000516551 	5.87585e-20 9.68031 	-0.000906626 	5.98376e-20 9.67269 	-0.00156523 	6.11464e-20 9.66505 	-0.00222429 	6.24524e-20 9.65741 	-0.00288381 	6.37558e-20 9.63686 	-0.00409355 	6.71901e-20 9.64063 	-0.00425992 	5.3025e-20 9.63258 	-0.0049154 	3.88574e-20 9.62453 	-0.00557137 	2.46882e-20 9.61646 	-0.00622785 	1.05177e-20 9.58964 	-0.00763946 	-1.12686e-21 9.59833 	-0.00762765 	-9.92159e-21 9.58989 	-0.00828072 	-2.34467e-20 9.58145 	-0.00893433 	-3.69704e-20 9.57299 	-0.00958849 	-5.04927e-20 9.54039 	-0.0111483 	-6.40315e-20 9.55359 	-0.0110099 	-6.44813e-20 9.54479 	-0.0116625 	-7.30096e-20 9.53598 	-0.0123157 	-8.15341e-20 9.52715 	-0.0129694 	-9.00547e-20 9.48941 	-0.0146201 	-1.11156e-19 9.5066 	-0.0144081 	-1.70815e-19 9.49746 	-0.0150605 	-1.59767e-19 9.48831 	-0.0157135 	-1.48734e-19 9.47915 	-0.0163672 	-1.37717e-19 9.43696 	-0.0180476 	-4.80503e-20 9.45757 	-0.0178125 	-3.10371e-20 9.44812 	-0.0184648 	-2.18359e-20 9.43866 	-0.0191178 	-1.26339e-20 9.42918 	-0.0197714 	-3.43083e-21 9.38329 	-0.0214254 	0 9.40671 	-0.0212179 	0 9.39699 	-0.0218716 	0 9.38724 	-0.022526 	0 9.37748 	-0.023181 	0 9.32864 	-0.0247561 	0 9.35429 	-0.0246274 	2.1041e-21 9.34431 	-0.0252834 	1.06546e-20 9.33431 	-0.0259402 	1.92042e-20 9.3243 	-0.0265978 	2.77528e-20 9.27324 	-0.0280406 	4.82191e-20 9.30055 	-0.0280389 	1.82066e-19 9.29034 	-0.0286965 	1.85479e-19 9.28012 	-0.0293549 	1.8891e-19 9.26987 	-0.030014 	1.92359e-19 9.21731 	-0.0312722 	4.84419e-20 9.24574 	-0.0314389 	2.61985e-20 9.23533 	-0.0320966 	1.85253e-20 9.2249 	-0.0327551 	1.08509e-20 9.21306 	-0.0334264 	3.97073e-21 9.16102 	-0.0344433 	1.99699e-20 9.18722 	-0.0348338 	1.21471e-19 9.17951 	-0.0354699 	1.30766e-19 9.16891 	-0.0361277 	1.3224e-19 9.15296 	-0.0367992 	1.17573e-19 9.10457 	-0.0375502 	4.54472e-21 9.12742 	-0.0381592 	-1.15519e-19 9.12312 	-0.0388062 	-1.48126e-19 9.11237 	-0.0394627 	-1.59976e-19 9.09302 	-0.0400827 	-1.49235e-19 9.04809 	-0.0405917 	-7.10076e-20 9.06783 	-0.0413968 	-2.06919e-19 9.06639 	-0.0420977 	-2.50672e-19 9.0555 	-0.0427527 	-2.53378e-19 9.03343 	-0.0432761 	-2.01681e-19 8.99176 	-0.0435678 	-5.44997e-20 9.00861 	-0.044546 	-2.86877e-20 9.00951 	-0.0453381 	-1.28327e-20 8.99851 	-0.0459913 	-4.40452e-21 8.97432 	-0.0463803 	0 8.93569 	-0.0464796 	0 8.94989 	-0.047609 	0 8.95267 	-0.0485228 	0 8.94159 	-0.049174 	0 8.91582 	-0.0493975 	2.28006e-21 8.88001 	-0.0493287 	6.1178e-21 8.89179 	-0.0505874 	2.4617e-21 8.89605 	-0.0516476 	0 8.8849 	-0.0522967 	0 8.85803 	-0.0523311 	2.74003e-21 8.82483 	-0.052118 	6.5828e-21 8.83441 	-0.0534864 	2.92633e-21 8.83981 	-0.0547118 	1.52114e-21 8.82862 	-0.0553588 	9.1444e-21 8.80105 	-0.055186 	2.82837e-20 8.77024 	-0.0548501 	4.97129e-20 8.77783 	-0.0563086 	1.95398e-19 8.78407 	-0.0577116 	3.31193e-19 8.77284 	-0.0583567 	3.35292e-19 8.74495 	-0.0579667 	1.96e-19 8.71633 	-0.0575303 	5.03261e-20 8.72214 	-0.0590637 	2.92146e-20 8.7279 	-0.0605987 	8.10466e-21 8.71645 	-0.0612017 	3.05445e-22 8.6898 	-0.0606825 	3.99551e-21 8.66316 	-0.0601629 	7.6854e-21 8.66738 	-0.0617529 	4.18695e-21 8.67154 	-0.0633445 	6.89516e-22 8.66049 	-0.0639157 	2.57174e-21 8.63565 	-0.0633314 	-1.94952e-21 8.61082 	-0.0627466 	-6.46965e-21 8.61362 	-0.0643794 	-5.68555e-20 8.61636 	-0.0660138 	-1.07246e-19 8.60574 	-0.0665557 	-1.08822e-19 8.58254 	-0.0659258 	-6.2741e-20 8.55936 	-0.0652955 	-1.66581e-20 8.5609 	-0.0669709 	9.81973e-20 8.56238 	-0.0686481 	2.13046e-19 8.55223 	-0.0691623 	2.2292e-19 8.53052 	-0.06849 	1.27229e-19 8.50883 	-0.0678173 	3.15387e-20 8.50927 	-0.06952 	1.83242e-20 8.50965 	-0.0712244 	5.10544e-21 8.49999 	-0.07171 	5.11439e-22 8.47962 	-0.0710082 	5.90111e-21 8.45926 	-0.070306 	1.12928e-20 8.45873 	-0.0720188 	4.80647e-21 8.45815 	-0.0737332 	-1.68609e-21 8.44901 	-0.0741918 	-2.39603e-20 8.42983 	-0.0734807 	-8.18891e-20 8.41067 	-0.0727692 	-1.39821e-19 8.4093 	-0.0744814 	-2.91274e-19 8.40787 	-0.0761952 	-4.42721e-19 8.39925 	-0.0766302 	-4.24946e-19 8.38115 	-0.0759254 	-2.51331e-19 8.36307 	-0.0752201 	-7.77164e-20 8.36095 	-0.0769249 	6.58029e-20 8.35865 	-0.0786044 	2.06364e-19 8.35023 	-0.0789889 	2.03533e-19 8.33357 	-0.0783586 	1.04678e-19 8.31647 	-0.077671 	4.47576e-22 8.31369 	-0.0793655 	-1.02938e-19 8.30998 	-0.0808498 	-1.91255e-19 8.3017 	-0.0812433 	-2.01887e-19 8.28709 	-0.0807951 	-1.32562e-19 8.27088 	-0.0801314 	-4.2802e-20 8.26751 	-0.0818134 	-2.98665e-20 8.26266 	-0.0831044 	-1.70459e-20 8.25451 	-0.0835084 	-4.47884e-21 8.24168 	-0.0832439 	1.53074e-20 8.22627 	-0.0826089 	3.90936e-20 8.22239 	-0.0842771 	1.38337e-20 8.21662 	-0.0853791 	-3.01826e-21 8.20859 	-0.0857951 	-9.68965e-21 8.19732 	-0.0857139 	-4.66936e-21 8.18264 	-0.0851113 	1.26027e-20 8.1783 	-0.0867654 	-6.60935e-21 8.17181 	-0.0876845 	-1.86931e-20 8.1639 	-0.0881138 	-2.60293e-20 8.15397 	-0.0882139 	-3.91857e-20 8.13996 	-0.0876467 	-6.41211e-20 8.13521 	-0.0892872 	6.08178e-20 8.12818 	-0.0900302 	9.40315e-20 8.12038 	-0.0904744 	9.66851e-20 8.11161 	-0.0907528 	8.06391e-20 8.09821 	-0.0902234 	-2.63317e-20 8.09309 	-0.0918511 	7.90512e-20 8.08566 	-0.0924257 	9.25579e-20 8.07796 	-0.0928862 	9.60707e-20 8.0702 	-0.0933395 	9.88622e-20 8.05736 	-0.0928497 	1.11894e-20 8.0518 	-0.0944023 	-7.25712e-22 8.04421 	-0.0948801 	-4.95849e-22 8.0366 	-0.0953581 	-2.66012e-22 8.02897 	-0.0958365 	-3.62021e-23 8.01737 	-0.0955338 	1.92831e-20 8.01128 	-0.096905 	0 8.00377 	-0.0974017 	0 7.99624 	-0.0978987 	0 7.9887 	-0.098396 	0 7.97823 	-0.0982837 	1.55607e-20 7.97172 	-0.0994817 	0 7.96429 	-0.0999986 	0 7.95684 	-0.100516 	0 7.94938 	-0.101033 	0 7.93989 	-0.101107 	0 7.93308 	-0.10214 	0 7.92572 	-0.102679 	0 7.91834 	-0.103217 	0 7.91094 	-0.103756 	0 7.90232 	-0.104012 	-7.36985e-21 7.8953 	-0.104888 	0 7.88801 	-0.105449 	0 7.88069 	-0.10601 	0 7.87334 	-0.106571 	0 7.86546 	-0.107005 	-6.85107e-21 7.85934 	-0.10765 	0 7.8531 	-0.108153 	0 7.84685 	-0.108656 	0 7.84058 	-0.10916 	0 7.83454 	-0.109645 	0 7.83344 	-0.10973 	0 7.83234 	-0.109816 	0 7.83124 	-0.109902 	0 7.83014 	-0.109987 	0 7.82916 	-0.110049 	0 7.82172 	-0.110682 	-1.07015e-20 7.81431 	-0.111293 	-2.17034e-20 7.80687 	-0.111905 	-3.27035e-20 7.7994 	-0.112517 	-4.37018e-20 7.79288 	-0.112941 	-5.47087e-20 7.78516 	-0.113749 	-5.15343e-20 7.77778 	-0.114386 	-5.0758e-20 7.77037 	-0.115024 	-4.9978e-20 7.76294 	-0.115663 	-4.91944e-20 7.75728 	-0.115954 	-5.29676e-20 7.74926 	-0.116933 	-4.10419e-20 7.74191 	-0.117599 	-2.9094e-20 7.73453 	-0.118264 	-1.71441e-20 7.72712 	-0.11893 	-5.19237e-21 7.7223 	-0.119096 	0 7.71399 	-0.120243 	-2.12013e-21 7.70665 	-0.120937 	-7.53942e-21 7.69928 	-0.121631 	-1.29577e-20 7.69189 	-0.122326 	-1.8375e-20 7.68789 	-0.122373 	-2.37602e-20 7.67927 	-0.123683 	-5.97778e-20 7.67194 	-0.124408 	-8.22109e-20 7.66459 	-0.125132 	-1.04646e-19 7.65721 	-0.125857 	-1.27084e-19 7.654 	-0.125794 	-1.11035e-19 7.64509 	-0.127254 	-8.24675e-20 7.63774 	-0.128021 	-6.94856e-20 7.63039 	-0.128778 	-5.67302e-20 7.62359 	-0.129429 	-4.92166e-20 7.62058 	-0.129368 	-7.66469e-20 7.61169 	-0.130844 	-9.24247e-20 7.60401 	-0.131788 	-7.97944e-20 7.59665 	-0.132579 	-5.89724e-20 7.59067 	-0.13311 	-3.27131e-20 7.58759 	-0.133103 	4.84692e-21 7.57871 	-0.134595 	9.65393e-21 7.57068 	-0.135712 	8.51317e-21 7.56331 	-0.136537 	2.75039e-21 7.55813 	-0.136956 	0 7.55497 	-0.137004 	0 7.54609 	-0.138514 	0 7.53771 	-0.1398 	0 7.53032 	-0.140661 	0 7.52592 	-0.140973 	0 7.52267 	-0.141076 	0 7.51379 	-0.142605 	0 7.50505 	-0.144058 	-2.4165e-21 7.49763 	-0.144956 	-2.22742e-20 7.49399 	-0.145167 	-4.22141e-20 7.49064 	-0.145325 	-6.21601e-20 7.48175 	-0.146876 	-4.0477e-20 7.47281 	-0.148427 	-1.87859e-20 7.46574 	-0.149329 	4.08123e-21 7.46229 	-0.149543 	8.66465e-21 7.45883 	-0.149757 	1.32479e-20 7.44992 	-0.151331 	4.96458e-20 7.44096 	-0.152906 	8.60415e-20 7.43433 	-0.153838 	9.93079e-20 7.43076 	-0.154109 	8.26394e-20 7.42719 	-0.154379 	6.59682e-20 7.41826 	-0.155979 	3.88659e-20 7.40927 	-0.157579 	1.17531e-20 7.40306 	-0.158543 	5.91268e-21 7.39937 	-0.15887 	1.63508e-20 7.39566 	-0.159198 	2.67903e-20 7.3867 	-0.160824 	9.7602e-20 7.37768 	-0.162451 	1.68418e-19 7.37187 	-0.163449 	1.69222e-19 7.36804 	-0.163833 	9.92048e-20 7.3642 	-0.164217 	2.91856e-20 7.3552 	-0.165872 	1.97287e-20 7.3462 	-0.167516 	1.0441e-20 7.34082 	-0.168521 	1.10136e-20 7.33674 	-0.169002 	2.05024e-20 7.33276 	-0.169443 	3.06671e-20 7.3237 	-0.171127 	9.96471e-20 7.3155 	-0.172654 	1.50839e-19 7.31 	-0.173703 	1.48138e-19 7.30542 	-0.174381 	1.01328e-19 7.30128 	-0.174879 	3.31779e-20 7.29216 	-0.176595 	2.40288e-20 7.28474 	-0.178009 	1.47994e-20 7.27912 	-0.179102 	5.48376e-21 7.27403 	-0.179974 	0 7.26972 	-0.180529 	0 7.26053 	-0.182277 	0 7.25386 	-0.183583 	0 7.24811 	-0.184721 	0 7.2425 	-0.185786 	0 7.23802 	-0.186398 	0 7.22875 	-0.188179 	0 7.22281 	-0.18938 	0 7.21691 	-0.190564 	0 7.21098 	-0.191749 	0 7.20612 	-0.192488 	1.51755e-20 7.19754 	-0.194172 	2.16709e-21 7.19154 	-0.195403 	1.17537e-20 7.18549 	-0.196634 	2.13433e-20 7.1794 	-0.197865 	3.09359e-20 7.174 	-0.198803 	4.32189e-20 7.16616 	-0.200377 	9.46507e-20 7.16 	-0.201655 	9.91976e-20 7.15379 	-0.202932 	1.03716e-19 7.14753 	-0.20421 	1.08206e-19 7.14158 	-0.205347 	7.85105e-20 7.13482 	-0.206739 	9.92268e-20 7.12884 	-0.20799 	8.6333e-20 7.12282 	-0.20924 	7.34133e-20 7.11676 	-0.210491 	6.04675e-20 7.11104 	-0.211663 	4.83037e-20 7.11058 	-0.211753 	4.74341e-20 7.11013 	-0.211842 	4.65643e-20 7.10968 	-0.211932 	4.56945e-20 7.10922 	-0.212021 	4.48245e-20 7.10885 	-0.212102 	4.49491e-20 7.10213 	-0.21348 	4.33734e-20 7.09542 	-0.214849 	4.18745e-20 7.08865 	-0.216218 	4.03687e-20 7.08184 	-0.217587 	3.8856e-20 7.07631 	-0.218812 	4.16538e-20 7.06869 	-0.220372 	3.64315e-20 7.06178 	-0.221789 	3.53324e-20 7.05482 	-0.223206 	3.42262e-20 7.04781 	-0.224622 	3.31129e-20 7.04335 	-0.22576 	4.28371e-20 7.0348 	-0.227502 	5.15896e-20 7.02769 	-0.228966 	4.45107e-20 7.02053 	-0.23043 	3.74425e-20 7.01331 	-0.231894 	3.03851e-20 7.00991 	-0.232948 	3.57609e-21 7.00045 	-0.234863 	-2.23337e-22 6.99308 	-0.236382 	-1.91395e-22 6.9857 	-0.237894 	-8.4897e-23 6.97914 	-0.239314 	0 6.97595 	-0.240375 	0 6.96628 	-0.24233 	0 6.95792 	-0.244037 	-9.3593e-21 6.95031 	-0.245595 	-2.42866e-20 6.94485 	-0.246925 	-3.70787e-20 6.94142 	-0.24804 	-4.78735e-20 6.93153 	-0.250036 	-3.44265e-20 6.92214 	-0.25193 	-2.00957e-20 6.91429 	-0.253535 	-3.2831e-21 6.90995 	-0.254775 	6.11884e-21 6.90626 	-0.255943 	1.40845e-20 6.89614 	-0.25798 	7.27938e-21 6.88594 	-0.260016 	4.79537e-22 6.87829 	-0.261642 	1.43192e-20 6.87438 	-0.262862 	3.72584e-20 6.87043 	-0.264083 	6.01972e-20 6.86006 	-0.26616 	3.61321e-20 6.84962 	-0.268237 	1.20621e-20 6.84229 	-0.269914 	-1.8257e-21 6.8381 	-0.271186 	-5.45781e-21 6.83387 	-0.272459 	-9.09178e-21 6.82325 	-0.274576 	-6.51473e-20 6.81255 	-0.276693 	-1.21205e-19 6.80553 	-0.278422 	-1.31778e-19 6.80106 	-0.279745 	-8.78105e-20 6.79654 	-0.281068 	-4.38435e-20 6.78565 	-0.283224 	-8.87454e-20 6.77555 	-0.285296 	-1.23131e-19 6.76867 	-0.287041 	-1.16828e-19 6.7632 	-0.288534 	-8.31851e-20 6.75839 	-0.289906 	-3.63767e-20 6.74723 	-0.292102 	-8.35774e-20 6.73835 	-0.294065 	-9.78896e-20 6.73119 	-0.295854 	-8.73667e-20 6.7245 	-0.297551 	-6.64019e-20 6.71937 	-0.298972 	-1.33059e-20 6.70792 	-0.301206 	-1.0356e-20 6.70029 	-0.30306 	-7.12961e-21 6.69283 	-0.304891 	-3.88854e-21 6.68531 	-0.306721 	-6.49561e-22 6.67943 	-0.308262 	0 6.66902 	-0.310403 	0 6.66132 	-0.312275 	0 6.65354 	-0.314147 	0 6.64571 	-0.316019 	0 6.63852 	-0.31777 	0 6.63168 	-0.319248 	-1.4931e-21 6.62596 	-0.320615 	-3.96629e-21 6.6202 	-0.321981 	-6.44047e-21 6.61441 	-0.323347 	-8.91563e-21 6.60889 	-0.324641 	-1.12615e-20 6.60635 	-0.325199 	-1.21073e-20 6.6038 	-0.325758 	-1.2953e-20 6.60125 	-0.326316 	-1.37985e-20 6.59869 	-0.326874 	-1.46439e-20 6.59644 	-0.32739 	-1.5468e-20 6.58751 	-0.329382 	-8.55737e-21 6.57864 	-0.331327 	-5.53077e-21 6.56971 	-0.333271 	-2.48212e-21 6.5607 	-0.335215 	5.8867e-22 6.55307 	-0.336974 	-1.7606e-20 6.54323 	-0.339161 	-8.79758e-21 6.534 	-0.341143 	1.73832e-22 6.52469 	-0.343124 	9.14301e-21 6.51533 	-0.345101 	1.80733e-20 6.50846 	-0.346755 	2.33141e-20 6.49791 	-0.349069 	1.68462e-20 6.48805 	-0.351155 	1.64188e-20 6.47835 	-0.35317 	1.78326e-20 6.4698 	-0.355034 	2.54863e-20 6.46256 	-0.356726 	4.01904e-20 6.4516 	-0.359069 	4.83871e-20 6.44075 	-0.361355 	5.46064e-20 6.43064 	-0.363403 	5.23344e-20 6.42293 	-0.365149 	2.95705e-20 6.4153 	-0.366877 	5.53713e-21 6.40393 	-0.369246 	2.65091e-20 6.39246 	-0.371615 	4.74705e-20 6.38264 	-0.373677 	4.18207e-20 6.37468 	-0.375437 	1.06389e-20 6.36665 	-0.377196 	-2.05521e-20 6.35484 	-0.37959 	-1.28453e-20 6.34294 	-0.381982 	-5.14123e-21 6.3334 	-0.384084 	5.09675e-21 6.32498 	-0.385884 	6.22456e-21 6.31653 	-0.387673 	6.99268e-21 6.30428 	-0.390087 	8.69792e-21 6.29311 	-0.392364 	1.01898e-20 6.28332 	-0.394467 	1.14076e-20 6.27379 	-0.396479 	1.4046e-20 6.26491 	-0.398293 	1.98234e-20 6.2522 	-0.400726 	1.52946e-20 6.24198 	-0.402859 	1.07508e-20 6.23175 	-0.40498 	6.21083e-21 6.22144 	-0.407101 	1.67548e-21 6.21173 	-0.409043 	0 6.20095 	-0.41112 	0 6.19142 	-0.413045 	0 6.18183 	-0.41497 	0 6.17216 	-0.416893 	0 6.16306 	-0.41869 	0 6.1619 	-0.418929 	0 6.16073 	-0.419168 	0 6.15957 	-0.419407 	0 6.1584 	-0.419646 	0 6.15724 	-0.419866 	-6.37365e-22 6.14679 	-0.422044 	3.62168e-21 6.13619 	-0.424199 	7.54083e-21 6.12552 	-0.426353 	1.14559e-20 6.11475 	-0.428506 	1.5367e-20 6.10404 	-0.430468 	2.5371e-20 6.09368 	-0.432864 	4.41915e-20 6.08261 	-0.435027 	4.75519e-20 6.07146 	-0.43719 	5.09369e-20 6.06027 	-0.439298 	5.03985e-20 6.04916 	-0.441147 	3.07277e-20 6.03849 	-0.443609 	3.33161e-20 6.02735 	-0.445929 	3.16066e-20 6.01571 	-0.448096 	2.5255e-20 6.00415 	-0.450028 	9.70671e-21 5.99255 	-0.451882 	-8.94854e-21 5.98139 	-0.454341 	-3.91246e-20 5.97013 	-0.456799 	-6.92929e-20 5.95829 	-0.458943 	-6.98003e-20 5.94626 	-0.460796 	-4.54145e-20 5.93415 	-0.462648 	-2.10263e-20 5.92248 	-0.465099 	1.78052e-20 5.91072 	-0.467548 	5.66269e-20 5.89903 	-0.469703 	5.21388e-20 5.88656 	-0.471577 	1.14809e-20 5.873