# vtk DataFile Version 2.0
track0
ASCII
DATASET POLYDATA
POINTS 12050 float
-0.0205 0.001 1e-05
-0.02052 0.000999985 1e-05
-0.02054 0.000999974 1e-05
-0.02056 0.000999965 1e-05
-0.02058 0.000999959 1e-05
-0.0206 0.000999956 1e-05
-0.0205 0.00367778 1e-05
-0.02052 0.00367778 1e-05
-0.02054 0.00367777 1e-05
-0.02056 0.00367777 1e-05
-0.02058 0.00367777 1e-05
-0.0206 0.00367777 1e-05
-0.0205 0.00635556 1e-05
-0.02052 0.00635555 1e-05
-0.02054 0.00635555 1e-05
-0.02056 0.00635555 1e-05
-0.02058 0.00635555 1e-05
-0.0206 0.00635555 1e-05
-0.0205 0.00903333 1e-05
-0.02052 0.00903333 1e-05
-0.02054 0.00903333 1e-05
-0.02056 0.00903333 1e-05
-0.02058 0.00903333 1e-05
-0.0206 0.00903333 1e-05
-0.0205 0.0117111 1e-05
-0.02052 0.0117111 1e-05
-0.02054 0.0117111 1e-05
-0.02056 0.0117111 1e-05
-0.02058 0.0117111 1e-05
-0.0206 0.0117111 1e-05
-0.0205 0.0143889 1e-05
-0.02052 0.0143889 1e-05
-0.02054 0.0143889 1e-05
-0.02056 0.0143889 1e-05
-0.02058 0.0143889 1e-05
-0.0206 0.0143889 1e-05
-0.0205 0.0170667 1e-05
-0.02052 0.0170667 1e-05
-0.02054 0.0170667 1e-05
-0.02056 0.0170667 1e-05
-0.02058 0.0170667 1e-05
-0.0206 0.0170667 1e-05
-0.0205 0.0197444 1e-05
-0.02052 0.0197444 1e-05
-0.02054 0.0197444 1e-05
-0.02056 0.0197444 1e-05
-0.02058 0.0197444 1e-05
-0.0206 0.0197444 1e-05
-0.0205 0.0224222 1e-05
-0.02052 0.0224222 1e-05
-0.02054 0.0224222 1e-05
-0.02056 0.0224222 1e-05
-0.02058 0.0224222 1e-05
-0.0206 0.0224222 1e-05
-0.0205 0.0251 1e-05
-0.02052 0.0250998 1e-05
-0.02054 0.0250997 1e-05
-0.02056 0.0250995 1e-05
-0.02058 0.0250995 1e-05
-0.0206 0.0250994 1e-05
-0.0205 0.001 1e-05
-0.0202034 0.00100022 1e-05
-0.0199069 0.00100067 1e-05
-0.0196103 0.00100133 1e-05
-0.0193137 0.00100219 1e-05
-0.0190172 0.00100326 1e-05
-0.0187132 0.00100467 1e-05
-0.0184093 0.00100589 1e-05
-0.0181054 0.00100711 1e-05
-0.0178015 0.00100833 1e-05
-0.0174976 0.00100954 1e-05
-0.0172058 0.00101084 1e-05
-0.016914 0.00101194 1e-05
-0.0166222 0.00101304 1e-05
-0.0163305 0.00101414 1e-05
-0.0160387 0.00101523 1e-05
-0.0157586 0.00101637 1e-05
-0.0154784 0.00101745 1e-05
-0.0151983 0.00101857 1e-05
-0.0149182 0.00101972 1e-05
-0.0146381 0.00102091 1e-05
-0.0143753 0.00102209 1e-05
-0.0141124 0.00102328 1e-05
-0.0138496 0.00102449 1e-05
-0.0135868 0.00102574 1e-05
-0.0133649 0.00102682 1e-05
-0.0133506 0.00102689 1e-05
-0.0133363 0.00102696 1e-05
-0.013322 0.00102703 1e-05
-0.0133077 0.0010271 1e-05
-0.0132934 0.00102717 1e-05
-0.0130353 0.00102846 1e-05
-0.0127771 0.00102977 1e-05
-0.0125189 0.00103109 1e-05
-0.0122607 0.00103242 1e-05
-0.0120025 0.00103378 1e-05
-0.0117547 0.00103509 1e-05
-0.0115068 0.00103641 1e-05
-0.0112589 0.00103773 1e-05
-0.0110111 0.00103905 1e-05
-0.0107632 0.00104039 1e-05
-0.0105252 0.00104167 1e-05
-0.0102873 0.00104295 1e-05
-0.0100493 0.00104423 1e-05
-0.00981133 0.00104551 1e-05
-0.00957337 0.00104679 1e-05
-0.00934491 0.00104802 1e-05
-0.00911645 0.00104924 1e-05
-0.00888799 0.00105047 1e-05
-0.00865954 0.00105169 1e-05
-0.00843108 0.0010529 1e-05
-0.00821175 0.00105407 1e-05
-0.00799242 0.00105523 1e-05
-0.00777309 0.00105639 1e-05
-0.00755376 0.00105754 1e-05
-0.00733443 0.00105869 1e-05
-0.00712387 0.00105979 1e-05
-0.0069133 0.00106089 1e-05
-0.00670273 0.00106198 1e-05
-0.00649216 0.00106307 1e-05
-0.0062816 0.00106416 1e-05
-0.00607944 0.00106519 1e-05
-0.00587729 0.00106623 1e-05
-0.00567514 0.00106726 1e-05
-0.00547298 0.00106829 1e-05
-0.00527083 0.00106931 1e-05
-0.00507675 0.00107028 1e-05
-0.00488267 0.00107126 1e-05
-0.0046886 0.00107223 1e-05
-0.00449452 0.00107321 1e-05
-0.00430044 0.00107417 1e-05
-0.00411412 0.0010751 1e-05
-0.0039278 0.00107602 1e-05
-0.00374147 0.00107694 1e-05
-0.00355515 0.00107787 1e-05
-0.00336883 0.00107879 1e-05
-0.00318995 0.00107966 1e-05
-0.00301107 0.00108054 1e-05
-0.00283219 0.00108142 1e-05
-0.00265331 0.0010823 1e-05
-0.00247443 0.00108319 1e-05
-0.0023027 0.00108403 1e-05
-0.00213097 0.00108488 1e-05
-0.00195924 0.00108573 1e-05
-0.0017875 0.00108658 1e-05
-0.00161577 0.00108744 1e-05
-0.0014509 0.00108826 1e-05
-0.00128603 0.00108909 1e-05
-0.00112116 0.00108993 1e-05
-0.00095629 0.00109077 1e-05
-0.000791418 0.00109163 1e-05
-0.000633135 0.00109245 1e-05
-0.000474851 0.00109329 1e-05
-0.000316568 0.00109414 1e-05
-0.000158284 0.001095 1e-05
0 0.00109587 1e-05
0.000105677 0.00109645 1e-05
0.000211355 0.00109704 1e-05
0.000317032 0.00109763 1e-05
0.00042271 0.00109822 1e-05
0.000528387 0.00109881 1e-05
0.000634886 0.00109939 1e-05
0.000741385 0.00109998 1e-05
0.000847885 0.00110056 1e-05
0.000954384 0.00110114 1e-05
0.00106088 0.00110171 1e-05
0.00116821 0.00110228 1e-05
0.00127554 0.00110284 1e-05
0.00138286 0.00110339 1e-05
0.00149019 0.00110393 1e-05
0.00159752 0.00110447 1e-05
0.00170568 0.00110499 1e-05
0.00181384 0.00110551 1e-05
0.001922 0.00110602 1e-05
0.00203016 0.00110652 1e-05
0.00213833 0.001107 1e-05
0.00224733 0.00110748 1e-05
0.00235633 0.00110795 1e-05
0.00246533 0.00110841 1e-05
0.00257434 0.00110887 1e-05
0.00268334 0.00110931 1e-05
0.00279319 0.00110974 1e-05
0.00290304 0.00111016 1e-05
0.00301289 0.00111058 1e-05
0.00312274 0.00111099 1e-05
0.00323259 0.00111139 1e-05
0.00334329 0.00111177 1e-05
0.003454 0.00111216 1e-05
0.0035647 0.00111253 1e-05
0.0036754 0.0011129 1e-05
0.00378611 0.00111326 1e-05
0.00389767 0.0011136 1e-05
0.00400924 0.00111394 1e-05
0.0041208 0.00111427 1e-05
0.00423237 0.0011146 1e-05
0.00434393 0.00111491 1e-05
0.00445636 0.00111521 1e-05
0.00456879 0.00111551 1e-05
0.00468123 0.0011158 1e-05
0.00479366 0.00111608 1e-05
0.00490609 0.00111635 1e-05
0.0050194 0.00111661 1e-05
0.0051327 0.00111687 1e-05
0.00524601 0.00111712 1e-05
0.00535932 0.00111736 1e-05
0.00547262 0.00111759 1e-05
0.00558681 0.00111781 1e-05
0.005701 0.00111802 1e-05
0.00581518 0.00111823 1e-05
0.00592937 0.00111842 1e-05
0.00604356 0.00111861 1e-05
0.00615863 0.00111879 1e-05
0.00627371 0.00111896 1e-05
0.00638878 0.00111913 1e-05
0.00650386 0.00111928 1e-05
0.00661893 0.00111943 1e-05
0.0067349 0.00111956 1e-05
0.00685087 0.00111969 1e-05
0.00696684 0.00111982 1e-05
0.00708281 0.00111993 1e-05
0.00719878 0.00112003 1e-05
0.00731565 0.00112013 1e-05
0.00743252 0.00112022 1e-05
0.00754939 0.0011203 1e-05
0.00766626 0.00112037 1e-05
0.00778313 0.00112043 1e-05
0.00786398 0.00112046 1e-05
0.00794482 0.0011205 1e-05
0.00802566 0.00112053 1e-05
0.0081065 0.00112055 1e-05
0.00818394 0.00112057 1e-05
0.00822156 0.00112058 1e-05
0.00825918 0.00112058 1e-05
0.0082968 0.00112059 1e-05
0.00833441 0.00112059 1e-05
0.00837203 0.0011206 1e-05
0.00849073 0.00112061 1e-05
0.00860942 0.00112061 1e-05
0.00872812 0.0011206 1e-05
0.00884682 0.00112058 1e-05
0.00896551 0.00112055 1e-05
0.00908513 0.00112051 1e-05
0.00920475 0.00112046 1e-05
0.00932437 0.00112041 1e-05
0.00944398 0.00112035 1e-05
0.0095636 0.00112027 1e-05
0.00968415 0.00112018 1e-05
0.0098047 0.00112009 1e-05
0.00992525 0.00111998 1e-05
0.0100458 0.00111987 1e-05
0.0101663 0.00111975 1e-05
0.0102878 0.00111961 1e-05
0.0104093 0.00111947 1e-05
0.0105308 0.00111931 1e-05
0.0106523 0.00111915 1e-05
0.0107738 0.00111898 1e-05
0.0108962 0.00111879 1e-05
0.0110186 0.00111859 1e-05
0.0111411 0.00111839 1e-05
0.0112635 0.00111818 1e-05
0.0113859 0.00111795 1e-05
0.0115093 0.00111771 1e-05
0.0116327 0.00111746 1e-05
0.0117561 0.0011172 1e-05
0.0118795 0.00111693 1e-05
0.0120028 0.00111666 1e-05
0.0121272 0.00111636 1e-05
0.0122515 0.00111606 1e-05
0.0123759 0.00111574 1e-05
0.0125002 0.00111542 1e-05
0.0126245 0.00111509 1e-05
0.0127498 0.00111473 1e-05
0.0128752 0.00111437 1e-05
0.0130005 0.001114 1e-05
0.0131258 0.00111363 1e-05
0.0132511 0.00111323 1e-05
0.0133774 0.00111282 1e-05
0.0135036 0.00111241 1e-05
0.0136299 0.00111198 1e-05
0.0137562 0.00111154 1e-05
0.0138825 0.00111109 1e-05
0.0140098 0.00111062 1e-05
0.014137 0.00111014 1e-05
0.0142643 0.00110966 1e-05
0.0143915 0.00110916 1e-05
0.0145188 0.00110864 1e-05
0.0146471 0.00110812 1e-05
0.0147753 0.00110758 1e-05
0.0149036 0.00110703 1e-05
0.0150318 0.00110647 1e-05
0.0151601 0.00110589 1e-05
0.0152893 0.00110531 1e-05
0.0154186 0.00110471 1e-05
0.0155478 0.00110409 1e-05
0.0156771 0.00110347 1e-05
0.0158063 0.00110283 1e-05
0.0159366 0.00110218 1e-05
0.0160668 0.00110152 1e-05
0.0161971 0.00110084 1e-05
0.0163273 0.00110015 1e-05
0.0164576 0.00109945 1e-05
0.0165889 0.00109874 1e-05
0.0167201 0.00109802 1e-05
0.0168514 0.00109727 1e-05
0.0169827 0.00109652 1e-05
0.0171139 0.00109575 1e-05
0.0172462 0.00109498 1e-05
0.0173785 0.00109419 1e-05
0.0175108 0.00109338 1e-05
0.0176431 0.00109255 1e-05
0.0177754 0.00109173 1e-05
0.0179087 0.00109089 1e-05
0.018042 0.00109003 1e-05
0.0181753 0.00108915 1e-05
0.0183087 0.00108826 1e-05
0.018442 0.00108737 1e-05
0.0185763 0.00108647 1e-05
0.0187107 0.00108554 1e-05
0.018845 0.00108459 1e-05
0.0189794 0.00108363 1e-05
0.0191137 0.00108267 1e-05
0.0192491 0.0010817 1e-05
0.0193845 0.00108071 1e-05
0.0195199 0.00107969 1e-05
0.0196553 0.00107866 1e-05
0.0197907 0.00107763 1e-05
0.0199272 0.0010766 1e-05
0.0200636 0.00107554 1e-05
0.0202001 0.00107445 1e-05
0.0203365 0.00107334 1e-05
0.020473 0.00107224 1e-05
0.0206105 0.00107114 1e-05
0.020748 0.00107001 1e-05
0.0208855 0.00106885 1e-05
0.021023 0.00106767 1e-05
0.0211606 0.00106651 1e-05
0.0212991 0.00106534 1e-05
0.0214377 0.00106413 1e-05
0.0215763 0.0010629 1e-05
0.0217149 0.00106165 1e-05
0.0218535 0.00106041 1e-05
0.0219931 0.00105917 1e-05
0.0221328 0.0010579 1e-05
0.0222724 0.00105659 1e-05
0.0224121 0.00105528 1e-05
0.0225517 0.00105396 1e-05
0.0226925 0.00105265 1e-05
0.0228332 0.0010513 1e-05
0.022974 0.00104992 1e-05
0.0231147 0.00104853 1e-05
0.0232555 0.00104715 1e-05
0.0233973 0.00104576 1e-05
0.0235391 0.00104434 1e-05
0.023681 0.00104289 1e-05
0.0238228 0.00104142 1e-05
0.0239647 0.00103996 1e-05
0.0241076 0.0010385 1e-05
0.0242505 0.001037 1e-05
0.0243935 0.00103547 1e-05
0.0245364 0.00103392 1e-05
0.0246794 0.00103239 1e-05
0.0248234 0.00103085 1e-05
0.0249675 0.00102927 1e-05
0.0251115 0.00102766 1e-05
0.0252556 0.00102604 1e-05
[...]
POINT_DATA 12050
 FIELD attributes 2
p 1 12050 float
-4.94165 -4.93834 -4.93504 -4.93173 -4.92842 -4.92511
-5.09503 -5.09501 -5.09498 -5.09496 -5.09494 -5.09492
-5.26961 -5.26949 -5.26936 -5.26924 -5.26912 -5.26901
-5.36362 -5.36357 -5.36351 -5.36346 -5.36341 -5.36335
-5.40947 -5.40936 -5.40925 -5.40914 -5.40902 -5.40891
-5.41676 -5.4166 -5.41644 -5.41628 -5.41612 -5.41596
-5.3905 -5.39043 -5.39036 -5.39029 -5.39021 -5.39014
-5.32144 -5.3214 -5.32136 -5.32132 -5.32128 -5.32124
-5.20054 -5.20055 -5.20055 -5.20056 -5.20056 -5.20057
-2.98816 -3.00749 -3.02668 -3.04574 -3.06467 -3.08346
-4.94165 -4.94097 -4.93739 -4.93373 -4.92999 -4.9217 -4.93558 -4.95056 -4.96555 -4.98053 -5.00496 -5.02667 -5.05655 -5.08642 -5.1163 -5.14898 -5.16455 -5.18616 -5.20777 -5.22938 -5.2526 -5.27132 -5.29205 -5.31278 -5.33351 -5.35102 -5.35214 -5.35326 -5.35439 -5.35551 -5.35663 -5.37813 -5.39963 -5.42113 -5.44263 -5.46386 -5.48242 -5.50079 -5.51915 -5.53752 -5.55531 -5.57068 -5.58577 -5.60086 -5.61594 -5.63047 -5.64393 -5.65712 -5.67032 -5.68352 -5.69626 -5.70856 -5.72059 -5.73262 -5.74464 -5.75623 -5.76752 -5.77847 -5.78943 -5.80038 -5.81089 -5.82121 -5.83119 -5.84118 -5.85116 -5.86077 -5.87027 -5.8794 -5.88853 -5.89767 -5.90645 -5.9152 -5.92362 -5.93205 -5.94047 -5.94869 -5.95684 -5.96446 -5.97208 -5.9797 -5.98717 -5.99486 -6.00256 -6.01025 -6.01795 -6.02621 -6.03486 -6.04288 -6.0509 -6.05891 -6.06739 -6.0777 -6.09048 -6.10325 -6.11603 -6.13075 -6.14567 -6.16406 -6.18246 -6.20085 -6.21902 -6.23559 -6.2524 -6.26921 -6.28602 -6.30086 -6.31223 -6.32344 -6.33466 -6.34588 -6.35706 -6.36658 -6.3757 -6.38483 -6.39395 -6.4029 -6.41213 -6.42 -6.42787 -6.43574 -6.44235 -6.45022 -6.45658 -6.46295 -6.46931 -6.47425 -6.48051 -6.48553 -6.49056 -6.49559 -6.49952 -6.50437 -6.50827 -6.51217 -6.51607 -6.51924 -6.52304 -6.52612 -6.52921 -6.5323 -6.53492 -6.53795 -6.54046 -6.54296 -6.54546 -6.54768 -6.55021 -6.55235 -6.55449 -6.55663 -6.55858 -6.56085 -6.56282 -6.5648 -6.56678 -6.56863 -6.57075 -6.57267 -6.57459 -6.57651 -6.57834 -6.58038 -6.58229 -6.5842 -6.58611 -6.58798 -6.58936 -6.59069 -6.59202 -6.59335 -6.59463 -6.59525 -6.59587 -6.59649 -6.59711 -6.5978 -6.59975 -6.60179 -6.60383 -6.60586 -6.60824 -6.6101 -6.61232 -6.61453 -6.61675 -6.61967 -6.62141 -6.62383 -6.62625 -6.62868 -6.63216 -6.63375 -6.63633 -6.63891 -6.6415 -6.64549 -6.64691 -6.64963 -6.65235 -6.65507 -6.65952 -6.66082 -6.66369 -6.66656 -6.66943 -6.67432 -6.67555 -6.67858 -6.68161 -6.68464 -6.68993 -6.69114 -6.69433 -6.69752 -6.70071 -6.70633 -6.70757 -6.71091 -6.71425 -6.7176 -6.72346 -6.72479 -6.72828 -6.73176 -6.73525 -6.7413 -6.74283 -6.7464 -6.75003 -6.75387 -6.7598 -6.76174 -6.76523 -6.769 -6.77318 -6.77897 -6.78129 -6.78477 -6.78867 -6.79313 -6.79877 -6.80147 -6.80497 -6.80899 -6.81367 -6.81917 -6.82219 -6.82575 -6.82987 -6.83469 -6.84004 -6.84335 -6.84696 -6.85116 -6.85607 -6.86129 -6.86483 -6.86853 -6.8728 -6.87775 -6.88286 -6.88661 -6.89042 -6.89475 -6.89973 -6.90474 -6.9087 -6.91265 -6.91706 -6.92191 -6.92677 -6.93084 -6.93492 -6.93931 -6.94399 -6.94868 -6.95282 -6.95696 -6.96135 -6.96598 -6.9706 -6.97485 -6.9791 -6.98353 -6.98814 -6.99274 -6.99707 -7.00139 -7.00585 -7.01043 -7.01501 -7.01935 -7.0237 -7.02815 -7.03268 -7.03721 -7.04153 -7.04585 -7.05028 -7.05477 -7.05927 -7.06355 -7.06784 -7.07223 -7.07668 -7.08114 -7.08537 -7.08963 -7.09397 -7.09836 -7.10277 -7.10695 -7.11116 -7.11545 -7.11976 -7.12411 -7.12822 -7.13238 -7.13659 -7.14083 -7.14511 -7.14913 -7.15322 -7.15735 -7.1615 -7.1657 -7.16962 -7.17365 -7.17769 -7.18173 -7.18583 -7.18966 -7.1936 -7.19754 -7.20147 -7.20547 -7.20921 -7.21303 -7.21686 -7.22069 -7.22455 -7.2282 -7.2319 -7.23561 -7.23931 -7.24304 -7.24657 -7.25014 -7.25372 -7.25729 -7.26088 -7.26429 -7.26772 -7.27115 -7.27459 -7.27803 -7.27885 -7.27967 -7.2805 -7.28133 -7.28214 -7.28461 -7.28708 -7.28955 -7.29203 -7.29451 -7.29764 -7.30078 -7.30392 -7.30706 -7.31021 -7.31317 -7.31613 -7.31909 -7.32205 -7.32503 -7.32782 -7.33059 -7.33337 -7.33614 -7.33893 -7.34155 -7.34414 -7.34673 -7.34933 -7.35193 -7.35438 -7.35677 -7.35917 -7.36157 -7.36396 -7.36621 -7.3684 -7.37058 -7.37275 -7.37491 -7.37694 -7.37893 -7.38087 -7.3828 -7.38471 -7.38651 -7.38829 -7.38999 -7.39166 -7.39332 -7.39488 -7.39646 -7.3979 -7.39929 -7.40068 -7.40201 -7.40333 -7.40453 -7.40564 -7.40675 -7.40781 -7.40887 -7.40982 -7.41063 -7.41144 -7.41223 -7.41303 -7.4137 -7.41418 -7.41466 -7.41515 -7.41563 -7.41599 -7.41616 -7.4163 -7.41647 -7.41659 -7.41662 -7.41651 -7.4163 -7.41614 -7.41589 -7.41558 -7.4152 -7.41463 -7.41415 -7.41351 -7.41285 -7.41219 -7.41127 -7.41041 -7.40937 -7.40834 -7.40731 -7.40609 -7.40479 -7.40335 -7.40192 -7.40049 -7.39895 -7.39721 -7.3954 -7.39359 -7.39179 -7.39011 -7.39003 -7.38995 -7.38987 -7.38979 -7.38971 -7.38743 -7.38515 -7.38288 -7.38061 -7.37823 -7.37563 -7.37287 -7.37012 -7.36737 -7.36436 -7.36145 -7.35818 -7.35491 -7.35165 -7.34796 -7.34466 -7.3409 -7.33708 -7.33311 -7.32879 -7.32495 -7.32083 -7.3164 -7.31162 -7.30665 -7.30221 -7.29773 -7.29266 -7.287 -7.28135 -7.27628 -7.27123 -7.26549 -7.2591 -7.25271 -7.24699 -7.24127 -7.23484 -7.2276 -7.22036 -7.21388 -7.2073 -7.19996 -7.19195 -7.18372 -7.17636 -7.1685 -7.16017 -7.15155 -7.14222 -7.13385 -7.12448 -7.11504 -7.10561 -7.0953 -7.08542 -7.0748 -7.06419 -7.0536 -7.04268 -7.03623 -7.02949 -7.02275 -7.01601 -7.0096 -7.00453 -6.99946 -6.99439 -6.98932 -6.98407 -6.97134 -6.95839 -6.94545 -6.93253 -6.9189 -6.90537 -6.89101 -6.87665 -6.86213 -6.84664 -6.8318 -6.81638 -6.80048 -6.78376 -6.76663 -6.75021 -6.73381 -6.7161 -6.69714 -6.67818 -6.66003 -6.6419 -6.62238 -6.60141 -6.58044 -6.56036 -6.53982 -6.51808 -6.49566 -6.47251 -6.45034 -6.42663 -6.40268 -6.37876 -6.35375 -6.33099 -6.30715 -6.28332 -6.25951 -6.23779 -6.23491 -6.23203 -6.22915 -6.22628 -6.2233 -6.19475 -6.16611 -6.13749 -6.10889 -6.07912 -6.04899 -6.0176 -5.98622 -5.9543 -5.92112 -5.88834 -5.85524 -5.82098 -5.7848 -5.74856 -5.71277 -5.677 -5.6394 -5.59992 -5.56044 -5.52146 -5.48171 -5.44054 -5.39891 -5.35605 -5.31356 -5.26875 -5.22398 -5.17923 -5.13405 -5.12521 -5.11599 -5.10678 -5.09756 -5.08854 -5.04962 -5.01072 -4.97185 -4.93301 -4.89253 -4.84251 -4.79078 -4.73908 -4.68633 -4.6319 -4.57823 -4.5246 -4.46861 -4.41031 -4.35197 -4.29443 -4.23674 -4.17633 -4.11467 -4.05222 -3.99062 -3.92604 -3.86134 -3.79667 -3.73143 -3.72112 -3.71037 -3.69961 -3.68886 -3.67829 -3.62065 -3.56304 -3.50547 -3.44795 -3.38798 -3.31766 -3.24574 -3.17338 -3.0988 -3.02321 -2.9486 -2.87404 -2.79698 -2.71728 -2.63745 -2.55856 -2.47762 -2.39585 -2.31413 -2.23142 -2.2122 -2.19239 -2.17254 -2.15269 -2.13335 -2.06809 -2.00287 -1.93769 -1.87244 -1.80507 -1.71837 -1.6308 -1.54263 -1.45234 -1.36156 -1.27158 -1.18166 -1.08968 -0.99701 -0.903466 -0.838116 -0.771865 -0.705453 -0.639083 -0.577621 -0.548808 -0.520003 -0.491206 -0.46233 -0.432989 -0.337644 -0.241768 -0.145985 -0.049601 0.0476539 0.144392 0.241032 0.338159 0.43592 0.53407 0.606176 0.678277 0.750344 0.822357 0.889167 0.915964 0.942753 0.969535 0.996325 1.02319 1.12109 1.21899 1.31679 1.41427 1.51202 1.60948 1.70684 1.80316 1.89928 1.99569 2.04041 2.08469 2.12869 2.17266 2.21487 2.26649 2.31808 2.36964 2.42092 2.47187 2.56617 2.6602 2.75358 2.84537 2.93757 3.02959 3.12031 3.20996 3.29951 3.38868 3.38884 3.38899 3.38914 3.38929 3.38944 3.47766 3.56581 3.65387 3.74091 3.82702 3.91269 3.99826 4.08154 4.164 4.24637 4.28097 4.315 4.34845 4.3819 4.41468 4.46174 4.50879 4.55581 4.60224 4.64805 4.72631 4.80452 4.88107 4.95596 5.03105 5.09126 5.15046 5.20868 5.26689 5.32403 5.33826 5.35249 5.36672 5.38078 5.39465 5.46514 5.53502 5.60489 5.67334 5.74132 5.80812 5.87455 5.93942 6.00429 6.06836 6.08308 6.09758 6.11187 6.12615 6.14047 6.18865 6.23683 6.28503 6.33269 6.3795 6.4396 6.49973 6.55844 6.61577 6.67303 6.71713 6.76041 6.80313 6.84589 6.88974 6.90171 6.91369 6.92567 6.93747 6.94903 7.00222 7.05465 7.10712 7.1582 7.20862 7.2586 7.30836 7.35649 7.40461 7.45148 7.46724 7.48261 7.49775 7.51289 7.52833 7.55882 7.58934 7.61987 7.65001 7.67938 7.7233 7.76724 7.80975 7.85111 7.89234 7.93312 7.97302 8.01235 8.05173 8.09077 8.09346 8.09609 8.09867 8.10126 8.10387 8.13869 8.17355 8.20845 8.24305 8.27667 8.31227 8.34792 8.38247 8.41602 8.44944 8.48235 8.51453 8.54638 8.57828 8.60981 8.61351 8.6171 8.62067 8.62423 8.62785 8.65435 8.68087 8.70742 8.73386 8.75949 8.78811 8.81662 8.84433 8.87128 8.89815 8.92451 8.95072 8.97631 9.00169 9.0264 9.04412 9.06131 9.0785 9.09571 9.1147 9.12083 9.12696 9.13309 9.13922 9.14518 9.16757 9.1897 9.21185 9.23389 9.25538 9.27635 9.29728 9.31753 9.3373 9.35703 9.37629 9.39556 9.41435 9.43266 9.45077 9.46847 9.48581 9.50308 9.52036 9.53726 9.54534 9.55327 9.5612 9.56914 9.57775 9.58569 9.59363 9.60156 9.6095 9.6173 9.63239 9.64723 9.66207 9.6769 9.69139 9.70554 9.71943 9.7331 9.74655 9.75991 9.77298 9.78605 9.79872 9.81108 9.82344 9.83555 9.84767 9.85958 9.87108 9.88253 9.89379 9.90497 9.91606 9.92705 9.93773 9.94825 9.95864 9.96902 9.9794 9.98954 9.99937 10.0092 10.0189 10.0287 10.0385 10.0395 10.0406 10.0417 10.0428 10.0438 10.0521 10.0603 10.0686 10.0768 10.085 10.094 10.1029 10.1118 10.1207 10.1295 10.1383 10.1468 10.1554 10.1639 10.1724 10.1809 10.1893 10.1975 10.2058 10.2142 10.2224 10.2306 10.2387 10.2469 10.255 10.2631 10.2712 10.2793 10.2873 10.2954 10.3034 10.3114 10.3195 10.3275 10.3355 10.3436 10.3516 10.3597 10.3677 10.3758 10.3838 10.3919 10.4001 10.4082 10.4164 10.4245 10.4327 10.441 10.4493 10.4575 10.4658 10.4742 10.4826 10.491 10.4994 10.5079 10.5165 10.5251 10.5336 10.5422 10.551 10.5597 10.5685 10.5773 10.5861 10.59 10.5939 10.5978 10.6017 10.6056 10.6107 10.6158 10.6209 10.626 10.6312 10.6404 10.6497 10.6589 10.6682 10.6775 10.687 10.6965 10.706 10.7156 10.7253 10.735 10.7448 10.7545 10.7644 10.7744 10.7844 10.7944 10.8045 10.8147 10.825 10.8353 10.8456 10.856 10.8666 10.8772 10.8878 10.8984 10.9091 10.9201 10.931 10.9419 10.9529 10.964 10.9753 10.9866 10.9979 11.0092 11.0208 11.0324 11.044 11.0556 11.0675 11.0795 11.0915 11.1036 11.1157 11.1278 11.1399 11.1521 11.1639 11.1764 11.1897 11.2031 11.2165 11.23 11.2362 11.2415 11.2468 11.252 11.2585 11.2624 11.2663 11.2702 11.2741 11.2775 11.29 11.3036 11.3172 11.3309 11.3484 11.3671 11.3799 11.3926 11.401 11.3961 11.3905 11.3851 11.3839 11.3879 11.3918 11.3953 11.3987 11.402 11.405 11.408 11.4104 11.4113 11.412 11.4127 11.4129 11.4126 11.4122 11.4118 11.4114 11.411 11.4098 11.4086 11.4074 11.4061 11.4046 11.4017 11.3981 11.3944 11.3904 11.3862 11.381 11.3757 11.3694 11.3621 11.3547 11.3463 11.3375 11.3277 11.3174 11.3063 11.2937 11.2798 11.2659 11.252 11.2378 11.2364 11.2347 11.2331 11.2315 11.2299 11.2136 11.1973 11.1809 11.1645 11.147 11.1254 11.102 11.0785 11.0539 11.0283 11.0005 10.9726 10.942 10.909 10.876 10.8404 10.8045 10.7657 10.7249 10.6832 10.6386 10.5908 10.5422 10.4936 10.4429 10.4072 10.3692 10.3313 10.2933 10.2494 10.2289 10.2084 10.1879 10.1674 10.1458 10.0754 10.0034 9.93126 9.85907 9.78167 9.69938 9.61236 9.52377 9.43091 9.33466 9.23347 9.1322 9.02369 8.9085 8.7932 8.67237 8.55147 8.41898 8.27495 8.13079 7.98015 7.82721 7.67016 7.51105 7.34883 7.17959 6.98429 6.78585 6.58745 6.3717 6.1479 5.9348 5.72165 5.50844 5.29707 5.24102 5.17288 5.10476 5.03666 4.96253 4.72936 4.49588 4.2621 4.02803 3.75573 3.41886 3.14742 2.87547 2.60306 2.46805 2.36404 1.93746 1.50773 0.885811 0