# vtk DataFile Version 2.0
track0
ASCII
DATASET POLYDATA
POINTS 12050 float
-0.0205 0.001 1e-05
-0.02052 0.000999985 1e-05
-0.02054 0.000999974 1e-05
-0.02056 0.000999965 1e-05
-0.02058 0.000999959 1e-05
-0.0206 0.000999956 1e-05
-0.0205 0.00367778 1e-05
-0.02052 0.00367778 1e-05
-0.02054 0.00367777 1e-05
-0.02056 0.00367777 1e-05
-0.02058 0.00367777 1e-05
-0.0206 0.00367777 1e-05
-0.0205 0.00635556 1e-05
-0.02052 0.00635555 1e-05
-0.02054 0.00635555 1e-05
-0.02056 0.00635555 1e-05
-0.02058 0.00635555 1e-05
-0.0206 0.00635555 1e-05
-0.0205 0.00903333 1e-05
-0.02052 0.00903333 1e-05
-0.02054 0.00903333 1e-05
-0.02056 0.00903333 1e-05
-0.02058 0.00903333 1e-05
-0.0206 0.00903333 1e-05
-0.0205 0.0117111 1e-05
-0.02052 0.0117111 1e-05
-0.02054 0.0117111 1e-05
-0.02056 0.0117111 1e-05
-0.02058 0.0117111 1e-05
-0.0206 0.0117111 1e-05
-0.0205 0.0143889 1e-05
-0.02052 0.0143889 1e-05
-0.02054 0.0143889 1e-05
-0.02056 0.0143889 1e-05
-0.02058 0.0143889 1e-05
-0.0206 0.0143889 1e-05
-0.0205 0.0170667 1e-05
-0.02052 0.0170667 1e-05
-0.02054 0.0170667 1e-05
-0.02056 0.0170667 1e-05
-0.02058 0.0170667 1e-05
-0.0206 0.0170667 1e-05
-0.0205 0.0197444 1e-05
-0.02052 0.0197444 1e-05
-0.02054 0.0197444 1e-05
-0.02056 0.0197444 1e-05
-0.02058 0.0197444 1e-05
-0.0206 0.0197444 1e-05
-0.0205 0.0224222 1e-05
-0.02052 0.0224222 1e-05
-0.02054 0.0224222 1e-05
-0.02056 0.0224222 1e-05
-0.02058 0.0224222 1e-05
-0.0206 0.0224222 1e-05
-0.0205 0.0251 1e-05
-0.02052 0.0250998 1e-05
-0.02054 0.0250997 1e-05
-0.02056 0.0250995 1e-05
-0.02058 0.0250995 1e-05
-0.0206 0.0250994 1e-05
-0.0205 0.001 1e-05
-0.0202034 0.00100022 1e-05
-0.0199069 0.00100067 1e-05
-0.0196103 0.00100133 1e-05
-0.0193137 0.00100219 1e-05
-0.0190172 0.00100326 1e-05
-0.0187132 0.00100467 1e-05
-0.0184093 0.00100589 1e-05
-0.0181054 0.00100711 1e-05
-0.0178015 0.00100833 1e-05
-0.0174976 0.00100954 1e-05
-0.0172058 0.00101084 1e-05
-0.016914 0.00101194 1e-05
-0.0166222 0.00101304 1e-05
-0.0163305 0.00101414 1e-05
-0.0160387 0.00101523 1e-05
-0.0157586 0.00101637 1e-05
-0.0154784 0.00101745 1e-05
-0.0151983 0.00101857 1e-05
-0.0149182 0.00101972 1e-05
-0.0146381 0.00102091 1e-05
-0.0143753 0.00102209 1e-05
-0.0141124 0.00102328 1e-05
-0.0138496 0.00102449 1e-05
-0.0135868 0.00102574 1e-05
-0.0133649 0.00102682 1e-05
-0.0133506 0.00102689 1e-05
-0.0133363 0.00102696 1e-05
-0.013322 0.00102703 1e-05
-0.0133077 0.0010271 1e-05
-0.0132934 0.00102717 1e-05
-0.0130353 0.00102846 1e-05
-0.0127771 0.00102977 1e-05
-0.0125189 0.00103109 1e-05
-0.0122607 0.00103242 1e-05
-0.0120025 0.00103378 1e-05
-0.0117547 0.00103509 1e-05
-0.0115068 0.00103641 1e-05
-0.0112589 0.00103773 1e-05
-0.0110111 0.00103905 1e-05
-0.0107632 0.00104039 1e-05
-0.0105252 0.00104167 1e-05
-0.0102873 0.00104295 1e-05
-0.0100493 0.00104423 1e-05
-0.00981133 0.00104551 1e-05
-0.00957337 0.00104679 1e-05
-0.00934491 0.00104802 1e-05
-0.00911645 0.00104924 1e-05
-0.00888799 0.00105047 1e-05
-0.00865954 0.00105169 1e-05
-0.00843108 0.0010529 1e-05
-0.00821175 0.00105407 1e-05
-0.00799242 0.00105523 1e-05
-0.00777309 0.00105639 1e-05
-0.00755376 0.00105754 1e-05
-0.00733443 0.00105869 1e-05
-0.00712387 0.00105979 1e-05
-0.0069133 0.00106089 1e-05
-0.00670273 0.00106198 1e-05
-0.00649216 0.00106307 1e-05
-0.0062816 0.00106416 1e-05
-0.00607944 0.00106519 1e-05
-0.00587729 0.00106623 1e-05
-0.00567514 0.00106726 1e-05
-0.00547298 0.00106829 1e-05
-0.00527083 0.00106931 1e-05
-0.00507675 0.00107028 1e-05
-0.00488267 0.00107126 1e-05
-0.0046886 0.00107223 1e-05
-0.00449452 0.00107321 1e-05
-0.00430044 0.00107417 1e-05
-0.00411412 0.0010751 1e-05
-0.0039278 0.00107602 1e-05
-0.00374147 0.00107694 1e-05
-0.00355515 0.00107787 1e-05
-0.00336883 0.00107879 1e-05
-0.00318995 0.00107966 1e-05
-0.00301107 0.00108054 1e-05
-0.00283219 0.00108142 1e-05
-0.00265331 0.0010823 1e-05
-0.00247443 0.00108319 1e-05
-0.0023027 0.00108403 1e-05
-0.00213097 0.00108488 1e-05
-0.00195924 0.00108573 1e-05
-0.0017875 0.00108658 1e-05
-0.00161577 0.00108744 1e-05
-0.0014509 0.00108826 1e-05
-0.00128603 0.00108909 1e-05
-0.00112116 0.00108993 1e-05
-0.00095629 0.00109077 1e-05
-0.000791418 0.00109163 1e-05
-0.000633135 0.00109245 1e-05
-0.000474851 0.00109329 1e-05
-0.000316568 0.00109414 1e-05
-0.000158284 0.001095 1e-05
0 0.00109587 1e-05
0.000105677 0.00109645 1e-05
0.000211355 0.00109704 1e-05
0.000317032 0.00109763 1e-05
0.00042271 0.00109822 1e-05
0.000528387 0.00109881 1e-05
0.000634886 0.00109939 1e-05
0.000741385 0.00109998 1e-05
0.000847885 0.00110056 1e-05
0.000954384 0.00110114 1e-05
0.00106088 0.00110171 1e-05
0.00116821 0.00110228 1e-05
0.00127554 0.00110284 1e-05
0.00138286 0.00110339 1e-05
0.00149019 0.00110393 1e-05
0.00159752 0.00110447 1e-05
0.00170568 0.00110499 1e-05
0.00181384 0.00110551 1e-05
0.001922 0.00110602 1e-05
0.00203016 0.00110652 1e-05
0.00213833 0.001107 1e-05
0.00224733 0.00110748 1e-05
0.00235633 0.00110795 1e-05
0.00246533 0.00110841 1e-05
0.00257434 0.00110887 1e-05
0.00268334 0.00110931 1e-05
0.00279319 0.00110974 1e-05
0.00290304 0.00111016 1e-05
0.00301289 0.00111058 1e-05
0.00312274 0.00111099 1e-05
0.00323259 0.00111139 1e-05
0.00334329 0.00111177 1e-05
0.003454 0.00111216 1e-05
0.0035647 0.00111253 1e-05
0.0036754 0.0011129 1e-05
0.00378611 0.00111326 1e-05
0.00389767 0.0011136 1e-05
0.00400924 0.00111394 1e-05
0.0041208 0.00111427 1e-05
0.00423237 0.0011146 1e-05
0.00434393 0.00111491 1e-05
0.00445636 0.00111521 1e-05
0.00456879 0.00111551 1e-05
0.00468123 0.0011158 1e-05
0.00479366 0.00111608 1e-05
0.00490609 0.00111635 1e-05
0.0050194 0.00111661 1e-05
0.0051327 0.00111687 1e-05
0.00524601 0.00111712 1e-05
0.00535932 0.00111736 1e-05
0.00547262 0.00111759 1e-05
0.00558681 0.00111781 1e-05
0.005701 0.00111802 1e-05
0.00581518 0.00111823 1e-05
0.00592937 0.00111842 1e-05
0.00604356 0.00111861 1e-05
0.00615863 0.00111879 1e-05
0.00627371 0.00111896 1e-05
0.00638878 0.00111913 1e-05
0.00650386 0.00111928 1e-05
0.00661893 0.00111943 1e-05
0.0067349 0.00111956 1e-05
0.00685087 0.00111969 1e-05
0.00696684 0.00111982 1e-05
0.00708281 0.00111993 1e-05
0.00719878 0.00112003 1e-05
0.00731565 0.00112013 1e-05
0.00743252 0.00112022 1e-05
0.00754939 0.0011203 1e-05
0.00766626 0.00112037 1e-05
0.00778313 0.00112043 1e-05
0.00786398 0.00112046 1e-05
0.00794482 0.0011205 1e-05
0.00802566 0.00112053 1e-05
0.0081065 0.00112055 1e-05
0.00818394 0.00112057 1e-05
0.00822156 0.00112058 1e-05
0.00825918 0.00112058 1e-05
0.0082968 0.00112059 1e-05
0.00833441 0.00112059 1e-05
0.00837203 0.0011206 1e-05
0.00849073 0.00112061 1e-05
0.00860942 0.00112061 1e-05
0.00872812 0.0011206 1e-05
0.00884682 0.00112058 1e-05
0.00896551 0.00112055 1e-05
0.00908513 0.00112051 1e-05
0.00920475 0.00112046 1e-05
0.00932437 0.00112041 1e-05
0.00944398 0.00112035 1e-05
0.0095636 0.00112027 1e-05
0.00968415 0.00112018 1e-05
0.0098047 0.00112009 1e-05
0.00992525 0.00111998 1e-05
0.0100458 0.00111987 1e-05
0.0101663 0.00111975 1e-05
0.0102878 0.00111961 1e-05
0.0104093 0.00111947 1e-05
0.0105308 0.00111931 1e-05
0.0106523 0.00111915 1e-05
0.0107738 0.00111898 1e-05
0.0108962 0.00111879 1e-05
0.0110186 0.00111859 1e-05
0.0111411 0.00111839 1e-05
0.0112635 0.00111818 1e-05
0.0113859 0.00111795 1e-05
0.0115093 0.00111771 1e-05
0.0116327 0.00111746 1e-05
0.0117561 0.0011172 1e-05
0.0118795 0.00111693 1e-05
0.0120028 0.00111666 1e-05
0.0121272 0.00111636 1e-05
0.0122515 0.00111606 1e-05
0.0123759 0.00111574 1e-05
0.0125002 0.00111542 1e-05
0.0126245 0.00111509 1e-05
0.0127498 0.00111473 1e-05
0.0128752 0.00111437 1e-05
0.0130005 0.001114 1e-05
0.0131258 0.00111363 1e-05
0.0132511 0.00111323 1e-05
0.0133774 0.00111282 1e-05
0.0135036 0.00111241 1e-05
0.0136299 0.00111198 1e-05
0.0137562 0.00111154 1e-05
0.0138825 0.00111109 1e-05
0.0140098 0.00111062 1e-05
0.014137 0.00111014 1e-05
0.0142643 0.00110966 1e-05
0.0143915 0.00110916 1e-05
0.0145188 0.00110864 1e-05
0.0146471 0.00110812 1e-05
0.0147753 0.00110758 1e-05
0.0149036 0.00110703 1e-05
0.0150318 0.00110647 1e-05
0.0151601 0.00110589 1e-05
0.0152893 0.00110531 1e-05
0.0154186 0.00110471 1e-05
0.0155478 0.00110409 1e-05
0.0156771 0.00110347 1e-05
0.0158063 0.00110283 1e-05
0.0159366 0.00110218 1e-05
0.0160668 0.00110152 1e-05
0.0161971 0.00110084 1e-05
0.0163273 0.00110015 1e-05
0.0164576 0.00109945 1e-05
0.0165889 0.00109874 1e-05
0.0167201 0.00109802 1e-05
0.0168514 0.00109727 1e-05
0.0169827 0.00109652 1e-05
0.0171139 0.00109575 1e-05
0.0172462 0.00109498 1e-05
0.0173785 0.00109419 1e-05
0.0175108 0.00109338 1e-05
0.0176431 0.00109255 1e-05
0.0177754 0.00109173 1e-05
0.0179087 0.00109089 1e-05
0.018042 0.00109003 1e-05
0.0181753 0.00108915 1e-05
0.0183087 0.00108826 1e-05
0.018442 0.00108737 1e-05
0.0185763 0.00108647 1e-05
0.0187107 0.00108554 1e-05
0.018845 0.00108459 1e-05
0.0189794 0.00108363 1e-05
0.0191137 0.00108267 1e-05
0.0192491 0.0010817 1e-05
0.0193845 0.00108071 1e-05
0.0195199 0.00107969 1e-05
0.0196553 0.00107866 1e-05
0.0197907 0.00107763 1e-05
0.0199272 0.0010766 1e-05
0.0200636 0.00107554 1e-05
0.0202001 0.00107445 1e-05
0.0203365 0.00107334 1e-05
0.020473 0.00107224 1e-05
0.0206105 0.00107114 1e-05
0.020748 0.00107001 1e-05
0.0208855 0.00106885 1e-05
0.021023 0.00106767 1e-05
0.0211606 0.00106651 1e-05
0.0212991 0.00106534 1e-05
0.0214377 0.00106413 1e-05
0.0215763 0.0010629 1e-05
0.0217149 0.00106165 1e-05
0.0218535 0.00106041 1e-05
0.0219931 0.00105917 1e-05
0.0221328 0.0010579 1e-05
0.0222724 0.00105659 1e-05
0.0224121 0.00105528 1e-05
0.0225517 0.00105396 1e-05
0.0226925 0.00105265 1e-05
0.0228332 0.0010513 1e-05
0.022974 0.00104992 1e-05
0.0231147 0.00104853 1e-05
0.0232555 0.00104715 1e-05
0.0233973 0.00104576 1e-05
0.0235391 0.00104434 1e-05
0.023681 0.00104289 1e-05
0.0238228 0.00104142 1e-05
0.0239647 0.00103996 1e-05
0.0241076 0.0010385 1e-05
0.0242505 0.001037 1e-05
0.0243935 0.00103547 1e-05
0.0245364 0.00103392 1e-05
0.0246794 0.00103239 1e-05
0.0248234 0.00103085 1e-05
0.0249675 0.00102927 1e-05
0.0251115 0.00102766 1e-05
0.0252556 0.00102604 1e-05
[...]
POINT_DATA 12050
 FIELD attributes 1
U 3 12050 float
10.0004 	0.00734859 	0 10.0004 	0.00587887 	0 10.0003 	0.00440916 	0 10.0002 	0.00293944 	0 10.0001 	0.00146972 	0 10 	0 	0
10.0001 	0.000880217 	0 10 	0.000704174 	0 10 	0.00052813 	0 10 	0.000352087 	0 10 	0.000176043 	0 10 	0 	0
10.0001 	0.000469088 	0 10.0001 	0.000375082 	0 10.0001 	0.000281076 	0 10 	0.00018707 	0 10 	9.3064e-05 	0 10 	0 	0
10 	0.000269953 	0 10 	0.000215963 	0 10 	0.000161972 	0 10 	0.000107981 	0 10 	5.39907e-05 	0 10 	0 	0
10 	8.4352e-05 	0 10 	6.74816e-05 	0 10 	5.06112e-05 	0 10 	3.37408e-05 	0 10 	1.68704e-05 	0 10 	0 	0
10 	-2.26195e-05 	0 10 	-1.80956e-05 	0 10 	-1.35717e-05 	0 10 	-9.04781e-06 	0 10 	-4.5239e-06 	0 10 	0 	0
10 	-0.000213526 	0 10 	-0.000170821 	0 10 	-0.000128116 	0 10 	-8.54105e-05 	0 10 	-4.27053e-05 	0 10 	0 	0
10 	-0.000375947 	0 10 	-0.000300757 	0 10 	-0.000225568 	0 10 	-0.000150379 	0 10 	-7.51893e-05 	0 10 	0 	0
9.99999 	-0.000425435 	0 9.99999 	-0.000340348 	0 9.99999 	-0.000255261 	0 10 	-0.000170174 	0 10 	-8.50871e-05 	0 10 	0 	0
9.17387 	0.0871274 	0 9.1308 	0.0697019 	0 9.08741 	0.0522761 	0 9.04368 	0.0348502 	0 8.99963 	0.017424 	0 8.95524 	0 	0
10.0004 	0.00734859 	0 10.0024 	0.0152079 	0 10.0045 	0.0222309 	0 10.0065 	0.0292093 	0 10.0086 	0.0361436 	0 10.0135 	0.0463365 	0 10.0164 	0.040219 	0 10.0208 	0.040172 	0 10.0252 	0.0401251 	0 10.0297 	0.0400785 	0 10.0356 	0.0445396 	0 10.0385 	0.0379052 	0 10.0424 	0.0378648 	0 10.0464 	0.0378245 	0 10.0504 	0.0377841 	0 10.0545 	0.0408871 	0 10.0566 	0.0388138 	0 10.0591 	0.0401266 	0 10.0615 	0.041441 	0 10.0639 	0.042757 	0 10.0661 	0.045217 	0 10.0676 	0.0453309 	0 10.0689 	0.0465343 	0 10.0702 	0.0477388 	0 10.0715 	0.0489445 	0 10.0727 	0.0499634 	0 10.0727 	0.0500295 	0 10.0728 	0.0500956 	0 10.0729 	0.0501617 	0 10.0729 	0.0502278 	0 10.073 	0.0502839 	0 10.0735 	0.0509161 	0 10.074 	0.0515418 	0 10.0745 	0.0521681 	0 10.075 	0.052795 	0 10.0755 	0.0532573 	0 10.0754 	0.05356 	0 10.075 	0.0537569 	0 10.0747 	0.0539538 	0 10.0743 	0.0541509 	0 10.0737 	0.0541093 	0 10.0733 	0.0542635 	0 10.0722 	0.054249 	0 10.071 	0.0542344 	0 10.0699 	0.0542199 	0 10.0684 	0.0539361 	0 10.0679 	0.0540289 	0 10.0663 	0.0539074 	0 10.0646 	0.0537859 	0 10.063 	0.0536644 	0 10.0604 	0.053257 	0 10.0604 	0.0533281 	0 10.0583 	0.0531502 	0 10.0562 	0.0529722 	0 10.0542 	0.0527941 	0 10.0506 	0.0523183 	0 10.0511 	0.0523953 	0 10.0488 	0.0521984 	0 10.0464 	0.0520015 	0 10.0441 	0.0518045 	0 10.0394 	0.051303 	0 10.0408 	0.051411 	0 10.0382 	0.0512206 	0 10.0356 	0.05103 	0 10.033 	0.0508394 	0 10.0272 	0.0503325 	0 10.0296 	0.0504848 	0 10.0269 	0.050326 	0 10.0241 	0.0501672 	0 10.0214 	0.0500084 	0 10.0144 	0.0495302 	0 10.0179 	0.0497487 	0 10.0151 	0.0496327 	0 10.0122 	0.0495167 	0 10.0094 	0.0494006 	0 10.0012 	0.04895 	0 10.0059 	0.0492555 	0 10.0031 	0.0492627 	0 10.0002 	0.0492699 	0 9.99731 	0.0492771 	0 9.98788 	0.0489776 	0 9.99401 	0.0494586 	0 9.99116 	0.0495806 	0 9.9883 	0.0497027 	0 9.98545 	0.0498248 	0 9.97479 	0.0495722 	0 9.98239 	0.050206 	0 9.97972 	0.0507011 	0 9.97704 	0.0511962 	0 9.97437 	0.0516914 	0 9.96263 	0.0518897 	0 9.97201 	0.0528615 	7.642e-22 9.9703 	0.0534915 	5.37514e-21 9.9686 	0.0541217 	9.98548e-21 9.96691 	0.054752 	1.45952e-20 9.95501 	0.054791 	1.222e-20 9.96603 	0.0554062 	8.73688e-20 9.96484 	0.0554608 	8.12973e-20 9.96365 	0.0555155 	7.52264e-20 9.96247 	0.0555702 	6.91562e-20 9.95043 	0.0550225 	-1.40872e-20 9.96158 	0.0548959 	-3.82581e-20 9.96043 	0.0543892 	-4.24778e-20 9.95928 	0.0538825 	-4.66951e-20 9.95812 	0.0533758 	-5.091e-20 9.94605 	0.0525919 	-1.92399e-20 9.95675 	0.0521186 	-1.70211e-20 9.95513 	0.051199 	-1.17784e-20 9.9535 	0.0502793 	-6.53635e-21 9.95187 	0.0493596 	-1.29496e-21 9.93952 	0.0482775 	6.82644e-21 9.94977 	0.0478458 	-4.47084e-21 9.94768 	0.0467965 	-2.14911e-20 9.94558 	0.0457469 	-3.85137e-20 9.94348 	0.0446971 	-5.55388e-20 9.93082 	0.0433314 	-8.00793e-20 9.94059 	0.0430882 	-1.16654e-19 9.93803 	0.0421301 	-1.0539e-19 9.93546 	0.0411716 	-9.41177e-20 9.93288 	0.040213 	-8.28374e-20 9.91993 	0.0387357 	-2.70134e-20 9.92911 	0.0386167 	3.61697e-20 9.92606 	0.0377536 	4.85837e-20 9.92301 	0.0368903 	6.09877e-20 9.91994 	0.0360267 	7.33818e-20 9.90677 	0.0345425 	3.34537e-20 9.91529 	0.0344209 	-5.071e-20 9.91174 	0.0335861 	-5.63688e-20 9.90819 	0.032751 	-6.20121e-20 9.90463 	0.0319157 	-6.76399e-20 9.8913 	0.0304756 	-2.50852e-22 9.89903 	0.0303072 	6.39663e-20 9.89495 	0.0294886 	5.54572e-20 9.89087 	0.0286697 	4.69327e-20 9.88678 	0.0278506 	3.83929e-20 9.87336 	0.026492 	-2.47907e-20 9.88013 	0.0262727 	-7.98495e-20 9.8755 	0.0254701 	-1.00245e-19 9.87087 	0.0246672 	-1.20634e-19 9.86623 	0.0238639 	-1.41018e-19 9.85282 	0.0225971 	-1.22344e-19 9.85842 	0.022333 	-1.45899e-19 9.85323 	0.0215467 	-1.34523e-19 9.84804 	0.0207601 	-1.23142e-19 9.84284 	0.0199731 	-1.11757e-19 9.82963 	0.0187939 	-7.41547e-20 9.83377 	0.0184915 	-6.31257e-20 9.82804 	0.0177221 	-4.61694e-20 9.82229 	0.0169524 	-2.92149e-20 9.81654 	0.0161824 	-1.22623e-20 9.80379 	0.0150834 	2.5791e-21 9.80613 	0.0147341 	0 9.79986 	0.013978 	0 9.79358 	0.0132215 	0 9.78729 	0.0124647 	0 9.77534 	0.0114444 	0 9.77548 	0.0110296 	-1.39251e-20 9.76869 	0.010283 	-3.13e-20 9.76188 	0.00953604 	-4.86767e-20 9.75507 	0.00878865 	-6.60551e-20 9.74433 	0.00785633 	-8.48615e-20 9.74181 	0.00735025 	-9.29971e-20 9.73452 	0.00661115 	-9.36294e-20 9.72721 	0.00587161 	-9.42561e-20 9.7199 	0.00513162 	-9.48774e-20 9.71082 	0.00430707 	-9.22297e-20 9.7076 	0.00391035 	-6.92467e-20 9.70226 	0.0034084 	-5.09122e-20 9.69692 	0.00290622 	-3.25825e-20 9.69158 	0.00240381 	-1.42576e-20 9.68646 	0.00192235 	3.29048e-21 9.68394 	0.00168694 	1.18244e-20 9.68142 	0.00145148 	2.03572e-20 9.6789 	0.00121596 	2.88891e-20 9.67637 	0.000980386 	3.74199e-20 9.67181 	0.000651983 	4.78485e-20 9.66536 	3.35289e-06 	4.87805e-20 9.65703 	-0.000727921 	4.97667e-20 9.6487 	-0.00145977 	5.07506e-20 9.64035 	-0.00219218 	5.17322e-20 9.62375 	-0.00327902 	5.38073e-20 9.62248 	-0.00370064 	4.26066e-20 9.61372 	-0.00443197 	3.14042e-20 9.60495 	-0.00516391 	2.02005e-20 9.59616 	-0.00589649 	8.9956e-21 9.57332 	-0.00718933 	-6.77002e-22 9.57688 	-0.00743792 	-8.52058e-21 9.56772 	-0.00817169 	-1.92218e-20 9.55855 	-0.00890613 	-2.99217e-20 9.54936 	-0.00964126 	-4.06203e-20 9.52087 	-0.0110806 	-5.13294e-20 9.52879 	-0.0112117 	-5.27346e-20 9.51926 	-0.011949 	-5.9392e-20 9.50972 	-0.0126871 	-6.60459e-20 9.50016 	-0.0134259 	-7.26965e-20 9.46673 	-0.0149477 	-8.7935e-20 9.47843 	-0.0150186 	-1.27286e-19 9.46857 	-0.0157609 	-1.18547e-19 9.45868 	-0.016504 	-1.09822e-19 9.44879 	-0.0172479 	-1.01112e-19 9.41117 	-0.018789 	-3.73395e-20 9.42606 	-0.018858 	-2.46634e-20 9.41589 	-0.019607 	-1.74749e-20 9.4057 	-0.0203568 	-1.02855e-20 9.39549 	-0.0211075 	-3.09529e-21 9.35448 	-0.0226066 	0 9.37194 	-0.022733 	0 9.3615 	-0.0234893 	0 9.35104 	-0.0242465 	0 9.34056 	-0.0250047 	0 9.29692 	-0.0263988 	0 9.31637 	-0.0266371 	2.02531e-21 9.30569 	-0.0274 	8.68768e-21 9.29498 	-0.0281638 	1.53492e-20 9.28426 	-0.0289286 	2.20098e-20 9.23874 	-0.0301589 	3.74648e-20 9.25962 	-0.0305562 	1.36185e-19 9.24872 	-0.0313245 	1.38928e-19 9.23781 	-0.0320937 	1.41688e-19 9.22688 	-0.0328639 	1.44465e-19 9.18016 	-0.0338803 	3.76501e-20 9.20196 	-0.0344759 	2.08058e-20 9.19088 	-0.0352485 	1.47572e-20 9.17978 	-0.0360222 	8.7076e-21 9.16866 	-0.0367968 	2.65698e-21 9.12136 	-0.0375576 	1.48868e-20 9.14272 	-0.0383811 	9.4793e-20 9.13242 	-0.0391588 	9.83083e-20 9.12116 	-0.0399361 	9.96043e-20 9.10674 	-0.0406879 	9.23143e-20 9.06253 	-0.0411886 	3.41859e-21 9.08065 	-0.042229 	-9.09791e-20 9.07357 	-0.0430465 	-1.12611e-19 9.06218 	-0.0438269 	-1.2185e-19 9.04464 	-0.0445013 	-1.16305e-19 9.00384 	-0.0447714 	-5.47004e-20 9.01898 	-0.0459995 	-1.61745e-19 9.01458 	-0.0469006 	-1.91923e-19 9.00308 	-0.0476838 	-1.94239e-19 8.98308 	-0.048236 	-1.58166e-19 8.94543 	-0.0483071 	-4.23495e-20 8.95786 	-0.0496981 	-2.21049e-20 8.95565 	-0.0507205 	-1.02089e-20 8.94407 	-0.0515075 	-3.64793e-21 8.9222 	-0.0519015 	0 8.88744 	-0.0518027 	0 8.89744 	-0.0533323 	0 8.89698 	-0.054506 	0 8.88534 	-0.0552985 	0 8.86212 	-0.0555081 	1.70214e-21 8.83001 	-0.0552699 	4.71055e-21 8.83782 	-0.0569202 	1.85082e-21 8.83874 	-0.0582709 	0 8.82706 	-0.0590699 	0 8.80293 	-0.0590727 	2.0797e-21 8.77322 	-0.058718 	5.09241e-21 8.77908 	-0.0604643 	2.23278e-21 8.78106 	-0.0620051 	1.29392e-21 8.76936 	-0.0628084 	7.20151e-21 8.74471 	-0.0625886 	2.20166e-20 8.71717 	-0.0621403 	3.88196e-20 8.7213 	-0.0639566 	1.53367e-19 8.72407 	-0.0656915 	2.58798e-19 8.71237 	-0.0664962 	2.622e-19 8.68751 	-0.0660479 	1.53867e-19 8.66194 	-0.0655298 	3.93453e-20 8.66453 	-0.0673984 	2.2811e-20 8.66706 	-0.0692689 	6.27836e-21 8.65523 	-0.0700283 	2.32076e-22 8.63141 	-0.0694638 	3.12472e-21 8.6076 	-0.0688988 	6.01722e-21 8.60885 	-0.070814 	3.28382e-21 8.61004 	-0.0727311 	5.51393e-22 8.59869 	-0.0734603 	2.01573e-21 8.57643 	-0.0728555 	-1.44327e-21 8.5542 	-0.0722502 	-4.90136e-21 8.55429 	-0.0741968 	-4.45117e-20 8.55432 	-0.0761454 	-8.41266e-20 8.54348 	-0.0768421 	-8.54475e-20 8.52262 	-0.0762066 	-4.92364e-20 8.50177 	-0.0755706 	-1.30233e-20 8.50086 	-0.0775252 	7.70495e-20 8.49988 	-0.0794817 	1.67116e-19 8.48959 	-0.0801489 	1.74947e-19 8.46996 	-0.0795116 	9.97933e-20 8.45034 	-0.0788739 	2.46391e-20 8.44855 	-0.0808288 	1.41668e-20 8.44669 	-0.0827856 	3.69061e-21 8.43696 	-0.0834286 	-1.1362e-22 8.41843 	-0.0828059 	4.15794e-21 8.39991 	-0.0821828 	8.43082e-21 8.39734 	-0.0841271 	3.2262e-21 8.39471 	-0.0860733 	-1.98412e-21 8.38554 	-0.0866953 	-1.81168e-20 8.368 	-0.086102 	-6.35887e-20 8.35047 	-0.0855084 	-1.09063e-19 8.34722 	-0.0874388 	-2.27723e-19 8.3439 	-0.089371 	-3.46377e-19 8.33529 	-0.0899753 	-3.31549e-19 8.31865 	-0.0894185 	-1.95502e-19 8.30201 	-0.0888614 	-5.94533e-20 8.29815 	-0.0907761 	5.32562e-20 8.29382 	-0.0925743 	1.55882e-19 8.28526 	-0.0931433 	1.53522e-19 8.27036 	-0.0927654 	8.20066e-20 8.25453 	-0.0922489 	3.87684e-22 8.25013 	-0.0941478 	-8.05294e-20 8.2447 	-0.0957288 	-1.43772e-19 8.23625 	-0.0963145 	-1.51889e-19 8.2231 	-0.0961513 	-1.04565e-19 8.20801 	-0.0956775 	-3.42734e-20 8.20312 	-0.0975607 	-2.4259e-20 8.19682 	-0.0989317 	-1.43303e-20 8.18847 	-0.099535 	-4.52707e-21 8.17685 	-0.0995826 	1.00313e-20 8.16242 	-0.0991531 	2.86717e-20 8.15709 	-0.101021 	8.74539e-21 8.15012 	-0.10219 	-2.92157e-21 8.14186 	-0.102812 	-8.12806e-21 8.13155 	-0.103066 	-6.47411e-21 8.11773 	-0.102682 	7.07828e-21 8.11202 	-0.104536 	-8.1687e-21 8.10453 	-0.105511 	-1.64834e-20 8.09635 	-0.106152 	-2.21641e-20 8.08719 	-0.106608 	-3.04567e-20 8.07391 	-0.106269 	-4.98993e-20 8.06785 	-0.108111 	4.76975e-20 8.05998 	-0.108901 	5.99332e-20 8.05188 	-0.109562 	6.17064e-20 8.0437 	-0.110214 	6.26224e-20 8.03092 	-0.109923 	-2.09019e-20 8.02444 	-0.111684 	5.64699e-20 8.01643 	-0.112366 	5.87944e-20 8.00839 	-0.113049 	6.11058e-20 8.00032 	-0.113732 	6.34041e-20 7.98872 	-0.113648 	7.27863e-21 7.98177 	-0.11521 	-3.55284e-22 7.97381 	-0.115914 	-2.49564e-22 7.96582 	-0.116618 	-1.43861e-22 7.9578 	-0.117323 	-3.81765e-23 7.94728 	-0.117452 	1.13894e-20 7.93997 	-0.118822 	0 7.93206 	-0.119549 	0 7.92412 	-0.120277 	0 7.91615 	-0.121004 	0 7.90655 	-0.121339 	8.0344e-21 7.899 	-0.122527 	0 7.89112 	-0.123277 	0 7.88322 	-0.124028 	0 7.87528 	-0.124779 	0 7.86649 	-0.125316 	0 7.85879 	-0.126329 	0 7.85094 	-0.127103 	0 7.84306 	-0.127878 	0 7.83515 	-0.128654 	0 7.82705 	-0.129387 	-8.87587e-22 7.8251 	-0.129636 	0 7.82313 	-0.129837 	0 7.82116 	-0.130039 	0 7.81919 	-0.130241 	0 7.81724 	-0.13044 	0 7.81119 	-0.13104 	0 7.80512 	-0.131641 	0 7.79904 	-0.132243 	0 7.79293 	-0.132844 	0 7.78754 	-0.133304 	0 7.77923 	-0.13426 	0 7.77116 	-0.135089 	0 7.76306 	-0.135918 	0 7.75493 	-0.136748 	0 7.74844 	-0.137252 	0 7.73977 	-0.138403 	-5.24392e-21 7.7317 	-0.139259 	-1.3669e-20 7.7236 	-0.140116 	-2.20921e-20 7.71547 	-0.140973 	-3.05134e-20 7.70992 	-0.141328 	-3.89545e-20 7.70087 	-0.142669 	-3.31755e-20 7.6928 	-0.143555 	-3.2461e-20 7.68469 	-0.144441 	-3.17425e-20 7.67654 	-0.145328 	-3.10199e-20 7.67192 	-0.145541 	-3.73164e-20 7.66248 	-0.147068 	-2.80792e-20 7.65439 	-0.147985 	-1.88086e-20 7.64627 	-0.148903 	-9.53597e-21 7.63811 	-0.149821 	-2.61264e-22 7.63439 	-0.149899 	0 7.62466 	-0.151563 	0 7.61645 	-0.152556 	-3.84451e-21 7.6083 	-0.153505 	-7.93846e-21 7.60097 	-0.154297 	-1.20348e-20 7.5973 	-0.154404 	-1.61456e-20 7.58756 	-0.15608 	-4.59185e-20 7.57893 	-0.15727 	-6.69007e-20 7.57076 	-0.158252 	-8.4123e-20 7.56437 	-0.158901 	-8.85797e-20 7.56061 	-0.159063 	-7.44282e-20 7.55086 	-0.160752 	-5.23879e-20 7.5418 	-0.162135 	-3.58123e-20 7.53359 	-0.163152 	-2.57572e-20 7.52813 	-0.163665 	-3.51247e-20 7.52428 	-0.163882 	-5.58696e-20 7.5145 	-0.165589 	-6.76517e-20 7.505 	-0.167161 	-7.37727e-20 7.49676 	-0.168213 	-5.8038e-20 7.49221 	-0.168597 	-3.14444e-20 7.48826 	-0.16887 	-3.06342e-21 7.47846 	-0.170595 	3.14586e-22 7.46859 	-0.172321 	3.68703e-21 7.46061 	-0.173374 	0 7.45657 	-0.173704 	0 7.45252 	-0.174034 	0 7.44269 	-0.175781 	0 7.43279 	-0.177528 	0 7.42533 	-0.178607 	0 7.42119 	-0.178994 	0 7.41703 	-0.17938 	0 7.40716 	-0.18115 	0 7.39722 	-0.182921 	0 7.39027 	-0.184028 	-6.21511e-21 7.38602 	-0.184472 	-2.11383e-20 7.38174 	-0.184917 	-3.60603e-20 7.37183 	-0.186714 	-1.95256e-20 7.36186 	-0.188511 	-2.98349e-21 7.3554 	-0.189648 	5.16904e-22 7.35102 	-0.19015 	3.91794e-21 7.34663 	-0.190653 	7.31867e-21 7.33667 	-0.19248 	3.44797e-20 7.32694 	-0.194256 	5.952e-20 7.32089 	-0.195394 	5.79357e-20 7.31616 	-0.196039 	4.69933e-20 7.31164 	-0.196603 	3.45151e-20 7.30163 	-0.198463 	1.38745e-20 7.29288 	-0.200099 	2.68429e-21 7.28673 	-0.201285 	1.04295e-20 7.28142 	-0.202154 	1.81649e-20 7.27677 	-0.202782 	2.58935e-20 7.26671 	-0.204681 	7.85697e-20 7.25892 	-0.206184 	9.83055e-20 7.25266 	-0.207419 	9.58871e-20 7.24677 	-0.208507 	8.00631e-20 7.24198 	-0.209196 	2.81481e-20 7.23186 	-0.211132 	2.13242e-20 7.22503 	-0.212501 	2.08976e-20 7.21866 	-0.213785 	2.14422e-20 7.21224 	-0.215069 	2.1992e-20 7.20724 	-0.215838 	2.92222e-20 7.19762 	-0.217718 	7.24669e-20 7.19118 	-0.219053 	6.99854e-20 7.18469 	-0.220388 	6.74882e-20 7.17815 	-0.221723 	6.49752e-20 7.17253 	-0.222722 	3.15773e-20 7.1639 	-0.22447 	2.49276e-20 7.15733 	-0.225861 	1.81477e-20 7.15073 	-0.227252 	1.13706e-20 7.14407 	-0.228643 	4.59634e-21 7.13784 	-0.229872 	0 7.13037 	-0.231452 	0 7.1239 	-0.232858 	0 7.11738 	-0.234264 	0 7.11082 	-0.235671 	0 7.10463 	-0.236987 	0 7.10432 	-0.23705 	0 7.10401 	-0.237113 	0 7.1037 	-0.237176 	0 7.10339 	-0.237239 	0 7.10314 	-0.237295 	0 7.09612 	-0.238814 	0 7.08907 	-0.240325 	0 7.08198 	-0.241837 	0 7.07483 	-0.243348 	0 7.06912 	-0.24469 	-1.13266e-21 7.06116 	-0.246423 	3.89169e-21 7.05399 	-0.248002 	1.00971e-20 7.04675 	-0.249581 	1.62993e-20 7.03947 	-0.25116 	2.24985e-20 7.03508 	-0.252408 	2.64487e-20 7.02616 	-0.254354 	5.24129e-21 7.01884 	-0.256003 	8.59526e-21 7.01147 	-0.257652 	1.19271e-20 7.00404 	-0.2593 	1.52367e-20 7.00099 	-0.260459 	4.92138e-20 6.99134 	-0.262571 	1.27733e-20 6.9836 	-0.264342 	-4.97231e-22 6.97608 	-0.266064 	-1.05101e-20 6.96991 	-0.267634 	-8.69926e-21 6.96681 	-0.268866 	1.93068e-20 6.95702 	-0.271044 	1.51503e-20 6.94824 	-0.273042 	1.23349e-20 6.94056 	-0.274844 	1.09636e-20 6.93578 	-0.276331 	1.63791e-20 6.93251 	-0.277653 	2.53706e-20 6.92258 	-0.279905 	1.59205e-20 6.91272 	-0.282129 	7.08303e-21 6.90491 	-0.284014 	6.12748e-21 6.90151 	-0.285434 	1.82509e-20 6.89807 	-0.286853 	3.03758e-20 6.88798 	-0.289185 	4.19788e-20 6.87781 	-0.291516 	5.35814e-20 6.87066 	-0.293449 	4.86776e-20 6.86708 	-0.294967 	2.79946e-20 6.86344 	-0.296485 	7.30999e-21 6.85319 	-0.298896 	4.71108e-21 6.84285 	-0.301307 	2.11453e-21 6.83621 	-0.303313 	0 6.83243 	-0.304933 	0 6.8286 	-0.306553 	0 6.81818 	-0.309047 	0 6.80822 	-0.311486 	3.64294e-22 6.80206 	-0.313545 	3.35065e-21 6.79754 	-0.315355 	-1.71511e-21 6.7935 	-0.317088 	-9.2816e-21 6.7829 	-0.319674 	7.39503e-22 6.77448 	-0.322043 	7.36604e-21 6.76811 	-0.324206 	1.07835e-20 6.76234 	-0.326276 	1.48723e-20 6.75808 	-0.328124 	2.05675e-20 6.7473 	-0.330811 	1.59259e-20 6.74044 	-0.33313 	1.63083e-20 6.73388 	-0.335415 	1.71532e-20 6.72723 	-0.337699 	1.80056e-20 6.7223 	-0.339742 	3.12509e-20 6.71277 	-0.34243 	1.71173e-20 6.70605 	-0.344855 	9.44177e-21 6.69924 	-0.347279 	1.76845e-21 6.69236 	-0.349702 	-5.90264e-21 6.68604 	-0.352038 	-1.2067e-20 6.68105 	-0.353594 	-2.3508e-20 6.67709 	-0.355053 	-2.63843e-20 6.67311 	-0.356511 	-2.92532e-20 6.6691 	-0.357969 	-3.21146e-20 6.66525 	-0.359357 	-3.48312e-20 6.66194 	-0.360464 	-3.76631e-20 6.65861 	-0.361571 	-4.04929e-20 6.65526 	-0.362677 	-4.33206e-20 6.6519 	-0.363783 	-4.61462e-20 6.64904 	-0.364819 	-4.95485e-20 6.64116 	-0.36756 	-4.32895e-20 6.6334 	-0.370236 	-3.87061e-20 6.62556 	-0.37291 	-3.41069e-20 6.61762 	-0.375583 	-2.94918e-20 6.61135 	-0.378027 	-3.60412e-20 6.60261 	-0.381056 	-7.59788e-21 6.59451 	-0.383876 	8.126e-22 6.58632 	-0.386694 	9.25117e-21 6.57845 	-0.389457 	1.19113e-20 6.57265 	-0.391944 	-1.53718e-20 6.56339 	-0.395151 	-8.45383e-21 6.55452 	-0.398226 	-3.77615e-21 6.54595 	-0.401191 	-9.46132e-22 6.53899 	-0.403945 	0 6.53281 	-0.406592 	0 6.52316 	-0.409943 	0 6.5134 	-0.413291 	0 6.5048 	-0.416378 	0 6.4983 	-0.419195 	0 6.4917 	-0.422011 	0 6.48163 	-0.425518 	0 6.47144 	-0.429023 	0 6.46317 	-0.432269 	-3.15992e-22 6.45622 	-0.435257 	-2.1981e-21 6.44916 	-0.438244 	-4.07841e-21 6.43863 	-0.441911 	1.66763e-20 6.42869 	-0.445497 	2.96104e-20 6.42046 	-0.448882 	2.25444e-20 6.41256 	-0.452159 	6.73531e-21 6.40501 	-0.455326 	-1.82436e-20 6.39399 	-0.45916 	-1.20404e-20 6.38502 	-0.462764 	-8.2165e-21 6.37628 	-0.466328 	-4.79254e-21 6.36741 	-0.469888 	-1.37405e-21 6.35908 	-0.473299 	2.23195e-21 6.34952 	-0.476835 	1.32699e-21 6.34124 	-0.480228 	5.86029e-21 6.33285 	-0.483618 	1.0398e-20 6.32435 	-0.487006 	1.49401e-20 6.31649 	-0.490096 	1.90913e-20 6.31549 	-0.490508 	2.00225e-20 6.31449 	-0.49092 	2.09541e-20 6.31348 	-0.491333 	2.18862e-20 6.31248 	-0.491745 	2.28188e-20 6.31148 	-0.492138 	2.04809e-20 6.30249 	-0.496082 	9.95121e-21 6.29329 	-0.500003 	-3.94957e-22 6.28397 	-0.503919 	-1.07632e-20 6.27451 	-0.507832 	-2.11537e-20 6.265 	-0.511564 	-3.10165e-20 6.2561 	-0.515874 	-5.55855e-20 6.24628 	-0.519982 	-6.16247e-20 6.23632 	-0.524085 	-6.77216e-20 6.22625 	-0.528106 	-6.15536e-20 6.21608 	-0.531954 	-2.84281e-20 6.2066 	-0.536471 	-1.55837e-20 6.19679 	-0.540935 	-3.89101e-21 6.18614 	-0.545224 	3.76265e-21 6.17536 	-0.54927 	7.29616e-21 6.16443 	-0.553307 	1.0702e-20 6.15425 	-0.558002 	3.65728e-20 6.14392 	-0.562693 	6.24354e-20 6.13314 	-0.567167 	6.19421e-20 6.12155 	-0.571403 	3.48765e-20 6.10981 	-0.575638 	7.78518e-21 6.09887 	-0.580519 	3.2117e-21 6.08772 	-0.585314 	-2.68263e-21 6.07634 	-0.589957 	-1.09252e-20 6.06452 	-0.594532 	-1.91453e-20 6.05188 	-0.598951 	-2.73011e-20 6.04008 	-0.603987 	-2.23566e-20 6.02797 	-0.608817 	-2.48616e-20 6.01569 	-0.613642 	-2.73923e-20 6.00323 	-0.618461 	-2.99489e-20 5.99038 	-0.623233 	-3.37538e-20 5.98796 	-0.624216 	-3.23387e-20 5.98551 	-0.625166 	-2.97502e-20 5.98305 	-0.626116 	-2.71619e-20 5.98058 	-0.627066 	-2.45736e-20 5.97816 	-0.627997 	-2.20378e-20 5.96813 	-0.632048 	-1.08911e-20 5.95799 	-0.636095 	2.54959e-22 5.94773 	-0.640138 	1.14004e-20 5.93735 	-0.644177 	2.25451e-20 5.92686 	-0.648092 	2.64393e-20 5.91434 	-0.653456 	4.56478e-20 5.90097 	-0.658617 	4.94654e-20 5.88741 	-0.663772 	5.33056e-20 5.87365 	-0.668844 	4.32418e-20 5.85966 	-0.673802 	1.25224e-20 5.84621 	-0.67936 	9.89973e-21 5.83255 	-0.68491 	7.23925e-21 5.81794 	-0.69019 	1.80814e-21 5.80297 	-0.695279 	6.3018e-21 5.78779 	-0.700367 	1.08038e-20 5.77321 	-0.706053 	3.10872e-20 5.75841 	-0.711714 	4.9571e-20 5.74322 	-0.717135 	4.25186e-20 5.7273 	-0.722374 	2.17923e-20 5.71083 	-0.727512 	-6.91134e-21 5.69505 	-0.733244