/*--------------------------------*- C++ -*----------------------------------*\
  =========                 |
  \\      /  F ield         | OpenFOAM: The Open Source CFD Toolbox
   \\    /   O peration     | Website:  https://openfoam.org
    \\  /    A nd           | Version:  8
     \\/     M anipulation  |
\*---------------------------------------------------------------------------*/
FoamFile
{
    version     2.0;
    format      ascii;
    class       volScalarField;
    location    "10";
    object      p;
}
// * * * * * * * * * * * * * * * * * * * * * * * * * * * * * * * * * * * * * //

dimensions      [0 2 -2 0 0 0 0];

internalField   nonuniform List<scalar> 
404911
(
20.0007
19.9709
19.9673
19.9869
20.0356
19.9942
19.9784
19.984
19.9855
19.9863
20.3094
20.2417
20.1552
20.0934
20.0358
20.0026
20.4106
20.3436
20.2717
20.1994
20.5462
20.4744
20.3948
20.6882
20.6256
20.5609
20.8176
20.75
20.696
21.0205
20.9586
20.8838
20.8078
20.7403
21.1
21.0271
20.9511
21.3299
21.2593
21.187
21.1153
21.4401
21.3893
21.3218
21.259
21.204
21.5107
21.4503
21.3814
21.3145
21.6347
21.5781
21.5058
21.4422
21.6559
21.6253
22.1198
19.9254
20.0051
19.9594
20.2252
20.1568
20.4134
20.3406
20.272
20.5483
20.4725
20.3976
20.6863
20.6196
20.8165
20.744
20.6864
20.9546
20.8812
20.7982
20.7337
21.0992
21.0243
21.2607
21.1863
21.3952
21.3243
21.2559
21.5359
21.4681
21.6635
21.6005
21.5179
21.7033
21.6582
22.112
22.1634
22.1041
22.372
22.2958
22.2282
22.4999
22.4336
22.3517
22.6175
22.562
22.5047
22.6129
8.93661
8.83206
8.73274
9.44166
9.32163
9.18547
9.09113
8.99379
8.89606
8.81294
8.6844
9.7098
9.6163
9.38466
9.24481
9.12238
9.04502
8.94934
8.85188
8.47846
10.0413
9.94425
9.85207
9.75902
9.67198
9.60332
9.4653
9.31493
9.18515
9.09813
9.00353
8.89277
8.75162
8.60485
8.50215
8.41647
10.3021
10.1922
10.0855
9.98656
9.89316
9.80231
9.71369
9.62785
9.53969
9.39598
9.27217
9.16845
9.07167
8.96602
8.52648
10.5886
10.4653
10.3464
10.2305
10.1188
10.0203
9.92897
9.84046
9.75134
9.65965
9.55738
9.44803
9.33775
9.23328
9.15263
10.7633
10.6655
10.5369
10.4154
10.2969
10.17
10.0548
9.96228
9.88084
9.79431
9.70094
9.60283
9.49863
9.39373
9.28924
9.19778
11.0619
10.9441
10.8374
10.7257
10.605
10.4862
10.3659
10.2353
10.1115
10.002
9.92776
9.84005
9.7473
9.65046
9.55018
9.4481
9.34876
11.4593
11.3458
11.2521
11.1317
11.0174
10.9041
10.7904
10.6721
10.554
10.4318
10.2917
10.168
10.0655
9.98082
9.89125
9.79713
9.7026
9.60273
11.6454
11.5415
11.4194
11.3115
11.2031
11.0849
10.9765
10.8547
10.7345
10.6163
10.496
10.355
10.2018
10.1224
10.0371
9.94519
9.85079
9.75623
11.9244
11.8219
11.7259
11.6188
11.4947
11.3797
11.2702
11.1569
11.041
10.9203
10.7976
10.6826
10.5637
10.4312
10.2837
10.1731
10.0949
10.0077
12.1005
11.9916
11.8886
11.7913
11.6794
11.5573
11.4512
11.3327
11.2174
11.1068
10.9866
10.866
10.7459
10.6271
10.5188
10.3732
10.2394
12.3673
12.2688
12.1637
12.0653
11.9609
11.8558
11.7434
11.6258
11.5186
11.3999
11.2852
11.1678
11.0519
10.9338
10.8127
10.6933
10.6011
12.6065
12.5053
12.4189
12.3409
12.2515
12.1401
12.0291
11.9233
11.8177
11.7059
11.5968
11.4689
11.349
11.23
11.1266
11.0033
10.8746
10.7655
12.9042
12.8135
12.6876
12.5672
12.467
12.4147
12.3176
12.2095
12.0972
11.9904
11.8992
11.7821
11.6614
11.5362
11.415
11.281
11.1819
11.0778
13.1246
13.0448
12.9685
12.9003
12.7754
12.6429
12.5283
12.4673
12.3874
12.2779
12.1642
12.0554
11.9808
11.8674
11.7225
11.5954
11.4867
11.3532
13.2688
13.1783
13.0956
13.0195
12.949
12.8399
12.7181
12.6143
12.517
12.4394
12.3186
12.2043
12.1151
12.0466
11.9317
11.7848
11.6421
11.5429
13.5061
13.416
13.3215
13.2289
13.1463
13.06
12.9781
12.9039
12.795
12.6949
12.5886
12.5024
12.3894
12.2668
12.1589
12.098
11.9988
11.854
13.6573
13.5564
13.4717
13.3854
13.2821
13.1874
13.1208
13.0167
12.9238
12.851
12.7739
12.6895
12.5774
12.4632
12.3443
12.2235
12.1434
12.052
13.9516
13.8648
13.7477
13.6367
13.5374
13.4624
13.3652
13.2589
13.1653
13.0614
12.9599
12.8946
12.8263
12.7524
12.6686
12.545
12.4131
12.3008
14.0951
14.0182
13.9568
13.8443
13.7318
13.6343
13.5412
13.4416
13.3338
13.2294
13.1184
13.0111
12.944
12.8705
12.7971
12.7078
12.6061
14.2992
14.2253
14.1494
14.0744
14.0072
13.9236
13.8129
13.7193
13.6225
13.5142
13.4047
13.2971
13.1861
13.0729
13.0046
12.9277
12.8467
12.7595
14.4375
14.3577
14.279
14.2041
14.1281
14.063
13.9731
13.882
13.8006
13.7121
13.5999
13.4911
13.3703
13.2523
13.147
13.0636
12.987
12.9059
14.5659
14.4899
14.4159
14.342
14.2556
14.1719
14.1041
14.0254
13.9372
13.8715
13.8025
13.691
13.5701
13.45
13.3296
13.2289
13.1332
13.0485
14.7797
14.6999
14.6234
14.547
14.4737
14.4054
14.3347
14.2358
14.1421
14.0605
13.9783
13.9116
13.8386
13.7655
13.6507
13.5214
13.4099
13.3044
14.9792
14.9057
14.8301
14.754
14.6815
14.6061
14.53
14.4542
14.3856
14.2985
14.2108
14.1239
14.0219
13.955
13.8812
13.8023
13.699
13.591
15.1075
15.0315
14.9581
14.8848
14.8119
14.7381
14.6671
14.5976
14.5037
14.4133
14.3399
14.2707
14.1851
14.0783
14.0061
13.9327
13.85
13.7578
15.3006
15.2296
15.1564
15.0847
15.0116
14.9382
14.8654
14.7932
14.7254
14.6619
14.575
14.4879
14.405
14.3167
14.2456
14.1526
14.0636
13.989
15.4203
15.3504
15.2799
15.2087
15.1365
15.0625
14.9904
14.9183
14.8468
14.7783
14.7137
14.6375
14.5572
14.4743
14.382
14.3052
14.2182
14.1309
15.5462
15.4697
15.3975
15.3313
15.2612
15.1864
15.1109
15.0402
14.9705
14.8999
14.829
14.7576
14.6824
14.6033
14.5215
14.4391
14.356
14.2693
15.6809
15.6094
15.5212
15.4443
15.3847
15.3177
15.2354
15.154
15.0866
15.0216
14.9525
14.8808
14.8076
14.7317
14.6552
14.5724
14.4896
14.4088
15.8746
15.806
15.7432
15.6816
15.5964
15.5072
15.446
15.3863
15.3049
15.2138
15.1375
15.0755
15.0068
14.9347
14.8614
14.7863
14.7087
14.6239
16.0054
15.9324
15.8601
15.7913
15.7233
15.649
15.5732
15.5069
15.4491
15.3745
15.2826
15.1993
15.1332
15.0632
14.991
14.9173
14.8434
14.7682
16.1332
16.064
15.9904
15.9179
15.8406
15.7623
15.6889
15.6234
15.5582
15.4956
15.4277
15.3468
15.2655
15.1923
15.1196
15.0484
14.9735
14.9026
16.2579
16.1888
16.1194
16.0493
15.9816
15.9066
15.8135
15.7304
15.672
15.6089
15.5426
15.4742
15.3996
15.3236
15.2498
15.1761
15.1042
16.4605
16.3905
16.3176
16.2458
16.1737
16.1026
16.0408
15.9771
15.8816
15.7827
15.721
15.6607
15.5952
15.5267
15.4552
15.3822
15.3075
15.2306
16.5898
16.5181
16.4477
16.3784
16.3043
16.2275
16.1495
16.0869
16.0328
15.946
15.8372
15.7702
15.7134
15.6497
15.5818
15.5115
15.4396
15.3679
16.7078
16.6424
16.5752
16.5093
16.4429
16.3693
16.2871
16.2144
16.1329
16.0789
16.0132
15.9207
15.8302
15.7707
15.7069
15.6388
15.568
15.4959
16.8913
16.8281
16.762
16.6981
16.6327
16.5681
16.5093
16.4458
16.3578
16.2767
16.1957
16.1301
16.077
15.9928
15.9
15.8326
15.7661
15.6961
17.0106
16.946
16.8824
16.8177
16.7542
16.6895
16.6263
16.5692
16.5093
16.4222
16.3394
16.2488
16.1753
16.1223
16.0534
15.974
15.8976
15.8206
17.1328
17.0672
17.0019
16.9375
16.8727
16.8085
16.7448
16.6818
16.6228
16.5643
16.4991
16.4058
16.3199
16.2323
16.174
16.1084
16.0347
15.962
17.2567
17.1899
17.124
17.0584
16.9937
16.9283
16.8639
16.8006
16.7353
16.6684
16.6077
16.5509
16.4679
16.3838
16.2983
16.2348
16.1666
16.0936
17.3804
17.3162
17.2467
17.18
17.1135
17.0491
16.9844
16.9202
16.8589
16.794
16.713
16.6466
16.5945
16.5275
16.445
16.3717
16.3012
17.5656
17.5011
17.4362
17.3697
17.303
17.2355
17.1674
17.1021
17.0393
16.9769
16.9186
16.8662
16.7865
16.7111
16.6369
16.5807
16.5084
16.4364
17.6812
17.6186
17.5559
17.4931
17.4277
17.3617
17.2927
17.2175
17.1481
17.0902
17.0334
16.9759
16.9248
16.8644
16.7784
16.7009
16.6361
16.5674
17.8008
17.7375
17.6741
17.6124
17.5485
17.485
17.4233
17.3633
17.2767
17.1988
17.1413
17.0879
17.0288
16.9702
16.9087
16.8368
16.7633
16.6948
17.9205
17.8565
17.7933
17.7295
17.667
17.6029
17.5409
17.4817
17.4282
17.3587
17.277
17.2032
17.1451
17.0836
17.0205
16.9553
16.8879
16.8212
18.0449
17.9784
17.913
17.8489
17.7854
17.7215
17.6569
17.5949
17.5346
17.4771
17.4143
17.3422
17.2703
17.2056
17.1406
17.0776
17.0084
16.939
18.1714
18.1026
18.0349
17.9688
17.9048
17.8404
17.7751
17.7097
17.6464
17.5854
17.5237
17.4614
17.3954
17.3285
17.2637
17.1986
17.1329
17.0658
18.299
18.2316
18.1581
18.0867
18.0213
17.9585
17.8943
17.827
17.7587
17.6944
17.6354
17.5753
17.5141
17.4504
17.3859
17.3216
17.2568
17.1904
18.4209
18.3579
18.2933
18.2126
18.1336
18.0687
18.0085
17.949
17.8777
17.8049
17.7375
17.6828
17.629
17.5694
17.507
17.4433
17.3792
17.3159
18.6072
18.5456
18.481
18.4199
18.3632
18.2976
18.2011
18.1208
18.0548
18.0039
17.9519
17.8753
17.8021
17.7385
17.6851
17.6258
17.5637
17.5005
17.4371
18.7247
18.6643
18.6013
18.5381
18.4795
18.4251
18.3702
18.2833
18.1997
18.1252
18.0551
18.0088
17.9453
17.8716
17.8026
17.7444
17.6835
17.6221
18.7823
18.7211
18.6592
18.5972
18.536
18.4789
18.4246
18.3544
18.273
18.1976
18.1267
18.0562
18.0048
17.9389
17.8687
17.8057
17.7411
18.9693
18.9064
18.8425
18.7792
18.7159
18.6524
18.5898
18.5316
18.4798
18.4194
18.3335
18.2601
18.1879
18.1136
18.0567
17.9937
17.9287
17.8645
19.0876
19.0245
18.9626
18.9007
18.8373
18.7733
18.7082
18.6411
18.5805
18.5314
18.4755
18.3924
18.3201
18.2436
18.1796
18.1165
18.0521
17.9836
19.2045
19.1413
19.0806
19.0194
18.9582
18.896
18.8339
18.7682
18.6883
18.6223
18.5773
18.5311
18.4561
18.3817
18.3078
18.2431
18.177
18.1131
19.2511
19.195
19.1377
19.0774
19.0161
18.9544
18.8961
18.8418
18.7599
18.6813
18.6215
18.5739
18.5111
18.4396
18.369
18.3021
18.2375
19.4073
19.3154
19.2481
19.1971
19.1371
19.0737
19.0108
18.9529
18.9017
18.822
18.7416
18.6753
18.6205
18.5597
18.4931
18.4261
18.361
19.6691
19.575
19.4866
19.3985
19.3159
19.2595
19.1981
19.1316
19.0608
19.002
18.9526
18.8803
18.7946
18.7347
18.6748
18.6138
18.5465
18.4804
19.7808
19.7251
19.6467
19.5569
19.4692
19.388
19.3231
19.2622
19.1957
19.1167
19.0503
19.0003
18.9427
18.8639
18.7955
18.7315
18.6692
19.9012
19.8366
19.7639
19.6875
19.6097
19.52
19.4428
19.382
19.3258
19.2685
19.1898
19.1164
19.0503
18.9919
18.9245
18.8547
18.7887
20.0979
20.0275
19.9591
19.8941
19.8219
19.7401
19.6667
19.5901
19.5012
19.4365
19.373
19.316
19.2544
19.1863
19.1135
19.0498
18.9837
18.9162
20.2217
20.1515
20.0796
20.0155
19.9538
19.8853
19.8157
19.74
19.6602
19.5688
19.5152
19.4395
19.3554
19.2942
19.236
19.1731
19.1097
19.0451
20.3576
20.2733
20.2025
20.1404
20.0713
20.0125
19.9468
19.8851
19.8136
19.7311
19.6521
19.5819
19.5096
19.4324
19.3464
19.2882
19.2313
19.1689
20.5032
20.4353
20.3497
20.2748
20.2078
20.1427
20.0765
20.0051
19.9358
19.8724
19.7987
19.7247
19.6534
19.5822
19.5066
19.4225
19.3531
19.292
20.7015
20.6335
20.5615
20.4935
20.416
20.3409
20.2712
20.2049
20.1461
20.0684
19.9983
19.9344
19.8697
19.7971
19.7308
19.6618
19.5933
19.4982
19.4191
20.8214
20.7583
20.6899
20.6231
20.5525
20.4774
20.405
20.3299
20.2641
20.1956
20.1262
20.0589
19.997
19.9332
19.8605
19.787
19.7178
19.6428
19.5679
20.888
20.8196
20.7505
20.685
20.6149
20.5408
20.4656
20.389
20.3233
20.2515
20.1844
20.1198
20.0543
19.9876
19.9165
19.8457
19.7712
19.6985
21.039
20.9629
20.8893
20.8164
20.748
20.6799
20.6089
20.5338
20.4565
20.384
20.3094
20.2394
20.1794
20.1144
20.0465
19.976
19.9052
21.1948
21.1143
21.0366
20.959
20.8842
20.8129
20.7395
20.6822
20.5984
20.5214
20.4447
20.3778
20.306
20.2419
20.1762
20.1085
20.0344
21.3602
21.2628
21.1902
21.1096
21.0294
20.9526
20.879
20.7991
20.737
20.6631
20.5853
20.5075
20.4396
20.3718
20.3078
20.2393
20.1722
21.6008
21.524
21.4402
21.3516
21.2677
21.1854
21.0992
21.0221
20.9479
20.8748
20.8035
20.7297
20.6472
20.57
20.5049
20.436
20.3674
20.3015
21.7435
21.674
21.6009
21.5149
21.4286
21.3427
21.263
21.1911
21.0964
21.0179
20.9425
20.8747
20.8017
20.7249
20.6427
20.5736
20.5018
21.8834
21.8119
21.7405
21.6659
21.5843
21.4988
21.4084
21.3267
21.2527
21.1694
21.0882
21.0063
20.9367
20.8669
20.789
20.7122
20.6398
22.0248
21.9507
21.8808
21.8094
21.7258
21.6445
21.5641
21.493
21.4007
21.3211
21.239
21.1593
21.0828
21.0018
20.9282
20.8519
20.7775
22.1717
22.0941
22.0171
21.9385
21.8754
21.7832
21.703
21.6394
21.553
21.4728
21.3914
21.3092
21.2268
21.1483
21.0727
20.9948
20.9195
22.3155
22.2353
22.1593
22.0867
22.0109
21.9363
21.8476
21.755
21.6931
21.62
21.5464
21.4636
21.3766
21.2962
21.2172
21.139
21.0621
22.4564
22.3799
22.3016
22.221
22.1541
22.0838
22.0124
21.9243
21.8353
21.7581
21.6823
21.6079
21.531
21.4461
21.365
21.2859
21.2073
22.5295
22.4377
22.3721
22.2976
22.2211
22.146
22.0727
21.9933
21.9035
21.8179
21.7376
21.6657
21.5897
21.5114
21.4309
21.3515
22.7428
22.6268
22.5231
22.4394
22.3618
22.2874
22.2135
22.1337
22.0462
21.9654
21.8785
21.7962
21.7257
21.651
21.5739
23.0274
22.9574
22.8381
22.717
22.599
22.5139
22.4334
22.3556
22.2767
22.1906
22.0986
22.0153
21.9414
21.863
21.7875
21.7128
23.1998
23.1098
23.0199
22.9139
22.7977
22.673
22.5796
22.5131
22.425
22.3447
22.261
22.1554
22.0579
21.994
21.9266
21.8539
23.3823
23.2937
23.2071
23.0995
22.9887
22.8777
22.7681
22.6735
22.5816
22.5038
22.4237
22.3577
22.2479
22.1388
22.0571
21.994
23.6682
23.5702
23.4738
23.3875
23.3106
23.1934
23.0865
22.9877
22.8926
22.7962
22.691
22.587
22.486
22.4313
22.3436
22.2424
23.8537
23.7476
23.6532
23.5621
23.4785
23.3871
23.2762
23.172
23.0806
22.9979
22.9106
22.8068
22.6911
22.5871
22.4972
22.4367
24.0544
23.9361
23.8275
23.7368
23.6494
23.5638
23.4613
23.3627
23.2631
23.1777
23.1026
23.0362
22.9325
22.8165
22.7014
22.5959
24.2573
24.1444
24.0084
23.8867
23.8105
23.732
23.6394
23.529
23.4368
23.3467
23.2738
23.1981
23.1292
23.053
22.9337
22.8139
24.4525
24.3509
24.2371
24.1278
24.0064
23.8989
23.8275
23.7381
23.6163
23.5111
23.427
23.3471
23.2793
23.2051
23.1208
23.0298
24.6383
24.5474
24.4441
24.3348
24.2307
24.1267
24.027
23.933
23.8396
23.7223
23.5979
23.5061
23.4376
23.3587
23.2825
24.8112
24.7359
24.6394
24.5284
24.4261
24.3253
24.2263
24.1306
24.0289
23.9303
23.8273
23.7024
23.5877
23.5205
23.4432
23.366
24.9731
24.8899
24.8124
24.7244
24.6124
24.5049
24.4082
24.3135
24.2264
24.1235
24.0219
23.9261
23.8101
23.6889
23.6081
23.5225
25.1184
25.0475
24.9645
24.8832
24.792
24.6864
24.5896
24.4971
24.4038
24.3093
24.2141
24.1165
24.0296
23.9172
23.7973
25.2156
25.1282
25.0477
24.9634
24.8674
24.7653
24.6668
24.5776
24.4896
24.4002
24.2986
24.201
24.1008
23.9982
25.4633
25.349
25.2322
25.1416
25.0438
24.9471
24.8469
24.7579
24.662
24.5718
24.4874
24.3826
24.2844
25.7168
25.6342
25.539
25.4537
25.3296
25.2315
25.1301
25.0291
24.9331
24.8381
24.7401
24.6459
24.5545
24.455
25.8939
25.797
25.7087
25.618
25.5179
25.4145
25.3135
25.2164
25.1133
25.014
24.9136
24.8204
24.7284
24.6354
26.0792
25.985
25.8863
25.7701
25.6968
25.6015
25.5009
25.3989
25.3015
25.2046
25.096
24.9887
24.9036
24.8123
26.252
26.1691
26.083
25.9769
25.8676
25.7675
25.6864
25.5899
25.4852
25.3846
25.2969
25.1836
25.0834
24.9857
26.4159
26.3302
26.2532
26.1791
26.0662
25.9677
25.8527
25.7622
25.6635
25.5595
25.4571
25.3684
25.2681
25.1707
26.5801
26.4886
26.3868
26.3368
26.2568
26.1511
26.0488
25.9514
25.8584
25.7498
25.6234
25.5316
25.4441
26.405
26.3584
26.25
26.1296
26.0394
25.9754
25.8498
25.7148
25.6102
26.474
26.4283
26.3375
26.2122
26.1043
26.0355
25.9408
25.8179
26.6681
26.5402
26.4903
26.4354
26.3161
26.1985
26.1085
26.9324
26.8088
26.6743
26.562
26.4967
26.401
26.2948
26.9109
26.8075
26.6891
26.5862
26.4933
27.2953
27.1419
26.9663
26.8945
26.7886
26.6834
28.0135
27.9386
27.5758
27.4355
26.9882
28.0701
27.9611
27.8726
27.7879
27.6996
27.2444
28.2941
27.8371
27.7467
27.6643
27.5348
28.3927
28.1448
27.9025
2.46629
2.32018
2.19595
3.32635
3.17537
3.01062
2.85409
2.69279
2.52965
2.37277
2.23457
1.66017
4.01548
3.86694
3.70278
3.54714
3.38954
3.22933
3.06872
2.90665
2.74134
2.57556
2.41305
2.25906
2.09858
1.91602
1.73976
4.55185
4.39749
4.23426
4.07599
3.91839
3.75748
3.59922
3.44351
3.2871
3.12774
2.96314
2.78566
2.61054
2.44587
2.28784
2.12838
1.95827
1.78015
1.59632
1.37577
1.12414
0.886751
5.12734
4.96224
4.78233
4.61477
4.45011
4.28986
4.13219
3.97208
3.81031
3.65012
3.49468
3.34262
3.19006
3.03514
2.86649
2.65097
2.46307
2.31868
2.1654
2.00274
1.82545
1.63363
1.4179
5.66598
5.52036
5.37109
5.20286
5.02392
4.84035
4.66492
4.50137
4.34641
4.19085
4.02928
3.86084
3.69567
3.54094
3.39242
3.25194
3.12432
2.94803
2.69897
2.48086
2.35415
2.20764
2.04842
1.87647
1.69406
6.01298
5.86755
5.73072
5.5905
5.44724
5.28095
5.10797
4.90533
4.71713
4.54172
4.40323
4.25551
4.09651
3.90568
3.72657
3.58061
3.43995
3.30439
3.18323
3.00964
2.75722
2.53199
2.40386
2.25675
2.09588
6.41609
6.23132
6.05188
5.9367
5.80346
5.65828
5.52415
5.40322
5.22302
5.01402
4.80161
4.58079
4.46087
4.32818
4.20192
3.99239
3.76224
3.61599
3.48352
3.34719
3.20892
3.07023
2.83104
2.62054
2.46408
6.83218
6.65966
6.48165
6.30261
6.12798
6.01228
5.89244
5.73028
5.57672
5.48179
5.32798
5.12332
4.9033
4.69709
4.51451
4.39939
4.28979
4.06995
3.83037
3.66534
3.53013
3.38727
3.23799
3.07061
2.884
7.39253
7.28588
7.09521
6.91008
6.72995
6.54573
6.36792
6.21424
6.07588
5.96066
5.81008
5.63244
5.53423
5.42277
5.24077
5.03852
4.82061
4.60436
4.46659
4.32521
4.13323
3.89311
3.73355
3.58247
3.43218
3.27673
7.83005
7.71241
7.58539
7.47
7.32196
7.14959
6.98784
6.78467
6.61675
6.45083
6.30701
6.13703
5.99102
5.84648
5.7024
5.5786
5.45179
5.30919
5.13636
4.93883
4.71072
4.531
4.34091
4.14538
3.97421
3.79497
3.64103
7.99957
7.89279
7.76639
7.65313
7.53226
7.38235
7.18679
7.05721
6.8717
6.69565
6.53583
6.37974
6.21863
6.05638
5.87305
5.754
5.63237
5.50148
5.36183
5.20262
5.03235
4.83219
4.61932
4.42905
4.18667
8.52826
8.42664
8.26016
8.09232
7.96185
7.82701
7.71974
7.58859
7.44017
7.28225
7.12685
6.96287
6.7943
6.61805
6.45391
6.28726
6.11699
5.92275
5.80658
5.68598
5.55737
5.42605
5.2835
5.14922
4.92688
8.73196
8.57209
8.46973
8.34094
8.20242
8.07837
7.91157
7.78845
7.65378
7.50761
7.35229
7.21791
7.04095
6.87037
6.69797
6.52456
6.35095
6.17579
5.98283
5.86487
5.74469
5.61544
5.48404
5.34983
9.15693
9.05524
8.96864
8.81662
8.6571
8.53396
8.41983
8.28877
8.14441
7.9931
7.85878
7.72292
7.58138
7.40829
7.29126
7.11496
6.94916
6.77446
6.59467
6.41694
6.23163
6.04873
5.92695
5.80074
5.67004
9.43085
9.32057
9.21014
9.1079
9.00515
8.88164
8.74337
8.62041
8.51229
8.36985
8.21712
8.07228
7.93326
7.78886
7.65944
7.53034
7.35725
7.19472
7.02819
6.85512
6.67775
6.47758
6.24549
6.11469
5.98194
9.69348
9.58943
9.48395
9.38002
9.26467
9.15279
9.04388
8.93447
8.81939
8.70476
8.58624
8.44633
8.29205
8.14894
7.99748
7.8744
7.72865
7.60164
7.44458
7.28132
7.11031
6.94318
6.76681
6.57143
6.35867
10.0518
9.95208
9.84632
9.74558
9.64877
9.54737
9.43832
9.31598
9.19917
9.08887
8.99174
8.891
8.78156
8.65583
8.51479
8.37565
8.23269
8.07972
7.97204
7.82532
7.64492
7.52585
7.36833
7.19062
7.03155
6.85296
10.3214
10.216
10.1019
9.99653
9.89805
9.80091
9.70508
9.61016
9.50855
9.37888
9.249
9.13549
9.04451
8.94697
8.83787
8.70503
8.56446
8.44141
8.32648
8.18551
8.06094
7.94317
7.7692
7.60602
7.44527
7.27735
10.597
10.4893
10.3736
10.2591
10.1499
10.0442
9.94395
9.8506
9.75896
9.66787
9.57314
9.44652
9.31177
9.19598
9.10252
9.00277
8.88646
8.74969
8.61294
8.49091
8.3742
8.25117
8.13207
8.03254
7.86968
7.69268
7.52686
10.8676
10.761
10.6513
10.5408
10.4249
10.3082
10.1936
10.0871
9.98656
9.89341
9.80297
9.71393
9.62103
9.50878
9.38449
9.26778
9.16735
9.06638
8.94627
8.81711
8.6469
8.53447
8.42161
8.30213
8.18839
8.08248
7.97625
11.046
10.9294
10.8178
10.7086
10.5953
10.4767
10.3578
10.2396
10.1273
10.0231
9.93056
9.84199
9.75309
9.65976
9.55621
9.44574
9.33438
9.23043
9.13148
9.02526
8.88006
8.72618
8.58951
8.47923
8.3576
8.23515
11.3349
11.2207
11.1073
10.9926
10.88
10.7679
10.6581
10.5372
10.4171
10.2976
10.178
10.0641
9.96809
9.88258
9.79452
9.7009
9.60154
9.49792
9.39263
9.28801
9.18347
9.07257
8.94019
8.79438
8.66239
8.536
11.6066
11.5028
11.3933
11.2863
11.1729
11.0568
10.942
10.831
10.7189
10.6023
10.4828
10.3616
10.238
10.1178
10.0145
9.92896
9.84036
9.74709
9.6491
9.54911
9.4472
9.34069
9.23186
9.11886
8.99178
8.85688
11.787
11.6741
11.5698
11.4605
11.349
11.2419
11.1224
11.0091
10.8963
10.7818
10.6653
10.546
10.4233
10.2949
10.1734
10.0694
9.9811
9.89069
9.79723
9.70042
9.60105
9.49959
9.39132
9.28407
9.16927
12.071
11.963
11.8521
11.7459
11.6411
11.5317
11.4151
11.3047
11.1906
11.0753
10.9612
10.8455
10.7288
10.6095
10.4871
10.3552
10.2295
10.1266
10.038
9.94608
9.8502
9.75378
9.65362
9.55359
9.44565
9.34036
12.3367
12.2369
12.1327
12.0308
11.9228
11.817
11.7132
11.6027
11.485
11.3724
11.258
11.1423
11.0262
10.9094
10.7932
10.6745
10.5562
10.4297
10.2984
10.1876
10.0982
10.0044
9.90706
9.81076
9.70945
9.60446
12.5928
12.4983
12.3986
12.3006
12.1997
12.0959
11.9916
11.8851
11.7787
11.667
11.5514
11.4409
11.3244
11.209
11.0927
10.9754
10.8586
10.7395
10.6224
10.5075
10.3763
10.2583
10.162
10.0632
9.96572
9.86418
9.76509
12.7567
12.6546
12.558
12.4592
12.3629
12.2665
12.1648
12.0606
11.9533
11.845
11.7335
11.6197
11.5093
11.3916
11.2744
11.1578
11.0422
10.9251
10.8078
10.6908
10.5814
10.4556
10.3343
10.2296
10.1245
10.0251
13.0052
12.9152
12.8212
12.7233
12.6161
12.5149
12.424
12.3337
12.2332
12.1296
12.0208
11.9126
11.8055
11.6955
11.5808
11.4588
11.3389
11.2214
11.1112
10.9931
10.8761
10.762
10.6448
10.5275
10.4038
10.2946
13.151
13.0664
12.98
12.8942
12.7998
12.6855
12.5755
12.4843
12.4007
12.3016
12.1971
12.0884
11.9805
11.8788
11.7665
11.6457
11.524
11.4036
11.2821
11.1759
11.0631
10.9443
10.8328
10.7129
10.5952
13.386
13.2968
13.21
13.1236
13.0401
12.9608
12.8736
12.76
12.6409
12.5486
12.465
12.3707
12.2658
12.1568
12.0513
11.9521
11.8376
11.7098
11.5872
11.4739
11.353
11.2386
11.1242
11.0127
10.8951
13.5417
13.4496
13.3581
13.2671
13.179
13.0949
13.0152
12.9306
12.8245
12.7084
12.6133
12.5266
12.4326
12.3265
12.214
12.1146
12.0236
11.9072
11.774
11.6502
11.5398
11.4213
11.3052
11.1851
11.0759
13.796
13.7014
13.6043
13.5086
13.4168
13.3257
13.2337
13.1464
13.0633
12.9785
12.8839
12.7812
12.6858
12.5938
12.4947
12.3889
12.2712
12.1702
12.0844
11.9728
11.8434
11.7207
11.6094
11.4902
11.3723
13.9609
13.8653
13.7713
13.6679
13.5687
13.4772
13.3879
13.2917
13.1978
13.1082
13.0199
12.9317
12.8454
12.7593
12.6695
12.5666
12.4566
12.3391
12.232
12.1409
12.0344
11.9126
11.7945
11.6772
11.5571
14.1835
14.1037
14.0247
13.9411
13.8523
13.7471
13.6425
13.5487
13.4617
13.363
13.2587
13.1617
13.0657
12.9761
12.8976
12.8197
12.736
12.6396
12.5321
12.4156
12.3058
12.2041
12.0952
11.9778
11.8644
14.3211
14.2422
14.1647
14.0871
14.011
13.9325
13.8343
13.7306
13.6323
13.5371
13.4378
13.3317
13.2277
13.1212
13.0282
12.95
12.8727
12.7908
12.6996
12.5983
12.4885
12.3804
12.2778
12.1555
14.5321
14.4539
14.3777
14.3
14.2221
14.1468
14.0702
13.994
13.9061
13.8143
13.7199
13.6169
13.5098
13.4043
13.295
13.1866
13.0886
13.008
12.9285
12.845
12.7547
12.658
12.5568
12.4528
12.3588
14.6638
14.587
14.511
14.4336
14.356
14.278
14.2016
14.1246
14.0477
13.9648
13.882
13.7974
13.6996
13.5898
13.4843
13.3674
13.2533
13.1544
13.0713
12.9884
12.9032
12.8129
12.7206
12.6185
14.8691
14.7938
14.7193
14.6421
14.5667
14.4912
14.4139
14.3365
14.2573
14.1768
14.0977
14.0179
13.9392
13.8621
13.7748
13.6684
13.5581
13.4446
13.3309
13.227
13.1372
13.0516
12.9666
12.8742
12.7821
14.9985
14.9247
14.8501
14.774
14.6975
14.6225
14.5468
14.4708
14.3946
14.3149
14.232
14.1496
14.0685
13.9889
13.9133
13.8332
13.7389
13.6316
13.5184
13.4088
13.3042
13.2084
13.1183
13.0278
15.1966
15.1237
15.0515
14.9777
14.904
14.8302
14.7541
14.6793
14.6037
14.5271
14.4495
14.3704
14.2885
14.2065
14.1229
14.04
13.9627
13.8836
13.7966
13.6958
13.5865
13.4802
13.3797
13.2791
13.1876
15.3182
15.2494
15.177
15.104
15.0303
14.9572
14.8841
14.81
14.7356
14.6612
14.5849
14.5043
14.4234
14.343
14.2624
14.179
14.0949
14.0163
13.9359
13.8497
13.7527
13.6508
13.5469
13.4473
15.4406
15.3689
15.3002
15.2293
15.1582
15.0844
15.011
14.9379
14.8643
14.7908
14.7178
14.6434
14.5628
14.4818
14.4006
14.3186
14.2372
14.1542
14.0732
13.9904
13.9032
13.8084
13.7142
13.6168
15.6317
15.5632
15.4952
15.4241
15.3522
15.2813
15.2102
15.1375
15.0639
14.991
14.9181
14.845
14.7724
14.699
14.6211
14.5412
14.46
14.3762
14.2931
14.2118
14.1298
14.0463
13.9585
13.8638
13.773
15.7587
15.6887
15.6196
15.5487
15.4773
15.4045
15.3341
15.2631
15.1899
15.1158
15.0432
14.9713
14.8988
14.8258
14.7515
14.6746
14.5956
14.5154
14.4338
14.3507
14.2686
14.1865
14.1042
14.0198
15.8962
15.8181
15.7457
15.6772
15.6056
15.532
15.4584
15.3888
15.3183
15.2437
15.1676
15.095
15.0242
14.9526
14.8794
14.8047
14.7279
14.6493
14.5698
14.4898
14.4083
14.3257
14.2435
14.1596
16.0206
15.9481
15.8765
15.8035
15.735
15.664
15.5902
15.516
15.4462
15.3765
15.3015
15.2234
15.1489
15.0787
15.0074
14.9343
14.8599
14.7838
14.7054
14.6259
14.5467
14.4645
14.3837
16.2158
16.1464
16.0778
16.0068
15.9337
15.8607
15.7898
15.7181
15.6451
15.5729
15.5034
15.4349
15.3615
15.2831
15.2068
15.1351
15.0634
14.9909
14.9169
14.8414
14.7635
14.6836
14.6066
14.5238
16.3497
16.2742
16.2028
16.133
16.0635
15.991
15.9181
15.8443
15.7695
15.6961
15.626
15.5574
15.4891
15.4182
15.3424
15.2661
15.1922
15.1195
15.0474
14.9744
14.8988
14.8216
14.7424
14.6636
16.474
16.4012
16.3305
16.2594
16.1893
16.1193
16.048
15.9765
15.9022
15.8248
15.7484
15.6788
15.6107
15.5419
15.4715
15.3982
15.3237
15.2491
15.1756
15.103
15.03
14.956
14.8797
16.6642
16.5964
16.5299
16.4596
16.3875
16.317
16.2464
16.1752
16.104
16.0339
15.9609
15.8829
15.8039
15.7324
15.6646
15.5961
15.5261
15.4542
15.3814
15.3073
15.2333
15.1602
15.0862
15.0083
16.7879
16.7192
16.6526
16.5848
16.5157
16.4455
16.3758
16.3047
16.232
16.1595
16.0891
16.0183
15.9422
15.862
15.7877
15.7198
15.6518
15.5821
15.5112
15.439
15.3652
15.2913
15.2191
15.145
16.9007
16.8377
16.7725
16.708
16.6425
16.5736
16.505
16.4365
16.3652
16.2915
16.2179
16.1453
16.0755
16.0027
15.9247
15.8478
15.7775
15.709
15.6391
15.5687
15.4973
15.4226
15.3482
15.2744
17.0227
16.9546
16.8922
16.8264
16.7621
16.6975
16.6309
16.5638
16.4972
16.4267
16.3522
16.2772
16.2026
16.1322
16.0623
15.9877
15.9106
15.8368
15.7666
15.6961
15.6246
15.5543
15.48
17.2063
17.1447
17.0789
17.0123
16.9469
16.8819
16.8171
16.7526
16.6872
16.6214
16.556
16.4868
16.413
16.3371
16.2612
16.1884
16.1201
16.0489
15.9741
15.8983
15.8251
15.7538
15.6815
15.6043
17.3309
17.2632
17.1999
17.1346
17.0682
17.0026
16.9377
16.8726
16.8078
16.7429
16.6777
16.6125
16.546
16.4751
16.3983
16.322
16.2475
16.1783
16.1087
16.0356
15.9602
15.885
15.813
15.7401
17.4534
17.3882
17.3229
17.2574
17.1909
17.1247
17.059
16.9938
16.9285
16.8636
16.799
16.7332
16.6661
16.6002
16.5328
16.4586
16.3835
16.3095
16.2391
16.169
16.0962
16.0237
15.947
17.5721
17.5096
17.4442
17.3799
17.3152
17.2478
17.1811
17.1149
17.0496
16.9845
16.92
16.8563
16.7907
16.7207
16.653
16.5871
16.5177
16.4451
16.3729
16.3017
16.2298
16.1559
16.0824
17.6877
17.6259
17.5627
17.499
17.4356
17.3704
17.3038
17.237
17.1701
17.1043
17.04
16.9766
16.9144
16.8514
16.7814
16.7113
16.6432
16.5762
16.506
16.4351
16.3642
16.2919
16.2182
17.8095
17.7435
17.682
17.6182
17.5546
17.4913
17.4269
17.3612
17.2942
17.2254
17.1579
17.0946
17.0329
16.9715
16.9098
16.842
16.7717
16.7027
16.6352
16.5661
16.4961
16.4259
16.3556
17.9326
17.8671
17.8022
17.7381
17.6743
17.6111
17.5473
17.4836
17.4197
17.3544
17.285
17.215
17.1502
17.0888
17.0267
16.9637
16.8979
16.8296
16.7616
16.6941
16.6257
16.5578
16.4874
18.0558
17.989
17.9233
17.8582
17.7942
17.7303
17.6667
17.6027
17.5395
17.477
17.4143
17.3474
17.2772
17.2094
17.1461
17.0826
17.0179
16.9512
16.885
16.8193
16.7529
16.6858
16.6187
18.2457
18.1807
18.114
18.0467
17.9804
17.9148
17.8504
17.7862
17.7218
17.6575
17.5942
17.5318
17.4696
17.4052
17.3374
17.2699
17.2048
17.1399
17.0746
17.0071
16.9416
16.8765
16.8114
18.3694
18.3044
18.2398
18.1729
18.1049
18.0376
17.9715
17.9066
17.8418
17.7766
17.7114
17.6476
17.5851
17.5225
17.4591
17.3938
17.328
17.2628
17.1975
17.1313
17.0641
16.9983
16.9336
18.4916
18.4267
18.3634
18.2986
18.2328
18.1632
18.0937
18.0268
17.9619
17.8969
17.8308
17.7644
17.6999
17.6379
17.5762
17.5138
17.45
17.3854
17.3207
17.2554
17.1882
17.1234
17.0557
18.6184
18.5497
18.4838
18.4204
18.3569
18.2917
18.2218
18.1498
18.0813
18.0163
17.9526
17.8865
17.8188
17.7529
17.6913
17.6313
17.5699
17.507
17.4433
17.3786
17.3131
17.2457
17.1788
18.7333
18.6708
18.6068
18.5421
18.4788
18.4162
18.353
18.2847
18.2112
18.1393
18.0722
18.0096
17.9463
17.8796
17.8124
17.7488
17.6885
17.6271
17.5648
17.502
17.4368
17.3711
17.3048
18.8537
18.7901
18.7269
18.6636
18.5999
18.5367
18.4749
18.4134
18.3484
18.2772
18.2044
18.1349
18.0692
18.0058
17.9414
17.8744
17.8093
17.7474
17.6851
17.6228
17.5605
17.4951
17.4297
18.9766
18.9116
18.8478
18.7845
18.7209
18.6575
18.5945
18.5323
18.4712
18.4092
18.3409
18.2679
18.1978
18.1301
18.064
18.0007
17.9351
17.8697
17.8063
17.7428
17.6806
17.6178
17.5536
19.0993
19.0342
18.9699
18.9053
18.8424
18.779
18.7152
18.6514
18.5882
18.5269
18.4664
18.3997
18.3282
18.2583
18.1897
18.1227
18.0581
17.9927
17.9285
17.8647
17.8008
17.7402
17.6759
19.2261
19.1561
19.0905
19.0262
18.963
18.9004
18.8371
18.7731
18.7082
18.6429
18.5805
18.5212
18.4569
18.3873
18.318
18.2491
18.1829
18.1176
18.052
17.9878
17.9239
17.8591
17.795
19.3606
19.2833
19.2103
19.1445
19.0823
19.0204
18.9582
18.8955
18.8323
18.7669
18.6983
18.633
18.5739
18.5131
18.4462
18.3777
18.3092
18.2434
18.1778
18.1125
18.0479
17.9835
19.5785
19.5037
19.4211
19.341
19.2648
19.1987
19.1392
19.0785
19.0164
18.9539
18.892
18.8285
18.7583
18.6894
18.6269
18.5672
18.5029
18.4354
18.368
18.3022
18.2372
18.1726
18.108
19.7141
19.646
19.5788
19.4943
19.41
19.3286
19.2583
19.1989
19.138
19.0749
19.0115
18.9498
18.8876
18.8176
18.7473
18.6821
18.6207
18.5576
18.4915
18.4249
18.3598
18.2957
18.2319
19.8485
19.7805
19.7158
19.6505
19.5676
19.4831
19.4008
19.3256
19.2619
19.1992
19.1341
19.068
19.005
18.9436
18.8759
18.8054
18.7391
18.6759
18.613
18.5475
18.4798
18.4157
18.3528
19.9851
19.9108
19.8433
19.7798
19.7168
19.6387
19.5533
19.4702
19.394
19.3265
19.2622
19.1959
19.1276
19.0618
18.9992
18.9343
18.865
18.7967
18.7318
18.6686
18.6037
18.5352
18.4691
20.1074
20.0397
19.97
19.9021
19.836
19.7698
19.696
19.6167
19.5347
19.4579
19.3893
19.3245
19.2584
19.1899
19.1219
19.0562
18.9919
18.9249
18.8562
18.7891
18.725
18.66
18.5929
20.2363
20.164
20.0964
20.0275
19.9598
19.8928
19.8238