/*--------------------------------*- C++ -*----------------------------------*\
  =========                 |
  \\      /  F ield         | OpenFOAM: The Open Source CFD Toolbox
   \\    /   O peration     | Website:  https://openfoam.org
    \\  /    A nd           | Version:  8
     \\/     M anipulation  |
\*---------------------------------------------------------------------------*/
FoamFile
{
    version     2.0;
    format      ascii;
    class       volScalarField;
    location    "255";
    object      epsilon;
}
// * * * * * * * * * * * * * * * * * * * * * * * * * * * * * * * * * * * * * //

dimensions      [0 2 -3 0 0 0 0];

internalField   nonuniform List<scalar> 
12225
(
285.514
270.699
257.92
243.804
232.47
223.074
216.824
212.694
212.743
213.941
217.247
220.865
228.1
232.827
241.253
246.585
255.005
262.801
52.4949
91.8776
106.974
114.744
124.845
136.776
152.689
169.895
191.097
210.92
235.195
255.461
280.991
299.288
324.635
339.2
364.318
373.241
20.3237
34.8554
44.6758
50.4682
55.3967
59.6057
64.6638
69.6413
76.3134
83.1811
91.4252
99.3118
108.152
116.919
125.504
135.232
142.491
153.601
15.3484
19.6972
24.1129
27.5683
30.4973
32.8692
35.1547
37.2932
39.5012
41.917
44.3339
47.1991
49.6765
53.0316
55.4031
59.2187
61.4092
65.6077
14.6509
15.8626
17.3672
19.0736
20.6383
22.0257
23.2458
24.4309
25.4434
26.5942
27.5224
28.7567
29.6303
30.9824
31.8097
33.2586
34.0699
35.6335
14.7068
14.8769
15.2015
15.8667
16.5667
17.2867
17.9235
18.5841
19.1189
19.7337
20.1929
20.7982
21.2077
21.8212
22.1966
22.8226
23.1759
23.8531
14.7421
14.6201
14.6248
14.737
14.9297
15.219
15.4912
15.8088
16.0708
16.3824
16.6179
16.9199
17.1305
17.4264
17.6151
17.9108
18.0799
18.4038
14.7626
14.5866
14.4638
14.3812
14.3669
14.39
14.4381
14.5337
14.6185
14.7366
14.8308
14.9563
15.0475
15.1759
15.2606
15.3912
15.4691
15.6185
14.7667
14.5908
14.4346
14.2963
14.1849
14.1044
14.0398
14.0066
13.9814
13.9785
13.9809
13.9916
14.004
14.0294
14.047
14.0792
14.1028
14.1451
14.7663
14.5939
14.432
14.282
14.143
14.0219
13.9115
13.8193
13.737
13.6698
13.6102
13.5633
13.5181
13.4871
13.4516
13.4341
13.4021
13.4006
14.7658
14.5945
14.4321
14.2803
14.1362
14.0032
13.8782
13.7644
13.6582
13.5629
13.4736
13.3952
13.3198
13.2561
13.1916
13.1408
13.0838
13.0451
14.7657
14.5943
14.4321
14.2798
14.1353
13.9999
13.8715
13.7518
13.6385
13.5337
13.4341
13.343
13.2557
13.1771
13.1003
13.0328
12.9647
12.9074
14.7657
14.5941
14.432
14.2794
14.1349
13.9989
13.8699
13.7485
13.6332
13.525
13.422
13.3257
13.2338
13.1484
13.0663
12.9906
12.9172
12.8502
14.7657
14.5939
14.4318
14.279
14.1346
13.9983
13.8691
13.7472
13.6315
13.5223
13.4184
13.3204
13.227
13.139
13.055
12.9759
12.9002
12.8291
14.7657
14.5938
14.4317
14.2787
14.1342
13.9977
13.8686
13.7464
13.6307
13.5211
13.4171
13.3185
13.2248
13.136
13.0516
12.9714
12.8951
12.8227
14.7657
14.5937
14.4316
14.2785
14.1339
13.9973
13.8681
13.7458
13.63
13.5202
13.4161
13.3174
13.2236
13.1346
13.05
12.9696
12.8931
12.8204
14.7657
14.5937
14.4315
14.2783
14.1337
13.997
13.8677
13.7453
13.6294
13.5195
13.4154
13.3165
13.2227
13.1336
13.0489
12.9684
12.8918
12.819
14.7657
14.5937
14.4314
14.2782
14.1335
13.9968
13.8674
13.7449
13.629
13.5191
13.4148
13.3159
13.222
13.1328
13.0481
12.9675
12.8909
12.8179
14.7657
14.5937
14.4314
14.2782
14.1335
13.9967
13.8673
13.7448
13.6288
13.5189
13.4146
13.3156
13.2217
13.1325
13.0477
12.967
12.8904
12.8174
14.7657
14.5937
14.4314
14.2782
14.1336
13.9968
13.8674
13.745
13.629
13.519
13.4148
13.3158
13.2219
13.1327
13.0479
12.9673
12.8906
12.8177
14.7657
14.5937
14.4315
14.2784
14.1337
13.997
13.8677
13.7453
13.6294
13.5195
13.4154
13.3166
13.2229
13.1338
13.0493
12.9689
12.8926
12.8199
14.7657
14.5937
14.4316
14.2785
14.1341
13.9974
13.8685
13.7464
13.6312
13.522
13.419
13.3213
13.2293
13.1418
13.0594
12.981
12.9073
12.8368
14.7658
14.5937
14.4318
14.2788
14.1353
14.0002
13.8742
13.756
13.6463
13.5435
13.4485
13.3591
13.277
13.1992
13.1282
13.0601
12.9988
12.9386
14.7655
14.5928
14.4328
14.2844
14.1515
14.0321
13.929
13.8375
13.7593
13.6894
13.6306
13.5769
13.5328
13.4905
13.4574
13.423
13.3988
13.3693
14.7592
14.5932
14.4603
14.3602
14.3029
14.2766
14.2805
14.2921
14.3211
14.3531
14.3959
14.4346
14.4824
14.5217
14.572
14.609
14.6617
14.6939
14.7213
14.6911
14.754
14.9176
15.1828
15.4611
15.7476
16.012
16.2724
16.5038
16.7361
16.9387
17.1508
17.331
17.5311
17.6938
17.889
18.0361
14.7477
15.5124
16.5473
17.6841
18.7044
19.5676
20.3373
20.9969
21.6195
22.1662
22.7191
23.211
23.7402
24.2046
24.7331
25.1831
25.7255
26.1665
15.9871
20.9921
25.0238
27.7604
29.7847
31.3586
32.7772
34.0581
35.3597
36.6167
37.976
39.2978
40.7624
42.1467
43.719
45.1752
46.8854
48.3603
29.9032
47.2183
54.8697
58.6737
61.6143
64.4324
67.5813
70.9785
74.74
78.7163
82.9877
87.3475
91.9088
96.4545
101.105
105.628
110.182
114.583
165.798
160.075
154.899
149.565
144.479
139.678
135.614
132.109
129.27
126.974
125.32
124.045
123.34
122.825
122.842
122.961
123.285
123.829
0.19624
0.242695
0.449541
0.635902
0.823859
1.03581
1.28084
1.56713
1.89608
2.26284
2.65884
3.07496
3.50271
3.93501
4.36597
4.79085
5.20583
5.608
5.99537
6.36681
6.72209
7.06178
7.38686
7.69857
7.99744
8.28284
8.5531
8.81172
9.0535
39.0869
40.0679
40.6818
40.8982
40.7315
39.9047
9.21279
9.02208
8.95618
8.65121
8.93456
40.5457
42.6306
46.3959
49.2649
52.9337
56.469
60.3238
64.2773
68.4346
72.7515
77.2486
81.9245
86.7806
91.8245
97.0544
102.479
108.096
113.913
119.928
126.148
132.571
139.202
146.039
153.088
160.343
167.81
175.482
183.365
191.451
199.744
208.234
216.925
225.805
234.878
244.13
253.563
263.162
272.927
282.843
292.909
303.108
313.436
323.875
334.42
345.052
355.763
366.531
377.347
388.186
399.035
409.869
420.662
431.387
442.016
452.526
462.902
473.161
483.389
493.444
503.37
513.13
522.722
532.121
541.315
550.284
559.013
567.484
575.682
583.591
591.196
598.481
605.433
612.038
618.282
624.155
629.643
634.738
639.429
643.708
647.568
651.004
654.01
656.584
658.723
660.426
661.689
662.494
662.992
662.953
662.47
661.457
660.112
658.448
656.305
653.794
650.896
647.629
644.007
640.041
635.753
631.16
626.293
621.151
615.752
610.112
604.249
598.18
591.921
585.488
578.899
572.169
565.315
558.351
551.292
544.152
536.944
529.681
522.374
515.035
507.678
500.318
492.986
485.816
480.181
477.376
475.042
472.76
470.486
468.214
465.937
463.65
461.337
458.984
456.557
454.012
451.253
448.108
444.145
438.324
413.103
0.984902
0.606191
0.61381
0.696223
0.822834
0.98666
1.1885
1.4287
1.7051
2.01313
2.34689
2.70035
3.06811
3.44571
3.82965
4.2175
4.60792
5.00092
5.39824
5.80391
6.22519
6.67395
7.16888
7.73922
8.43109
9.31865
10.5238
12.2539
14.8634
18.938
19.487
19.489
19.1171
18.2973
16.845
14.615
16.4119
18.2976
19.8694
23.3009
26.4847
27.7785
29.5034
31.1443
32.9206
34.7283
36.6165
38.5622
40.5786
42.6617
44.8153
47.0398
49.3367
51.7072
54.152
56.6725
59.269
61.9426
64.6934
67.5222
70.4288
73.4139
76.4769
79.6181
82.8365
86.1322
89.5039
92.9512
96.4723
100.067
103.732
107.467
111.27
115.138
119.069
123.061
127.11
131.214
135.368
139.571
143.816
148.102
152.422
156.773
161.148
165.543
169.951
174.366
178.782
183.19
187.584
191.954
196.294
200.6
204.872
209.119
213.366
217.674
221.928
226.13
230.271
234.345
238.346
242.267
246.101
249.843
253.486
257.022
260.448
263.755
266.939
269.994
272.913
275.693
278.328
280.813
283.144
285.317
287.329
289.176
290.856
292.366
293.705
294.871
295.863
296.681
297.324
297.803
298.085
298.177
298.091
297.856
297.47
296.902
296.179
295.296
294.259
293.073
291.743
290.277
288.68
286.96
285.12
283.168
281.109
278.95
276.697
274.357
271.937
269.443
266.881
264.259
261.581
258.854
256.084
253.275
250.435
247.566
244.675
241.767
238.851
235.939
233.087
230.568
228.615
226.828
225.081
223.345
221.615
219.886
218.157
216.423
214.682
212.93
211.161
209.371
207.54
205.742
203.887
200.663
2.08321
1.06904
0.962256
1.00204
1.10432
1.25301
1.44359
1.67342
1.93904
2.23568
2.55792
2.90046
3.25876
3.62931
4.00965
4.39839
4.79525
5.2012
5.6188
6.05262
6.50997
7.0018
7.54367
8.15678
8.8681
9.70848
10.7053
11.8646
13.1309
14.3296
14.9212
15.3212
15.6466
15.9676
16.3923
17.1273
18.4382
19.8321
21.2857
22.8961
24.3578
25.663
27.0466
28.4679
29.9499
31.4822
33.0687
34.708
36.4019
38.1508
39.9555
41.8168
43.7352
45.7114
47.7459
49.8393
51.9919
54.2041
56.4762
58.8085
61.2009
63.6537
66.1666
68.7394
71.372
74.0639
76.8146
79.6231
82.4886
85.4102
88.3867
91.4168
94.499
97.6318
100.813
104.042
107.315
110.63
113.985
117.377
120.804
124.262
127.747
131.257
134.787
138.334
141.894
145.462
149.034
152.607
156.174
159.734
163.283
166.82
170.346
173.863
177.377
180.881
184.347
187.772
191.149
194.474
197.74
200.942
204.076
207.135
210.115
213.011
215.816
218.527
221.139
223.646
226.044
228.33
230.498
232.545
234.467
236.262
237.925
239.455
240.85
242.106
243.222
244.198
245.032
245.724
246.273
246.681
246.935
247.024
246.994
246.825
246.527
246.089
245.52
244.822
243.998
243.052
241.989
240.813
239.529
238.143
236.658
235.08
233.414
231.665
229.838
227.939
225.973
223.945
221.86
219.725
217.543
215.319
213.059
210.766
208.445
206.1
203.736
201.357
198.97
196.585
194.233
192.011
189.997
188.08
186.198
184.332
182.474
180.621
178.771
176.924
175.08
173.241
171.409
169.595
167.815
166.173
164.697
163.359
3.31886
1.58486
1.35365
1.35292
1.44161
1.58575
1.77455
2.00292
2.2667
2.56145
2.88246
3.22525
3.58597
3.96173
4.35061
4.75168
5.16497
5.59142
6.03302
6.49294
6.97573
7.48756
8.03639
8.63179
9.28402
10.0016
10.7865
11.6266
12.4878
13.3142
14.0536
14.7698
15.5049
16.2945
17.1779
18.1906
19.3325
20.5273
21.7848
23.0711
24.3547
25.6434
26.9735
28.3482
29.772
31.2449
32.7676
34.3407
35.9649
37.6411
39.37
41.1524
42.9888
44.88
46.8263
48.8285
50.8868
53.0019
55.174
57.4036
59.6908
62.0359
64.4389
66.8998
69.4186
71.9949
74.6284
77.3187
80.0651
82.8668
85.7229
88.6325
91.5943
94.607
97.6689
100.778
103.934
107.132
110.372
113.651
116.966
120.315
123.694
127.1
130.529
133.979
137.446
140.925
144.414
147.909
151.405
154.9
158.392
161.877
165.353
168.821
172.275
175.705
179.1
182.455
185.764
189.021
192.222
195.36
198.431
201.428
204.347
207.182
209.929
212.581
215.135
217.586
219.929
222.16
224.274
226.268
228.139
229.882
231.495
232.976
234.321
235.529
236.598
237.528
238.316
238.963
239.468
239.831
240.034
240.094
240.026
239.821
239.483
239.011
238.409
237.678
236.824
235.849
234.759
233.557
232.248
230.838
229.331
227.732
226.046
224.278
222.434
220.519
218.538
216.496
214.4
212.253
210.061
207.829
205.561
203.261
200.935
198.587
196.219
193.838
191.449
189.059
186.69
184.385
182.181
180.04
177.93
175.837
173.756
171.683
169.619
167.563
165.517
163.481
161.464
159.487
157.578
155.837
154.308
153.078
4.54766
2.10842
1.74921
1.70865
1.78095
1.91844
2.10419
2.33054
2.59252
2.88578
3.20616
3.54978
3.91337
4.2944
4.69125
5.10312
5.53001
5.97262
6.43232
6.91109
7.41154
7.93689
8.49098
9.07813
9.70281
10.3688
11.0778
11.8267
12.6061
13.4037
14.2136
15.0468
15.9138
16.825
17.7915
18.819
19.904
21.0338
22.2092
23.4305
24.6828
25.9705
27.3016
28.6784
30.1031
31.5768
33.1005
34.675
36.3014
37.9806
39.7134
41.5009
43.344
45.2439
47.2009
49.2155
51.2886
53.4208
55.6128
57.8652
60.1784
62.553
64.9893
67.4874
70.0477
72.6701
75.3545
78.1007
80.9083
83.7768
86.7055
89.6936
92.7401
95.8436
99.0028
102.216
105.482
108.797
112.161
115.57
119.022
122.514
126.043
129.605
133.198
136.817
140.459
144.12
147.795
151.482
155.176
158.873
162.57
166.26
169.942
173.607
177.252
180.867
184.447
187.984
191.473
194.908
198.282
201.59
204.826
207.984
211.058
214.042
216.932
219.72
222.403
224.975
227.431
229.766
231.976
234.057
236.005
237.817
239.488
241.017
242.401
243.637
244.724
245.661
246.446
247.079
247.56
247.886
248.04
248.057
247.924
247.647
247.227
246.664
245.962
245.125
244.155
243.059
241.839
240.5
239.049
237.49
235.828
234.068
232.217
230.281
228.263
226.172
224.011
221.788
219.507
217.174
214.795
212.374
209.917
207.429
204.914
202.376
199.821
197.251
194.674
192.096
189.53
187
184.526
182.096
179.693
177.309
174.94
172.584
170.242
167.916
165.609
163.327
161.08
158.89
156.791
154.87
153.167
151.702
5.71352
2.61385
2.12923
2.04876
2.10297
2.23179
2.41245
2.63483
2.89302
3.18261
3.49978
3.84114
4.20382
4.58563
4.98512
5.40155
5.83486
6.28557
6.75471
7.24372
7.75438
8.28879
8.84928
9.43835
10.0586
10.7124
11.4017
12.127
12.8873
13.6805
14.5066
15.368
16.2674
17.2079
18.1926
19.2236
20.3006
21.4227
22.5903
23.8031
25.0594
26.3601
27.7074
29.1028
30.548
32.0444
33.5932
35.1956
36.8528
38.5661
40.3365
42.1653
44.0534
46.0017
48.0118
50.0848
52.2218
54.4239
56.6921
59.0274
61.4305
63.9022
66.4433
69.0543
71.7357
74.4878
77.3108
80.2047
83.1694
86.2045
89.3095
92.4836
95.726
99.0354
102.41
105.849
109.35
112.911
116.53
120.203
123.928
127.701
131.52
135.381
139.279
143.211
147.173
151.159
155.166
159.188
163.222
167.26
171.299
175.333
179.355
183.358
187.337
191.284
195.191
199.052
202.859
206.607
210.289
213.897
217.425
220.867
224.215
227.463
230.606
233.636
236.549
239.338
241.997
244.522
246.908
249.15
251.244
253.186
254.972
256.599
258.065
259.367
260.503
261.473
262.274
262.906
263.37
263.654
263.761
263.714
263.503
263.13
262.597
261.909
261.068
260.078
258.943
257.669
256.259
254.72
253.058
251.277
249.384
247.386
245.287
243.096
240.817
238.458
236.026
233.525
230.964
228.347
225.682
222.973
220.226
217.447
214.641
211.813
208.967
206.108
203.241
200.373
197.514
194.678
191.878
189.11
186.368
183.648
180.946
178.264
175.603
172.965
170.355
167.782
165.257
162.805
160.46
158.297
156.337
154.533
6.77792
3.08309
2.47934
2.35923
2.3941
2.51238
2.68583
2.90196
3.15393
3.4371
3.74785
4.08311
4.44041
4.8178
5.214
5.62834
6.06074
6.51162
6.98184
7.47262
7.98544
8.52199
9.08411
9.67375
10.2929
10.9435
11.6272
12.3457
13.0999
13.8904
14.7183
15.5848
16.4914
17.4396
18.4308
19.4664
20.5474
21.6744
22.8484
24.0703
25.3404
26.6598
28.0296
29.4513
30.9263
32.4564
34.0428
35.6873
37.3913
39.1564
40.984
42.8758
44.8331
46.8576
48.9509
51.1145
53.35
55.6588
58.0423
60.5019
63.0388
65.6543
68.3493
71.1248
73.9816
76.9204
79.9416
83.0455
86.2322
89.5014
92.8529
96.286
99.7998
103.393
107.064
110.812
114.633
118.527
122.489
126.518
130.609
134.76
138.965
143.222
147.525
151.87
156.252
160.664
165.103
169.562
174.035
178.516
182.998
187.474
191.937
196.379
200.792
205.169
209.502
213.782
218.003
222.156
226.234
230.228
234.132
237.937
241.637
245.223
248.69
252.029
255.234
258.299
261.218
263.984
266.593
269.038
271.317
273.423
275.353
277.105
278.674
280.059
281.257
282.267
283.087
283.719
284.16
284.395
284.446
284.317
284.003
283.509
282.837
281.992
280.976
279.794
278.452
276.955
275.308
273.518
271.591
269.534
267.352
265.055
262.647
260.138
257.533
254.841
252.068
249.223
246.311
243.341
240.318
237.25
234.142
231.001
227.832
224.641
221.434
218.214
214.988
211.762
208.544
205.343
202.168
199.022
195.902
192.807
189.736
186.692
183.675
180.692
177.746
174.849
172.013
169.264
166.633
164.185
161.92
159.739
7.71385
3.50256
2.78909
2.63031
2.64498
2.75106
2.91532
3.12307
3.3665
3.64072
3.94216
4.26804
4.61615
4.98484
5.37298
5.78002
6.2059
6.65102
7.11618
7.60251
8.11141
8.64443
9.20325
9.78967
10.4055
11.0525
11.732
12.4459
13.1958
13.9831
14.8091
15.6753
16.583
17.5336
18.5284
19.5687
20.6559
21.7912
22.9758
24.2112
25.4988
26.8397
28.2353
29.6872
31.1973
32.7673
34.3993
36.0949
37.8563
39.6853
41.5839
43.5541
45.5979
47.7174
49.9145
52.1913
54.5499
56.9921
59.5199
62.1351
64.8394
67.6344
70.5216
73.5024
76.5779
79.7492
83.0169
86.3817
89.8438
93.4031
97.0595
100.812
104.661
108.603
112.638
116.764
120.978
125.278
129.66
134.121
138.657
143.264
147.937
152.672
157.462
162.302
167.187
172.109
177.063
182.041
187.036
192.04
197.045
202.044
207.026
211.985
216.91
221.793
226.625
231.396
236.099
240.724
245.263
249.705
254.044
258.269
262.373
266.348
270.184
273.876
277.414
280.791
284.002
287.039
289.897
292.569
295.051
297.337
299.425
301.309
302.987
304.456
305.714
306.76
307.592
308.211
308.612
308.786
308.759
308.523
308.082
307.438
306.596
305.559
304.333
302.922
301.332
299.57
297.642
295.556
293.317
290.934
288.414
285.766
282.997
280.116
277.131
274.05
270.882
267.635
264.317
260.935
257.498
254.013
250.487
246.927
243.339
239.73
236.105
232.47
228.831
225.193
221.564
217.952
214.364
210.803
207.271
203.768
200.297
196.859
193.459
190.101
186.792
183.543
180.369
177.293
174.346
171.578
168.976
166.407
8.5048
3.86369
3.05227
2.856
2.85052
2.94292
3.09622
3.29372
3.52669
3.78992
4.07986
4.39391
4.73011
5.08705
5.46382
5.86001
6.27563
6.71097
7.16679
7.64434
8.14501
8.67033
9.22195
9.8016
10.4112
11.0526
11.7271
12.4362
13.1816
13.9649
14.7877
15.6516
16.5581
17.5088
18.5051
19.5486
20.6411
21.7842
22.98
24.2312
25.5386
26.9037
28.3281
29.8137
31.3631
32.9788
34.6629
36.418
38.2464
40.1505
42.1328
44.1958
46.3422
48.5744
50.8951
53.3069
55.8123
58.4138
61.1138
63.9148
66.8189
69.8283
72.9449
76.1706
79.5067
82.9548
86.5158
90.1905
93.9794
97.8825
101.9
106.03
110.273
114.627
119.09
123.66
128.334
133.108
137.979
142.944
147.996
153.132
158.346
163.631
168.981
174.39
179.851
185.355
190.894
196.462
202.048
207.643
213.239
218.825
224.392
229.929
235.427
240.874
246.261
251.578
256.814
261.959
267.003
271.937
276.749
281.431
285.973
290.365
294.599
298.666
302.557
306.265
309.782
313.101
316.216
319.119
321.806
324.272
326.511
328.521
330.298
331.839
333.143
334.207
335.031
335.616
335.951
336.045
335.906
335.533
334.931
334.104
333.055
331.79
330.314
328.634
326.756
324.687
322.435
320.007
317.412
314.658
311.753
308.708
305.53
302.23
298.816
295.299
291.687
287.989
284.216
280.375
276.475
272.525
268.533
264.507
260.453
256.379
252.292
248.197
244.101
240.01
235.93
231.869
227.833
223.827
219.854
215.916
212.018
208.162
204.353
200.596
196.902
193.279
189.744
186.318
183.029
179.918
176.956
173.996
9.1428
4.16192
3.26599
3.03348
3.00881
3.08661
3.2276
3.41336
3.63439
3.88513
4.16203
4.46263
4.78516
5.12825
5.49135
5.8745
6.2782
6.70361
7.15048
7.6196
8.11218
8.62964
9.17355
9.74557
10.3474
10.9805
11.6467
12.3478
13.0856
13.8621
14.6791
15.5385
16.4421
17.3917
18.3893
19.4368
20.5361
21.6893
22.8983
24.165
25.4918
26.8815
28.3367
29.8608
31.4554
33.1239
34.869
36.6939
38.6012
40.5941
42.6756
44.8488
47.1169
49.4831
51.9507
54.5228
57.2026
59.9933
62.8979
65.9192
69.0602
72.3234
75.7113
79.226
82.8694
86.6433
90.5488
94.5869
98.7582
103.063
107.5
112.07
116.771
121.601
126.557
131.638
136.839
142.157
147.587
153.124
158.763
164.497
170.32
176.224
182.203
188.247
194.348
200.498
206.686
212.904
219.139
225.383
231.624
237.85
244.051
250.214
256.328
262.382
268.363
274.26
280.062
285.756
291.332
296.779
302.085
307.239
312.231
317.051
321.689
326.135
330.38
334.415
338.233
341.825
345.185
348.305
351.181
353.807
356.178
358.29
360.14
361.725
363.044
364.096
364.879
365.394
365.633
365.607
365.318
364.77
363.967
362.915
361.618
360.083
358.315
356.323
354.113
351.694
349.073
346.261
343.266
340.096
336.764
333.277
329.647
325.884
321.998
318.001
313.902
309.712
305.441
301.099
296.696
292.241
287.743
283.211
278.654
274.077
269.491
264.9
260.312
255.733
251.17
246.63
242.119
237.643
233.206
228.812
224.465
220.171
215.934
211.762
207.663
203.649
199.735
195.941
192.292
188.82
185.486
182.136
9.62733
4.39589
3.42989
3.16451
3.12111
3.18382
3.31156
3.48451
3.69252
3.92978
4.19254
4.47882
4.78757
5.11869
5.47057
5.84268
6.23497
6.64743
7.08075
7.53647
8.01597
8.5207
9.0522
9.61208
10.202
10.8238
11.4795
12.171
12.9006
13.67
14.4813
15.3366
16.238
17.1878
18.1882
19.2417
20.3505
21.5173
22.7446
24.0352
25.3922
26.8183
28.3161
29.8868
31.5361
33.269
35.0889
36.9993
39.0036
41.1053
43.3083
45.6162
48.0329
50.5625
53.2086
55.9754
58.8665
61.8858
65.037
68.3235
71.7486
75.3155
79.027
82.8857
86.8937
91.0529
95.3646
99.8299
104.449
109.222
114.149
119.228
124.457
129.834
135.356
141.02
146.821
152.754
158.814
164.995
171.289
177.69
184.189
190.777
197.446
204.186
210.986
217.837
224.726
231.642
238.574
245.509
252.434
259.337
266.204
273.022
279.778
286.46
293.053
299.544
305.922
312.173
318.284
324.243
330.038
335.657
341.089
346.322
351.346
356.15
360.726
365.062
369.152
372.986
376.557
379.86
382.887
385.633
388.094
390.266
392.146
393.731
395.02
396.013
396.707
397.104
397.203
397.008
396.519
395.745
394.693
393.368
391.775
389.922
387.815
385.464
382.877
380.062
377.029
373.788
370.349
366.723
362.92
358.951
354.828
350.563
346.167
341.652
337.029
332.31
327.506
322.629
317.688
312.695
307.66
302.591
297.499
292.391
287.277
282.162
277.056
271.964
266.894
261.853
256.847
251.882
246.964
242.098
237.289
232.543
227.865
223.264
218.749
214.332
210.027
205.853
201.83
197.986
194.275
190.542
9.96584
4.56801
3.54655
3.25229
3.19096
3.23849
3.3524
3.51177
3.7062
3.93031
4.18155
4.45631
4.7527
5.06901
5.40495
5.76091
6.13722
6.53448
6.95398
7.39658
7.86345
8.35596
8.87567
9.42426
10.0035
10.6155
11.2621
11.9456
12.6682
13.4323
14.2402
15.0943
15.9972
16.9516
17.9603
19.0262
20.1521
21.3412
22.5966
23.9221
25.321
26.7956
28.348
29.983
31.7076
33.5261
35.4439
37.4661
39.5964
41.8389
44.198
46.6783
49.2844
52.021
54.8927
57.904
61.0596
64.3638
67.8207
71.4346
75.209
79.1474
83.253
87.5285
91.9761
96.5977
101.394
106.367
111.516
116.84
122.338
128.008
133.849
139.856
146.025
152.352
158.831
165.456
172.221
179.116
186.135
193.268
200.505
207.836
215.25
222.736
230.281
237.874
245.501
253.15
260.805
268.454
276.082
283.675
291.218
298.696
306.094
313.398
320.594
327.666
334.602
341.386
348.006
354.448
360.698
366.745
372.576
378.178
383.542
388.655
393.509
398.093
402.398
406.416
410.141
413.564
416.681
419.485
421.973
424.141
425.986
427.507
428.702
429.571
430.115
430.333
430.229
429.802
429.052
427.995
426.636
424.982
423.038
420.813
418.316
415.556
412.542
409.285
405.794
402.081
398.156
394.031
389.718
385.23
380.578
375.776
370.836
365.77
360.593
355.315
349.95
344.51
339.006
333.45
327.853
322.226
316.577
310.917
305.255
299.599
293.956
288.335
282.743
277.186
271.673
266.209
260.801
255.454
250.175
244.969
239.845
234.809
229.873
225.046
220.344
215.784
211.382
207.162
203.075
198.969
10.1719
4.68377
3.62035
3.30139
3.22329
3.2559
3.35647
3.5044
3.68789
3.90014
4.13648
4.39521
4.67525
4.97602
5.29752
5.63958
6.00251
6.38693
6.79379
7.22417
7.67935
8.16081
8.67019
9.20934
9.78021
10.3849
11.0258
11.7053
12.426
13.1907
14.0021
14.8631
15.7767
16.7462
17.7751
18.8674
20.0263
21.2549
22.5567
23.9345
25.3901
26.9314
28.5653
30.2975
32.1331
34.0774
36.136
38.3153
40.6201
43.0555
45.6269
48.3397
51.1993
54.2112
57.3806
60.7128
64.2128
67.8854
71.7353
75.7668
79.9837
84.3897
88.9877
93.7803
98.7694
103.956
109.342
114.925
120.707
126.684
132.856
139.218
145.767
152.498
159.405
166.483
173.724
181.12
188.663
196.342
204.149
212.071
220.098
228.216
236.415
244.679
252.996
261.35
269.728
278.114
286.494
294.85
303.169
311.432
319.626
327.732
335.736
343.622
351.373
358.975
366.412
373.67
380.733
387.589
394.223
400.623
406.774
412.666
418.286
423.625
428.67
433.414
437.847
441.96
445.747
449.202
452.318
455.091
457.516
459.592
461.316
462.686
463.704
464.368
464.68
464.642
464.261
463.519
462.44
461.031
459.298
457.25
454.894
452.238
449.295
446.072
442.581
438.833
434.839
430.611
426.16
421.499
416.641
411.599
406.387
401.018
395.507
389.866
384.11
378.253
372.306
366.285
360.201
354.066
347.893
341.693
335.477
329.254
323.034
316.827
310.641
304.484
298.364
292.288
286.264
280.299
274.399
268.571
262.822
257.159
251.589
246.12
240.763
235.529
230.432
225.486
220.706
216.114
211.657
207.193
10.2384
4.74224
3.65382
3.31593
3.22393
3.24566
3.33523
3.46983
3.63848
3.83555
4.05776
4.30311
4.57019
4.85837
5.16743
5.4975
5.84901
6.22267
6.61948
7.04064
7.4876
7.96202
8.46581
9.00108
9.57004
10.1751
10.8189
11.5043
12.2345
13.0129
13.8432
14.7284
15.672
16.6777
17.749
18.8882
20.0986
21.3873
22.7601
24.2232
25.7832
27.4454
29.2165
31.1029
33.111
35.2473
37.5191
39.9321
42.493
45.2082
48.0843
51.1278
54.3448
57.7412
61.3226
65.0946
69.0624
73.2309
77.6046
82.1876
86.9834
91.9949
97.2244
102.674
108.343
114.234
120.344
126.673
133.217
139.975
146.941
154.111
161.479
169.038
176.78
184.698
192.782
201.021
209.405
217.924
226.563
235.311
244.154
253.077
262.067
271.109
280.186
289.282
298.383
307.47
316.528
325.539
334.486
343.353
352.122
360.776
369.299
377.672
385.881
393.909
401.741
409.36
416.753
423.906
430.803
437.432
443.78
449.835
455.586
461.022
466.132
470.908
475.342
479.425
483.15
486.513
489.507
492.129
494.376
496.245
497.735
498.847
499.582
499.939
499.92
499.542
498.771
497.637
496.145
494.305
492.125
489.611
486.775
483.627
480.177
476.437
472.418
468.132
463.591
458.807
453.793
448.562
443.129
437.506
431.71
425.753
419.651
413.419
407.07
400.62
394.082
387.471
380.8
374.082
367.33
360.556
353.77
346.985
340.21
333.455
326.728
320.04
313.397
306.808
300.28
293.821
287.439
281.14
274.931
268.82
262.814
256.922
251.155
245.523
240.039
234.717
229.569
224.614
219.8
215.002
10.2178
4.75256
3.65405
3.30633
3.20417
3.21231
3.28782
3.40936
3.56602
3.75161
3.96264
4.19708
4.45379
4.73224
5.03236
5.35448
5.69921
6.06743
6.4603
6.87925
7.326
7.80257
8.31139
8.85552
9.43732
10.0594
10.7249
11.4373
12.1997
13.0152
13.8847
14.8153
15.8125
16.8817
18.0284
19.2591
20.5797
21.9961
23.515
25.1438
26.8902
28.7612
30.7644
32.9074
35.1978
37.6432
40.2517
43.0305
45.9874
49.1303
52.4672
56.0056
59.7518
63.711
67.8886
72.2895
76.918
81.7783
86.8736
92.2068
97.7796
103.593
109.649
115.945
122.481
129.254
136.261
143.498
150.961
158.643
166.538
174.638
182.935
191.419
200.08
208.908
217.891
227.017
236.273
245.644
255.118
264.679
274.313
284.003
293.734
303.489
313.251
323.004
332.73
342.412
352.032
361.574
371.018
380.347
389.545
398.593
407.475
416.173
424.672
432.955
441.006
448.81
456.354
463.622
470.601
477.279
483.643
489.682
495.384
500.74
505.74
510.376
514.64
518.525
522.026
525.137
527.855
530.175
532.097
533.618
534.739
535.459
535.786
535.715
535.266
534.403
533.156
531.53
529.534
527.177
524.467
521.414
518.028
514.323
510.308
505.997
501.401
496.533
491.405
486.031
480.424
474.597
468.566
462.344
455.948
449.391
442.691
435.861
428.917
421.874
414.747
407.551
400.299
393.006
385.684
378.346
371.004
363.67
356.354
349.066
341.816
334.613
327.465
320.381
313.369
306.436
299.591
292.841
286.192
279.653
273.232
266.937
260.779
254.768
248.916
243.236
237.737
232.44
227.289
222.184
10.1496
4.74092
3.63671
3.27591
3.16094
3.15823
3.22357
3.33549
3.48304
3.66032
3.86399
4.09217
4.34391
4.61892
4.91748
5.24041
5.58905
5.96416
6.36725
6.8002
7.26516
7.76443
8.3002
8.87385
9.4888
10.1502
10.8627
11.6311
12.4605
13.3564
14.3256
15.3733
16.506
17.7307
19.0552
20.4875
22.0359
23.7085
25.514
27.4616
29.5602
31.8189
34.2467
36.8526
39.6453
42.6328
45.822
49.2208
52.8389
56.6855
60.7702
65.1049
69.6907
74.5297
79.6244
84.9771
90.5893
96.462
102.595
108.989
115.641
122.549
129.709
137.118
144.77
152.66
160.779
169.122
177.679
186.441
195.398
204.54
213.856
223.332
232.958
242.719
252.603
262.596
272.682
282.847
293.075
303.352
313.66
323.984
334.308
344.613
354.885
365.104
375.255
385.319
395.28
405.12
414.822
424.369
433.744
442.931
451.912
460.671
469.194
477.464
485.466
493.187
500.613
507.731
514.528
520.993
527.114
532.881
538.283
543.312
547.961
552.22
556.084
559.548
562.606
565.253
567.489
569.31
570.716
571.706
572.281
572.439
572.208
571.559
570.496
569.035
567.183
564.944
562.33
559.349
556.012
552.328
548.309
543.969
539.32
534.375
529.145
523.645
517.886
511.882
505.647
499.196
492.542
485.702
478.691
471.525
464.218
456.788
449.249
441.617
433.907
426.134
418.313
410.457
402.581
394.697
386.818
378.955
371.119
363.321
355.57
347.876
340.248
332.695
325.224
317.845
310.564
303.389
296.329
289.389
282.58
275.909
269.386
263.021
256.826
250.812
244.986
239.37
233.908
228.53
10.0061
4.70137
3.5965
3.22918
3.10824
3.10045
3.16139
3.27019
3.41631
3.59445
3.80163
4.03596
4.29682
4.58424
4.89866
5.24054
5.60921
6.00824
6.44056
6.9092
7.41753
7.96934
8.56907
9.2224
9.93429
10.7102
11.5564
12.4803
13.4894
14.5924
15.7982
17.1157
18.5543
20.1241
21.8357
23.7002
25.7288
27.9325
30.3225
32.9098
35.7053
38.719
41.9609
45.4403
49.1658
53.1448
57.3834
61.8883
66.6664
71.7239
77.0676
82.7035
88.626
94.8313
101.316
108.076
115.107
122.403
129.959
137.768
145.823
154.116
162.638
171.38
180.332
189.484
198.826
208.346
218.032
227.874
237.858
247.973
258.205
268.541
278.968
289.473
300.041
310.659
321.312
331.986
342.665
353.336
363.983
374.591
385.145
395.629
406.027
416.324
426.504
436.551
446.45
456.185
465.74
475.099
484.248
493.171
501.854
510.281
518.439
526.314
533.892
541.161
548.109
554.724
560.995
566.913
572.466
577.645
582.443
586.852
590.866
594.477
597.679
600.472
602.849
604.805
606.346
607.464
608.162
608.439
608.3
607.763
606.785
605.41
603.632
601.458
598.893
595.947
592.63
588.952
584.922
580.55
575.852
570.839
565.524
559.921
554.042
547.898
541.505
534.874
528.02
520.958
513.702
506.267
498.669
490.924
483.048
475.055
466.963
458.786
450.54
442.24
433.9
425.534
417.157
408.781
400.419
392.083
383.783
375.531
367.336
359.208
351.155
343.188
335.314
327.542
319.879
312.334
304.913
297.625
290.477
283.478
276.637
269.964
263.47
257.165
251.054
245.16
239.426
233.822
9.85707
4.63893
3.54648
3.18338
3.06557
3.06223
3.13022
3.2484
3.40632
3.59813
3.82016
4.07274
4.35638
4.67214
5.02173
5.40762
5.83353
6.30256
6.8191
7.38834
8.01622
8.70958
9.4763
10.3252
11.2653
12.3061
13.4583
14.7338
16.1454
17.7064
19.4305
21.3318
23.4243
25.7225
28.2411
30.9942
33.9949
37.2559
40.7888
44.6048
48.7126
53.1193
57.8305
62.8511
68.1856
73.8339
79.7943
86.0662
92.6517
99.546
106.757
114.251
122.019
130.05
138.331
146.85
155.595
164.553
173.713
183.062
192.588
202.279
212.122
222.106
232.218
242.448
252.783
263.212
273.723
284.305
294.946
305.635
316.361
327.112
337.878
348.645
359.404
370.142
380.848
391.509
402.114
412.65
423.106
433.469
443.725
453.863
463.87
473.731
483.435
492.967
502.314
511.463
520.402
529.115
537.59
545.814
553.775
561.459
568.855
575.949
582.732
589.191
595.316
601.098
606.528
611.597
616.294
620.613
624.547
628.091
631.238
633.982