/*--------------------------------*- C++ -*----------------------------------*\
  =========                 |
  \\      /  F ield         | OpenFOAM: The Open Source CFD Toolbox
   \\    /   O peration     | Website:  https://openfoam.org
    \\  /    A nd           | Version:  8
     \\/     M anipulation  |
\*---------------------------------------------------------------------------*/
FoamFile
{
    version     2.0;
    format      ascii;
    class       volScalarField;
    location    "255";
    object      k;
}
// * * * * * * * * * * * * * * * * * * * * * * * * * * * * * * * * * * * * * //

dimensions      [0 2 -2 0 0 0 0];

internalField   nonuniform List<scalar> 
12225
(
0.362827
0.343992
0.327751
0.309812
0.29541
0.28347
0.275528
0.270279
0.270337
0.271888
0.276044
0.280715
0.289816
0.295751
0.306767
0.312745
0.325212
0.327568
0.44027
0.468738
0.461616
0.448371
0.450344
0.458316
0.474575
0.498489
0.524422
0.552064
0.580753
0.606108
0.633818
0.653811
0.679711
0.692971
0.718081
0.724341
0.390406
0.41786
0.420244
0.416831
0.411633
0.407803
0.40802
0.410036
0.414568
0.421378
0.430727
0.4397
0.451166
0.461138
0.472808
0.483517
0.493485
0.505816
0.377042
0.387169
0.391466
0.391343
0.39026
0.387882
0.385662
0.384079
0.382884
0.382897
0.383355
0.384379
0.386272
0.388459
0.3909
0.394232
0.396527
0.400943
0.374434
0.376094
0.378427
0.378666
0.378275
0.377201
0.375488
0.373737
0.37201
0.370455
0.369256
0.368109
0.36738
0.366803
0.366441
0.366331
0.366348
0.366693
0.373779
0.372704
0.372659
0.372365
0.371773
0.370818
0.369554
0.368082
0.366572
0.364977
0.363528
0.362063
0.360755
0.359529
0.358397
0.357426
0.356438
0.355781
0.373775
0.37174
0.370388
0.369284
0.368235
0.367114
0.365915
0.364587
0.363238
0.361808
0.360423
0.359024
0.357679
0.356383
0.355122
0.353967
0.352794
0.351803
0.373818
0.371559
0.369635
0.367976
0.366501
0.365108
0.363776
0.362429
0.361108
0.359767
0.358451
0.357144
0.355864
0.354623
0.353402
0.352251
0.3511
0.350053
0.373832
0.371553
0.369449
0.367525
0.365777
0.364154
0.362645
0.361199
0.359818
0.358474
0.35717
0.355903
0.354668
0.353476
0.352309
0.351197
0.350099
0.349074
0.373831
0.37156
0.369418
0.367405
0.365529
0.363773
0.362133
0.360585
0.359122
0.357728
0.356395
0.355118
0.353889
0.352711
0.35157
0.350483
0.349421
0.348422
0.373829
0.37156
0.369413
0.367378
0.365458
0.363645
0.361937
0.360324
0.358799
0.357353
0.355979
0.354673
0.353425
0.352236
0.351095
0.350009
0.34896
0.34797
0.373828
0.371558
0.369409
0.36737
0.365439
0.363609
0.361875
0.360234
0.358677
0.357202
0.3558
0.354469
0.353201
0.351995
0.350843
0.349748
0.348696
0.347701
0.373827
0.371556
0.369405
0.367365
0.36543
0.363593
0.361851
0.360197
0.358626
0.357134
0.355716
0.354368
0.353085
0.351865
0.350701
0.349595
0.348535
0.347532
0.373826
0.371555
0.369401
0.367359
0.365422
0.363583
0.361837
0.360178
0.3586
0.357101
0.355674
0.354317
0.353024
0.351795
0.350622
0.349506
0.34844
0.347427
0.373826
0.371553
0.369398
0.367355
0.365416
0.363575
0.361826
0.360164
0.358584
0.357081
0.355651
0.354289
0.352993
0.351758
0.35058
0.349458
0.348388
0.347368
0.373826
0.371552
0.369396
0.367351
0.36541
0.363567
0.361817
0.360153
0.358571
0.357067
0.355634
0.35427
0.352971
0.351734
0.350554
0.349429
0.348356
0.347333
0.373825
0.371551
0.369394
0.367348
0.365406
0.363562
0.36181
0.360145
0.358561
0.357055
0.355621
0.354256
0.352955
0.351716
0.350534
0.349408
0.348333
0.347308
0.373825
0.371551
0.369393
0.367346
0.365403
0.363558
0.361805
0.360139
0.358554
0.357047
0.355612
0.354245
0.352943
0.351703
0.35052
0.349392
0.348316
0.34729
0.373825
0.37155
0.369393
0.367346
0.365402
0.363557
0.361804
0.360137
0.358552
0.357043
0.355608
0.35424
0.352938
0.351696
0.350513
0.349384
0.348307
0.34728
0.373825
0.371551
0.369393
0.367347
0.365404
0.363559
0.361806
0.360139
0.358555
0.357046
0.355611
0.354244
0.352941
0.3517
0.350517
0.349388
0.348311
0.347284
0.373825
0.371551
0.369395
0.367349
0.365407
0.363563
0.361811
0.360146
0.358562
0.357055
0.355621
0.354255
0.352954
0.351715
0.350533
0.349407
0.348332
0.347307
0.373826
0.371552
0.369397
0.367352
0.365412
0.363571
0.361822
0.360161
0.358583
0.357083
0.355656
0.354298
0.353006
0.351775
0.350602
0.349483
0.348417
0.347397
0.373826
0.371554
0.369399
0.367359
0.365428
0.363602
0.361875
0.36024
0.35869
0.35722
0.355823
0.354493
0.353227
0.352018
0.350865
0.349762
0.34871
0.3477
0.373828
0.371551
0.369412
0.367417
0.365556
0.363819
0.362189
0.360651
0.359189
0.357793
0.356456
0.355171
0.353935
0.352745
0.3516
0.350495
0.349436
0.348409
0.373823
0.371554
0.369604
0.367893
0.366339
0.364892
0.363495
0.362122
0.360761
0.359413
0.358081
0.356769
0.355488
0.354237
0.353029
0.351855
0.350734
0.349645
0.373781
0.37199
0.371113
0.370265
0.36936
0.368311
0.367048
0.36563
0.36412
0.362575
0.36103
0.359522
0.358073
0.356682
0.355381
0.354141
0.353009
0.351923
0.374297
0.375564
0.377778
0.377858
0.377291
0.375885
0.373835
0.371641
0.369505
0.367482
0.365664
0.364084
0.36271
0.361535
0.36061
0.359818
0.359289
0.358801
0.378732
0.394393
0.398293
0.396565
0.392558
0.387608
0.383641
0.380455
0.378266
0.376852
0.376497
0.37675
0.3774
0.378698
0.380444
0.382424
0.384828
0.387139
0.408344
0.427539
0.422424
0.411051
0.402227
0.397924
0.398558
0.401118
0.405987
0.413041
0.420999
0.429833
0.43884
0.448197
0.457312
0.46656
0.475329
0.484189
0.366033
0.353412
0.341988
0.33021
0.318982
0.308382
0.299409
0.291674
0.285403
0.280333
0.276682
0.273868
0.27231
0.271185
0.271177
0.271523
0.272157
0.273388
0.000678359
0.00383308
0.00709664
0.0100315
0.0129871
0.0163142
0.0201572
0.0246439
0.0297966
0.035536
0.0417279
0.0482274
0.0549043
0.0616503
0.068379
0.0750211
0.081521
0.0878307
0.0939063
0.0997002
0.105156
0.110198
0.114727
0.118606
0.121652
0.123623
0.124189
0.122872
0.118948
0.111303
0.114832
0.119346
0.123046
0.130243
0.139948
0.153999
0.152094
0.147987
0.145351
0.142125
0.143758
0.15164
0.159067
0.166055
0.174023
0.181667
0.189774
0.197905
0.206276
0.214777
0.223455
0.23229
0.241286
0.250444
0.25976
0.269238
0.278871
0.288664
0.29861
0.308713
0.318964
0.329367
0.339912
0.350603
0.361428
0.37239
0.383476
0.394688
0.406013
0.417452
0.428989
0.440626
0.452346
0.464149
0.476018
0.487951
0.499931
0.511956
0.524007
0.536081
0.548159
0.560238
0.572296
0.58433
0.596319
0.608255
0.620117
0.631897
0.643572
0.655129
0.666545
0.677797
0.68886
0.699712
0.710332
0.720711
0.730872
0.740903
0.750676
0.760229
0.769536
0.778597
0.787393
0.795918
0.804157
0.8121
0.819735
0.827054
0.834044
0.840697
0.847003
0.852954
0.85854
0.863755
0.868591
0.873042
0.877102
0.880766
0.884029
0.886889
0.889342
0.891387
0.893024
0.894253
0.895075
0.895491
0.895483
0.895179
0.894389
0.893183
0.891498
0.889514
0.887236
0.884515
0.881453
0.878035
0.874276
0.870187
0.865779
0.861069
0.856071
0.850807
0.845281
0.839506
0.833498
0.82727
0.820837
0.814213
0.807412
0.80045
0.79334
0.786095
0.77873
0.771258
0.76369
0.75604
0.748318
0.740535
0.732703
0.724833
0.716943
0.70906
0.70133
0.695168
0.69164
0.688521
0.68545
0.682391
0.679337
0.676282
0.673223
0.670147
0.667039
0.663868
0.660593
0.657122
0.653285
0.648662
0.642202
0.616714
0.00340893
0.0135325
0.0203287
0.0254301
0.0299748
0.0344875
0.0393191
0.0446443
0.0505053
0.0568512
0.0635827
0.0705862
0.0777552
0.0849992
0.0922455
0.0994365
0.106527
0.113479
0.12026
0.126836
0.133164
0.139189
0.144832
0.149998
0.154573
0.158448
0.161555
0.16397
0.166112
0.169121
0.175648
0.183451
0.192179
0.202148
0.212946
0.223588
0.231173
0.239824
0.252115
0.263051
0.274415
0.286803
0.298699
0.311173
0.32421
0.337499
0.351136
0.365085
0.379359
0.393947
0.408852
0.424072
0.439608
0.455462
0.471634
0.488126
0.504938
0.522072
0.539527
0.557303
0.575399
0.593814
0.612545
0.63159
0.650944
0.670604
0.690563
0.710817
0.731357
0.752176
0.773264
0.794613
0.816211
0.838047
0.860108
0.882381
0.90485
0.927503
0.950321
0.973288
0.996387
1.0196
1.0429
1.06628
1.08971
1.11317
1.13664
1.16008
1.18349
1.20682
1.23005
1.25314
1.27605
1.29876
1.32119
1.34331
1.36503
1.38629
1.40724
1.42787
1.44818
1.46814
1.48772
1.5069
1.52566
1.54397
1.5618
1.57915
1.59597
1.61225
1.62797
1.64311
1.65764
1.67155
1.68482
1.69743
1.70936
1.7206
1.73113
1.74095
1.75004
1.75839
1.766
1.77285
1.77895
1.78429
1.78888
1.79274
1.79584
1.79812
1.79945
1.80007
1.8002
1.79949
1.79806
1.79592
1.79308
1.78957
1.7854
1.78059
1.77518
1.76917
1.76259
1.75548
1.74784
1.73971
1.73112
1.72208
1.71263
1.70279
1.69259
1.68205
1.6712
1.66007
1.64869
1.63706
1.62522
1.61318
1.60098
1.58862
1.57613
1.56352
1.55087
1.53846
1.52653
1.51468
1.5028
1.49089
1.47894
1.46695
1.45492
1.44282
1.43063
1.41834
1.40589
1.39322
1.38014
1.36668
1.35125
1.31596
0.00721432
0.0231337
0.0321442
0.0388634
0.0448337
0.0506502
0.056629
0.0629379
0.0696375
0.0767124
0.0841015
0.0917251
0.0995036
0.107368
0.115262
0.123146
0.130988
0.138771
0.146483
0.154115
0.161658
0.169103
0.176434
0.183635
0.190701
0.197662
0.204617
0.211777
0.219499
0.228246
0.2384
0.249568
0.261601
0.274415
0.287746
0.301234
0.314616
0.328779
0.343563
0.358362
0.373605
0.389314
0.405357
0.421835
0.438758
0.456078
0.473789
0.491886
0.51037
0.529239
0.548492
0.56813
0.588154
0.608564
0.629361
0.650545
0.672116
0.694074
0.716418
0.739147
0.762257
0.785748
0.809614
0.833852
0.858456
0.88342
0.908737
0.934398
0.960395
0.986717
1.01335
1.04029
1.06752
1.09502
1.12278
1.15078
1.179
1.20743
1.23605
1.26483
1.29376
1.3228
1.35195
1.38117
1.41043
1.43971
1.46899
1.49822
1.5274
1.55647
1.58541
1.61419
1.64278
1.67113
1.69921
1.727
1.75447
1.78159
1.80836
1.83475
1.86073
1.88626
1.91131
1.93585
1.95986
1.98329
2.00611
2.02831
2.04984
2.07068
2.0908
2.11018
2.12878
2.14659
2.16357
2.1797
2.19497
2.20936
2.22284
2.2354
2.24702
2.2577
2.26742
2.27617
2.28396
2.29077
2.29661
2.30148
2.30538
2.30828
2.31004
2.3108
2.31085
2.30989
2.30799
2.30518
2.30148
2.29691
2.2915
2.28526
2.27824
2.27045
2.26194
2.25271
2.24282
2.23229
2.22116
2.20945
2.1972
2.18446
2.17123
2.15758
2.14352
2.12908
2.11431
2.09922
2.08386
2.06823
2.05238
2.03633
2.0201
2.00372
1.98726
1.97086
1.95464
1.93846
1.92224
1.90596
1.88963
1.87324
1.85679
1.84027
1.82367
1.80699
1.79021
1.77332
1.75627
1.73921
1.72079
1.69028
0.0114985
0.032127
0.0432086
0.0513112
0.0583757
0.0651184
0.071896
0.0788981
0.0862095
0.0938429
0.101765
0.109922
0.118252
0.126702
0.135229
0.143804
0.152412
0.161047
0.169717
0.178437
0.187226
0.196108
0.205109
0.214257
0.223591
0.233165
0.243066
0.253417
0.264374
0.276087
0.28863
0.301944
0.315981
0.330688
0.345971
0.361736
0.37795
0.394701
0.411924
0.429554
0.447619
0.466095
0.484965
0.504258
0.52399
0.544159
0.564761
0.585797
0.607267
0.629174
0.651518
0.674301
0.697524
0.721189
0.745298
0.76985
0.794847
0.820288
0.846173
0.8725
0.899268
0.926473
0.954112
0.982181
1.01067
1.03958
1.0689
1.09862
1.12872
1.15921
1.19006
1.22127
1.25281
1.28467
1.31684
1.34929
1.38201
1.41496
1.44814
1.48152
1.51506
1.54876
1.58257
1.61647
1.65043
1.68442
1.71841
1.75236
1.78624
1.82003
1.85368
1.88716
1.92043
1.95347
1.98623
2.01868
2.0508
2.08254
2.11386
2.14475
2.17514
2.20502
2.23433
2.26305
2.29113
2.31853
2.34523
2.37117
2.39634
2.4207
2.4442
2.46683
2.48855
2.50932
2.52913
2.54794
2.56573
2.58247
2.59815
2.61275
2.62624
2.63862
2.64986
2.65997
2.66894
2.67675
2.68342
2.68894
2.69331
2.69651
2.69842
2.69916
2.69896
2.69762
2.69518
2.69166
2.68709
2.68149
2.67489
2.66733
2.65884
2.64944
2.63918
2.62808
2.61619
2.60355
2.59019
2.57615
2.56147
2.5462
2.53036
2.51401
2.49718
2.4799
2.46222
2.44417
2.42578
2.40709
2.38813
2.36893
2.34951
2.32992
2.3102
2.29045
2.27076
2.25105
2.23129
2.21146
2.19156
2.1716
2.15158
2.13151
2.11139
2.09124
2.07107
2.05096
2.03093
2.01123
1.99072
1.96272
0.0157608
0.0405033
0.0534762
0.0628468
0.0708829
0.0784073
0.0858284
0.0933684
0.101142
0.109192
0.117515
0.126081
0.134852
0.143786
0.152855
0.162039
0.17133
0.180736
0.190273
0.199968
0.209855
0.219973
0.230364
0.24107
0.252137
0.263612
0.275547
0.288004
0.301047
0.31473
0.329083
0.344107
0.359794
0.376126
0.393072
0.410595
0.428675
0.447297
0.466431
0.486057
0.506159
0.526716
0.547718
0.569177
0.591106
0.613509
0.636391
0.659754
0.683602
0.707939
0.732767
0.758089
0.783909
0.810229
0.837052
0.864378
0.892211
0.920549
0.949395
0.978746
1.0086
1.03896
1.06982
1.10117
1.13301
1.16534
1.19814
1.2314
1.26512
1.29928
1.33386
1.36887
1.40426
1.44004
1.47618
1.51265
1.54944
1.58653
1.62387
1.66146
1.69926
1.73723
1.77536
1.8136
1.85193
1.89031
1.9287
1.96706
2.00537
2.04358
2.08165
2.11954
2.15723
2.19465
2.23178
2.26858
2.30499
2.34098
2.37651
2.41152
2.44599
2.47986
2.51309
2.54564
2.57746
2.60851
2.63875
2.66813
2.69663
2.7242
2.7508
2.77639
2.80094
2.82442
2.84679
2.86803
2.88809
2.90697
2.92463
2.94106
2.95622
2.97011
2.98272
2.99402
3.00401
3.01269
3.02005
3.02611
3.03084
3.03425
3.03621
3.03689
3.03639
3.03462
3.03159
3.02734
3.02188
3.01525
3.00748
2.99861
2.98867
2.97769
2.96572
2.9528
2.93898
2.92428
2.90877
2.89247
2.87545
2.85774
2.83939
2.82044
2.80094
2.78094
2.76047
2.73958
2.7183
2.69667
2.67473
2.65251
2.63005
2.60739
2.58456
2.56164
2.5387
2.5157
2.49263
2.46948
2.44627
2.423
2.39969
2.37635
2.35301
2.32969
2.30647
2.28345
2.26077
2.23867
2.2162
2.18873
0.0198056
0.0480813
0.0627491
0.0732745
0.0821895
0.0904069
0.0983828
0.106371
0.114514
0.122885
0.131508
0.14038
0.149482
0.158791
0.168288
0.177964
0.187819
0.197865
0.208123
0.218624
0.229407
0.240513
0.251989
0.263878
0.276222
0.289059
0.302426
0.316353
0.330871
0.346001
0.361761
0.378155
0.395188
0.412852
0.431137
0.45003
0.469514
0.489574
0.510188
0.531343
0.553024
0.575217
0.597916
0.621124
0.644849
0.669095
0.693871
0.71918
0.745029
0.771423
0.798367
0.825866
0.853924
0.882546
0.911736
0.941496
0.971829
1.00274
1.03422
1.06629
1.09893
1.13215
1.16594
1.2003
1.23522
1.27071
1.30674
1.34331
1.38041
1.41803
1.45615
1.49475
1.53382
1.57334
1.61328
1.65363
1.69435
1.73542
1.77681
1.81848
1.86042
1.90258
1.94493
1.98742
2.03004
2.07272
2.11544
2.15815
2.20081
2.24337
2.2858
2.32805
2.37006
2.4118
2.45322
2.49426
2.53487
2.57501
2.61463
2.65368
2.69212
2.72988
2.76692
2.80319
2.83865
2.87325
2.90693
2.93965
2.97137
3.00205
3.03164
3.0601
3.08739
3.11347
3.13831
3.16188
3.18413
3.20505
3.22461
3.24277
3.25953
3.27485
3.28873
3.30115
3.31209
3.32157
3.32957
3.33609
3.34113
3.3447
3.34665
3.34721
3.34638
3.34413
3.34048
3.33545
3.32907
3.32138
3.31241
3.30219
3.29078
3.2782
3.26451
3.24975
3.23396
3.2172
3.19952
3.18096
3.16158
3.14142
3.12055
3.099
3.07684
3.0541
3.03084
3.00711
2.98294
2.95838
2.93347
2.90825
2.88275
2.85702
2.83111
2.80506
2.77892
2.75271
2.72641
2.70003
2.6736
2.64712
2.62062
2.59413
2.56769
2.54136
2.51523
2.48946
2.46421
2.43975
2.41522
2.38704
0.0234989
0.0547504
0.0708923
0.0824375
0.092133
0.100964
0.109425
0.117797
0.126246
0.13487
0.143719
0.152813
0.162154
0.171736
0.181553
0.191605
0.201897
0.212445
0.223272
0.234409
0.245894
0.257768
0.270072
0.282847
0.29613
0.309953
0.324344
0.339322
0.354905
0.371105
0.38793
0.405384
0.423471
0.442189
0.461535
0.481504
0.502088
0.523276
0.545058
0.567425
0.590369
0.613882
0.637961
0.662608
0.687827
0.713624
0.740008
0.766984
0.79456
0.822743
0.85154
0.880959
0.911005
0.941686
0.973005
1.00497
1.03758
1.07085
1.10477
1.13935
1.1746
1.21049
1.24705
1.28426
1.32212
1.36063
1.39976
1.43953
1.47991
1.52088
1.56244
1.60457
1.64724
1.69044
1.73413
1.7783
1.82291
1.86794
1.91335
1.9591
2.00516
2.0515
2.09806
2.14481
2.19171
2.23871
2.28577
2.33283
2.37985
2.42678
2.47357
2.52016
2.5665
2.61254
2.65823
2.7035
2.7483
2.79257
2.83627
2.87932
2.92169
2.96331
3.00413
3.0441
3.08315
3.12125
3.15832
3.19434
3.22924
3.26297
3.2955
3.32677
3.35674
3.38537
3.41262
3.43846
3.46284
3.48574
3.50713
3.52697
3.54525
3.56195
3.57705
3.59052
3.60237
3.61258
3.62116
3.6281
3.6334
3.63707
3.63897
3.63935
3.63815
3.63538
3.63105
3.6252
3.61786
3.60906
3.59885
3.58725
3.57433
3.56011
3.54466
3.52802
3.51023
3.49137
3.47148
3.45062
3.42884
3.4062
3.38277
3.35859
3.33372
3.30822
3.28214
3.25553
3.22844
3.20092
3.17301
3.14476
3.11621
3.0874
3.05838
3.02919
2.99989
2.97048
2.94098
2.91142
2.8818
2.85217
2.82255
2.79298
2.76352
2.73425
2.70529
2.67682
2.64903
2.62217
2.59543
2.56574
0.0267467
0.0604436
0.0778251
0.0902384
0.100604
0.109964
0.118844
0.127542
0.136245
0.14507
0.154087
0.163339
0.172845
0.182616
0.192658
0.202979
0.213591
0.224513
0.235767
0.247385
0.259399
0.271847
0.284765
0.298189
0.312151
0.32668
0.341797
0.35752
0.373862
0.39083
0.408431
0.42667
0.445548
0.465068
0.485229
0.506031
0.527471
0.549546
0.572254
0.595589
0.619552
0.644139
0.669352
0.695194
0.721669
0.748784
0.776549
0.804972
0.834061
0.863827
0.894277
0.925423
0.957271
0.989831
1.02311
1.05712
1.09186
1.12733
1.16356
1.20053
1.23825
1.27672
1.31594
1.35591
1.39663
1.43808
1.48026
1.52316
1.56676
1.61106
1.65603
1.70166
1.74791
1.79478
1.84222
1.89022
1.93873
1.98772
2.03716
2.08701
2.13722
2.18775
2.23856
2.28959
2.34081
2.39215
2.44356
2.495
2.54639
2.5977
2.64886
2.69981
2.75048
2.80083
2.85078
2.90027
2.94924
2.99762
3.04537
3.0924
3.13868
3.18412
3.22868
3.27229
3.3149
3.35644
3.39686
3.43611
3.47412
3.51085
3.54624
3.58026
3.61284
3.64394
3.67353
3.70156
3.728
3.7528
3.77595
3.7974
3.81714
3.83513
3.85137
3.86584
3.87852
3.8894
3.89849
3.90578
3.91127
3.91498
3.91679
3.91693
3.91531
3.91197
3.90692
3.9002
3.89185
3.8819
3.8704
3.85739
3.84291
3.82702
3.80977
3.79121
3.7714
3.7504
3.72826
3.70506
3.68086
3.65571
3.62968
3.60284
3.57523
3.54694
3.518
3.48849
3.45845
3.42794
3.39702
3.36572
3.33409
3.30219
3.27005
3.23773
3.20527
3.17269
3.14004
3.10732
3.07457
3.04182
3.00913
2.97654
2.94413
2.91199
2.88026
2.84913
2.8188
2.78949
2.76045
2.72909
0.0294916
0.0651395
0.083523
0.0966437
0.10756
0.117359
0.126586
0.135553
0.144461
0.153442
0.162583
0.171941
0.181553
0.191443
0.20163
0.212129
0.222958
0.234137
0.245691
0.257646
0.270034
0.282887
0.296236
0.310112
0.324543
0.339554
0.355166
0.371394
0.388251
0.405746
0.423885
0.442674
0.462117
0.482219
0.502981
0.524407
0.546501
0.569262
0.592695
0.616802
0.641586
0.66705
0.6932
0.72004
0.747579
0.775826
0.804791
0.834485
0.864919
0.896105
0.928055
0.96078
0.994291
1.0286
1.06372
1.09965
1.13641
1.174
1.21243
1.25171
1.29184
1.33282
1.37465
1.41734
1.46086
1.50523
1.55043
1.59645
1.64327
1.69089
1.73927
1.78841
1.83826
1.88881
1.94002
1.99186
2.0443
2.09728
2.15078
2.20475
2.25913
2.31388
2.36896
2.42429
2.47983
2.53552
2.5913
2.64711
2.70289
2.75856
2.81407
2.86935
2.92433
2.97895
3.03312
3.08679
3.13987
3.19232
3.24405
3.295
3.3451
3.39429
3.4425
3.48967
3.53573
3.58062
3.62428
3.66665
3.70767
3.74728
3.78543
3.82206
3.85714
3.8906
3.92241
3.95252
3.98089
4.00748
4.03227
4.05522
4.0763
4.09549
4.11277
4.12813
4.14154
4.153
4.16252
4.17008
4.17569
4.17935
4.18102
4.18084
4.17875
4.17478
4.16896
4.16132
4.15192
4.14079
4.12796
4.1135
4.09744
4.07985
4.06077
4.04028
4.01842
3.99526
3.97088
3.94533
3.91868
3.89101
3.86237
3.83285
3.80251
3.77141
3.73961
3.70719
3.67421
3.64072
3.60677
3.57243
3.53774
3.50275
3.46752
3.43209
3.3965
3.36081
3.32503
3.28921
3.25339
3.2176
3.18191
3.14638
3.11109
3.07614
3.0417
3.00796
2.97511
2.94334
2.91193
2.87877
0.0317059
0.0688539
0.08801
0.101677
0.113021
0.123164
0.132663
0.141841
0.150905
0.159999
0.169221
0.178642
0.18831
0.198263
0.208526
0.219123
0.230077
0.24141
0.253147
0.265314
0.277939
0.291048
0.304669
0.318831
0.333557
0.34887
0.364789
0.381331
0.398508
0.416333
0.434814
0.453959
0.473777
0.494273
0.515455
0.53733
0.559904
0.583185
0.60718
0.631896
0.657341
0.683524
0.710453
0.738139
0.766593
0.795826
0.825852
0.856685
0.888338
0.920828
0.954166
0.988369
1.02345
1.05942
1.0963
1.13409
1.17281
1.21246
1.25306
1.29461
1.33712
1.38059
1.42502
1.47041
1.51675
1.56404
1.61227
1.66142
1.71149
1.76244
1.81427
1.86693
1.92041
1.97467
2.02968
2.08539
2.14177
2.19877
2.25635
2.31444
2.373
2.43198
2.49131
2.55093
2.61078
2.67079
2.7309
2.79104
2.85114
2.91112
2.97091
3.03044
3.08964
3.14842
3.20671
3.26444
3.32153
3.3779
3.43348
3.4882
3.54198
3.59476
3.64647
3.69703
3.74637
3.79444
3.84115
3.88646
3.9303
3.97261
4.01333
4.05241
4.08979
4.12543
4.15927
4.19128
4.22141
4.24962
4.27589
4.30017
4.32244
4.34267
4.36085
4.37696
4.39098
4.4029
4.41272
4.42044
4.42607
4.4296
4.43105
4.43047
4.42784
4.42318
4.41653
4.40794
4.39745
4.38509
4.37092
4.35499
4.33734
4.31804
4.29714
4.2747
4.2508
4.2255
4.19887
4.17098
4.14192
4.11174
4.08053
4.04835
4.01529
3.98142
3.9468
3.91151
3.87561
3.83917
3.80225
3.76491
3.7272
3.68918
3.65091
3.61243
3.57379
3.53505
3.49624
3.45741
3.4186
3.37987
3.34128
3.3029
3.26482
3.22717
3.1901
3.15381
3.11847
3.08427
3.0505
3.01538
0.0333877
0.0716322
0.0913464
0.105408
0.11706
0.127452
0.137146
0.146471
0.155641
0.164804
0.174067
0.18351
0.19319
0.203154
0.213436
0.224066
0.23507
0.246472
0.258296
0.270566
0.283307
0.296544
0.310302
0.324606
0.339478
0.354939
0.37101
0.387706
0.405045
0.42304
0.441705
0.46105
0.481088
0.50183
0.523286
0.545468
0.568386
0.592053
0.61648
0.641679
0.667663
0.694447
0.722044
0.750468
0.779734
0.809856
0.840853
0.872742
0.905541
0.939267
0.973937
1.00957
1.04618
1.08378
1.1224
1.16203
1.2027
1.24442
1.2872
1.33104
1.37595
1.42193
1.46899
1.51713
1.56633
1.61658
1.66789
1.72022
1.77357
1.82791
1.88321
1.93945
1.99659
2.05459
2.11342
2.17302
2.23335
2.29437
2.356
2.41821
2.48092
2.54407
2.60761
2.67145
2.73552
2.79977
2.8641
2.92845
2.99273
3.05688
3.1208
3.18441
3.24764
3.3104
3.37262
3.4342
3.49506
3.55513
3.61433
3.67257
3.72979
3.7859
3.84084
3.89452
3.94688
3.99785
4.04735
4.09533
4.14171
4.18644
4.22946
4.2707
4.31013
4.34768
4.3833
4.41696
4.4486
4.47819
4.5057
4.53109
4.55434
4.57541
4.5943
4.61097
4.62542
4.63765
4.64763
4.65538
4.6609
4.66421
4.66531
4.66427
4.66101
4.65558
4.64805
4.63846
4.62685
4.61325
4.59773
4.58032
4.56109
4.54009
4.51739
4.49305
4.46714
4.43974
4.41091
4.38074
4.34931
4.31669
4.28296
4.24821
4.2125
4.17593
4.13857
4.10049
4.06176
4.02246
3.98265
3.9424
3.90177
3.86082
3.8196
3.77818
3.7366
3.69493
3.65321
3.61149
3.56983
3.52828
3.48692
3.44583
3.4051
3.36486
3.32528
3.28653
3.24879
3.21222
3.17614
3.13906
0.0345629
0.0735546
0.0936255
0.10794
0.119789
0.130335
0.140147
0.149556
0.158777
0.167963
0.177228
0.186657
0.196315
0.206253
0.216508
0.227114
0.238099
0.249489
0.261309
0.273582
0.286333
0.299585
0.313362
0.327686
0.342579
0.358064
0.37416
0.390887
0.408264
0.426308
0.445037
0.464466
0.484612
0.505491
0.527118
0.549509
0.57268
0.596647
0.621425
0.647031
0.673484
0.700804
0.72901
0.758119
0.788151
0.819127
0.851069
0.883997
0.917933
0.952899
0.988913
1.026
1.06417
1.10344
1.14384
1.18538
1.22807
1.27192
1.31695
1.36316
1.41056
1.45915
1.50893
1.5599
1.61204
1.66535
1.71982
1.77541
1.83212
1.8899
1.94874
2.0086
2.06943
2.13119
2.19383
2.25732
2.32158
2.38656
2.4522
2.51844
2.5852
2.65242
2.72002
2.78792
2.85606
2.92434
2.99269
3.06103
3.12926
3.19731
3.26508
3.33249
3.39946
3.46589
3.53169
3.59679
3.66108
3.7245
3.78694
3.84834
3.90862
3.96768
4.02546
4.08188
4.13686
4.19034
4.24224
4.2925
4.34104
4.38781
4.43275
4.4758
4.5169
4.556
4.59306
4.62803
4.66086
4.69152
4.71998
4.74619
4.77014
4.79179
4.81113
4.82815
4.84282
4.85514
4.8651
4.87272
4.87799
4.88094
4.88157
4.87999
4.87601
4.86975
4.86129
4.85066
4.83791
4.82307
4.80619
4.78733
4.76655
4.7439
4.71944
4.69326
4.66542
4.63599
4.60506
4.5727
4.53901
4.50405
4.46792
4.43071
4.39249
4.35334
4.31336
4.27263
4.23121
4.18919
4.14663
4.10362
4.06021
4.01648
3.97247
3.92827
3.88392
3.83949
3.79502
3.75059
3.70624
3.66205
3.6181
3.57446
3.53124
3.48858
3.44663
3.40556
3.36555
3.32672
3.28845
3.2495
0.0352783
0.0747064
0.0949566
0.109397
0.121337
0.13195
0.141804
0.151233
0.160455
0.169625
0.178858
0.18824
0.19784
0.207711
0.21789
0.228415
0.239318
0.250626
0.262365
0.274559
0.287232
0.300406
0.314106
0.328354
0.343173
0.358586
0.374616
0.391285
0.408615
0.426629
0.445348
0.464793
0.484986
0.505947
0.527699
0.550263
0.573658
0.597905
0.623024
0.64903
0.675948
0.703808
0.732634
0.762452
0.793288
0.825167
0.858115
0.892158
0.927319
0.963624
1.00109
1.03975
1.07961
1.1207
1.16303
1.20662
1.25149
1.29764
1.34509
1.39384
1.4439
1.49526
1.54792
1.60187
1.65711
1.7136
1.77135
1.83031
1.89046
1.95177
2.01419
2.07769
2.14222
2.20772
2.27415
2.34145
2.40954
2.47838
2.54787
2.61797
2.68858
2.75964
2.83105
2.90275
2.97464
3.04664
3.11866
3.19061
3.2624
3.33394
3.40513
3.4759
3.54614
3.61576
3.68467
3.75278
3.82
3.88624
3.95142
4.01545
4.07824
4.13973
4.19982
4.25844
4.31552
4.37098
4.42476
4.47677
4.52697
4.57528
4.62165
4.66602
4.70834
4.74854
4.7866
4.82245
4.85606
4.8874
4.91642
4.9431
4.96741
4.98933
5.00883
5.02591
5.04054
5.05273
5.06247
5.06976
5.07462
5.07706
5.07711
5.07488
5.07007
5.06292
5.05349
5.0418
5.0279
5.01182
4.99363
4.97336
4.95108
4.92686
4.90074
4.87282
4.84315
4.81183
4.77893
4.74453
4.70872
4.6716
4.63324
4.59374
4.55318
4.51165
4.46925
4.42605
4.38213
4.33759
4.2925
4.24693
4.20095
4.15464
4.10807
4.06129
4.01439
3.96741
3.92042
3.8735
3.82669
3.78008
3.73375
3.68778
3.64229
3.59741
3.55328
3.51008
3.46795
3.42704
3.38675
3.3461
0.0355093
0.0751088
0.0954203
0.109887
0.121833
0.132439
0.142274
0.15167
0.160843
0.169949
0.179104
0.188398
0.197903
0.207679
0.217764
0.228193
0.238995
0.250198
0.261828
0.273911
0.28647
0.299529
0.313112
0.327245
0.341951
0.357256
0.373185
0.389765
0.407021
0.424981
0.443669
0.463112
0.483338
0.504375
0.52625
0.548992
0.572625
0.597174
0.622663
0.64912
0.676589
0.705095
0.734669
0.76534
0.79714
0.830099
0.864249
0.899619
0.936234
0.974121
1.0133
1.0538
1.09563
1.13881
1.18336
1.2293
1.27664
1.32538
1.37553
1.4271
1.48008
1.53446
1.59024
1.6474
1.70592
1.76578
1.82695
1.88939
1.95307
2.01795
2.08398
2.1511
2.21927
2.28842
2.3585
2.42943
2.50115
2.57358
2.64665
2.72028
2.79438
2.86887
2.94368
3.0187
3.09385
3.16904
3.24418
3.31917
3.39392
3.46833
3.54232
3.61578
3.68863
3.76076
3.83209
3.90252
3.97195
4.04032
4.10751
4.17345
4.23806
4.30126
4.36296
4.42309
4.48158
4.53834
4.59332
4.64645
4.69765
4.74688
4.79407
4.83917
4.88212
4.92287
4.96139
4.99762
5.03152
5.06306
5.09221
5.11893
5.14321
5.16502
5.18435
5.20117
5.21548
5.22727
5.23654
5.24329
5.24755
5.24932
5.24871
5.24567
5.23997
5.23189
5.22145
5.2087
5.19367
5.1764
5.15694
5.13535
5.11168
5.08599
5.05835
5.02883
4.99751
4.96447
4.92978
4.89355
4.85584
4.81677
4.77641
4.73485
4.6922
4.64854
4.60397
4.55856
4.51242
4.46563
4.41826
4.3704
4.32213
4.27352
4.22465
4.17559
4.1264
4.07716
4.02793
3.97879
3.9298
3.88105
3.83261
3.78458
3.73708
3.69022
3.64416
3.59906
3.55504
3.51225
3.47015
3.42805
0.0354387
0.0750155
0.0952684
0.109688
0.121586
0.132138
0.141909
0.151233
0.160326
0.169345
0.178406
0.187596
0.196984
0.206625
0.216559
0.226824
0.237452
0.248474
0.25992
0.271816
0.284188
0.297063
0.310467
0.324428
0.338976
0.35414
0.369951
0.386441
0.403643
0.421591
0.44032
0.459864
0.480253
0.501518
0.523693
0.546814
0.570922
0.596041
0.622195
0.649404
0.677703
0.707148
0.737781
0.76964
0.802761
0.837179
0.872933
0.910059
0.948576
0.988507
1.02987
1.07269
1.11698
1.16275
1.21001
1.25877
1.30905
1.36083
1.41411
1.4689
1.52518
1.58293
1.64213
1.70276
1.76478
1.82817
1.89288
1.95887
2.0261
2.0945
2.16404
2.23463
2.30623
2.37877
2.45217
2.52636
2.60128
2.67683
2.75294
2.82952
2.90649
2.98377
3.06126
3.13887
3.21651
3.2941
3.37153
3.44871
3.52555
3.60195
3.67782
3.75306
3.82759
3.9013
3.9741
4.04591
4.11663
4.18617
4.25445
4.32139
4.38689
4.45089
4.51331
4.57408
4.63311
4.69034
4.7457
4.79913
4.85057
4.89996
4.94724
4.99236
5.03527
5.07592
5.11427
5.15028
5.18391
5.21512
5.24389
5.27019
5.294
5.31529
5.33405
5.35027
5.36394
5.37505
5.38361
5.38961
5.39308
5.39404
5.39268
5.38868
5.38205
5.373
5.36156
5.34777
5.33167
5.31328
5.29267
5.26988
5.24496
5.21797
5.18899
5.15809
5.12533
5.0908
5.05459
5.01678
4.97746
4.93672
4.89465
4.85136
4.80693
4.76146
4.71504
4.66776
4.61973
4.57102
4.52172
4.47191
4.42169
4.37113
4.3203
4.26929
4.21816
4.167
4.11588
4.06486
4.01403
3.96347
3.91325
3.86349
3.81428
3.76575
3.71805
3.67132
3.62568
3.5813
3.53766
3.49438
0.0351976
0.074637
0.0946998
0.108969
0.12072
0.131121
0.140739
0.149904
0.158835
0.167687
0.176574
0.185583
0.194783
0.204228
0.213963
0.224029
0.234466
0.245303
0.256568
0.268292
0.280505
0.293238
0.306524
0.320396
0.334888
0.350037
0.36588
0.382454
0.399799
0.417958
0.436977
0.456913
0.477788
0.499637
0.5225
0.546407
0.571372
0.597429
0.624657
0.653125
0.682888
0.713977
0.746431
0.780285
0.815573
0.852327
0.890568
0.930316
0.971602
1.01445
1.0589
1.10493
1.15256
1.20177
1.25257
1.30496
1.35892
1.41445
1.47152
1.53012
1.59022
1.65178
1.71478
1.77917
1.84491
1.91195
1.98024
2.04973
2.12037
2.19208
2.26481
2.33848
2.41304
2.48841
2.56451
2.64127
2.71862
2.79647
2.87473
2.95334
3.03219
3.11122
3.19032
3.26941
3.34841
3.42722
3.50575
3.58391
3.66161
3.73876
3.81526
3.89104
3.96599
4.04002
4.11306
4.18501
4.25578
4.32529
4.39346
4.4602
4.52545
4.58912
4.65114
4.71144
4.76996
4.82662
4.88136
4.93412
4.98484
5.03348
5.07997
5.12428
5.16634
5.20612
5.24357
5.27867
5.31136
5.34163
5.36944
5.39476
5.41759
5.43789
5.45566
5.47088
5.48355
5.49367
5.50122
5.50623
5.50872
5.50873
5.50647
5.50137
5.49375
5.48372
5.47129
5.4565
5.43938
5.41998
5.39832
5.37447
5.34847
5.32038
5.29027
5.25821
5.22426
5.18852
5.15106
5.11198
5.07135
5.02927
4.98584
4.94115
4.8953
4.84838
4.80048
4.75171
4.70216
4.65191
4.60106
4.5497
4.49791
4.44577
4.39338
4.3408
4.28813
4.23543
4.18279
4.13028
4.07797
4.02596
3.97434
3.92319
3.87262
3.82277
3.77375
3.72571
3.67877
3.63308
3.58819
3.54407
0.0347087
0.0738457
0.0936015
0.107635
0.119167
0.129357
0.13877
0.147736
0.156473
0.165135
0.173836
0.182665
0.191688
0.200965
0.210541
0.220462
0.230765
0.241485
0.252658
0.264321
0.276512
0.289269
0.302632
0.316643
0.331351
0.346814
0.363071
0.380163
0.398138
0.41704
0.436905
0.457734
0.479609
0.502608
0.526793
0.552226
0.578981
0.60711
0.636656
0.667673
0.70021
0.7343
0.769975
0.807262
0.846184
0.886757
0.928987
0.972883
1.01845
1.06568
1.11456
1.16506
1.21717
1.27088
1.32617
1.38301
1.44138
1.50123
1.56254
1.62525
1.68933
1.75474
1.82141
1.88931
1.95837
2.02854
2.09977
2.17199
2.24514
2.31916
2.39398
2.46954
2.54578
2.62262
2.69999
2.77782