/*--------------------------------*- C++ -*----------------------------------*\
  =========                 |
  \\      /  F ield         | OpenFOAM: The Open Source CFD Toolbox
   \\    /   O peration     | Website:  https://openfoam.org
    \\  /    A nd           | Version:  8
     \\/     M anipulation  |
\*---------------------------------------------------------------------------*/
FoamFile
{
    version     2.0;
    format      ascii;
    class       volScalarField;
    location    "255";
    object      nut;
}
// * * * * * * * * * * * * * * * * * * * * * * * * * * * * * * * * * * * * * //

dimensions      [0 2 -1 0 0 0 0];

internalField   nonuniform List<scalar> 
12225
(
4.14967e-05
3.93417e-05
3.7484e-05
3.54322e-05
3.37851e-05
3.24195e-05
3.15112e-05
3.0911e-05
3.09172e-05
3.10978e-05
3.15678e-05
3.21104e-05
3.31407e-05
3.38114e-05
3.51064e-05
3.56989e-05
3.73272e-05
3.67466e-05
0.000332325
0.000215226
0.000179278
0.000157685
0.000146205
0.000138218
0.000132753
0.000131636
0.000129524
0.000130048
0.000129062
0.000129425
0.000128671
0.000128546
0.000128084
0.000127414
0.000127382
0.000126514
0.000674951
0.000450852
0.000355774
0.000309845
0.000275284
0.000251105
0.000231709
0.00021728
0.000202691
0.000192115
0.000182634
0.000175208
0.000169388
0.00016369
0.000160308
0.000155591
0.000153816
0.000149911
0.000833603
0.000684918
0.00057198
0.000499974
0.000449458
0.000411958
0.000380778
0.000356003
0.000334016
0.000314786
0.000298339
0.000281726
0.00027032
0.000256094
0.000248222
0.000236204
0.000230439
0.000220523
0.00086125
0.000802529
0.000742126
0.000676584
0.000624
0.000581376
0.000545874
0.000514558
0.000489527
0.000464437
0.000445872
0.000424089
0.000409955
0.000390834
0.000379919
0.000363149
0.000354536
0.000339617
0.000854978
0.000840347
0.000822204
0.000786495
0.000750864
0.000715899
0.000685765
0.000656134
0.000632555
0.000607525
0.000589007
0.000567264
0.000552301
0.000533128
0.000520815
0.000503791
0.000493372
0.000477599
0.000852907
0.000850685
0.000844239
0.000832828
0.000817412
0.000797
0.000777889
0.000756739
0.000738904
0.000719153
0.000703541
0.000685635
0.000672138
0.000655949
0.000644335
0.000629582
0.000619568
0.000605249
0.000851922
0.000851813
0.000850172
0.000847395
0.000841453
0.000833728
0.000824897
0.000813418
0.00080281
0.000790475
0.00077972
0.00076755
0.000757436
0.000745802
0.000736561
0.000725565
0.000717196
0.000706108
0.000851751
0.000851542
0.000851034
0.000850339
0.000848881
0.000846168
0.000843034
0.000838306
0.000833403
0.000827363
0.00082122
0.000814778
0.000808416
0.000801537
0.000795255
0.000788439
0.000782199
0.000775303
0.000851769
0.000851389
0.000851046
0.000850633
0.000850248
0.000849368
0.000848405
0.000846781
0.000844956
0.000842531
0.000839925
0.000836802
0.000833798
0.000830159
0.000826978
0.000822938
0.000819914
0.00081532
0.000851787
0.000851359
0.000851012
0.000850613
0.000850329
0.000849905
0.000849526
0.000848929
0.000848303
0.000847394
0.000846466
0.000845178
0.000843992
0.000842354
0.000840999
0.000839037
0.000837646
0.000835371
0.000851789
0.000851359
0.000850995
0.000850605
0.000850292
0.000849938
0.000849646
0.00084928
0.000848955
0.000848505
0.000848099
0.000847508
0.000846998
0.000846245
0.000845643
0.000844723
0.00084406
0.00084298
0.000851786
0.000851363
0.000850985
0.000850604
0.000850269
0.000849926
0.00084963
0.000849313
0.000849042
0.000848729
0.000848462
0.000848126
0.000847844
0.000847466
0.000847157
0.000846727
0.000846387
0.000845903
0.000851783
0.000851364
0.000850978
0.000850602
0.000850256
0.000849916
0.000849607
0.0008493
0.000849022
0.00084874
0.000848488
0.000848224
0.000847989
0.000847735
0.000847508
0.000847258
0.000847033
0.000846783
0.000851781
0.000851364
0.000850972
0.000850598
0.000850246
0.000849908
0.000849591
0.000849286
0.000849
0.000848723
0.000848463
0.000848211
0.000847975
0.000847744
0.000847527
0.000847315
0.000847114
0.000846918
0.00085178
0.000851363
0.000850969
0.000850594
0.000850239
0.000849901
0.00084958
0.000849274
0.000848984
0.000848707
0.000848443
0.000848191
0.000847951
0.000847721
0.000847502
0.000847292
0.000847092
0.0008469
0.000851779
0.000851362
0.000850967
0.000850591
0.000850234
0.000849894
0.000849572
0.000849265
0.000848973
0.000848694
0.000848428
0.000848174
0.000847932
0.000847701
0.00084748
0.000847268
0.000847066
0.000846873
0.000851779
0.000851362
0.000850965
0.000850588
0.000850231
0.00084989
0.000849567
0.000849258
0.000848965
0.000848685
0.000848418
0.000848163
0.000847919
0.000847686
0.000847464
0.000847251
0.000847047
0.000846853
0.000851779
0.000851362
0.000850965
0.000850588
0.000850229
0.000849889
0.000849565
0.000849256
0.000848962
0.000848681
0.000848413
0.000848157
0.000847913
0.000847679
0.000847456
0.000847242
0.000847038
0.000846842
0.000851779
0.000851362
0.000850965
0.000850589
0.000850231
0.000849891
0.000849567
0.000849259
0.000848965
0.000848685
0.000848417
0.000848161
0.000847916
0.000847683
0.000847459
0.000847245
0.00084704
0.000846843
0.000851779
0.000851363
0.000850967
0.000850592
0.000850235
0.000849896
0.000849573
0.000849266
0.000848972
0.000848693
0.000848423
0.000848168
0.000847919
0.000847682
0.00084745
0.00084723
0.000847011
0.000846805
0.000851778
0.000851366
0.000850968
0.000850599
0.00085024
0.000849907
0.00084958
0.000849274
0.000848964
0.000848671
0.000848364
0.000848071
0.000847755
0.000847455
0.000847122
0.00084681
0.000846456
0.000846135
0.000851777
0.000851374
0.000850971
0.000850615
0.00085024
0.000849889
0.000849478
0.000849054
0.000848529
0.000847978
0.0008473
0.000846604
0.000845766
0.000844938
0.000843953
0.000843028
0.000841916
0.000840937
0.000851802
0.00085141
0.00085097
0.000850549
0.000849861
0.000848967
0.000847607
0.000845979
0.000843903
0.000841634
0.000838953
0.000836213
0.000833114
0.000830111
0.00082676
0.000823677
0.00082018
0.000817174
0.000852138
0.000851403
0.000850234
0.000848252
0.000844472
0.000839355
0.000832711
0.000825762
0.000817912
0.000809998
0.000801613
0.000793624
0.000785327
0.000777702
0.000769738
0.000762694
0.000755117
0.000748787
0.000854142
0.000847718
0.000840125
0.000827122
0.000808707
0.000789646
0.000769971
0.000751415
0.000733301
0.000716891
0.000700929
0.000686775
0.000672823
0.000660664
0.00064837
0.000637932
0.000626944
0.000618011
0.00085497
0.000818336
0.000776229
0.000726634
0.000684937
0.000649856
0.000618458
0.000592019
0.000568377
0.000548307
0.000529683
0.000513987
0.000498742
0.00048601
0.000473194
0.0004627
0.000451613
0.000442796
0.000807487
0.000666879
0.000570551
0.000509854
0.000465647
0.000431192
0.000404131
0.000382498
0.000364191
0.000349063
0.000335936
0.000325073
0.000314474
0.000306242
0.000297957
0.000291362
0.000284275
0.000278925
0.000501854
0.000348404
0.00029269
0.000259174
0.000236321
0.000221177
0.000211543
0.000204014
0.000198479
0.000195058
0.000192217
0.000190367
0.000188581
0.000187438
0.000186163
0.000185473
0.000184553
0.000184142
7.27285e-05
7.02231e-05
6.79539e-05
6.56136e-05
6.33827e-05
6.12765e-05
5.94929e-05
5.79573e-05
5.67103e-05
5.5703e-05
5.49775e-05
5.44184e-05
5.41085e-05
5.38872e-05
5.38765e-05
5.3962e-05
5.40716e-05
5.43222e-05
2.11045e-07
5.44849e-06
1.00827e-05
1.42425e-05
1.84253e-05
2.31257e-05
2.85503e-05
3.48784e-05
4.21423e-05
5.02258e-05
5.8939e-05
6.80755e-05
7.74552e-05
8.69293e-05
9.63844e-05
0.00010573
0.000114892
0.000123802
0.000132378
0.000140512
0.000148049
0.000154767
0.000160367
0.000164454
0.000166544
0.00016606
0.000162288
0.0001542
0.00014065
2.85251e-05
2.96189e-05
3.1511e-05
3.33177e-05
3.74822e-05
4.41726e-05
0.000231679
0.00023076
0.000220074
0.000219786
0.000203474
4.58737e-05
4.85452e-05
4.90823e-05
5.03741e-05
5.14904e-05
5.25999e-05
5.37312e-05
5.484e-05
5.59581e-05
5.70658e-05
5.81744e-05
5.92775e-05
6.03788e-05
6.14762e-05
6.25709e-05
6.3662e-05
6.47502e-05
6.5835e-05
6.69164e-05
6.79942e-05
6.90683e-05
7.01384e-05
7.12044e-05
7.22658e-05
7.33225e-05
7.43739e-05
7.54199e-05
7.64599e-05
7.74935e-05
7.85203e-05
7.95398e-05
8.05515e-05
8.1555e-05
8.25497e-05
8.3535e-05
8.45104e-05
8.54752e-05
8.64292e-05
8.73716e-05
8.83018e-05
8.92193e-05
9.01236e-05
9.10139e-05
9.18897e-05
9.27502e-05
9.3595e-05
9.44232e-05
9.52344e-05
9.60276e-05
9.68021e-05
9.75564e-05
9.82896e-05
9.90005e-05
9.9688e-05
0.000100351
0.000100989
0.000101605
0.000102204
0.00010278
0.000103334
0.000103866
0.000104375
0.000104861
0.000105324
0.000105764
0.000106179
0.00010657
0.000106937
0.000107278
0.000107594
0.000107885
0.00010815
0.000108389
0.000108602
0.000108788
0.000108948
0.000109081
0.000109187
0.000109266
0.000109319
0.000109344
0.000109343
0.000109315
0.00010926
0.000109178
0.000109071
0.000108937
0.000108781
0.000108596
0.000108382
0.000108139
0.000107878
0.000107597
0.000107287
0.000106955
0.000106599
0.000106222
0.000105822
0.000105402
0.000104962
0.000104502
0.000104022
0.000103525
0.000103011
0.000102481
0.000101934
0.000101373
0.000100799
0.000100211
9.96111e-05
9.90002e-05
9.83789e-05
9.77483e-05
9.7109e-05
9.64621e-05
9.58081e-05
9.51482e-05
9.44827e-05
9.38127e-05
9.31388e-05
9.24624e-05
9.17856e-05
9.11203e-05
9.05767e-05
9.01866e-05
8.98141e-05
8.94446e-05
8.90763e-05
8.8709e-05
8.83427e-05
8.79772e-05
8.76121e-05
8.72464e-05
8.68784e-05
8.65055e-05
8.6122e-05
8.57167e-05
8.52617e-05
8.4682e-05
8.28613e-05
1.0619e-06
2.71889e-05
6.05937e-05
8.35973e-05
9.82749e-05
0.000108492
0.000117071
0.000125555
0.000134638
0.000144494
0.000155035
0.000166059
0.000177349
0.00018871
0.000199974
0.000210998
0.000221643
0.000231752
0.000241121
0.000249464
0.00025637
0.000261256
0.000263343
0.000261647
0.00025505
0.000242473
0.000223209
0.000197468
0.000167081
0.000135927
0.000142491
0.000155414
0.000173874
0.000200999
0.000242277
0.000307851
0.000293061
0.000282901
0.000287909
0.000267269
0.000255896
0.000266501
0.00027217
0.000279813
0.000287361
0.000295191
0.00030305
0.000311077
0.000319187
0.000327401
0.000335697
0.000344077
0.000352536
0.000361073
0.00036969
0.000378385
0.000387161
0.000396017
0.000404957
0.00041398
0.000423088
0.00043228
0.000441559
0.000450922
0.000460371
0.000469904
0.000479521
0.000489219
0.000498997
0.000508852
0.000518783
0.000528784
0.000538853
0.000548985
0.000559177
0.000569423
0.000579718
0.000590057
0.000600435
0.000610846
0.000621284
0.000631744
0.00064222
0.000652706
0.000663196
0.000673685
0.000684167
0.000694637
0.00070509
0.000715521
0.000725921
0.00073628
0.000746576
0.000756776
0.000766822
0.00077661
0.000785965
0.000794587
0.000803089
0.000811454
0.000819691
0.000827792
0.000835753
0.000843565
0.000851223
0.000858719
0.000866049
0.000873203
0.000880178
0.000886965
0.00089356
0.000899956
0.000906147
0.000912128
0.000917894
0.000923438
0.000928756
0.000933844
0.000938696
0.000943308
0.000947678
0.0009518
0.000955674
0.000959298
0.000962671
0.000965796
0.000968672
0.000971285
0.000973727
0.000975905
0.000977626
0.000979076
0.000980489
0.000981588
0.000982422
0.000983013
0.000983364
0.000983478
0.000983361
0.000983015
0.000982446
0.000981657
0.000980662
0.000979465
0.000978075
0.000976498
0.000974744
0.000972819
0.000970732
0.000968492
0.000966107
0.000963586
0.000960938
0.00095817
0.000955292
0.000952309
0.000949231
0.000946062
0.000942808
0.000939471
0.000936047
0.000932505
0.000928698
0.000923883
0.000917379
0.000910303
0.000903039
0.000895685
0.000888268
0.000880797
0.000873272
0.000865688
0.000858033
0.000850287
0.000842421
0.000834381
0.00082601
0.000817063
0.000805986
0.000776712
2.24854e-06
4.50547e-05
9.66399e-05
0.000135656
0.000163816
0.000184268
0.00019993
0.00021304
0.000225083
0.000236899
0.000248865
0.000261067
0.000273443
0.000285869
0.000298203
0.000310304
0.000322031
0.000333226
0.000343695
0.000353173
0.000361294
0.000367568
0.000371386
0.000372077
0.000369076
0.00036219
0.000351986
0.000340212
0.000330225
0.000327201
0.00034281
0.000365871
0.000393643
0.000424442
0.00045459
0.000476829
0.000483152
0.000490549
0.000499076
0.000504807
0.00051574
0.000531539
0.000546772
0.000562563
0.000578492
0.000594642
0.000610936
0.000627398
0.000644004
0.000660757
0.000677651
0.000694685
0.000711859
0.000729174
0.000746631
0.000764233
0.00078198
0.000799875
0.000817918
0.00083611
0.000854452
0.000872942
0.00089158
0.000910363
0.000929289
0.000948354
0.000967554
0.000986887
0.00100635
0.00102593
0.00104563
0.00106543
0.00108534
0.00110533
0.00112541
0.00114556
0.00116577
0.00118603
0.00120633
0.00122666
0.001247
0.00126735
0.00128769
0.00130801
0.0013283
0.00134854
0.00136872
0.00138882
0.00140883
0.00142873
0.0014485
0.0014681
0.00148751
0.00150666
0.00152548
0.0015439
0.00156183
0.00157931
0.00159653
0.00161349
0.00163018
0.00164659
0.00166269
0.00167848
0.00169394
0.00170906
0.00172383
0.00173823
0.00175226
0.00176589
0.00177912
0.00179193
0.00180431
0.00181625
0.00182775
0.00183878
0.00184935
0.00185944
0.00186904
0.00187814
0.00188674
0.00189483
0.0019024
0.00190946
0.001916
0.00192202
0.00192752
0.00193251
0.00193707
0.00194124
0.00194445
0.00194705
0.0019495
0.00195133
0.00195265
0.00195346
0.00195377
0.00195359
0.00195293
0.0019518
0.00195022
0.00194819
0.00194573
0.00194285
0.00193957
0.00193591
0.00193188
0.00192749
0.00192277
0.00191773
0.00191239
0.00190676
0.00190087
0.00189472
0.00188834
0.00188174
0.00187494
0.00186794
0.00186076
0.0018534
0.00184586
0.0018381
0.0018299
0.00182065
0.0018098
0.00179811
0.001786
0.00177366
0.00176114
0.00174848
0.00173568
0.00172273
0.00170962
0.0016963
0.00168273
0.0016688
0.00165422
0.00163827
0.00161812
0.00157404
3.58539e-06
5.86129e-05
0.00012413
0.000175144
0.000212744
0.000240667
0.000262158
0.000279713
0.000295093
0.000309428
0.000323355
0.000337169
0.000350957
0.000364691
0.000378297
0.000391687
0.000404773
0.000417471
0.000429695
0.000441337
0.000452257
0.000462267
0.00047114
0.000478644
0.000484635
0.000489217
0.000492959
0.000497121
0.000503728
0.000515252
0.000533503
0.000555546
0.000579557
0.000604
0.000627119
0.000647407
0.000665003
0.000683042
0.000701011
0.000719799
0.000740417
0.000762458
0.000784741
0.000807277
0.000830005
0.000852932
0.000876047
0.000899348
0.000922833
0.000946501
0.000970352
0.000994386
0.0010186
0.00104301
0.00106761
0.0010924
0.00111739
0.00114257
0.00116795
0.00119353
0.00121931
0.00124527
0.00127143
0.00129778
0.0013243
0.00135101
0.00137788
0.00140492
0.00143211
0.00145944
0.00148691
0.00151451
0.00154221
0.00157002
0.00159791
0.00162587
0.00165389
0.00168195
0.00171003
0.00173813
0.00176621
0.00179428
0.0018223
0.00185026
0.00187814
0.00190592
0.00193358
0.0019611
0.00198845
0.00201561
0.00204254
0.00206922
0.0020956
0.00212164
0.00214728
0.00217246
0.00219718
0.00222149
0.00224544
0.00226902
0.00229223
0.00231503
0.00233741
0.00235936
0.00238085
0.00240186
0.00242239
0.0024424
0.00246189
0.00248084
0.00249923
0.00251704
0.00253426
0.00255088
0.00256687
0.00258224
0.00259696
0.00261101
0.0026244
0.0026371
0.00264911
0.00266042
0.00267103
0.00268091
0.00269009
0.00269854
0.00270628
0.00271331
0.00271983
0.00272561
0.00273024
0.00273408
0.00273754
0.00274022
0.00274218
0.00274342
0.00274398
0.00274385
0.00274305
0.0027416
0.00273951
0.0027368
0.00273348
0.00272958
0.00272512
0.00272011
0.00271459
0.00270856
0.00270206
0.0026951
0.00268772
0.00267992
0.00267175
0.00266321
0.00265434
0.00264515
0.00263566
0.0026259
0.00261587
0.00260559
0.00259505
0.0025842
0.00257289
0.0025607
0.0025473
0.00253306
0.00251828
0.00250316
0.00248777
0.00247215
0.00245632
0.00244029
0.00242404
0.0024076
0.00239088
0.00237372
0.00235579
0.00233612
0.0023114
0.00226489
4.91597e-06
7.00271e-05
0.000147137
0.000208044
0.000253907
0.000288408
0.00031508
0.000336655
0.000355125
0.000371841
0.000387653
0.000403035
0.00041822
0.000433287
0.000448244
0.000463067
0.000477733
0.000492229
0.000506559
0.000520735
0.000534776
0.000548694
0.000562487
0.000576148
0.000589684
0.000603173
0.000616854
0.000631217
0.00064704
0.000665115
0.000685726
0.000708251
0.000732111
0.000756753
0.00078158
0.000806259
0.000830918
0.000856082
0.000881625
0.000907476
0.000934162
0.000961423
0.000988935
0.00101667
0.00104463
0.00107279
0.00110117
0.00112977
0.00115858
0.00118761
0.00121685
0.00124631
0.00127598
0.00130586
0.00133597
0.00136631
0.00139687
0.00142766
0.00145868
0.00148993
0.00152139
0.00155308
0.00158497
0.00161707
0.00164937
0.00168186
0.00171453
0.00174737
0.00178037
0.00181352
0.00184679
0.00188019
0.0019137
0.00194729
0.00198095
0.00201466
0.00204841
0.00208218
0.00211595
0.00214969
0.00218339
0.00221703
0.00225059
0.00228404
0.00231736
0.00235054
0.00238353
0.00241632
0.00244889
0.0024812
0.00251323
0.00254493
0.00257629
0.00260726
0.00263782
0.00266797
0.00269768
0.00272696
0.00275581
0.00278423
0.00281219
0.00283967
0.00286665
0.00289311
0.00291904
0.0029444
0.00296918
0.00299335
0.00301691
0.00303983
0.00306209
0.00308368
0.00310457
0.00312475
0.0031442
0.0031629
0.00318085
0.00319802
0.00321441
0.00322999
0.00324476
0.0032587
0.00327182
0.00328409
0.00329551
0.00330609
0.00331582
0.00332475
0.00333309
0.00334037
0.00334647
0.00335171
0.00335632
0.00336005
0.00336291
0.00336493
0.00336612
0.0033665
0.00336607
0.00336485
0.00336287
0.00336014
0.00335667
0.0033525
0.00334765
0.00334213
0.00333598
0.00332922
0.00332188
0.00331398
0.00330555
0.00329662
0.00328721
0.00327736
0.00326709
0.00325642
0.00324538
0.00323399
0.00322228
0.00321024
0.00319789
0.00318519
0.00317204
0.00315819
0.00314345
0.00312795
0.00311191
0.00309545
0.00307867
0.00306161
0.00304428
0.00302671
0.00300888
0.00299076
0.00297233
0.00295346
0.00293382
0.00291242
0.002886
0.00284208
6.17897e-06
7.96002e-05
0.000166431
0.000235862
0.000289096
0.000329603
0.000361095
0.000386487
0.000407952
0.000427027
0.000444742
0.000461737
0.000478383
0.000494873
0.000511299
0.000527704
0.000544119
0.000560578
0.000577132
0.00059385
0.000610812
0.000628102
0.0006458
0.000663977
0.000682687
0.000701986
0.000721955
0.000742732
0.000764537
0.000787582
0.000811931
0.000837464
0.000864033
0.000891464
0.000919556
0.000948178
0.000977307
0.00100694
0.00103701
0.00106748
0.0010984
0.00112969
0.00116125
0.00119307
0.00122511
0.00125738
0.00128988
0.0013226
0.00135556
0.00138874
0.00142216
0.00145582
0.00148971
0.00152386
0.00155823
0.00159285
0.00162769
0.00166275
0.00169805
0.00173356
0.00176929
0.00180523
0.00184138
0.00187772
0.00191425
0.00195096
0.00198783
0.00202486
0.00206204
0.00209934
0.00213676
0.00217428
0.00221189
0.00224956
0.00228728
0.00232504
0.0023628
0.00240056
0.00243829
0.00247598
0.0025136
0.00255113
0.00258854
0.00262582
0.00266295
0.00269989
0.00273663
0.00277313
0.00280938
0.00284534
0.002881
0.00291631
0.00295126
0.00298581
0.00301996
0.00305368
0.00308696
0.00311978
0.00315214
0.00318402
0.0032154
0.00324625
0.00327657
0.00330631
0.00333547
0.00336401
0.00339193
0.00341919
0.00344578
0.00347167
0.00349685
0.00352129
0.00354499
0.00356791
0.00359004
0.00361136
0.00363186
0.00365152
0.00367032
0.00368825
0.00370529
0.00372144
0.00373667
0.00375099
0.00376438
0.00377684
0.00378836
0.00379913
0.00380907
0.00381788
0.00382542
0.00383211
0.00383798
0.0038429
0.00384686
0.00384988
0.00385197
0.00385316
0.00385345
0.00385286
0.00385141
0.00384912
0.003846
0.00384209
0.00383741
0.00383197
0.00382582
0.00381897
0.00381145
0.0038033
0.00379454
0.00378521
0.00377533
0.00376493
0.00375405
0.00374271
0.00373094
0.00371876
0.0037062
0.00369327
0.00367998
0.00366632
0.00365222
0.00363755
0.00362219
0.00360619
0.00358966
0.0035727
0.00355537
0.00353774
0.00351981
0.00350162
0.00348316
0.00346443
0.0034454
0.00342599
0.0034059
0.00338423
0.0033581
0.00331849
7.33233e-06
8.75045e-05
0.000182433
0.000259252
0.000319103
0.000365166
0.000401237
0.000430348
0.000454806
0.0004763
0.000496009
0.000514722
0.000532937
0.000550957
0.000568958
0.00058705
0.000605307
0.000623799
0.000642598
0.000661788
0.000681461
0.000701714
0.000722635
0.000744304
0.000766778
0.000790097
0.000814285
0.000839365
0.000865368
0.000892321
0.000920219
0.000949016
0.000978657
0.00100907
0.00104018
0.0010719
0.0011042
0.00113699
0.00117023
0.00120387
0.00123787
0.0012722
0.00130681
0.00134169
0.0013768
0.00141215
0.00144773
0.00148354
0.00151958
0.00155585
0.00159235
0.00162908
0.00166604
0.00170323
0.00174065
0.00177829
0.00181616
0.00185424
0.00189254
0.00193104
0.00196975
0.00200865
0.00204775
0.00208703
0.00212648
0.0021661
0.00220587
0.00224578
0.00228582
0.00232597
0.00236622
0.00240656
0.00244697
0.00248743
0.00252792
0.00256843
0.00260894
0.00264943
0.00268987
0.00273026
0.00277056
0.00281076
0.00285083
0.00289076
0.00293051
0.00297008
0.00300942
0.00304852
0.00308735
0.00312589
0.00316411
0.003202
0.00323951
0.00327664
0.00331336
0.00334966
0.0033855
0.00342089
0.0034558
0.00349021
0.0035241
0.00355745
0.00359024
0.00362244
0.00365403
0.00368499
0.00371529
0.00374492
0.00377385
0.00380206
0.00382953
0.00385624
0.00388217
0.0039073
0.00393161
0.00395508
0.00397769
0.00399942
0.00402027
0.0040402
0.0040592
0.00407727
0.00409438
0.00411054
0.00412571
0.00413991
0.00415313
0.00416562
0.00417703
0.00418738
0.0041964
0.00420459
0.0042118
0.00421799
0.00422317
0.00422735
0.00423054
0.00423275
0.00423399
0.00423429
0.00423366
0.00423211
0.00422968
0.00422638
0.00422223
0.00421727
0.00421152
0.00420501
0.00419777
0.00418983
0.00418122
0.00417197
0.00416212
0.0041517
0.00414073
0.00412926
0.0041173
0.0041049
0.00409206
0.00407882
0.00406519
0.00405117
0.00403671
0.00402177
0.00400626
0.0039902
0.00397364
0.00395667
0.00393932
0.00392165
0.00390368
0.00388543
0.00386694
0.00384819
0.00382921
0.00380993
0.00379014
0.00376904
0.00374423
0.00370899
8.34665e-06
9.38765e-05
0.000195443
0.000278624
0.00034439
0.000395591
0.000436024
0.00046878
0.000496254
0.000520245
0.000542054
0.000562593
0.000582475
0.000602102
0.00062173
0.000641529
0.000661614
0.000682081
0.000703013
0.000724489
0.000746593
0.000769406
0.000793003
0.000817444
0.000842774
0.000869015
0.000896204
0.000924309
0.000953298
0.000983141
0.0010138
0.00104523
0.00107738
0.00111021
0.00114367
0.0011777
0.00121226
0.0012473
0.00128277
0.00131862
0.00135481
0.00139131
0.0014281
0.00146516
0.00150245
0.00153998
0.00157773
0.00161569
0.00165386
0.00169226
0.00173086
0.00176968
0.0018087
0.00184794
0.00188739
0.00192704
0.00196689
0.00200694
0.00204718
0.00208761
0.00212823
0.00216903
0.00221001
0.00225115
0.00229244
0.00233389
0.00237547
0.00241719
0.00245901
0.00250095
0.00254297
0.00258507
0.00262724
0.00266945
0.00271169
0.00275395
0.0027962
0.00283844
0.00288063
0.00292276
0.00296482
0.00300677
0.00304861
0.0030903
0.00313183
0.00317317
0.0032143
0.0032552
0.00329584
0.0033362
0.00337626
0.00341599
0.00345537
0.00349438
0.00353299
0.00357119
0.00360896
0.00364627
0.00368311
0.00371945
0.00375527
0.00379055
0.00382527
0.0038594
0.00389292
0.0039258
0.00395803
0.00398958
0.00402042
0.00405055
0.00407992
0.00410853
0.00413635
0.00416336
0.00418954
0.00421487
0.00423933
0.00426289
0.00428555
0.00430728
0.00432807
0.0043479
0.00436675
0.00438461
0.00440148
0.00441732
0.00443223
0.00444631
0.00445922
0.00447108
0.00448164
0.00449134
0.00449996
0.00450752
0.00451401
0.00451946
0.00452386
0.00452724
0.0045296
0.00453096
0.00453134
0.00453075
0.00452922
0.00452676
0.0045234
0.00451918
0.0045141
0.00450821
0.00450154
0.00449411
0.00448596
0.00447712
0.00446763
0.00445752
0.00444682
0.00443556
0.00442379
0.00441152
0.00439879
0.00438562
0.00437204
0.00435804
0.00434362
0.00432875
0.0043134
0.00429756
0.00428127
0.00426458
0.00424752
0.00423014
0.00421246
0.00419453
0.00417636
0.004158
0.00413945
0.00412073
0.00410166
0.0040816
0.00405861
0.00402815
9.20397e-06
9.88391e-05
0.000205699
0.000294328
0.000365273
0.000421209
0.000465778
0.000502084
0.000532572
0.000559114
0.000583103
0.000605547
0.000627157
0.00064842
0.000669663
0.000691104
0.000712902
0.000735186
0.000758044
0.000781538
0.000805728
0.000830677
0.000856435
0.000883042
0.000910515
0.000938849
0.00096809
0.00099822
0.0010292
0.00106099
0.00109355
0.00112681
0.00116074
0.0011953
0.00123043
0.00126609
0.00130224
0.00133883
0.0013758
0.00141306
0.00145063
0.00148849
0.00152666
0.00156509
0.00160375
0.00164262
0.00168168
0.00172093
0.00176037
0.00179999
0.0018398
0.00187979
0.00191996
0.00196032
0.00200086
0.00204158
0.00208248
0.00212356
0.00216481
0.00220623
0.00224782
0.00228958
0.00233149
0.00237356
0.00241578
0.00245815
0.00250064
0.00254327
0.00258601
0.00262886
0.00267181
0.00271484
0.00275795
0.00280111
0.00284433
0.00288757
0.00293083
0.00297408
0.00301732
0.00306052
0.00310366
0.00314673
0.0031897
0.00323256
0.00327528
0.00331784
0.00336022
0.00340239
0.00344433
0.00348602
0.00352744
0.00356856
0.00360936
0.00364981
0.00368989
0.00372959
0.00376887
0.00380771
0.0038461
0.00388401
0.00392141
0.00395829
0.00399461
0.00403036
0.00406551
0.00410004
0.00413392
0.00416713
0.00419964
0.00423144
0.0042625
0.0042928
0.00432231
0.00435102
0.0043789
0.00440592
0.00443208
0.00445735
0.0044817
0.00450513
0.0045276
0.00454911
0.00456963
0.00458916
0.00460766
0.00462514
0.00464172
0.00465729
0.00467176
0.00468516
0.00469734
0.00470856
0.00471866
0.00472765
0.00473554
0.00474234
0.00474807
0.00475273
0.00475633
0.00475889
0.00476042
0.00476094
0.00476046
0.00475902
0.00475662
0.0047533
0.00474909
0.00474402
0.00473811
0.0047314
0.00472393
0.00471571
0.0047068
0.00469723
0.00468703
0.00467623
0.00466488
0.004653
0.00464063
0.00462778
0.0046145
0.00460079
0.00458667
0.00457211
0.00455712
0.00454169
0.00452585
0.00450963
0.00449305
0.00447617
0.00445901
0.00444162
0.00442402
0.00440628
0.00438843
0.0043705
0.00435239
0.00433361
0.0043126
0.00428664
9.89563e-06
0.000102519
0.000213448
0.000306726
0.00038209
0.000442314
0.000490753
0.000530471
0.000563923
0.000593022
0.000619221
0.000643602
0.000666953
0.000689852
0.000712663
0.000735612
0.000758845
0.000782427
0.000806592
0.000831442
0.000857043
0.000883442
0.000910674
0.000938763
0.000967727
0.000997578
0.00102831
0.00105988
0.00109225
0.00112537
0.00115917
0.00119362
0.00122866
0.00126425
0.00130034
0.0013369
0.00137389
0.00141127
0.00144902
0.00148712
0.00152554
0.00156422
0.00160311
0.00164217
0.00168142
0.00172083
0.00176038
0.00180008
0.00183992
0.00187991
0.00192005
0.00196034
0.00200078
0.00204138
0.00208213
0.00212304
0.00216411
0.00220534
0.00224674
0.00228829
0.00233001
0.00237189
0.00241393
0.00245613
0.00249849
0.002541
0.00258366
0.00262647
0.00266942
0.0027125
0.00275571
0.00279904
0.00284247
0.002886
0.00292961
0.00297329
0.00301702
0.0030608
0.0031046
0.00314841
0.00319221
0.00323598
0.00327969
0.00332334
0.00336689
0.00341032
0.00345362
0.00349675
0.0035397
0.00358244
0.00362495
0.00366719
0.00370915
0.0037508
0.00379212
0.00383308
0.00387366
0.00391383
0.00395357
0.00399285
0.00403165
0.00406994
0.0041077
0.00414491
0.00418153
0.00421755
0.00425294
0.00428768
0.00432173
0.00435509
0.00438772
0.0044196
0.0044507
0.00448102
0.00451051
0.00453916
0.00456695
0.00459386
0.00461986
0.00464493
0.00466906
0.00469221
0.00471439
0.00473556
0.00475571
0.00477484
0.00479303
0.00481015
0.00482623
0.00484121
0.00485506
0.00486786
0.00487952
0.00489
0.00489936
0.00490761
0.00491475
0.0049208
0.00492575
0.00492961
0.00493241
0.00493416
0.00493487
0.00493457
0.00493327
0.00493101
0.00492781
0.0049237
0.00491871
0.00491287
0.00490623
0.0048988
0.00489064
0.00488177
0.00487223
0.00486207
0.00485131
0.00483999
0.00482815
0.00481582
0.00480302
0.00478979
0.00477613
0.00476206
0.00474758
0.0047327
0.00471744
0.00470181
0.00468587
0.00466963
0.00465314
0.00463644
0.00461957
0.00460261
0.00458561
0.00456863
0.00455163
0.0045342
0.00451516
0.00449293
1.0421e-05
0.000105054
0.00021895
0.000315998
0.000395143
0.000459186
0.000511185
0.000554124
0.000590429
0.000622027
0.000650429
0.000676702
0.000701614
0.000725661
0.000749456
0.000773364
0.000797633
0.000822479
0.000848004
0.000874219
0.000901155
0.000928848
0.000957321
0.000986591
0.00101667
0.00104754
0.00107917
0.00111153
0.00114457
0.00117825
0.00121255
0.00124742
0.0012828
0.00131867
0.00135497
0.00139167
0.00142874
0.00146614
0.00150384
0.00154181
0.00158
0.00161842
0.00165705
0.00169601
0.00173511
0.00177427
0.00181348
0.00185277
0.00189214
0.00193162
0.00197121
0.00201093
0.00205076
0.00209074
0.00213085
0.00217111
0.00221152
0.00225209
0.00229283
0.00233375
0.00237484
0.00241611
0.00245758
0.00249923
0.00254108
0.00258312
0.00262536
0.00266779
0.00271041
0.00275322
0.00279621
0.00283938
0.00288272
0.00292621
0.00296985
0.00301363
0.00305752
0.00310152
0.00314561
0.00318977
0.00323399
0.00327823
0.00332249
0.00336674
0.00341095
0.0034551
0.00349917
0.00354313
0.00358695
0.00363061
0.00367409
0.00371735
0.00376038
0.00380313
0.00384559
0.00388772
0.0039295
0.00397091
0.00401192
0.00405249
0.00409261
0.00413225
0.00417138
0.00420998
0.00424802
0.00428547
0.00432231
0.00435852
0.00439407
0.00442893
0.00446308
0.0044965
0.00452916
0.00456105
0.00459212
0.00462238
0.00465178
0.0046803
0.00470793
0.00473465
0.00476042
0.00478524
0.00480907
0.00483191
0.00485373
0.00487453
0.00489433
0.00491308
0.00493081
0.00494746
0.00496299
0.00497749
0.00499076
0.0050028
0.00501372
0.0050235
0.00503215
0.00503968
0.00504608
0.00505137
0.00505555
0.00505864
0.00506066
0.00506162
0.00506155
0.00506047
0.0050584
0.00505539
0.00505145
0.00504662
0.00504094
0.00503443
0.00502715
0.00501913
0.0050104
0.005001
0.00499098
0.00498037
0.0049692
0.00495752
0.00494536
0.00493275
0.00491971
0.00490626
0.00489241
0.00487819
0.00486361
0.00484869
0.00483348
0.004818
0.00480229
0.00478641
0.0047704
0.00475434
0.00473831
0.00472237
0.00470654
0.00469049
0.00467332
0.00465427
1.07882e-05
0.000106595
0.000222446
0.000322419
0.000404717
0.00047209
0.000527299
0.000573221
0.000612192
0.000646013
0.000676033
0.000703647
0.000729812
0.000755301
0.000780549
0.000805822
0.000831353
0.000857302
0.000883723
0.000910723
0.000938366
0.000966689
0.000995712
0.00102544
0.00105587
0.00108699
0.00111876
0.00115116
0.00118415
0.0012177
0.00125175
0.00128629
0.00132125
0.00135662
0.00139234
0.00142837
0.00146469
0.00150127
0.00153807
0.00157505
0.00161219
0.00164957
0.00168728
0.00172521
0.00176319
0.0018012
0.00183921
0.00187718
0.00191518
0.00195324
0.00199139
0.00202964
0.00206801
0.00210651
0.00214516
0.00218397