/*--------------------------------*- C++ -*----------------------------------*\
  =========                 |
  \\      /  F ield         | OpenFOAM: The Open Source CFD Toolbox
   \\    /   O peration     | Website:  https://openfoam.org
    \\  /    A nd           | Version:  8
     \\/     M anipulation  |
\*---------------------------------------------------------------------------*/
FoamFile
{
    version     2.0;
    format      ascii;
    class       volScalarField;
    location    "255";
    object      p;
}
// * * * * * * * * * * * * * * * * * * * * * * * * * * * * * * * * * * * * * //

dimensions      [0 2 -2 0 0 0 0];

internalField   nonuniform List<scalar> 
12225
(
-1.47648
-3.66444
-4.76453
-5.08531
-5.26675
-5.43599
-5.5678
-5.66333
-5.74043
-5.80845
-5.86925
-5.92516
-5.97633
-6.02458
-6.07043
-6.11
-6.15963
-6.14013
-4.63884
-5.40768
-5.56823
-5.47613
-5.46376
-5.53183
-5.60966
-5.67578
-5.73588
-5.79393
-5.84933
-5.90126
-5.95047
-5.99734
-6.04293
-6.08425
-6.1317
-6.16768
-5.03947
-5.02529
-5.15277
-5.23128
-5.32634
-5.44671
-5.55423
-5.63943
-5.71173
-5.77768
-5.83855
-5.89445
-5.94687
-5.99623
-6.04411
-6.08858
-6.13868
-6.18302
-4.91809
-4.86146
-5.10317
-5.26162
-5.36351
-5.46991
-5.56788
-5.64827
-5.71747
-5.78113
-5.84042
-5.89536
-5.94714
-5.99618
-6.0439
-6.08959
-6.13861
-6.18659
-4.90816
-4.93254
-5.16066
-5.30233
-5.38609
-5.47833
-5.56981
-5.64785
-5.71582
-5.77858
-5.83737
-5.89219
-5.94402
-5.99337
-6.04145
-6.08825
-6.13687
-6.18647
-4.96625
-5.01505
-5.18937
-5.31336
-5.395
-5.483
-5.57128
-5.64809
-5.71545
-5.77765
-5.83604
-5.89071
-5.94249
-5.99196
-6.04013
-6.08734
-6.13543
-6.18461
-5.02656
-5.07069
-5.2059
-5.3223
-5.40616
-5.49046
-5.57459
-5.6495
-5.71594
-5.77738
-5.83518
-5.88954
-5.94111
-5.99051
-6.03855
-6.0857
-6.13307
-6.18093
-5.08001
-5.11759
-5.22759
-5.33595
-5.41904
-5.49878
-5.57839
-5.65111
-5.71646
-5.77706
-5.83418
-5.88812
-5.93939
-5.98857
-6.03632
-6.08308
-6.12953
-6.17577
-5.12965
-5.16276
-5.25372
-5.35173
-5.43189
-5.50739
-5.58271
-5.65304
-5.7171
-5.7767
-5.83303
-5.88641
-5.93725
-5.98604
-6.03331
-6.07942
-6.12478
-6.1693
-5.17662
-5.20587
-5.28141
-5.36867
-5.44495
-5.51659
-5.58783
-5.6555
-5.71801
-5.77646
-5.83183
-5.8845
-5.93473
-5.98295
-6.02955
-6.0748
-6.11894
-6.16176
-5.22084
-5.24633
-5.30956
-5.38676
-5.4585
-5.5264
-5.59372
-5.65854
-5.71926
-5.77639
-5.83067
-5.88244
-5.93191
-5.97938
-6.02514
-6.06938
-6.11222
-6.15342
-5.25877
-5.28112
-5.33533
-5.40419
-5.47134
-5.53578
-5.59968
-5.66181
-5.72072
-5.7765
-5.82966
-5.88047
-5.92909
-5.97574
-6.02061
-6.06382
-6.10546
-6.14525
-5.29378
-5.31351
-5.36034
-5.42174
-5.48425
-5.54528
-5.60592
-5.66539
-5.72241
-5.77675
-5.8287
-5.87846
-5.92615
-5.97188
-6.01579
-6.05794
-6.09838
-6.13686
-5.33045
-5.34764
-5.38766
-5.44168
-5.49901
-5.55618
-5.61331
-5.6698
-5.72456
-5.77715
-5.82763
-5.8761
-5.9226
-5.96719
-6.00993
-6.05085
-6.08996
-6.12706
-5.36751
-5.38229
-5.41628
-5.46336
-5.51523
-5.5682
-5.62163
-5.67491
-5.72711
-5.77765
-5.82638
-5.87329
-5.91836
-5.96159
-6.00296
-6.04249
-6.08017
-6.11584
-5.40298
-5.41561
-5.44453
-5.48547
-5.532
-5.58067
-5.63036
-5.68034
-5.72978
-5.77802
-5.82477
-5.8699
-5.91333
-5.95499
-5.99484
-6.03286
-6.06905
-6.1033
-5.43398
-5.44484
-5.46978
-5.5057
-5.54753
-5.59219
-5.63836
-5.6852
-5.73188
-5.77775
-5.82241
-5.86564
-5.9073
-5.94729
-5.98555
-6.02203
-6.05674
-6.0896
-5.45612
-5.46576
-5.488
-5.52042
-5.55881
-5.60037
-5.64372
-5.68796
-5.73228
-5.77601
-5.81873
-5.86015
-5.9001
-5.93848
-5.97519
-6.01021
-6.04352
-6.0751
-5.46252
-5.47167
-5.49286
-5.52396
-5.56098
-5.60117
-5.64311
-5.68592
-5.72883
-5.77119
-5.81253
-5.85259
-5.89121
-5.92827
-5.96372
-5.99753
-6.0297
-6.06024
-5.44609
-5.45585
-5.47842
-5.51145
-5.55038
-5.59198
-5.63482
-5.6782
-5.72142
-5.76381
-5.80497
-5.84469
-5.88284
-5.91935
-5.95419
-5.98737
-6.01888
-6.04881
-5.41904
-5.42982
-5.45506
-5.49203
-5.53472
-5.57914
-5.62411
-5.66921
-5.71369
-5.75687
-5.79847
-5.83838
-5.87657
-5.91298
-5.94763
-5.98055
-6.01179
-6.04142
-5.38369
-5.39549
-5.42481
-5.46834
-5.51654
-5.56442
-5.61212
-5.65971
-5.70611
-5.75054
-5.7929
-5.83329
-5.87174
-5.90824
-5.94285
-5.97566
-6.00674
-6.0362
-5.34305
-5.35492
-5.38934
-5.44255
-5.49802
-5.54988
-5.60065
-5.65096
-5.69934
-5.74506
-5.78833
-5.82936
-5.8682
-5.9049
-5.93958
-5.97238
-6.0034
-6.03278
-5.29929
-5.31024
-5.35197
-5.41633
-5.47843
-5.53501
-5.59052
-5.64425
-5.69438
-5.74105
-5.78502
-5.82655
-5.86567
-5.90247
-5.93717
-5.96993
-6.00088
-6.03016
-5.25235
-5.25779
-5.3204
-5.39855
-5.46041
-5.51857
-5.5796
-5.63783
-5.69022
-5.73813
-5.78301
-5.82512
-5.86452
-5.90142
-5.9361
-5.96879
-5.99967
-6.02891
-5.20906
-5.1726
-5.28209
-5.39301
-5.45518
-5.51037
-5.57247
-5.63209
-5.68518
-5.73377
-5.77935
-5.82201
-5.86174
-5.89883
-5.93362
-5.96638
-5.99729
-6.02654
-5.22314
-5.06413
-5.19303
-5.34706
-5.4371
-5.50837
-5.57719
-5.63799
-5.69066
-5.73881
-5.78395
-5.82608
-5.86523
-5.90177
-5.93602
-5.96828
-5.99877
-6.02776
-5.34586
-5.16584
-5.18002
-5.25212
-5.34042
-5.43955
-5.53013
-5.60379
-5.66537
-5.72038
-5.77056
-5.8162
-5.85787
-5.89623
-5.9318
-5.96502
-5.99635
-6.02641
-5.05316
-5.64473
-5.73355
-5.60925
-5.55485
-5.58192
-5.62879
-5.67191
-5.71335
-5.7554
-5.79676
-5.83596
-5.87279
-5.90739
-5.93983
-5.97026
-5.99891
-6.02755
-2.06491
-3.82767
-4.83233
-5.13142
-5.28052
-5.42406
-5.53798
-5.61882
-5.68292
-5.73966
-5.79079
-5.83669
-5.87824
-5.91634
-5.95151
-5.98355
-6.01229
-6.036
-6.90005
-6.90009
-6.90049
-6.90128
-6.90233
-6.90357
-6.90502
-6.90671
-6.90867
-6.91095
-6.91358
-6.91661
-6.92009
-6.92404
-6.92853
-6.93358
-6.93924
-6.94556
-6.95259
-6.96038
-6.96896
-6.97841
-6.98877
-7.00016
-7.01265
-7.02633
-7.04138
-7.05806
-7.07657
-7.0962
-7.11552
-7.13433
-7.1547
-7.17735
-7.20064
-7.22323
-7.24498
-7.26895
-7.29593
-7.32162
-7.34503
-7.36768
-7.39225
-7.4192
-7.44688
-7.47535
-7.50434
-7.53371
-7.56334
-7.59311
-7.62291
-7.65266
-7.68225
-7.71159
-7.74058
-7.76913
-7.79713
-7.82447
-7.85104
-7.87672
-7.90139
-7.92493
-7.94718
-7.96802
-7.9873
-8.00485
-8.02053
-8.03416
-8.04557
-8.0546
-8.06104
-8.06473
-8.06546
-8.06305
-8.0573
-8.04801
-8.03498
-8.01802
-7.99691
-7.97145
-7.94145
-7.90671
-7.86702
-7.82221
-7.77208
-7.71645
-7.65512
-7.58795
-7.51474
-7.43537
-7.3497
-7.25761
-7.15897
-7.05371
-6.94186
-6.82348
-6.69843
-6.56616
-6.42645
-6.27954
-6.12551
-5.96438
-5.79619
-5.62098
-5.43879
-5.24969
-5.05376
-4.85113
-4.6419
-4.42622
-4.20426
-3.97618
-3.74218
-3.50248
-3.25729
-3.00687
-2.75147
-2.49136
-2.22683
-1.95816
-1.68566
-1.40966
-1.13046
-0.848413
-0.563833
-0.277056
0.0115919
0.301778
0.593183
0.88548
1.17834
1.47143
1.76446
2.05712
2.34912
2.64019
2.93005
3.21845
3.50515
3.78991
4.07251
4.35275
4.63043
4.90539
5.17748
5.44657
5.71252
5.97523
6.2346
6.49055
6.74301
6.99193
7.23725
7.47894
7.71696
7.9513
8.18193
8.40885
8.63205
8.85153
9.06728
9.27933
9.48774
9.6926
9.89374
10.0909
10.2839
10.473
10.6581
10.839
11.0159
11.1886
11.357
11.5212
11.6811
11.8369
11.9899
12.1411
12.3024
12.4694
-6.89875
-6.89908
-6.89964
-6.90034
-6.90099
-6.90158
-6.90225
-6.90317
-6.90443
-6.90607
-6.90813
-6.91063
-6.91359
-6.91703
-6.92098
-6.92548
-6.93057
-6.9363
-6.94271
-6.94986
-6.9578
-6.96659
-6.97626
-6.98685
-6.99837
-7.01082
-7.02418
-7.03837
-7.05302
-7.06789
-7.08382
-7.10227
-7.12208
-7.14086
-7.15882
-7.17734
-7.19878
-7.22216
-7.24538
-7.27188
-7.30235
-7.33513
-7.36694
-7.39633
-7.42546
-7.45463
-7.48394
-7.5134
-7.54297
-7.5726
-7.60223
-7.63179
-7.66117
-7.69032
-7.71912
-7.7475
-7.77535
-7.80256
-7.82903
-7.85465
-7.87929
-7.90282
-7.92512
-7.94604
-7.96542
-7.98314
-7.99901
-8.01289
-8.02459
-8.03395
-8.04078
-8.0449
-8.04612
-8.04424
-8.03907
-8.03043
-8.01809
-8.00186
-7.98155
-7.95695
-7.92786
-7.89408
-7.85542
-7.81168
-7.76269
-7.70826
-7.64821
-7.58237
-7.51057
-7.43268
-7.34856
-7.25807
-7.16109
-7.05749
-6.94713
-6.8298
-6.70531
-6.57386
-6.43559
-6.29034
-6.13804
-5.97868
-5.81228
-5.63886
-5.45847
-5.27117
-5.07705
-4.8762
-4.66874
-4.45482
-4.23458
-4.00821
-3.77588
-3.5378
-3.2942
-3.04532
-2.79141
-2.53274
-2.26958
-2.00223
-1.73099
-1.45616
-1.17808
-0.897067
-0.613451
-0.327563
-0.0397354
0.249707
0.540441
0.832151
1.1245
1.41716
1.70982
2.0022
2.29399
2.58492
2.87471
3.16311
3.44987
3.73476
4.01754
4.29802
4.57599
4.8513
5.12378
5.3933
5.65973
5.92295
6.18286
6.43939
6.69246
6.94201
7.18798
7.43035
7.66907
7.90413
8.1355
8.36319
8.58716
8.80743
9.02402
9.23691
9.44608
9.65131
9.85243
10.0495
10.2426
10.4317
10.6168
10.7979
10.9748
11.1477
11.3164
11.4809
11.6413
11.7981
11.9526
12.1055
12.2696
12.4308
-6.8946
-6.89565
-6.89714
-6.89835
-6.89908
-6.89955
-6.90001
-6.90066
-6.90164
-6.90301
-6.90481
-6.90708
-6.90984
-6.91311
-6.91691
-6.92128
-6.92626
-6.93189
-6.93822
-6.9453
-6.95316
-6.96188
-6.97148
-6.982
-6.99343
-7.00578
-7.01903
-7.03312
-7.04781
-7.06291
-7.07874
-7.09593
-7.11451
-7.13397
-7.15445
-7.17627
-7.19965
-7.22378
-7.24759
-7.27186
-7.2976
-7.32486
-7.35288
-7.38099
-7.40937
-7.43798
-7.46679
-7.49574
-7.5248
-7.55391
-7.583
-7.61202
-7.64089
-7.66953
-7.69786
-7.72579
-7.75321
-7.78005
-7.80617
-7.83148
-7.85585
-7.87916
-7.90127
-7.92206
-7.94136
-7.95904
-7.97493
-7.98888
-8.0007
-8.01024
-8.01731
-8.02173
-8.0233
-8.02185
-8.01717
-8.00907
-7.99735
-7.98182
-7.96226
-7.93848
-7.91028
-7.87747
-7.83984
-7.79721
-7.74939
-7.6962
-7.63746
-7.57299
-7.50264
-7.42625
-7.34369
-7.25482
-7.15952
-7.05766
-6.94911
-6.83371
-6.71128
-6.58187
-6.44557
-6.30232
-6.15207
-5.99479
-5.8305
-5.65922
-5.48098
-5.29584
-5.10388
-4.9052
-4.69991
-4.48814
-4.27004
-4.04577
-3.81554
-3.57952
-3.33795
-3.09105
-2.83907
-2.58229
-2.32096
-2.05538
-1.78584
-1.51266
-1.23614
-0.956626
-0.674431
-0.389887
-0.103329
0.184918
0.474537
0.765211
1.0566
1.34839
1.64027
1.93194
2.2231
2.51348
2.8028
3.0908
3.37723
3.66186
3.94445
4.22479
4.50269
4.77798
5.05049
5.32009
5.58663
5.85
6.11011
6.36685
6.62016
6.86997
7.11622
7.35887
7.59789
7.83324
8.0649
8.29285
8.51709
8.73761
8.95441
9.16751
9.37692
9.58258
9.78437
9.98225
10.1762
10.3661
10.552
10.7339
10.9117
11.0854
11.2549
11.4205
11.5822
11.7404
11.897
12.0516
12.2181
12.3669
-6.88798
-6.88987
-6.89275
-6.89505
-6.89647
-6.89742
-6.8982
-6.89904
-6.9001
-6.90147
-6.90324
-6.90546
-6.90817
-6.91139
-6.91515
-6.91949
-6.92445
-6.93005
-6.93635
-6.94337
-6.95117
-6.95977
-6.96922
-6.97953
-6.99073
-7.00282
-7.01578
-7.02955
-7.04405
-7.05919
-7.07507
-7.09189
-7.10979
-7.12879
-7.14903
-7.1707
-7.19379
-7.21795
-7.24266
-7.26775
-7.29332
-7.31949
-7.34621
-7.37338
-7.40097
-7.4289
-7.45711
-7.48551
-7.51405
-7.54267
-7.57131
-7.59989
-7.62834
-7.6566
-7.68457
-7.71217
-7.73931
-7.76588
-7.79178
-7.8169
-7.84113
-7.86433
-7.88638
-7.90714
-7.92646
-7.94419
-7.96019
-7.97428
-7.9863
-7.99608
-8.00343
-8.00817
-8.01013
-8.0091
-8.00489
-7.99732
-7.98617
-7.97125
-7.95236
-7.9293
-7.90187
-7.86987
-7.83311
-7.7914
-7.74454
-7.69235
-7.63466
-7.57129
-7.50207
-7.42685
-7.3455
-7.25786
-7.16379
-7.06319
-6.95592
-6.84185
-6.72089
-6.59303
-6.45827
-6.31657
-6.16788
-6.0122
-5.84952
-5.67985
-5.50324
-5.31974
-5.12943
-4.93238
-4.72872
-4.51858
-4.30209
-4.07942
-3.85076
-3.6163
-3.37624
-3.13084
-2.88032
-2.62494
-2.36499
-2.10073
-1.83247
-1.56052
-1.28518
-1.00678
-0.725645
-0.442107
-0.156497
0.130862
0.419654
0.709559
1.00024
1.29138
1.58267
1.87381
2.16452
2.45449
2.74347
3.03118
3.31739
3.60183
3.88429
4.16455
4.44242
4.71772
4.99028
5.25996
5.52662
5.79014
6.05041
6.30735
6.56087
6.8109
7.05739
7.30028
7.53955
7.77515
8.00705
8.23525
8.45975
8.68053
8.89758
9.11089
9.32047
9.52632
9.7284
9.92665
10.121
10.3113
10.4976
10.6799
10.8582
11.0323
11.2024
11.3685
11.5309
11.6899
11.8472
12.0016
12.1661
12.3009
-6.88048
-6.88327
-6.88775
-6.89137
-6.89374
-6.8954
-6.89676
-6.89805
-6.89945
-6.90109
-6.90308
-6.90547
-6.90833
-6.9117
-6.91561
-6.92009
-6.92519
-6.93094
-6.93737
-6.94454
-6.95246
-6.96117
-6.97071
-6.98109
-6.99233
-7.00445
-7.01744
-7.03127
-7.04591
-7.06136
-7.07763
-7.09479
-7.11288
-7.13194
-7.15202
-7.17322
-7.19556
-7.21891
-7.2431
-7.26798
-7.29341
-7.31933
-7.34567
-7.3724
-7.39951
-7.42694
-7.45466
-7.4826
-7.5107
-7.53891
-7.56716
-7.59538
-7.6235
-7.65145
-7.67914
-7.70649
-7.7334
-7.75979
-7.78553
-7.81053
-7.83466
-7.85781
-7.87983
-7.90059
-7.91996
-7.93777
-7.95388
-7.96811
-7.98031
-7.9903
-7.99789
-8.00292
-8.00519
-8.0045
-8.00068
-7.99352
-7.98282
-7.96838
-7.95001
-7.92749
-7.90064
-7.86926
-7.83314
-7.7921
-7.74595
-7.6945
-7.63757
-7.57499
-7.50658
-7.4322
-7.35171
-7.26495
-7.17179
-7.07211
-6.96578
-6.8527
-6.73279
-6.60601
-6.47232
-6.33169
-6.18408
-6.02949
-5.86789
-5.69932
-5.52381
-5.34141
-5.15218
-4.95623
-4.75365
-4.54458
-4.32916
-4.10754
-3.87991
-3.64645
-3.40739
-3.16295
-2.91338
-2.65892
-2.39985
-2.13645
-1.86901
-1.59785
-1.32326
-1.04558
-0.765128
-0.482238
-0.197238
0.0895492
0.377816
0.667219
0.95743
1.24814
1.53906
1.82987
2.12027
2.40999
2.69874
2.98627
3.27232
3.55665
3.83902
4.11923
4.39708
4.67239
4.94499
5.21473
5.48148
5.74511
6.00552
6.2626
6.51629
6.7665
7.01318
7.25628
7.49575
7.73158
7.96373
8.19218
8.41691
8.63791
8.85515
9.06862
9.27831
9.4842
9.68631
9.88459
10.079
10.2694
10.4559
10.6383
10.8166
10.9909
11.1612
11.3275
11.4901
11.6491
11.8061
11.9588
12.1197
12.2415
-6.87366
-6.87729
-6.88325
-6.88815
-6.8915
-6.89397
-6.896
-6.89787
-6.89976
-6.90182
-6.90418
-6.90692
-6.91009
-6.91376
-6.91796
-6.92273
-6.92811
-6.93414
-6.94085
-6.94829
-6.95648
-6.96546
-6.97526
-6.98589
-6.99737
-7.00972
-7.02293
-7.037
-7.0519
-7.06764
-7.08422
-7.10166
-7.11998
-7.1392
-7.15933
-7.18039
-7.20236
-7.22519
-7.24879
-7.2731
-7.29803
-7.32349
-7.34942
-7.37575
-7.40246
-7.4295
-7.45683
-7.4844
-7.51215
-7.54003
-7.56797
-7.59591
-7.62378
-7.65151
-7.679
-7.70618
-7.73295
-7.75922
-7.78489
-7.80983
-7.83394
-7.85708
-7.87913
-7.89996
-7.91941
-7.93733
-7.95358
-7.96798
-7.98036
-7.99056
-7.9984
-8.00369
-8.00624
-8.00586
-8.00236
-7.99555
-7.98522
-7.97117
-7.9532
-7.93112
-7.90472
-7.8738
-7.83816
-7.79763
-7.75199
-7.70108
-7.6447
-7.58268
-7.51486
-7.44108
-7.36119
-7.27505
-7.18252
-7.08349
-6.97782
-6.86544
-6.74624
-6.62019
-6.48722
-6.34731
-6.20042
-6.04654
-5.88567
-5.71781
-5.54301
-5.36132
-5.17281
-4.97755
-4.77567
-4.56729
-4.35254
-4.13159
-3.90461
-3.6718
-3.43336
-3.18953
-2.94055
-2.68666
-2.42815
-2.16528
-1.89836
-1.6277
-1.35359
-1.07637
-0.796352
-0.513881
-0.229281
0.0571346
0.345042
0.634097
0.923974
1.21439
1.50503
1.79559
2.08576
2.37526
2.66382
2.95118
3.23707
3.52126
3.80351
4.08362
4.36139
4.63664
4.9092
5.17891
5.44565
5.70928
5.96969
6.22681
6.48052
6.73078
6.97752
7.22069
7.46025
7.69616
7.9284
8.15694
8.38177
8.60286
8.82019
9.03374
9.24349
9.4494
9.65149
9.84975
10.0441
10.2346
10.4211
10.6035
10.7819
10.9563
11.1266
11.293
11.4555
11.6142
11.7704
11.9209
12.0781
12.1885
-6.86862
-6.87301
-6.88015
-6.88613
-6.89038
-6.89364
-6.89637
-6.89885
-6.90128
-6.90384
-6.90665
-6.9098
-6.91338
-6.91743
-6.92201
-6.92715
-6.9329
-6.93929
-6.94636
-6.95414
-6.96268
-6.97199
-6.9821
-6.99304
-7.00482
-7.01744
-7.03091
-7.04522
-7.06036
-7.07632
-7.0931
-7.11071
-7.12914
-7.14841
-7.16853
-7.18947
-7.21124
-7.23377
-7.25703
-7.28095
-7.30548
-7.33055
-7.35611
-7.38211
-7.40849
-7.43523
-7.46227
-7.48956
-7.51706
-7.54471
-7.57244
-7.60019
-7.6279
-7.65549
-7.68287
-7.70997
-7.73669
-7.76293
-7.78859
-7.81355
-7.8377
-7.86091
-7.88305
-7.90399
-7.92357
-7.94164
-7.95806
-7.97264
-7.98523
-7.99565
-8.00371
-8.00924
-8.01205
-8.01194
-8.00872
-8.00219
-7.99216
-7.97842
-7.96077
-7.93901
-7.91294
-7.88236
-7.84707
-7.80688
-7.76161
-7.71106
-7.65505
-7.59342
-7.52598
-7.45258
-7.37309
-7.28735
-7.19523
-7.09661
-6.99137
-6.87941
-6.76067
-6.63506
-6.50254
-6.36307
-6.21663
-6.06318
-5.90273
-5.7353
-5.56093
-5.37965
-5.19155
-4.99671
-4.79524
-4.58725
-4.37289
-4.15232
-3.92572
-3.69327
-3.4552
-3.21172
-2.96307
-2.70952
-2.45132
-2.18877
-1.92215
-1.65177
-1.37795
-1.101
-0.821256
-0.539047
-0.254702
0.0314716
0.319127
0.607928
0.897561
1.18775
1.47818
1.76853
2.0585
2.34781
2.63619
2.92336
3.20908
3.4931
3.7752
4.05516
4.33279
4.6079
4.88033
5.14992
5.41654
5.68006
5.94037
6.19739
6.45102
6.7012
6.94787
7.19098
7.43048
7.66634
7.89853
8.12703
8.35183
8.57289
8.79021
9.00374
9.21347
9.41936
9.62142
9.81964
10.014
10.2044
10.3909
10.5734
10.7518
10.9262
11.0965
11.2628
11.4251
11.5834
11.7384
11.8866
12.0404
12.141
-6.8661
-6.87105
-6.87901
-6.88582
-6.89082
-6.89477
-6.89813
-6.90119
-6.90417
-6.90722
-6.9105
-6.91409
-6.91809
-6.92256
-6.92753
-6.93307
-6.93921
-6.94598
-6.95342
-6.96157
-6.97046
-6.9801
-6.99053
-7.00177
-7.01382
-7.0267
-7.04039
-7.05491
-7.07024
-7.08637
-7.1033
-7.12102
-7.13952
-7.15881
-7.17888
-7.19973
-7.22133
-7.24366
-7.26667
-7.29033
-7.31458
-7.33938
-7.36467
-7.39042
-7.41658
-7.44311
-7.46995
-7.49707
-7.52441
-7.55192
-7.57954
-7.60721
-7.63485
-7.66239
-7.68976
-7.71686
-7.7436
-7.76989
-7.79562
-7.82067
-7.84492
-7.86826
-7.89054
-7.91163
-7.93138
-7.94963
-7.96623
-7.98101
-7.9938
-8.00443
-8.01271
-8.01846
-8.02149
-8.02161
-8.01862
-8.01232
-8.00251
-7.989
-7.97158
-7.95004
-7.92419
-7.89383
-7.85877
-7.8188
-7.77374
-7.72341
-7.66762
-7.60619
-7.53897
-7.46579
-7.38651
-7.30098
-7.20907
-7.11066
-7.00564
-6.89391
-6.77539
-6.65
-6.51771
-6.37845
-6.23221
-6.07897
-5.91873
-5.7515
-5.57731
-5.39623
-5.20832
-5.01366
-4.81237
-4.60456
-4.39037
-4.16997
-3.94354
-3.71125
-3.47333
-3.23001
-2.98151
-2.7281
-2.47005
-2.20764
-1.94117
-1.67093
-1.39725
-1.12045
-0.840851
-0.558794
-0.274595
0.0114157
0.298893
0.587507
0.876963
1.16698
1.45724
1.7474
2.03719
2.32632
2.61451
2.90149
3.18702
3.47085
3.75276
4.03253
4.30997
4.58489
4.85713
5.12654
5.39297
5.65631
5.91644
6.17328
6.42674
6.67675
6.92326
7.16621
7.40556
7.64128
7.87334
8.10172
8.32639
8.54734
8.76455
8.97799
9.18763
9.39344
9.59542
9.79357
9.98785
10.1782
10.3647
10.5471
10.7256
10.8999
11.0702
11.2363
11.3982
11.5558
11.7096
11.8554
12.0063
12.0983
-6.86638
-6.87167
-6.8801
-6.88745
-6.89301
-6.89751
-6.90141
-6.90498
-6.90843
-6.91194
-6.91565
-6.91965
-6.92405
-6.92889
-6.93425
-6.94015
-6.94664
-6.95376
-6.96155
-6.97002
-6.97922
-6.98916
-6.99987
-7.01136
-7.02364
-7.03671
-7.05059
-7.06526
-7.08073
-7.09697
-7.11399
-7.13178
-7.15033
-7.16963
-7.18967
-7.21045
-7.23194
-7.25413
-7.27698
-7.30046
-7.32453
-7.34915
-7.37428
-7.39988
-7.4259
-7.45231
-7.47905
-7.50609
-7.53337
-7.56083
-7.58843
-7.6161
-7.64376
-7.67135
-7.69877
-7.72596
-7.7528
-7.7792
-7.80506
-7.83025
-7.85467
-7.87817
-7.90063
-7.9219
-7.94184
-7.96028
-7.97708
-7.99206
-8.00504
-8.01586
-8.02434
-8.03027
-8.03348
-8.03377
-8.03095
-8.02481
-8.01515
-8.00178
-7.98449
-7.96308
-7.93735
-7.9071
-7.87213
-7.83226
-7.78729
-7.73703
-7.68131
-7.61995
-7.55279
-7.47967
-7.40044
-7.31496
-7.2231
-7.12474
-7.01976
-6.90807
-6.78959
-6.66425
-6.53199
-6.39277
-6.24656
-6.09335
-5.93312
-5.76591
-5.59175
-5.41068
-5.22278
-5.02814
-4.82686
-4.61906
-4.40489
-4.1845
-3.95807
-3.7258
-3.4879
-3.24458
-2.9961
-2.74272
-2.48469
-2.22231
-1.95587
-1.68567
-1.41204
-1.1353
-0.855768
-0.573789
-0.289679
-0.00378742
0.283554
0.57202
0.861332
1.1512
1.44129
1.73128
2.02088
2.30981
2.5978
2.88458
3.16989
3.45349
3.73517
4.01471
4.29191
4.5666
4.83859
5.10775
5.37394
5.63703
5.89691
6.15351
6.40672
6.6565
6.90277
7.1455
7.38463
7.62015
7.85202
8.08021
8.30471
8.5255
8.74255
8.95584
9.16534
9.37104
9.57291
9.77096
9.96515
10.1555
10.3418
10.5242
10.7026
10.8769
11.047
11.2128
11.3744
11.5311
11.6835
11.8271
11.9753
12.0602
-6.86943
-6.87485
-6.88343
-6.89104
-6.89696
-6.90185
-6.90615
-6.91012
-6.91396
-6.91784
-6.92191
-6.92626
-6.93098
-6.93614
-6.94181
-6.94801
-6.9548
-6.96221
-6.97026
-6.979
-6.98844
-6.9986
-7.00951
-7.02118
-7.03362
-7.04684
-7.06083
-7.07561
-7.09115
-7.10746
-7.12453
-7.14235
-7.16092
-7.18022
-7.20025
-7.22099
-7.24243
-7.26454
-7.2873
-7.31069
-7.33467
-7.35921
-7.38426
-7.4098
-7.43578
-7.46215
-7.48888
-7.51592
-7.54323
-7.57074
-7.5984
-7.62615
-7.65391
-7.68161
-7.70917
-7.73649
-7.76349
-7.79006
-7.8161
-7.84148
-7.86608
-7.88978
-7.91243
-7.93389
-7.95402
-7.97265
-7.98962
-8.00477
-8.01793
-8.0289
-8.03751
-8.04358
-8.04691
-8.0473
-8.04457
-8.03851
-8.02891
-8.01559
-7.99833
-7.97694
-7.95122
-7.92096
-7.88598
-7.84608
-7.80106
-7.75076
-7.69498
-7.63355
-7.56631
-7.49311
-7.4138
-7.32823
-7.23627
-7.13781
-7.03274
-6.92095
-6.80237
-6.67693
-6.54456
-6.40524
-6.25891
-6.10558
-5.94525
-5.77792
-5.60365
-5.42247
-5.23446
-5.03971
-4.83832
-4.63041
-4.41614
-4.19565
-3.96913
-3.73677
-3.49878
-3.2554
-3.00685
-2.7534
-2.49532
-2.2329
-1.96643
-1.69622
-1.42258
-1.14585
-0.866357
-0.584424
-0.30039
-0.0145998
0.272619
0.560951
0.850114
1.13982
1.42974
1.71953
2.00892
2.29763
2.58538
2.8719
3.15696
3.4403
3.7217
4.00096
4.27787
4.55225
4.82394
5.09279
5.35866
5.62144
5.88101
6.13729
6.3902
6.63967
6.88565
7.12809
7.36696
7.60222
7.83384
8.0618
8.28608
8.50666
8.72352
8.93663
9.14597
9.35152
9.55327
9.75119
9.94528
10.1355
10.3218
10.5041
10.6824
10.8565
11.0264
11.192
11.353
11.5089
11.66
11.8013
11.9472
12.026
-6.87501
-6.88037
-6.88882
-6.89643
-6.9025
-6.90761
-6.91217
-6.91641
-6.92053
-6.92468
-6.929
-6.93361
-6.93858
-6.94397
-6.94986
-6.95627
-6.96326
-6.97085
-6.97908
-6.98798
-6.99757
-7.00786
-7.01889
-7.03066
-7.04319
-7.05647
-7.07053
-7.08534
-7.10093
-7.11727
-7.13436
-7.15221
-7.17079
-7.1901
-7.21013
-7.23086
-7.25228
-7.27438
-7.29712
-7.32049
-7.34446
-7.369
-7.39406
-7.41962
-7.44563
-7.47206
-7.49886
-7.52599
-7.55339
-7.58102
-7.60882
-7.63671
-7.66463
-7.6925
-7.72023
-7.74774
-7.77493
-7.8017
-7.82793
-7.85351
-7.8783
-7.90219
-7.92502
-7.94666
-7.96694
-7.98573
-8.00284
-8.01811
-8.03136
-8.04242
-8.05111
-8.05723
-8.06059
-8.061
-8.05826
-8.05217
-8.04254
-8.02915
-8.01182
-7.99034
-7.96451
-7.93413
-7.89901
-7.85895
-7.81378
-7.7633
-7.70734
-7.64573
-7.5783
-7.50489
-7.42537
-7.3396
-7.24743
-7.14876
-7.04347
-6.93147
-6.81268
-6.68703
-6.55445
-6.41491
-6.26838
-6.11484
-5.95429
-5.78676
-5.61228
-5.43091
-5.2427
-5.04776
-4.84619
-4.63811
-4.42367
-4.20302
-3.97635
-3.74385
-3.50572
-3.26221
-3.01355
-2.76
-2.50184
-2.23935
-1.97283
-1.70259
-1.42894
-1.15222
-0.872755
-0.590877
-0.306935
-0.0212577
0.265824
0.554
0.842989
1.13251
1.42221
1.71176
2.0009
2.28934
2.5768
2.86302
3.14776
3.43077
3.71183
3.99074
4.26729
4.5413
4.81261
5.08108
5.34656
5.60895
5.86814
6.12404
6.37658
6.62569
6.87132
7.11342
7.35196
7.58691
7.81824
8.04593
8.26995
8.49029
8.70693
8.91984
9.129
9.33439
9.536
9.7338
9.92778
10.1179
10.3041
10.4863
10.6645
10.8385
11.0082
11.1733
11.3338
11.4888
11.6385
11.7778
11.9216
11.9955
-6.88274
-6.88788
-6.89595
-6.90335
-6.90939
-6.91456
-6.91922
-6.92359
-6.92785
-6.93216
-6.93663
-6.94137
-6.94646
-6.95197
-6.95796
-6.96447
-6.97154
-6.9792
-6.9875
-6.99645
-7.00609
-7.01643
-7.02749
-7.03929
-7.05184
-7.06515
-7.07922
-7.09405
-7.10964
-7.12599
-7.1431
-7.16096
-7.17955
-7.19888
-7.21893
-7.23969
-7.26115
-7.28328
-7.30607
-7.32948
-7.3535
-7.37809
-7.40322
-7.42886
-7.45498
-7.48153
-7.50846
-7.53574
-7.56331
-7.59111
-7.61908
-7.64715
-7.67526
-7.70332
-7.73125
-7.75895
-7.78634
-7.81329
-7.8397
-7.86545
-7.8904
-7.91443
-7.93739
-7.95914
-7.97952
-7.99838
-8.01554
-8.03085
-8.04412
-8.05517
-8.06382
-8.06988
-8.07316
-8.07347
-8.07062
-8.06439
-8.05459
-8.04103
-8.02351
-8.00181
-7.97575
-7.94513
-7.90976
-7.86944
-7.824
-7.77324
-7.71699
-7.65508
-7.58735
-7.51365
-7.43383
-7.34776
-7.2553
-7.15633
-7.05074
-6.93845
-6.81937
-6.69343
-6.56057
-6.42075
-6.27394
-6.12013
-5.95933
-5.79154
-5.61681
-5.4352
-5.24676
-5.0516
-4.84981
-4.64153
-4.42689
-4.20606
-3.97922
-3.74657
-3.5083
-3.26467
-3.0159
-2.76226
-2.50403
-2.24148
-1.97493
-1.70467
-1.43103
-1.15434
-0.874939
-0.593157
-0.309337
-0.0238069
0.2631
0.55107
0.839841
1.12911
1.41852
1.70777
1.99659
2.28468
2.57178
2.85762
3.14197
3.42458
3.70522
3.9837
4.2598
4.53337
4.80423
5.07223
5.33726
5.59919
5.85792
6.11338
6.36548
6.61416
6.85938
7.10109
7.33926
7.57385
7.80485
8.03222
8.25595
8.47603
8.69242
8.90511
9.11407
9.31929
9.52075
9.71843
9.9123
10.1023
10.2884
10.4705
10.6486
10.8224
10.9918
11.1566
11.3165
11.4706
11.619
11.7564
11.8983
11.968
-6.89215
-6.89697
-6.90449
-6.9115
-6.91733
-6.92239
-6.92701
-6.93136
-6.93562
-6.93993
-6.94441
-6.94915
-6.95423
-6.95973
-6.96569
-6.97217
-6.97921
-6.98684
-6.99511
-7.00403
-7.01363
-7.02394
-7.03498
-7.04675
-7.05926
-7.07254
-7.08658
-7.10139
-7.11697
-7.13332
-7.15043
-7.1683
-7.18692
-7.20629
-7.22638
-7.2472
-7.26872
-7.29091
-7.31376
-7.33726
-7.36136
-7.38605
-7.4113
-7.43708
-7.46335
-7.49006
-7.51718
-7.54464
-7.57239
-7.60037
-7.62852
-7.65677
-7.68505
-7.71328
-7.74137
-7.76924
-7.79676
-7.82384
-7.85036
-7.8762
-7.90123
-7.92531
-7.9483
-7.97006
-7.99042
-8.00923
-8.02633
-8.04154
-8.05468
-8.06559
-8.07408
-8.07995
-8.08302
-8.0831
-8.07999
-8.07349
-8.06341
-8.04955
-8.0317
-8.00968
-7.98328
-7.95231
-7.91658
-7.8759
-7.83008
-7.77895
-7.72233
-7.66005
-7.59194
-7.51787
-7.43769
-7.35126
-7.25844
-7.15912
-7.05319
-6.94056
-6.82115
-6.69489
-6.56172
-6.4216
-6.2745
-6.12042
-5.95934
-5.7913
-5.61632
-5.43447
-5.24581
-5.05043
-4.84845
-4.63998
-4.42517
-4.20419
-3.97721
-3.74443
-3.50606
-3.26233
-3.01348
-2.75979
-2.50152
-2.23897
-1.97243
-1.7022
-1.42863
-1.15203
-0.872757
-0.591143
-0.30751
-0.0222003
0.264447
0.55213
0.840605
1.12953
1.41856
1.70742
1.99581
2.28347
2.57012
2.8555
3.13936
3.42147
3.7016
3.97956
4.25514
4.52817
4.79849
5.06596
5.33044
5.59184
5.85004
6.10498
6.35658
6.60478
6.84953
7.09079
7.32854
7.56274
7.79336
8.02039
8.24381
8.46359
8.67972
8.89217
9.10094
9.30598
9.5073
9.70485
9.89861
10.0885
10.2745
10.4566
10.6345
10.8081
10.9773
11.1417
11.3009
11.4541
11.6013
11.737
11.877
11.9436
-6.90282
-6.90723
-6.91409
-6.92057
-6.92604
-6.93083
-6.93523
-6.93941
-6.9435
-6.94765
-6.95197
-6.95656
-6.96149
-6.96684
-6.97266
-6.979
-6.9859
-6.99341
-7.00155
-7.01036
-7.01986
-7.03007
-7.04101
-7.05269
-7.06514
-7.07835
-7.09234
-7.10711
-7.12267
-7.139
-7.15612
-7.174
-7.19264
-7.21204
-7.23217
-7.25304
-7.27461
-7.29688
-7.31982
-7.34341
-7.36763
-7.39246
-7.41786
-7.44379
-7.47022
-7.4971
-7.52437
-7.55198
-7.57988
-7.60799
-7.63626
-7.66462
-7.693
-7.72131
-7.74947
-7.77738
-7.80493
-7.83202
-7.85852
-7.88431
-7.90926
-7.93324
-7.9561
-7.9777
-7.99788
-8.01649
-8.03335
-8.0483
-8.06117
-8.07177
-8.07994
-8.08547
-8.08819
-8.08789
-8.08439
-8.0775
-8.06701
-8.05273
-8.03446
-8.01201
-7.98517
-7.95377
-7.91761
-7.87649
-7.83024
-7.77869
-7.72164
-7.65894
-7.59044
-7.51597
-7.43541
-7.3486
-7.25541
-7.15574
-7.04947
-6.93651
-6.81678
-6.69021
-6.55675
-6.41635
-6.26898
-6.11464
-5.95333
-5.78506
-5.60987
-5.42782
-5.23899
-5.04345
-4.84131
-4.63272
-4.4178
-4.19672
-3.96966
-3.73682
-3.49841
-3.25466
-3.00582
-2.75215
-2.49394
-2.23146
-1.96502
-1.69492
-1.4215
-1.1451
-0.866064
-0.584706
-0.301359
-0.0163824
0.269889
0.557191
0.845258
1.13372
1.42226
1.71061
1.99848
2.28559
2.57168
2.85649
3.13976
3.42127
3.7008
3.97814
4.25309
4.5255
4.79518
5.06202
5.32589
5.58667
5.84427
6.09863
6.34965
6.59731
6.84154
7.08231
7.31959
7.55335
7.78357
8.01023
8.2333
8.45277
8.66863
8.88084
9.0894
9.29427
9.49544
9.69287
9.88653
10.0764
10.2623
10.4442
10.622
10.7955
10.9644
11.1284
11.287
11.4393
11.5853
11.7194
11.8577
11.9218
-6.91435
-6.91832
-6.92445
-6.93029
-6.93525
-6.93961
-6.94362
-6.94742
-6.95116
-6.95497
-6.95898
-6.96326
-6.9679
-6.97297
-6.97853
-6.98462
-6.9913
-6.99859
-7.00653
-7.01515
-7.02448
-7.03454
-7.04534
-7.0569
-7.06924
-7.08235
-7.09626
-7.11095
-7.12645
-7.14273
-7.15981
-7.17768
-7.19631
-7.21572
-7.23588
-7.25677
-7.27839
-7.30073
-7.32376
-7.34746
-7.37179
-7.39672
-7.42222
-7.44825
-7.47475
-7.50169
-7.52902
-7.55666
-7.58456
-7.61266
-7.6409
-7.66921
-7.69753
-7.72575
-7.7538
-7.78157
-7.80896
-7.83586
-7.86214
-7.88768
-7.91236
-7.93604
-7.95858
-7.97983
-7.99964
-8.01785
-8.03431
-8.04883
-8.06126
-8.07141
-8.07911
-8.08417
-8.0864
-8.08561
-8.08162
-8.07423
-8.06324
-8.04847
-8.0297
-8.00676
-7.97944
-7.94755
-7.91091
-7.86934
-7.82264
-7.77063
-7.71316
-7.65005
-7.58116
-7.50631
-7.42538
-7.33821
-7.24469
-7.14469
-7.03812
-6.92488
-6.80488
-6.67806
-6.54437
-6.40375
-6.25619
-6.10168
-5.9402
-5.77179
-5.59648
-5.41433
-5.22541
-5.0298
-4.82762
-4.61899
-4.40406
-4.183
-3.95597
-3.72318
-3.48484
-3.24119
-2.99248
-2.73896
-2.48092
-2.21864
-1.95242
-1.68258
-1.40946
-1.1334
-0.854707
-0.573727
-0.290812
-0.00631676
0.279449
0.56625
0.85377
1.14163
1.42955
1.71725
2.00447
2.29092
2.57633
2.86045
3.14302
3.42382
3.70263
3.97924
4.25347
4.52515
4.79411
5.06024
5.3234
5.58349
5.84042
6.09411
6.34451
6.59157
6.83523
7.07546
7.31223
7.54553
7.77532
8.00158
8.22429
8.44345
8.65902
8.871
9.07935
9.28406
9.48509
9.68242
9.87599
10.0657
10.2516
10.4335
10.6111
10.7845
10.9531
11.1167
11.2747
11.4262
11.571
11.7037
11.8402
11.9027
-6.92692
-6.93045
-6.93585
-6.94097
-6.94526
-6.94898
-6.95235
-6.95555
-6.95871
-6.96197
-6.96545
-6.96924
-6.97343
-6.97807
-6.98324
-6.98897
-6.99531
-7.00229
-7.00995
-7.0183
-7.02737
-7.03719
-7.04777
-7.05913
-7.07127
-7.08421
-7.09796
-7.11251
-7.12786
-7.14402
-7.16098
-7.17873
-7.19729
-7.21663
-7.23674
-7.25761
-7.27921
-7.30153
-7.32454
-7.3482
-7.37248
-7.39735
-7.42276
-7.44868
-7.47505
-7.50183
-7.52897
-7.55641
-7.58409
-7.61195
-7.63993
-7.66797
-7.69598
-7.72389
-7.75159
-7.77898
-7.80596
-7.83241
-7.85823
-7.88329
-7.90747
-7.93063
-7.95263
-7.97332
-7.99257
-8.01021
-8.02608
-8.04003
-8.05187
-8.06143
-8.06854
-8.07301
-8.07467
-8.07331
-8.06875
-8.0608
-8.04927
-8.03396
-8.01467
-7.99122
-7.96341
-7.93105
-7.89395
-7.85193
-7.80481
-7.75241
-7.69457
-7.63112
-7.56188
-7.48672
-7.40549
-7.31805
-7.22427
-7.12405
-7.01727
-6.90384
-6.78368
-6.65672
-6.5229
-6.38219
-6.23456
-6.07999
-5.91849
-5.75007
-5.57478
-5.39266
-5.20379
-5.00826
-4.80618
-4.59768
-4.3829
-4.162
-3.93517
-3.70259
-3.4645
-3.22111
-2.97269
-2.71949
-2.46179
-2.19988
-1.93407
-1.66468
-1.39202
-1.11644
-0.838272
-0.557861
-0.275569
0.00827084
0.293379
0.579512
0.866308