/*--------------------------------*- C++ -*----------------------------------*\
  =========                 |
  \\      /  F ield         | OpenFOAM: The Open Source CFD Toolbox
   \\    /   O peration     | Website:  https://openfoam.org
    \\  /    A nd           | Version:  8
     \\/     M anipulation  |
\*---------------------------------------------------------------------------*/
FoamFile
{
    version     2.0;
    format      ascii;
    class       surfaceScalarField;
    location    "255";
    object      phi;
}
// * * * * * * * * * * * * * * * * * * * * * * * * * * * * * * * * * * * * * //

dimensions      [0 3 -1 0 0 0 0];

internalField   nonuniform List<scalar> 
24170
(
3.12889e-06
5.95167e-08
3.04664e-06
8.22491e-08
2.97355e-06
7.3092e-08
2.90491e-06
6.86378e-08
2.84059e-06
6.43208e-08
2.78327e-06
5.73122e-08
2.73396e-06
4.9311e-08
2.69203e-06
4.1936e-08
2.65637e-06
3.56523e-08
2.62595e-06
3.04182e-08
2.59979e-06
2.61603e-08
2.57706e-06
2.27369e-08
2.55708e-06
1.99741e-08
2.5393e-06
1.77774e-08
2.52336e-06
1.59478e-08
2.50835e-06
1.50079e-08
2.49468e-06
1.36633e-08
1.80366e-08
2.47665e-06
3.45314e-06
2.36258e-08
3.45702e-06
7.83701e-08
3.45055e-06
7.95611e-08
3.43909e-06
8.00911e-08
3.42432e-06
7.90964e-08
3.40707e-06
7.45593e-08
3.38786e-06
6.85218e-08
3.36734e-06
6.24516e-08
3.34621e-06
5.67863e-08
3.32504e-06
5.1584e-08
3.30433e-06
4.68714e-08
3.28435e-06
4.27178e-08
3.26529e-06
3.90286e-08
3.24721e-06
3.58599e-08
3.2302e-06
3.29625e-08
3.21417e-06
3.1038e-08
3.19946e-06
2.8366e-08
2.9661e-08
3.18784e-06
3.66826e-06
1.78806e-08
3.67919e-06
6.74431e-08
3.68542e-06
7.3326e-08
3.68947e-06
7.60465e-08
3.69107e-06
7.74943e-08
3.69011e-06
7.5519e-08
3.68698e-06
7.16505e-08
3.68215e-06
6.72823e-08
3.67601e-06
6.29247e-08
3.66889e-06
5.87057e-08
3.66106e-06
5.46974e-08
3.65278e-06
5.09985e-08
3.64423e-06
4.75772e-08
3.63558e-06
4.45124e-08
3.62689e-06
4.16508e-08
3.61852e-06
3.94109e-08
3.60997e-06
3.69105e-08
3.6044e-08
3.60359e-06
3.92587e-06
1.7395e-08
3.93592e-06
5.73947e-08
3.94257e-06
6.66737e-08
3.94812e-06
7.05008e-08
3.95254e-06
7.30748e-08
3.95549e-06
7.2564e-08
3.95717e-06
6.99726e-08
3.95781e-06
6.6638e-08
3.95761e-06
6.31249e-08
3.95672e-06
5.96023e-08
3.95526e-06
5.6156e-08
3.95336e-06
5.28956e-08
3.95112e-06
4.98198e-08
3.94863e-06
4.69969e-08
3.94594e-06
4.4343e-08
3.94328e-06
4.20662e-08
3.94042e-06
3.9778e-08
3.80228e-08
3.93844e-06
4.20819e-06
1.63276e-08
4.21599e-06
4.96009e-08
4.22169e-06
6.09716e-08
4.2268e-06
6.53931e-08
4.23155e-06
6.83212e-08
4.23553e-06
6.85857e-08
4.2387e-06
6.67961e-08
4.24119e-06
6.41506e-08
4.2431e-06
6.12206e-08
4.24451e-06
5.81922e-08
4.2455e-06
5.516e-08
4.24617e-06
5.22308e-08
4.24656e-06
4.94278e-08
4.24675e-06
4.68032e-08
4.24678e-06
4.4317e-08
4.24678e-06
4.20604e-08
4.24671e-06
3.98546e-08
3.77915e-08
4.24694e-06
4.51069e-06
1.47257e-08
4.51689e-06
4.34027e-08
4.52214e-06
5.57183e-08
4.52696e-06
6.05732e-08
4.53168e-06
6.36031e-08
4.53593e-06
6.43299e-08
4.53961e-06
6.31137e-08
4.54279e-06
6.09786e-08
4.54552e-06
5.8485e-08
4.54788e-06
5.58308e-08
4.54992e-06
5.31208e-08
4.5517e-06
5.0454e-08
4.55325e-06
4.78711e-08
4.55465e-06
4.541e-08
4.55591e-06
4.30558e-08
4.55713e-06
4.08391e-08
4.55831e-06
3.86694e-08
3.65101e-08
4.5596e-06
4.83431e-06
1.31377e-08
4.83963e-06
3.80788e-08
4.84476e-06
5.05894e-08
4.84947e-06
5.58658e-08
4.85411e-06
5.89644e-08
4.85843e-06
6.00052e-08
4.86231e-06
5.92326e-08
4.86579e-06
5.75028e-08
4.86891e-06
5.5357e-08
4.87174e-06
5.30043e-08
4.8743e-06
5.05576e-08
4.87665e-06
4.81097e-08
4.87881e-06
4.57107e-08
4.88083e-06
4.33906e-08
4.88274e-06
4.11469e-08
4.88459e-06
3.89823e-08
4.88642e-06
3.68458e-08
3.46802e-08
4.88825e-06
5.18103e-06
1.16866e-08
5.18576e-06
3.33544e-08
5.19076e-06
4.55829e-08
5.19542e-06
5.12096e-08
5.20001e-06
5.43729e-08
5.20437e-06
5.56389e-08
5.20838e-06
5.52278e-08
5.21204e-06
5.38419e-08
5.2154e-06
5.19922e-08
5.21851e-06
4.98985e-08
5.22139e-06
4.76791e-08
5.22407e-06
4.54231e-08
5.2266e-06
4.3185e-08
5.229e-06
4.09923e-08
5.2313e-06
3.88484e-08
5.23353e-06
3.67472e-08
5.23572e-06
3.46565e-08
3.25325e-08
5.23787e-06
5.55268e-06
1.03399e-08
5.55689e-06
2.91483e-08
5.5617e-06
4.07715e-08
5.56631e-06
4.65959e-08
5.57088e-06
4.98028e-08
5.5753e-06
5.12269e-08
5.57941e-06
5.11147e-08
5.58322e-06
5.00318e-08
5.58676e-06
4.84466e-08
5.59008e-06
4.65863e-08
5.59318e-06
4.45729e-08
5.59611e-06
4.24933e-08
5.59889e-06
4.0404e-08
5.60155e-06
3.83328e-08
5.60411e-06
3.62872e-08
5.6066e-06
3.42613e-08
5.60902e-06
3.22346e-08
3.01837e-08
5.61137e-06
5.95103e-06
9.08098e-09
5.95479e-06
2.53967e-08
5.95936e-06
3.61945e-08
5.96392e-06
4.20357e-08
5.96847e-06
4.52503e-08
5.97293e-06
4.6776e-08
5.97714e-06
4.6904e-08
5.98108e-06
4.60875e-08
5.98478e-06
4.47425e-08
5.98827e-06
4.30978e-08
5.99157e-06
4.12773e-08
5.99469e-06
3.9366e-08
5.99768e-06
3.74206e-08
6.00054e-06
3.54714e-08
6.0033e-06
3.35291e-08
6.00597e-06
3.15924e-08
6.00855e-06
2.96496e-08
2.76954e-08
6.01104e-06
6.37798e-06
7.91144e-09
6.38135e-06
2.20322e-08
6.38568e-06
3.18626e-08
6.39017e-06
3.75457e-08
6.3947e-06
4.07212e-08
6.39917e-06
4.22983e-08
6.40347e-06
4.26082e-08
6.40754e-06
4.20198e-08
6.41139e-06
4.08924e-08
6.41504e-06
3.94481e-08
6.4185e-06
3.78109e-08
6.4218e-06
3.60637e-08
6.42496e-06
3.42625e-08
6.42799e-06
3.24398e-08
6.43091e-06
3.06102e-08
6.43373e-06
2.87777e-08
6.43644e-06
2.69382e-08
2.50996e-08
6.43903e-06
5.74176e-06
6.98569e-09
5.74434e-06
1.94488e-08
5.74781e-06
2.83909e-08
5.75155e-06
3.38146e-08
5.75535e-06
3.69151e-08
5.75915e-06
3.85021e-08
5.76283e-06
3.89215e-08
5.76636e-06
3.84941e-08
5.76972e-06
3.75329e-08
5.77292e-06
3.62471e-08
5.77597e-06
3.47587e-08
5.77889e-06
3.31481e-08
5.78168e-06
3.14709e-08
5.78436e-06
2.97606e-08
5.78693e-06
2.8035e-08
5.78941e-06
2.63025e-08
5.79178e-06
2.45638e-08
2.28362e-08
5.79404e-06
6.99914e-06
6.00222e-09
7.00187e-06
1.67153e-08
7.00564e-06
2.46241e-08
7.00981e-06
2.96444e-08
7.01413e-06
3.25912e-08
7.01849e-06
3.41439e-08
7.02277e-06
3.46436e-08
7.0269e-06
3.43651e-08
7.03086e-06
3.3572e-08
7.03465e-06
3.24544e-08
7.03828e-06
3.11295e-08
7.04175e-06
2.96742e-08
7.04508e-06
2.8142e-08
7.04827e-06
2.65676e-08
7.05134e-06
2.49717e-08
7.05427e-06
2.33667e-08
7.05708e-06
2.17578e-08
2.01691e-08
7.05974e-06
8.53188e-06
4.96885e-09
8.53474e-06
1.3859e-08
8.53877e-06
2.05903e-08
8.54337e-06
2.50425e-08
8.54823e-06
2.77314e-08
8.55319e-06
2.91866e-08
8.55811e-06
2.9721e-08
8.56291e-06
2.95655e-08
8.56755e-06
2.89334e-08
8.57201e-06
2.79893e-08
8.5763e-06
2.6841e-08
8.58041e-06
2.55602e-08
8.58436e-06
2.41973e-08
8.58814e-06
2.27867e-08
8.59176e-06
2.13512e-08
8.59522e-06
1.99063e-08
8.59852e-06
1.84608e-08
1.70422e-08
8.60164e-06
1.04003e-05
3.89485e-09
1.04033e-05
1.08992e-08
1.04075e-05
1.63114e-08
1.04126e-05
2.00181e-08
1.0418e-05
2.23201e-08
1.04236e-05
2.35943e-08
1.04292e-05
2.4101e-08
1.04347e-05
2.40275e-08
1.04401e-05
2.35384e-08
1.04453e-05
2.27666e-08
1.04504e-05
2.18055e-08
1.04552e-05
2.07187e-08
1.04599e-05
1.95515e-08
1.04643e-05
1.83362e-08
1.04686e-05
1.70961e-08
1.04726e-05
1.58481e-08
1.04765e-05
1.46028e-08
1.33884e-08
1.04801e-05
1.26779e-05
2.78522e-09
1.2681e-05
7.83065e-09
1.26855e-05
1.17862e-08
1.26909e-05
1.45662e-08
1.26969e-05
1.63308e-08
1.27032e-05
1.73192e-08
1.27096e-05
1.7721e-08
1.27159e-05
1.76756e-08
1.27222e-05
1.73004e-08
1.27283e-05
1.66933e-08
1.27341e-05
1.5927e-08
1.27398e-05
1.50532e-08
1.27452e-05
1.41094e-08
1.27504e-05
1.31237e-08
1.27554e-05
1.21167e-08
1.27602e-05
1.11049e-08
1.27647e-05
1.00986e-08
9.12453e-09
1.27689e-05
1.54543e-05
1.62934e-09
1.54576e-05
4.60759e-09
1.54624e-05
6.95786e-09
1.54683e-05
8.6276e-09
1.5475e-05
9.69082e-09
1.5482e-05
1.02726e-08
1.54892e-05
1.04822e-08
1.54965e-05
1.04036e-08
1.55037e-05
1.01075e-08
1.55108e-05
9.6536e-09
1.55176e-05
9.08882e-09
1.55242e-05
8.44802e-09
1.55305e-05
7.7574e-09
1.55366e-05
7.03734e-09
1.55424e-05
6.30367e-09
1.5548e-05
5.56948e-09
1.55532e-05
4.84286e-09
4.14659e-09
1.55582e-05
1.88389e-05
3.87338e-10
1.88424e-05
1.106e-09
1.88477e-05
1.65311e-09
1.88543e-05
2.01234e-09
1.88618e-05
2.20355e-09
1.88698e-05
2.25449e-09
1.88781e-05
2.18692e-09
1.88865e-05
2.02069e-09
1.88948e-05
1.77599e-09
1.8903e-05
1.47133e-09
1.8911e-05
1.12215e-09
1.89187e-05
7.41376e-10
1.89261e-05
3.40023e-10
1.89332e-05
-7.24094e-11
1.894e-05
-4.87853e-10
1.89465e-05
-8.98968e-10
1.89526e-05
-1.30148e-09
-1.6782e-09
1.89584e-05
2.29648e-05
-1.04176e-09
2.29688e-05
-2.96279e-09
2.2975e-05
-4.54703e-09
2.29828e-05
-5.75536e-09
2.29916e-05
-6.60836e-09
2.30011e-05
-7.19233e-09
2.30108e-05
-7.59469e-09
2.30207e-05
-7.86999e-09
2.30306e-05
-8.0549e-09
2.30402e-05
-8.1805e-09
2.30496e-05
-8.27049e-09
2.30587e-05
-8.3392e-09
2.30674e-05
-8.39453e-09
2.30758e-05
-8.44067e-09
2.30838e-05
-8.4797e-09
2.30914e-05
-8.51166e-09
2.30986e-05
-8.53726e-09
-8.54601e-09
2.31055e-05
1.68118e-05
-2.16341e-09
1.6815e-05
-6.13084e-09
1.68198e-05
-9.37323e-09
1.68258e-05
-1.17479e-08
1.68325e-05
-1.33139e-08
1.68396e-05
-1.42994e-08
1.68469e-05
-1.48919e-08
1.68542e-05
-1.51951e-08
1.68615e-05
-1.5288e-08
1.68685e-05
-1.52425e-08
1.68754e-05
-1.51114e-08
1.6882e-05
-1.49275e-08
1.68883e-05
-1.47115e-08
1.68943e-05
-1.44773e-08
1.69001e-05
-1.42333e-08
1.69055e-05
-1.39846e-08
1.69107e-05
-1.37342e-08
-1.34758e-08
1.69157e-05
1.46356e-05
-3.24058e-09
1.46387e-05
-9.21475e-09
1.46434e-05
-1.40843e-08
1.46492e-05
-1.74872e-08
1.46555e-05
-1.95953e-08
1.4662e-05
-2.08585e-08
1.46687e-05
-2.15472e-08
1.46753e-05
-2.17972e-08
1.46817e-05
-2.17396e-08
1.4688e-05
-2.14909e-08
1.4694e-05
-2.11267e-08
1.46998e-05
-2.06915e-08
1.47053e-05
-2.02157e-08
1.47105e-05
-1.97203e-08
1.47155e-05
-1.92187e-08
1.47202e-05
-1.87183e-08
1.47247e-05
-1.82241e-08
-1.77322e-08
1.4729e-05
1.27411e-05
-4.24911e-09
1.27443e-05
-1.23392e-08
1.27491e-05
-1.89123e-08
1.27547e-05
-2.31297e-08
1.27607e-05
-2.55713e-08
1.27669e-05
-2.70113e-08
1.2773e-05
-2.77128e-08
1.27791e-05
-2.78251e-08
1.27849e-05
-2.75554e-08
1.27904e-05
-2.70688e-08
1.27958e-05
-2.64551e-08
1.28008e-05
-2.57658e-08
1.28057e-05
-2.50378e-08
1.28102e-05
-2.42968e-08
1.28146e-05
-2.35584e-08
1.28187e-05
-2.28307e-08
1.28226e-05
-2.21188e-08
-2.14198e-08
1.28263e-05
1.10918e-05
-5.09047e-09
1.1095e-05
-1.55585e-08
1.11001e-05
-2.40368e-08
1.11057e-05
-2.87517e-08
1.11115e-05
-3.13025e-08
1.11173e-05
-3.28196e-08
1.1123e-05
-3.34345e-08
1.11285e-05
-3.33294e-08
1.11337e-05
-3.28067e-08
1.11387e-05
-3.20636e-08
1.11435e-05
-3.11919e-08
1.1148e-05
-3.02483e-08
1.11522e-05
-2.92758e-08
1.11562e-05
-2.8303e-08
1.116e-05
-2.73453e-08
1.11636e-05
-2.64108e-08
1.1167e-05
-2.55033e-08
-2.46208e-08
1.11702e-05
9.65581e-06
-5.68943e-09
9.65924e-06
-1.89854e-08
9.66458e-06
-2.93817e-08
9.67008e-06
-3.42466e-08
9.67563e-06
-3.68562e-08
9.68119e-06
-3.8373e-08
9.68651e-06
-3.87604e-08
9.69153e-06
-3.83497e-08
9.69627e-06
-3.75433e-08
9.70074e-06
-3.65353e-08
9.70495e-06
-3.54048e-08
9.70891e-06
-3.4211e-08
9.71264e-06
-3.30017e-08
9.71614e-06
-3.18063e-08
9.71944e-06
-3.06399e-08
9.72254e-06
-2.95096e-08
9.72545e-06
-2.84176e-08
-2.73602e-08
9.72819e-06
8.4053e-06
-5.63537e-09
8.40963e-06
-2.33216e-08
8.41487e-06
-3.46175e-08
8.41989e-06
-3.92712e-08
8.42525e-06
-4.22171e-08
8.43066e-06
-4.37749e-08
8.43573e-06
-4.38391e-08
8.44043e-06
-4.30484e-08
8.44479e-06
-4.19047e-08
8.44884e-06
-4.05842e-08
8.45259e-06
-3.91567e-08
8.45607e-06
-3.76844e-08
8.45928e-06
-3.62169e-08
8.46226e-06
-3.47821e-08
8.46501e-06
-3.33949e-08
8.46756e-06
-3.20617e-08
8.46993e-06
-3.07845e-08
-2.95596e-08
8.47213e-06
7.3145e-06
-2.85195e-09
7.32119e-06
-3.00103e-08
7.32674e-06
-4.01696e-08
7.33169e-06
-4.42167e-08
7.33708e-06
-4.76097e-08
7.34239e-06
-4.90901e-08
7.34726e-06
-4.87107e-08
7.35167e-06
-4.74547e-08
7.35564e-06
-4.58759e-08
7.35919e-06
-4.41326e-08
7.36234e-06
-4.23058e-08
7.36512e-06
-4.04681e-08
7.36758e-06
-3.86719e-08
7.36974e-06
-3.69415e-08
7.37163e-06
-3.5292e-08
7.3733e-06
-3.37265e-08
7.37476e-06
-3.2245e-08
-3.08383e-08
7.37604e-06
6.36243e-06
4.78081e-09
6.3719e-06
-3.94726e-08
6.37932e-06
-4.75933e-08
6.38595e-06
-5.08513e-08
6.39223e-06
-5.38877e-08
6.39754e-06
-5.43988e-08
6.40183e-06
-5.29999e-08
6.4053e-06
-5.09297e-08
6.4081e-06
-4.86703e-08
6.41028e-06
-4.63112e-08
6.4119e-06
-4.3932e-08
6.41304e-06
-4.1609e-08
6.41376e-06
-3.93926e-08
6.41412e-06
-3.73018e-08
6.41418e-06
-3.53488e-08
6.41398e-06
-3.35317e-08
6.41359e-06
-3.18507e-08
-3.02848e-08
6.41304e-06
5.54129e-06
8.9522e-09
5.55032e-06
-4.85017e-08
5.55833e-06
-5.56055e-08
5.56604e-06
-5.85559e-08
5.5725e-06
-6.0346e-08
5.57682e-06
-5.87209e-08
5.57905e-06
-5.52373e-08
5.57961e-06
-5.14848e-08
5.57885e-06
-4.79125e-08
5.57706e-06
-4.4521e-08
5.57446e-06
-4.13334e-08
5.57124e-06
-3.83904e-08
5.56755e-06
-3.56999e-08
5.5635e-06
-3.3256e-08
5.55921e-06
-3.10504e-08
5.55475e-06
-2.90721e-08
5.55022e-06
-2.73214e-08
-2.57449e-08
5.54568e-06
4.86019e-06
-2.36308e-08
4.86538e-06
-5.36927e-08
4.86523e-06
-5.5456e-08
4.86217e-06
-5.54917e-08
4.85699e-06
-5.51721e-08
4.84949e-06
-5.12161e-08
4.83979e-06
-4.55416e-08
4.82839e-06
-4.00885e-08
4.81581e-06
-3.53313e-08
4.80253e-06
-3.12384e-08
4.78893e-06
-2.77306e-08
4.77528e-06
-2.4748e-08
4.76179e-06
-2.22106e-08
4.74859e-06
-2.00529e-08
4.73576e-06
-1.82189e-08
4.72337e-06
-1.66851e-08
4.71154e-06
-1.54878e-08
-1.51381e-08
4.70093e-06
4.17905e-06
4.12535e-06
4.0699e-06
4.0144e-06
3.95923e-06
3.90802e-06
3.86247e-06
3.82239e-06
3.78706e-06
3.75582e-06
3.72809e-06
3.70334e-06
3.68113e-06
3.66107e-06
3.64286e-06
3.62617e-06
3.61068e-06
3.59554e-06
1.16829e-08
-1.16929e-08
2.49116e-08
-1.32433e-08
3.38175e-08
-8.91904e-09
3.7113e-08
-3.30675e-09
3.49026e-08
2.19893e-09
2.79953e-08
6.89721e-09
1.7445e-08
1.05396e-08
4.22343e-09
1.32121e-08
-1.09585e-08
1.51724e-08
-2.76488e-08
1.66824e-08
-4.55647e-08
1.7908e-08
-6.45426e-08
1.89718e-08
-8.45014e-08
1.99521e-08
-1.05394e-07
2.08881e-08
-1.27196e-07
2.17958e-08
-1.49879e-07
2.26792e-08
-1.7342e-07
2.35357e-08
-1.97782e-07
2.43594e-08
-2.2293e-07
2.51424e-08
-2.4881e-07
2.58766e-08
-2.7537e-07
2.65536e-08
-3.02543e-07
2.71681e-08
-3.30268e-07
2.77187e-08
-3.58488e-07
2.82132e-08
-3.87163e-07
2.86693e-08
-4.16258e-07
2.9089e-08
-4.45788e-07
2.95251e-08
-4.7589e-07
3.0097e-08
-5.06625e-07
3.07308e-08
-5.37939e-07
3.13106e-08
-5.69927e-07
3.19847e-08
-6.03015e-07
3.30861e-08
-6.3742e-07
3.44013e-08
-6.73356e-07
3.59347e-08
-7.11795e-07
3.84343e-08
-7.51312e-07
3.95129e-08
-7.90233e-07
3.89145e-08
-8.35635e-07
4.53967e-08
-8.80508e-07
4.48647e-08
-9.1669e-07
3.61738e-08
-9.55368e-07
3.86702e-08
-9.9594e-07
4.05636e-08
-1.03861e-06
4.26597e-08
-1.08224e-06
4.36263e-08
-1.12583e-06
4.35803e-08
-1.16956e-06
4.37306e-08
-1.21338e-06
4.38123e-08
-1.25719e-06
4.38065e-08
-1.30092e-06
4.37265e-08
-1.34453e-06
4.35953e-08
-1.38796e-06
4.34253e-08
-1.43119e-06
4.32268e-08
-1.47421e-06
4.30051e-08
-1.51698e-06
4.27639e-08
-1.55949e-06
4.2505e-08
-1.60173e-06
4.22286e-08
-1.64367e-06
4.19346e-08
-1.68531e-06
4.16217e-08
-1.7266e-06
4.12887e-08
-1.76755e-06
4.09334e-08
-1.80811e-06
4.05543e-08
-1.84827e-06
4.0149e-08
-1.88799e-06
3.9716e-08
-1.92725e-06
3.92527e-08
-1.96601e-06
3.87578e-08
-2.00425e-06
3.82287e-08
-2.04192e-06
3.76644e-08
-2.07899e-06
3.70628e-08
-2.11541e-06
3.64232e-08
-2.15116e-06
3.57435e-08
-2.18619e-06
3.50237e-08
-2.22046e-06
3.42617e-08
-2.25392e-06
3.34578e-08
-2.28653e-06
3.26104e-08
-2.31826e-06
3.17201e-08
-2.34905e-06
3.07854e-08
-2.37886e-06
2.98075e-08
-2.40766e-06
2.87854e-08
-2.43538e-06
2.77204e-08
-2.462e-06
2.66113e-08
-2.48746e-06
2.54596e-08
-2.51173e-06
2.42645e-08
-2.53476e-06
2.30274e-08
-2.55651e-06
2.17469e-08
-2.57694e-06
2.04245e-08
-2.596e-06
1.90588e-08
-2.61365e-06
1.76509e-08
-2.62984e-06
1.61983e-08
-2.64454e-06
1.47e-08
-2.65768e-06
1.31519e-08
-2.66922e-06
1.15478e-08
-2.6791e-06
9.88057e-09
-2.68724e-06
8.14167e-09
-2.69357e-06
6.3195e-09
-2.69796e-06
4.39681e-09
-2.70034e-06
2.36813e-09
-2.70065e-06
3.04573e-10
-2.69906e-06
-1.59154e-09
-2.69577e-06
-3.29134e-09
-2.69085e-06
-4.93359e-09
-2.68429e-06
-6.56098e-09
-2.67611e-06
-8.19047e-09
-2.6663e-06
-9.82453e-09
-2.65484e-06
-1.14636e-08
-2.64175e-06
-1.31052e-08
-2.62701e-06
-1.47479e-08
-2.61062e-06
-1.63887e-08
-2.5926e-06
-1.80258e-08
-2.57295e-06
-1.96564e-08
-2.55167e-06
-2.12786e-08
-2.52878e-06
-2.28893e-08
-2.50429e-06
-2.44867e-08
-2.47822e-06
-2.60674e-08
-2.45058e-06
-2.76294e-08
-2.42141e-06
-2.91699e-08
-2.39071e-06
-3.06864e-08
-2.35853e-06
-3.21762e-08
-2.32489e-06
-3.36367e-08
-2.28982e-06
-3.50648e-08
-2.25335e-06
-3.6458e-08
-2.21553e-06
-3.78138e-08
-2.1764e-06
-3.91298e-08
-2.13599e-06
-4.04042e-08
-2.09435e-06
-4.16346e-08
-2.05152e-06
-4.28201e-08
-2.00756e-06
-4.39586e-08
-1.96251e-06
-4.50515e-08
-1.91641e-06
-4.60978e-08
-1.86932e-06
-4.70996e-08
-1.82127e-06
-4.80546e-08
-1.77233e-06
-4.8951e-08
-1.72256e-06
-4.97882e-08
-1.672e-06
-5.05774e-08
-1.6207e-06
-5.13171e-08
-1.56871e-06
-5.20023e-08
-1.51609e-06
-5.26335e-08
-1.4629e-06
-5.32098e-08
-1.40917e-06
-5.37325e-08
-1.35496e-06
-5.42006e-08
-1.30033e-06
-5.46178e-08
-1.24533e-06
-5.49855e-08
-1.18999e-06
-5.53078e-08
-1.13437e-06
-5.5586e-08
-1.07852e-06
-5.5822e-08
-1.02246e-06
-5.60159e-08
-9.6625e-07
-5.61706e-08
-9.09917e-07
-5.62873e-08
-8.53497e-07
-5.63694e-08
-7.97024e-07
-5.64187e-08
-7.40526e-07
-5.6439e-08
-6.8403e-07
-5.64321e-08
-6.27559e-07
-5.64023e-08
-5.71134e-07
-5.63515e-08
-5.14771e-07
-5.62838e-08
-4.58487e-07
-5.62013e-08
-4.02291e-07
-5.61073e-08
-3.46197e-07
-5.60035e-08
-2.90209e-07
-5.58922e-08
-2.3434e-07
-5.5772e-08
-1.78585e-07
-5.56531e-08
-1.22958e-07
-5.55257e-08
-6.74922e-08
-5.53621e-08
-1.23311e-08
-5.50582e-08
4.24776e-08
-5.47056e-08
9.70157e-08
-5.44403e-08
1.5134e-07
-5.42284e-08
2.05512e-07
-5.40822e-08
2.59603e-07
-5.4002e-08
3.13657e-07
-5.3972e-08
3.67713e-07
-5.3975e-08
4.21778e-07
-5.3991e-08
4.75841e-07
-5.39902e-08
5.29834e-07
-5.39265e-08
5.83617e-07
-5.37189e-08
6.36895e-07
-5.32218e-08
6.89077e-07
-5.21289e-08
7.38876e-07
-4.97536e-08
7.83194e-07
-4.42762e-08
8.14276e-07
-3.1046e-08
1.44798e-08
7.99831e-07
8.67521e-09
-2.03771e-08
1.09055e-08
-1.54845e-08
8.44465e-09
-6.46594e-09
2.80894e-09
2.32289e-09
-5.38652e-09
1.03887e-08
-1.59849e-08
1.74905e-08
-2.89414e-08
2.34911e-08
-4.41355e-08
2.84016e-08
-6.13363e-08
3.23686e-08
-8.02638e-08
3.56059e-08
-1.00686e-07
3.83261e-08
-1.22422e-07
4.07042e-08
-1.4534e-07
4.28662e-08
-1.69348e-07
4.48935e-08
-1.9439e-07
4.68339e-08
-2.20426e-07
4.87129e-08
-2.47435e-07
5.05422e-08
-2.75403e-07
5.2325e-08
-3.04325e-07
5.40605e-08
-3.34198e-07
5.57465e-08
-3.65029e-07
5.73815e-08
-3.96832e-07
5.89674e-08
-4.29629e-07
6.05117e-08
-4.6345e-07
6.203e-08
-4.98331e-07
6.35466e-08
-5.34337e-07
6.50907e-08
-5.71518e-07
6.67018e-08
-6.0986e-07
6.8436e-08
-6.4946e-07
7.03274e-08
-6.90547e-07
7.2396e-08
-7.33237e-07
7.46719e-08
-7.77284e-07
7.71311e-08
-8.2248e-07
7.95946e-08
-8.68414e-07
8.18672e-08
-9.13894e-07
8.39101e-08
-9.59621e-07
8.52373e-08
-1.00678e-06
8.60674e-08
-1.0489e-06
8.75088e-08
-1.09094e-06
8.69034e-08
-1.13912e-06
8.43546e-08
-1.1843e-06
8.384e-08
-1.22779e-06
8.40484e-08
-1.26966e-06
8.45285e-08
-1.31071e-06
8.4673e-08
-1.35154e-06
8.44069e-08
-1.39187e-06
8.40571e-08
-1.43174e-06
8.36722e-08
-1.47118e-06
8.32457e-08
-1.51023e-06
8.27781e-08
-1.54892e-06
8.22739e-08
-1.58723e-06
8.1738e-08
-1.62519e-06
8.11741e-08
-1.66277e-06
8.05839e-08
-1.69998e-06
7.99677e-08
-1.7368e-06
7.93244e-08
-1.77323e-06
7.8652e-08
-1.80925e-06
7.79478e-08
-1.84484e-06
7.72086e-08
-1.87999e-06
7.64309e-08
-1.91467e-06
7.56109e-08
-1.94887e-06
7.4745e-08
-1.98256e-06
7.38293e-08
-2.01571e-06
7.28605e-08
-2.04829e-06
7.18348e-08
-2.08029e-06
7.07491e-08
-2.11166e-06
6.96003e-08
-2.14239e-06
6.83858e-08
-2.17243e-06
6.71029e-08
-2.20176e-06
6.57497e-08
-2.23035e-06
6.43239e-08
-2.25815e-06
6.28242e-08
-2.28514e-06
6.1249e-08
-2.31128e-06
5.95973e-08
-2.33654e-06
5.7868e-08
-2.36089e-06
5.60609e-08
-2.38428e-06
5.41753e-08
-2.40669e-06
5.22116e-08
-2.42808e-06
5.01696e-08
-2.44841e-06
4.805e-08
-2.46766e-06
4.58528e-08
-2.48578e-06
4.3579e-08
-2.50275e-06
4.1229e-08
-2.51852e-06
3.88037e-08
-2.53308e-06
3.63035e-08
-2.54639e-06
3.37297e-08
-2.55841e-06
3.10826e-08
-2.56913e-06
2.83635e-08
-2.5785e-06
2.55721e-08
-2.5865e-06
2.27093e-08
-2.59312e-06
1.97746e-08
-2.59834e-06
1.67679e-08
-2.60215e-06
1.36899e-08
-2.60455e-06
1.05445e-08
-2.60557e-06
7.33922e-09
-2.60527e-06
4.09144e-09
-2.60374e-06
8.39841e-10
-2.60108e-06
-2.36493e-09
-2.59714e-06
-5.53322e-09
-2.59173e-06
-8.71003e-09
-2.58476e-06
-1.19025e-08
-2.57622e-06
-1.51094e-08
-2.56608e-06
-1.83317e-08
-2.55435e-06
-2.15677e-08
-2.541e-06
-2.4814e-08
-2.52605e-06
-2.80664e-08
-2.50948e-06
-3.13203e-08
-2.4913e-06
-3.4571e-08
-2.47152e-06
-3.78138e-08
-2.45013e-06
-4.10438e-08
-2.42715e-06
-4.42564e-08
-2.40259e-06
-4.74462e-08
-2.37647e-06
-5.06085e-08
-2.3488e-06
-5.3738e-08
-2.31959e-06
-5.68296e-08
-2.28888e-06
-5.9878e-08
-2.25669e-06
-6.28783e-08
-2.22303e-06
-6.58252e-08
-2.18795e-06
-6.87133e-08
-2.15148e-06
-7.15372e-08
-2.11364e-06
-7.42917e-08
-2.07448e-06
-7.69717e-08
-2.03403e-06
-7.95728e-08
-1.99234e-06
-8.20905e-08
-1.94945e-06
-8.4521e-08
-1.90541e-06
-8.68612e-08
-1.86025e-06
-8.91083e-08
-1.81404e-06
-9.12621e-08
-1.76682e-06
-9.33229e-08
-1.71863e-06
-9.52933e-08
-1.66952e-06
-9.71687e-08
-1.61954e-06
-9.89332e-08
-1.56876e-06
-1.00585e-07
-1.5172e-06
-1.02138e-07
-1.46494e-06
-1.03592e-07
-1.41201e-06
-1.0494e-07
-1.35847e-06
-1.06181e-07
-1.30437e-06
-1.07316e-07
-1.24976e-06
-1.08345e-07
-1.19469e-06
-1.0927e-07
-1.1392e-06
-1.10093e-07
-1.08335e-06
-1.10821e-07
-1.02719e-06
-1.11457e-07
-9.70753e-07
-1.12006e-07
-9.14084e-07
-1.12471e-07
-8.57225e-07
-1.12854e-07
-8.00212e-07
-1.1316e-07
-7.43081e-07
-1.13394e-07
-6.85863e-07
-1.13559e-07
-6.2859e-07
-1.13663e-07
-5.71287e-07
-1.1371e-07
-5.13979e-07
-1.13707e-07
-4.56686e-07
-1.13658e-07
-3.99427e-07
-1.13572e-07
-3.42217e-07
-1.13453e-07
-2.85068e-07
-1.13308e-07
-2.2799e-07
-1.1314e-07
-1.70991e-07
-1.12957e-07
-1.14075e-07
-1.12759e-07
-5.72497e-08
-1.12549e-07
-5.37081e-10
-1.12315e-07
5.60505e-08
-1.12064e-07
1.12538e-07
-1.118e-07
1.69013e-07
-1.11485e-07
2.25487e-07
-1.11131e-07
2.81894e-07
-1.10801e-07
3.38248e-07
-1.10536e-07
3.94576e-07
-1.10366e-07
4.50909e-07
-1.1029e-07
5.0727e-07
-1.10291e-07
5.63675e-07
-1.10339e-07
6.20121e-07
-1.10398e-07
6.76576e-07
-1.10407e-07
7.3296e-07
-1.10274e-07
7.89116e-07
-1.0984e-07
8.4474e-07
-1.08815e-07
8.99287e-07
-1.06647e-07
9.51659e-07
-1.021e-07
1.00015e-06
-9.27479e-08
1.04098e-06
-7.18501e-08
-1.96315e-08
1.07511e-06
-5.94131e-10
-1.97899e-08
-7.39449e-09
-8.69156e-09
-1.67364e-08
2.87113e-09
-2.76947e-08
1.32776e-08
-3.99787e-08
2.26694e-08
-5.35733e-08
3.10821e-08
-6.85811e-08
3.84959e-08
-8.51047e-08
4.49224e-08
-1.03182e-07
5.04426e-08
-1.22774e-07
5.51962e-08
-1.43799e-07
5.93476e-08
-1.66151e-07
6.30544e-08
-1.89735e-07
6.64479e-08
-2.14471e-07
6.96272e-08
-2.40301e-07
7.26616e-08
-2.67187e-07
7.55963e-08
-2.95106e-07
7.84591e-08
-3.24049e-07
8.12665e-08
-3.54018e-07
8.40275e-08
-3.85021e-07
8.67477e-08
-4.17073e-07
8.94308e-08
-4.5019e-07
9.20815e-08
-4.84387e-07
9.47058e-08
-5.19672e-07
9.73126e-08
-5.56041e-07
9.99123e-08
-5.93468e-07
1.02514e-07
-6.31893e-07
1.05124e-07
-6.71205e-07
1.07746e-07
-7.11259e-07
1.10379e-07
-7.51869e-07
1.13004e-07
-7.92791e-07
1.15592e-07
-8.33749e-07
1.18087e-07
-8.74524e-07
1.20368e-07
-9.14945e-07
1.22286e-07
-9.54775e-07
1.23738e-07
-9.94128e-07
1.24588e-07
-1.03295e-06
1.24888e-07
-1.07038e-06
1.24933e-07
-1.1077e-06
1.24218e-07
-1.14625e-06
1.22907e-07
-1.18438e-06
1.2196e-07
-1.22173e-06
1.21402e-07
-1.25825e-06
1.21043e-07
-1.29416e-06
1.20583e-07
-1.32974e-06
1.19982e-07
-1.36501e-06
1.19327e-07
-1.39998e-06
1.1864e-07
-1.43466e-06
1.17925e-07
-1.46907e-06
1.17184e-07
-1.50322e-06
1.16416e-07
-1.5371e-06
1.1562e-07
-1.57073e-06
1.14795e-07
-1.60408e-06
1.13939e-07
-1.63717e-06
1.13049e-07
-1.66997e-06
1.1212e-07
-1.70247e-06
1.11149e-07
-1.73465e-06
1.1013e-07
-1.76651e-06
1.09059e-07
-1.79801e-06
1.07929e-07
-1.82914e-06
1.06736e-07
-1.85987e-06
1.05475e-07
-1.89019e-06
1.04139e-07
-1.92005e-06
1.02725e-07
-1.94945e-06
1.01227e-07
-1.97834e-06
9.96407e-08
-2.00671e-06
9.79623e-08
-2.03452e-06
9.61878e-08
-2.06173e-06
9.43139e-08
-2.08832e-06
9.23375e-08
-2.11425e-06
9.02561e-08
-2.1395e-06
8.80673e-08
-2.16402e-06
8.57692e-08
-2.18779e-06
8.33604e-08
-2.21076e-06
8.08396e-08
-2.23291e-06
7.82062e-08
-2.25419e-06
7.54595e-08
-2.27458e-06
7.25999e-08
-2.29404e-06
6.96272e-08
-2.31254e-06
6.65423e-08
-2.33003e-06
6.33457e-08
-2.34649e-06
6.00385e-08
-2.36189e-06
5.6622e-08
-2.37618e-06
5.30976e-08
-2.38935e-06
4.94668e-08
-2.40135e-06
4.57318e-08
-2.41216e-06
4.18944e-08
-2.42176e-06
3.79572e-08
-2.43011e-06
3.39226e-08
-2.43719e-06
2.97937e-08
-2.44299e-06
2.5574e-08
-2.44748e-06
2.12676e-08
-2.45067e-06
1.68807e-08
-2.45255e-06
1.24226e-08
-2.45312e-06
7.90617e-09
-2.45238e-06
3.34978e-09
-2.45032e-06
-1.22393e-09
-2.44689e-06
-5.80383e-09
-2.44201e-06
-1.04104e-08
-2.43566e-06
-1.50635e-08
-2.42781e-06
-1.97592e-08
-2.41843e-06
-2.44905e-08
-2.40752e-06
-2.92511e-08
-2.39506e-06
-3.4035e-08
-2.38104e-06
-3.88355e-08
-2.36546e-06
-4.36458e-08
-2.34833e-06
-4.84588e-08
-2.32964e-06
-5.32675e-08
-2.30939e-06
-5.80644e-08
-2.28759e-06
-6.28426e-08
-2.26425e-06
-6.75946e-08
-2.23938e-06
-7.23131e-08
-2.213e-06
-7.69904e-08
-2.18512e-06
-8.16189e-08
-2.15575e-06
-8.6191e-08
-2.12493e-06
-9.0699e-08
-2.09267e-06
-9.51353e-08
-2.059e-06
-9.9492e-08
-2.02395e-06
-1.03762e-07
-1.98755e-06
-1.07936e-07
-1.94983e-06
-1.12007e-07
-1.91083e-06
-1.15969e-07
-1.87058e-06
-1.19813e-07
-1.82914e-06
-1.23534e-07
-1.78653e-06
-1.27125e-07
-1.74281e-06
-1.30582e-07
-1.69801e-06
-1.339e-07
-1.6522e-06
-1.37079e-07
-1.6054e-06
-1.40119e-07
-1.55768e-06
-1.43021e-07
-1.50907e-06
-1.45782e-07
-1.45962e-06
-1.48385e-07
-1.40938e-06
-1.50826e-07
-1.35841e-06
-1.53119e-07
-1.30675e-06
-1.55262e-07
-1.25444e-06
-1.5725e-07
-1.20155e-06
-1.59082e-07
-1.14811e-06
-1.60758e-07
-1.09417e-06
-1.6228e-07
-1.03979e-06
-1.6365e-07
-9.85006e-07
-1.64872e-07
-9.29866e-07
-1.65954e-07
-8.74416e-07
-1.669e-07
-8.18696e-07
-1.67717e-07
-7.62748e-07
-1.6841e-07
-7.06607e-07
-1.68984e-07
-6.5031e-07
-1.69446e-07
-5.9389e-07
-1.69803e-07
-5.37376e-07
-1.70061e-07
-4.80796e-07
-1.7023e-07
-4.24175e-07
-1.70317e-07
-3.67535e-07
-1.70332e-07
-3.10895e-07
-1.70283e-07
-2.54271e-07
-1.7018e-07
-1.97676e-07
-1.7003e-07
-1.41122e-07
-1.69844e-07
-8.46155e-08
-1.69628e-07
-2.81652e-08
-1.69388e-07
2.8221e-08
-1.69127e-07
8.45416e-08
-1.68851e-07
1.40806e-07
-1.68562e-07
1.97027e-07
-1.68267e-07
2.53213e-07
-1.6797e-07
3.09406e-07
-1.67661e-07
3.65637e-07
-1.67345e-07
4.21908e-07
-1.67055e-07
4.78217e-07
-1.6683e-07
5.34571e-07
-1.66704e-07
5.90979e-07
-1.66683e-07
6.47451e-07
-1.66748e-07
7.0399e-07
-1.66864e-07
7.60586e-07
-1.66979e-07
8.17199e-07
-1.67006e-07
8.73746e-07
-1.66809e-07
9.30076e-07
-1.66157e-07
9.85917e-07
-1.64644e-07
1.04082e-06
-1.61534e-07
1.09406e-06
-1.55332e-07
1.14465e-06
-1.43335e-07
1.19195e-06
-1.19134e-07
-6.85552e-08
1.24088e-06
-8.69468e-09
-1.11011e-08
-2.14003e-08
4.00844e-09
-3.53243e-08
1.67916e-08
-4.99825e-08
2.79331e-08
-6.53086e-08
3.7993e-08
-8.13743e-08
4.71456e-08
-9.83148e-08
5.54342e-08
-1.16274e-07
6.28798e-08
-1.35365e-07
6.95316e-08
-1.55648e-07
7.54773e-08
-1.77134e-07
8.08309e-08
-1.99796e-07
8.57143e-08
-2.23591e-07
9.02409e-08
-2.48471e-07
9.45056e-08
-2.74393e-07
9.85822e-08
-3.01323e-07
1.02524e-07
-3.29234e-07
1.06368e-07
-3.58106e-07
1.10138e-07
-3.87926e-07
1.13846e-07
-4.18678e-07
1.17498e-07
-4.50345e-07
1.21096e-07
-4.82901e-07
1.24636e-07
-5.16307e-07
1.28109e-07
-5.50503e-07
1.31507e-07
-5.85406e-07
1.34812e-07
-6.20901e-07
1.38007e-07
-6.56847e-07
1.41068e-07
-6.93078e-07
1.43975e-07
-7.29409e-07
1.46708e-07
-7.65649e-07
1.49242e-07
-8.01606e-07
1.51547e-07
-8.37107e-07
1.53587e-07
-8.72055e-07
1.55314e-07
-9.06436e-07
1.56665e-07
-9.40281e-07
1.57581e-07
-9.73712e-07
1.58017e-07
-1.00683e-06
1.58004e-07
-1.03956e-06
1.57657e-07
-1.07229e-06
1.5695e-07
-1.10535e-06
1.55965e-07
-1.13837e-06
1.54975e-07
-1.17107e-06
1.54097e-07
-1.20334e-06
1.53315e-07
-1.2353e-06
1.52535e-07
-1.26703e-06
1.51717e-07
-1.29858e-06
1.50872e-07
-1.32995e-06
1.50005e-07
-1.36114e-06
1.49115e-07
-1.39216e-06
1.48201e-07
-1.42301e-06
1.4726e-07
-1.45368e-06
1.46288e-07
-1.48416e-06
1.45281e-07
-1.51446e-06
1.44234e-07
-1.54456e-06
1.43141e-07
-1.57443e-06
1.41996e-07
-1.60408e-06
1.40793e-07
-1.63348e-06
1.39524e-07
-1.66261e-06
1.38184e-07
-1.69144e-06
1.36765e-07
-1.71997e-06
1.35261e-07
-1.74816e-06
1.33664e-07
-1.776e-06
1.31968e-07
-1.80344e-06
1.30167e-07
-1.83047e-06
1.28254e-07
-1.85706e-06
1.26225e-07
-1.88317e-06
1.24073e-07
-1.90878e-06
1.21796e-07
-1.93386e-06
1.19387e-07
-1.95837e-06
1.16843e-07
-1.98227e-06
1.14162e-07
-2.00555e-06
1.1134e-07
-2.02815e-06
1.08374e-07
-2.05006e-06
1.05264e-07
-2.07123e-06
1.02007e-07
-2.09162e-06
9.86025e-08
-2.11122e-06
9.50503e-08
-2.12997e-06
9.13503e-08
-2.14784e-06
8.75027e-08
-2.16481e-06
8.35084e-08
-2.18084e-06
7.93685e-08
-2.19588e-06
7.50847e-08
-2.20992e-06
7.06585e-08
-2.22292e-06
6.60925e-08
-2.23484e-06
6.1389e-08
-2.24566e-06
5.65512e-08
-2.25535e-06
5.15825e-08
-2.26388e-06
4.64866e-08
-2.27122e-06
4.12681e-08
-2.27736e-06
3.5932e-08
-2.28227e-06
3.04839e-08
-2.28593e-06
2.49306e-08
-2.28833e-06
1.92803e-08
-2.28945e-06
1.3543e-08
-2.28928e-06
7.73099e-09
-2.28779e-06
1.85774e-09
-2.28495e-06
-4.06501e-09
-2.28072e-06
-1.00354e-08
-2.27507e-06
-1.60638e-08
-2.26798e-06
-2.21571e-08
-2.25943e-06
-2.83095e-08
-2.24942e-06
-3.45123e-08
-2.23792e-06
-4.07562e-08
-2.22492e-06
-4.70323e-08
-2.21043e-06
-5.33312e-08
-2.19444e-06
-5.96437e-08
-2.17694e-06
-6.59601e-08
-2.15794e-06
-7.22711e-08
-2.13744e-06
-7.85671e-08
-2.11544e-06
-8.48385e-08
-2.09196e-06
-9.10755e-08
-2.067e-06
-9.72683e-08
-2.04058e-06
-1.03407e-07
-2.01272e-06
-1.09481e-07
-1.98343e-06
-1.15482e-07
-1.95273e-06
-1.21397e-07
-1.92064e-06
-1.27218e-07
-1.8872e-06