/*--------------------------------*- C++ -*----------------------------------*\
  =========                 |
  \\      /  F ield         | OpenFOAM: The Open Source CFD Toolbox
   \\    /   O peration     | Website:  https://openfoam.org
    \\  /    A nd           | Version:  8
     \\/     M anipulation  |
\*---------------------------------------------------------------------------*/
FoamFile
{
    version     2.0;
    format      ascii;
    class       volVectorField;
    location    "255";
    object      U;
}
// * * * * * * * * * * * * * * * * * * * * * * * * * * * * * * * * * * * * * //

dimensions      [0 1 -1 0 0 0 0];

internalField   nonuniform List<vector> 
12225
(
(9.85699 -0.886641 0)
(9.6663 -0.740716 0)
(9.45579 -0.429421 0)
(9.22454 -0.222145 0)
(9.00653 -0.106399 0)
(8.81443 -0.0458176 0)
(8.64758 -0.0151282 0)
(8.50541 0.000486986 0)
(8.38379 0.00841321 0)
(8.28106 0.0122975 0)
(8.19273 0.0139949 0)
(8.11662 0.0149931 0)
(8.04998 0.0153977 0)
(7.99113 0.0155489 0)
(7.9381 0.0155807 0)
(7.89208 0.0153729 0)
(7.83896 0.0175131 0)
(7.82981 0.0104046 0)
(10.0545 0.22771 0)
(10.1213 0.326963 0)
(10.1196 0.261652 0)
(10.0856 0.18659 0)
(10.0435 0.134696 0)
(9.99675 0.101131 0)
(9.94404 0.0792919 0)
(9.88532 0.0645671 0)
(9.82398 0.0542547 0)
(9.7615 0.0466615 0)
(9.70007 0.0408882 0)
(9.6403 0.0363256 0)
(9.58306 0.0326439 0)
(9.52874 0.0297621 0)
(9.47704 0.027232 0)
(9.42954 0.0262526 0)
(9.3822 0.0230184 0)
(9.34752 0.0316027 0)
(10.0035 0.0581551 0)
(10.0305 0.0559505 0)
(10.056 0.0337748 0)
(10.0704 0.032887 0)
(10.077 0.0406345 0)
(10.0779 0.0465312 0)
(10.0726 0.0493438 0)
(10.0615 0.0502864 0)
(10.0462 0.0501799 0)
(10.0278 0.0494609 0)
(10.0074 0.0484093 0)
(9.98519 0.0472334 0)
(9.96212 0.0460333 0)
(9.93856 0.044938 0)
(9.91476 0.043839 0)
(9.89148 0.0433083 0)
(9.86834 0.0423074 0)
(9.84667 0.0440259 0)
(9.99772 0.0109489 0)
(10.0111 0.0266199 0)
(10.035 0.0371222 0)
(10.0525 0.0480653 0)
(10.0644 0.0554341 0)
(10.0734 0.0581659 0)
(10.0795 0.0583337 0)
(10.0825 0.0575886 0)
(10.0829 0.0565349 0)
(10.0814 0.0553326 0)
(10.0783 0.0540511 0)
(10.074 0.0528085 0)
(10.0686 0.0515997 0)
(10.0626 0.0505203 0)
(10.0559 0.0494733 0)
(10.0491 0.0488138 0)
(10.0421 0.047928 0)
(10.0352 0.047934 0)
(9.99935 0.00710024 0)
(10.009 0.0316951 0)
(10.0275 0.0439074 0)
(10.0418 0.0499077 0)
(10.0528 0.0535959 0)
(10.0629 0.0552179 0)
(10.0716 0.0554941 0)
(10.0784 0.0551997 0)
(10.0835 0.0546501 0)
(10.0874 0.0539379 0)
(10.0902 0.0531174 0)
(10.0922 0.052283 0)
(10.0934 0.0514493 0)
(10.0941 0.0506847 0)
(10.0943 0.0499433 0)
(10.0943 0.0493944 0)
(10.0942 0.0487495 0)
(10.0941 0.0483268 0)
(10.0003 0.00914918 0)
(10.0083 0.031211 0)
(10.0227 0.0409441 0)
(10.035 0.0453846 0)
(10.0451 0.0490246 0)
(10.0548 0.0513544 0)
(10.0638 0.0523295 0)
(10.0715 0.0525559 0)
(10.078 0.0524134 0)
(10.0836 0.0520395 0)
(10.0884 0.0515095 0)
(10.0926 0.0509103 0)
(10.0963 0.0502761 0)
(10.0996 0.0496556 0)
(10.1025 0.0490327 0)
(10.1052 0.0484745 0)
(10.1078 0.0478451 0)
(10.1105 0.0471554 0)
(10.0004 0.00892348 0)
(10.0071 0.0271112 0)
(10.0191 0.0364145 0)
(10.0302 0.0413848 0)
(10.0396 0.0454006 0)
(10.0487 0.0480587 0)
(10.0573 0.0493197 0)
(10.065 0.0497801 0)
(10.0718 0.0498417 0)
(10.0779 0.0496503 0)
(10.0835 0.049283 0)
(10.0885 0.0488159 0)
(10.0932 0.0482908 0)
(10.0975 0.0477418 0)
(10.1015 0.047165 0)
(10.1054 0.0465775 0)
(10.1092 0.0459031 0)
(10.113 0.0450702 0)
(10.0004 0.00790044 0)
(10.006 0.0233874 0)
(10.0161 0.0327351 0)
(10.0263 0.0380948 0)
(10.0351 0.0420809 0)
(10.0436 0.0447553 0)
(10.0518 0.0461563 0)
(10.0592 0.0467781 0)
(10.066 0.0469857 0)
(10.0722 0.0469233 0)
(10.078 0.046669 0)
(10.0833 0.0462916 0)
(10.0884 0.0458352 0)
(10.0931 0.0453255 0)
(10.0976 0.0447628 0)
(10.102 0.0441418 0)
(10.1062 0.0434121 0)
(10.1105 0.0425007 0)
(10.0004 0.00695057 0)
(10.005 0.0204243 0)
(10.0137 0.0294497 0)
(10.0229 0.0348515 0)
(10.0312 0.0386935 0)
(10.0392 0.0413454 0)
(10.0469 0.0428657 0)
(10.0541 0.0436256 0)
(10.0607 0.043948 0)
(10.0668 0.0439828 0)
(10.0726 0.0438101 0)
(10.078 0.0434945 0)
(10.0832 0.0430795 0)
(10.0881 0.0425873 0)
(10.0928 0.0420194 0)
(10.0973 0.0413642 0)
(10.1017 0.0405845 0)
(10.106 0.0396296 0)
(10.0004 0.00612324 0)
(10.0043 0.0178535 0)
(10.0116 0.0262683 0)
(10.0199 0.0315682 0)
(10.0277 0.035284 0)
(10.0351 0.0378994 0)
(10.0424 0.0394981 0)
(10.0493 0.0403595 0)
(10.0558 0.0407672 0)
(10.0618 0.0408736 0)
(10.0675 0.04076 0)
(10.0729 0.0404871 0)
(10.078 0.0400967 0)
(10.0829 0.0396097 0)
(10.0876 0.0390293 0)
(10.0922 0.0383448 0)
(10.0966 0.0375291 0)
(10.1009 0.0365557 0)
(10.0003 0.00536506 0)
(10.0037 0.0155421 0)
(10.0099 0.0232273 0)
(10.0173 0.0283291 0)
(10.0245 0.0319024 0)
(10.0315 0.0344404 0)
(10.0384 0.0360632 0)
(10.045 0.0369873 0)
(10.0512 0.0374544 0)
(10.0571 0.037612 0)
(10.0627 0.037541 0)
(10.068 0.0372979 0)
(10.073 0.0369227 0)
(10.0779 0.0364364 0)
(10.0825 0.0358442 0)
(10.087 0.0351395 0)
(10.0914 0.0343046 0)
(10.0956 0.0333324 0)
(10.0003 0.00470064 0)
(10.0032 0.0136008 0)
(10.0086 0.0205786 0)
(10.0152 0.0254143 0)
(10.0219 0.0288211 0)
(10.0286 0.0312527 0)
(10.0351 0.0328555 0)
(10.0414 0.0338052 0)
(10.0474 0.0343048 0)
(10.0531 0.0344927 0)
(10.0586 0.0344477 0)
(10.0637 0.0342231 0)
(10.0687 0.0338568 0)
(10.0735 0.0333703 0)
(10.0781 0.0327714 0)
(10.0825 0.0320581 0)
(10.0867 0.03122 0)
(10.0908 0.0302643 0)
(10.0003 0.004086 0)
(10.0028 0.0118313 0)
(10.0075 0.0180777 0)
(10.0134 0.0225712 0)
(10.0197 0.025777 0)
(10.0259 0.0280769 0)
(10.0321 0.0296272 0)
(10.0381 0.0305753 0)
(10.0439 0.0310894 0)
(10.0494 0.0312943 0)
(10.0547 0.0312657 0)
(10.0598 0.0310539 0)
(10.0647 0.0306948 0)
(10.0693 0.0302103 0)
(10.0738 0.0296105 0)
(10.0781 0.0288983 0)
(10.0822 0.0280688 0)
(10.0861 0.0271406 0)
(10.0002 0.00345101 0)
(10.0024 0.00999252 0)
(10.0064 0.0153953 0)
(10.0117 0.0194215 0)
(10.0174 0.0223427 0)
(10.0232 0.0244511 0)
(10.029 0.0258983 0)
(10.0347 0.0268072 0)
(10.0403 0.027311 0)
(10.0456 0.0275165 0)
(10.0508 0.0274938 0)
(10.0557 0.0272894 0)
(10.0604 0.0269364 0)
(10.0649 0.0264569 0)
(10.0693 0.0258634 0)
(10.0734 0.0251632 0)
(10.0774 0.0243567 0)
(10.0812 0.0234698 0)
(10.0002 0.00279162 0)
(10.002 0.00808279 0)
(10.0055 0.0125419 0)
(10.0101 0.015971 0)
(10.0153 0.0185053 0)
(10.0206 0.0203469 0)
(10.026 0.0216269 0)
(10.0314 0.0224453 0)
(10.0367 0.0229025 0)
(10.0418 0.0230843 0)
(10.0468 0.0230516 0)
(10.0515 0.0228459 0)
(10.0561 0.0224972 0)
(10.0604 0.0220267 0)
(10.0646 0.0214486 0)
(10.0686 0.0207735 0)
(10.0724 0.020006 0)
(10.0761 0.019176 0)
(10.0002 0.0021072 0)
(10.0017 0.00610403 0)
(10.0047 0.00952596 0)
(10.0088 0.0122245 0)
(10.0134 0.0142531 0)
(10.0183 0.0157353 0)
(10.0233 0.0167696 0)
(10.0283 0.0174317 0)
(10.0333 0.0177929 0)
(10.0382 0.0179166 0)
(10.0429 0.0178513 0)
(10.0475 0.0176316 0)
(10.0518 0.0172829 0)
(10.0561 0.0168245 0)
(10.0601 0.0162709 0)
(10.0639 0.0156341 0)
(10.0676 0.014921 0)
(10.071 0.0141621 0)
(10.0002 0.00139482 0)
(10.0015 0.00404226 0)
(10.0041 0.00633141 0)
(10.0076 0.00816539 0)
(10.0118 0.00955771 0)
(10.0163 0.0105725 0)
(10.0209 0.0112702 0)
(10.0256 0.0116996 0)
(10.0303 0.0119054 0)
(10.035 0.0119286 0)
(10.0395 0.0118023 0)
(10.0438 0.0115517 0)
(10.048 0.011196 0)
(10.052 0.0107509 0)
(10.0559 0.0102289 0)
(10.0596 0.00964121 0)
(10.0631 0.00899481 0)
(10.0664 0.008318 0)
(10.0001 0.00063814 0)
(10.0013 0.00184579 0)
(10.0036 0.00288629 0)
(10.0068 0.00371382 0)
(10.0107 0.00432908 0)
(10.0148 0.00475442 0)
(10.0192 0.00501258 0)
(10.0236 0.00512343 0)
(10.0281 0.00510634 0)
(10.0325 0.00497965 0)
(10.0368 0.00475901 0)
(10.041 0.00445724 0)
(10.045 0.00408507 0)
(10.0488 0.00365193 0)
(10.0525 0.00316616 0)
(10.0561 0.00263599 0)
(10.0594 0.00206647 0)
(10.0626 0.00148123 0)
(10.0001 -0.000205857 0)
(10.0012 -0.000607143 0)
(10.0034 -0.000982424 0)
(10.0065 -0.00132227 0)
(10.0102 -0.00162577 0)
(10.0143 -0.00190691 0)
(10.0185 -0.00218359 0)
(10.0228 -0.00246786 0)
(10.0271 -0.00276696 0)
(10.0314 -0.00308637 0)
(10.0355 -0.00343022 0)
(10.0395 -0.00380066 0)
(10.0434 -0.00419809 0)
(10.0471 -0.00462158 0)
(10.0507 -0.00506933 0)
(10.0541 -0.00553832 0)
(10.0573 -0.00602713 0)
(10.0604 -0.0065189 0)
(10.0001 -0.00101308 0)
(10.0013 -0.0029604 0)
(10.0037 -0.00470061 0)
(10.007 -0.00615309 0)
(10.0108 -0.0073143 0)
(10.015 -0.00824404 0)
(10.0193 -0.00900367 0)
(10.0237 -0.00963515 0)
(10.028 -0.0101726 0)
(10.0323 -0.0106475 0)
(10.0364 -0.0110842 0)
(10.0404 -0.0114995 0)
(10.0443 -0.011904 0)
(10.0479 -0.012305 0)
(10.0515 -0.0127073 0)
(10.0548 -0.013113 0)
(10.058 -0.0135241 0)
(10.061 -0.0139299 0)
(10.0002 -0.0017091 0)
(10.0015 -0.00501539 0)
(10.0041 -0.00795003 0)
(10.0078 -0.0103095 0)
(10.012 -0.012115 0)
(10.0164 -0.0135165 0)
(10.021 -0.01462 0)
(10.0255 -0.0154826 0)
(10.03 -0.016161 0)
(10.0343 -0.0167136 0)
(10.0385 -0.0171846 0)
(10.0426 -0.0176025 0)
(10.0464 -0.0179863 0)
(10.0501 -0.0183496 0)
(10.0536 -0.0187014 0)
(10.0569 -0.0190471 0)
(10.0601 -0.0193908 0)
(10.0631 -0.0197255 0)
(10.0002 -0.00236998 0)
(10.0016 -0.00704587 0)
(10.0047 -0.0111974 0)
(10.009 -0.0143746 0)
(10.0137 -0.016678 0)
(10.0185 -0.0184184 0)
(10.0234 -0.0197556 0)
(10.0282 -0.0207607 0)
(10.0328 -0.0215148 0)
(10.0373 -0.0220989 0)
(10.0416 -0.0225694 0)
(10.0457 -0.0229629 0)
(10.0496 -0.0233055 0)
(10.0532 -0.0236167 0)
(10.0567 -0.0239094 0)
(10.0601 -0.0241913 0)
(10.0632 -0.0244676 0)
(10.0662 -0.0247341 0)
(10.0002 -0.00298809 0)
(10.0018 -0.00910258 0)
(10.0054 -0.0144684 0)
(10.0105 -0.0183645 0)
(10.0159 -0.0211144 0)
(10.0211 -0.0231422 0)
(10.0263 -0.024603 0)
(10.0314 -0.0256221 0)
(10.0362 -0.0263535 0)
(10.0409 -0.026907 0)
(10.0453 -0.027339 0)
(10.0494 -0.0276851 0)
(10.0533 -0.0279743 0)
(10.0571 -0.0282291 0)
(10.0606 -0.0284634 0)
(10.0639 -0.0286857 0)
(10.067 -0.0289013 0)
(10.07 -0.0291079 0)
(10.0001 -0.00353142 0)
(10.0018 -0.0115586 0)
(10.0062 -0.0179052 0)
(10.0123 -0.022008 0)
(10.0183 -0.0250788 0)
(10.024 -0.0274924 0)
(10.0296 -0.0291346 0)
(10.035 -0.0301487 0)
(10.0401 -0.0308048 0)
(10.0449 -0.0312678 0)
(10.0494 -0.0316051 0)
(10.0536 -0.0318571 0)
(10.0576 -0.0320577 0)
(10.0613 -0.0322306 0)
(10.0648 -0.0323892 0)
(10.0681 -0.0325409 0)
(10.0713 -0.0326892 0)
(10.0742 -0.0328305 0)
(9.99991 -0.00337492 0)
(10.0016 -0.0149898 0)
(10.0073 -0.0227465 0)
(10.0142 -0.0262587 0)
(10.0206 -0.0288468 0)
(10.0268 -0.0312149 0)
(10.0331 -0.0329392 0)
(10.039 -0.0340304 0)
(10.0444 -0.0347332 0)
(10.0494 -0.0351997 0)
(10.054 -0.0355003 0)
(10.0583 -0.0356889 0)
(10.0623 -0.0358118 0)
(10.066 -0.0358997 0)
(10.0694 -0.0359706 0)
(10.0725 -0.0360345 0)
(10.0754 -0.036096 0)
(10.0782 -0.0361537 0)
(9.99859 -0.000381917 0)
(9.99903 -0.0157998 0)
(10.0076 -0.0274424 0)
(10.0166 -0.0325012 0)
(10.0238 -0.0348794 0)
(10.0306 -0.0362378 0)
(10.0376 -0.0369924 0)
(10.0441 -0.0374624 0)
(10.0498 -0.0378139 0)
(10.0549 -0.0380634 0)
(10.0595 -0.0382105 0)
(10.0636 -0.0382801 0)
(10.0671 -0.0383023 0)
(10.0703 -0.0382981 0)
(10.073 -0.0382827 0)
(10.0755 -0.0382647 0)
(10.0776 -0.0382477 0)
(10.0795 -0.0382297 0)
(9.99487 0.00140556 0)
(9.99287 -0.00812524 0)
(10.006 -0.0203347 0)
(10.0202 -0.0322689 0)
(10.0306 -0.0404777 0)
(10.0392 -0.0441537 0)
(10.0467 -0.0450696 0)
(10.0529 -0.0449287 0)
(10.0578 -0.0444648 0)
(10.0616 -0.043871 0)
(10.0646 -0.0432283 0)
(10.0667 -0.0425932 0)
(10.0682 -0.0419997 0)
(10.069 -0.0414566 0)
(10.0693 -0.0409724 0)
(10.0692 -0.0405451 0)
(10.0687 -0.0401713 0)
(10.068 -0.0398245 0)
(9.9947 -0.0305774 0)
(9.99943 -0.022851 0)
(10.0146 -0.00262183 0)
(10.0304 -0.0019041 0)
(10.0434 -0.0116576 0)
(10.0533 -0.0209252 0)
(10.0594 -0.0272858 0)
(10.0618 -0.031515 0)
(10.0615 -0.0342917 0)
(10.059 -0.0359896 0)
(10.055 -0.0369229 0)
(10.0497 -0.0373574 0)
(10.0434 -0.0374836 0)
(10.0364 -0.0374218 0)
(10.0288 -0.0372607 0)
(10.0209 -0.0370583 0)
(10.0128 -0.0368778 0)
(10.0045 -0.0366865 0)
(10.0274 -0.183007 0)
(10.0766 -0.288325 0)
(10.0871 -0.247822 0)
(10.0777 -0.18656 0)
(10.0663 -0.140325 0)
(10.0537 -0.108245 0)
(10.0365 -0.0858977 0)
(10.0145 -0.0704395 0)
(9.98934 -0.0596684 0)
(9.9623 -0.051892 0)
(9.93432 -0.0460692 0)
(9.906 -0.0415712 0)
(9.87781 -0.0380146 0)
(9.8501 -0.0351379 0)
(9.8231 -0.0327743 0)
(9.79693 -0.0308502 0)
(9.77182 -0.0293308 0)
(9.74782 -0.028514 0)
(9.93575 0.689541 0)
(9.86827 0.609595 0)
(9.76458 0.380605 0)
(9.62661 0.21741 0)
(9.48587 0.119241 0)
(9.35717 0.0631589 0)
(9.24265 0.0315466 0)
(9.14106 0.013595 0)
(9.05139 0.00324131 0)
(8.9724 -0.00281933 0)
(8.90248 -0.00637263 0)
(8.8403 -0.00849084 0)
(8.78458 -0.00973727 0)
(8.73446 -0.0104951 0)
(8.68903 -0.0109758 0)
(8.64768 -0.011252 0)
(8.60948 -0.0114762 0)
(8.57413 -0.0121145 0)
(0.00508243 -0.0119127 -8.36061e-19)
(0.0170421 -0.0178936 7.26263e-19)
(0.026852 -0.0145408 0)
(0.0325201 -0.00752831 0)
(0.0331063 4.54355e-05 0)
(0.0288408 0.00649668 -3.72347e-19)
(0.02087 0.0112036 0)
(0.0101194 0.0142758 0)
(-0.00265664 0.0161277 0)
(-0.0169222 0.0172324 0)
(-0.0323751 0.0179728 2.11223e-19)
(-0.0488391 0.0185791 0)
(-0.0662168 0.0191581 0)
(-0.0844583 0.019745 0)
(-0.103536 0.0203383 0)
(-0.123428 0.0209197 1.19944e-19)
(-0.144116 0.0214635 0)
(-0.165575 0.021942 0)
(-0.187777 0.0223274 0)
(-0.210685 0.022596 0)
(-0.23425 0.0227298 0)
(-0.258419 0.0227238 0)
(-0.283137 0.0225948 0)
(-0.30835 0.0223947 7.24998e-20)
(-0.334005 0.0222146 -6.92135e-20)
(-0.360064 0.0221136 6.62185e-20)
(-0.386528 0.0223817 6.34649e-20)
(-0.413502 0.0235881 0)
(-0.441187 0.0257638 0)
(-0.469537 0.0288392 -5.76256e-20)
(-0.498241 0.0331751 -5.64695e-20)
(-0.527467 0.0391072 0)
(-0.557909 0.04528 0)
(-0.59 0.0517055 -5.50826e-20)
(-0.623801 0.0606769 0)
(-0.659137 0.0642049 0)
(-0.696161 0.0618601 5.32714e-20)
(-0.73213 0.0792808 0)
(-0.771562 0.0662686 6.92709e-20)
(-0.814422 0.0238333 1.46005e-19)
(-0.847304 0.0234945 0)
(-0.88309 0.0273754 0)
(-0.920477 0.0334695 0)
(-0.960168 0.0356939 0)
(-1.0008 0.034806 0)
(-1.04088 0.034796 1.18457e-19)
(-1.08129 0.0347511 1.15079e-19)
(-1.12177 0.0346226 1.11907e-19)
(-1.16226 0.0344076 0)
(-1.20272 0.0341445 -1.06133e-19)
(-1.24309 0.0338469 0)
(-1.28335 0.0335285 1.01025e-19)
(-1.32348 0.0331944 9.86878e-20)
(-1.36346 0.0328492 0)
(-1.40326 0.0324946 0)
(-1.44289 0.0321315 0)
(-1.48232 0.0317599 9.05235e-20)
(-1.52153 0.0313792 0)
(-1.56051 0.0309886 0)
(-1.59923 0.0305867 0)
(-1.63768 0.0301724 0)
(-1.67584 0.0297443 0)
(-1.71367 0.0293012 0)
(-1.75116 0.0288416 0)
(-1.78827 0.0283645 0)
(-1.82498 0.0278686 -7.69409e-20)
(-1.86124 0.0273534 0)
(-1.89703 0.0268176 0)
(-1.93232 0.0262611 7.33666e-20)
(-1.96706 0.0256828 7.22476e-20)
(-2.00122 0.0250827 0)
(-2.03476 0.0244602 -7.01016e-20)
(-2.06764 0.0238155 6.90692e-20)
(-2.09982 0.0231481 0)
(-2.13126 0.0224585 -6.70723e-20)
(-2.16192 0.0217465 0)
(-2.19176 0.0210129 0)
(-2.22073 0.0202577 6.42133e-20)
(-2.24879 0.0194816 0)
(-2.2759 0.0186844 -6.23738e-20)
(-2.30202 0.0178671 0)
(-2.3271 0.0170294 6.05692e-20)
(-2.35111 0.0161721 5.96755e-20)
(-2.374 0.0152943 5.87848e-20)
(-2.39573 0.0143965 1.15792e-19)
(-2.41626 0.0134772 -1.14014e-19)
(-2.43554 0.0125351 0)
(-2.45353 0.0115668 0)
(-2.47018 0.0105691 0)
(-2.48546 0.00953565 -1.0684e-19)
(-2.4993 0.00845927 -1.05017e-19)
(-2.51165 0.00733155 1.03177e-19)
(-2.52244 0.0061445 0)
(-2.5316 0.00489415 -9.94439e-20)
(-2.53905 0.0035905 -9.75498e-20)
(-2.54469 0.00227868 -9.56384e-20)
(-2.54841 0.00105001 0)
(-2.5501 -1.37571e-05 0)
(-2.55027 -0.000958272 0)
(-2.54887 -0.00186823 -8.7567e-20)
(-2.54595 -0.00276506 0)
(-2.5415 -0.00365738 0)
(-2.53552 -0.0045464 8.0987e-20)
(-2.52798 -0.00543242 0)
(-2.51889 -0.00631444 0)
(-2.50824 -0.00719192 7.38867e-20)
(-2.49602 -0.00806357 0)
(-2.48222 -0.00892881 0)
(-2.46686 -0.00978637 -6.61902e-20)
(-2.44992 -0.0106356 -6.34787e-20)
(-2.43142 -0.0114752 0)
(-2.41136 -0.0123044 5.78195e-20)
(-2.38975 -0.0131219 0)
(-2.36661 -0.0139269 -5.18254e-20)
(-2.34194 -0.0147181 0)
(-2.31576 -0.0154945 -4.54718e-20)
(-2.2881 -0.0162547 -4.21524e-20)
(-2.25897 -0.0169976 0)
(-2.22839 -0.017722 0)
(-2.1964 -0.0184269 0)
(-2.16303 -0.0191114 0)
(-2.1283 -0.0197746 0)
(-2.09225 -0.0204159 0)
(-2.05492 -0.0210343 0)
(-2.01634 -0.0216297 -1.1738e-20)
(-1.97655 -0.0222016 7.39964e-21)
(-1.93561 -0.022752 0)
(-1.89353 -0.0232792 0)
(-1.85037 -0.0237826 0)
(-1.80616 -0.0242613 0)
(-1.76096 -0.0247139 -3.27566e-20)
(-1.7148 -0.0251424 0)
(-1.66774 -0.025547 5.39227e-20)
(-1.61983 -0.0259271 -6.50158e-20)
(-1.57111 -0.0262831 0)
(-1.52162 -0.0266144 0)
(-1.47141 -0.0269211 0)
(-1.42054 -0.0272038 1.13162e-19)
(-1.36904 -0.0274627 1.26237e-19)
(-1.31696 -0.0277001 0)
(-1.26435 -0.0279174 1.53794e-19)
(-1.21126 -0.0281168 1.68328e-19)
(-1.15773 -0.0282996 -1.83404e-19)
(-1.10379 -0.028467 0)
(-1.04949 -0.02862 0)
(-0.99487 -0.0287603 -2.32241e-19)
(-0.939956 -0.0288895 0)
(-0.884786 -0.0290098 0)
(-0.829389 -0.0291233 0)
(-0.773794 -0.0292323 0)
(-0.718026 -0.029339 3.28425e-19)
(-0.662108 -0.0294462 3.50423e-19)
(-0.606058 -0.029556 0)
(-0.549893 -0.0296711 3.97837e-19)
(-0.493626 -0.0297937 0)
(-0.43727 -0.0299261 0)
(-0.380832 -0.0300703 4.79195e-19)
(-0.32432 -0.0302274 0)
(-0.267739 -0.0303982 5.4197e-19)
(-0.21109 -0.0305884 0)
(-0.154378 -0.0308209 0)
(-0.0976237 -0.0310888 6.53105e-19)
(-0.0408585 -0.0313037 0)
(0.0157269 -0.0310909 7.17476e-19)
(0.0720726 -0.030367 0)
(0.128427 -0.0295543 0)
(0.184833 -0.0288128 0)
(0.241327 -0.028145 -6.59223e-19)
(0.297971 -0.0275388 0)
(0.354813 -0.0269823 6.32127e-19)
(0.411882 -0.0264642 0)
(0.469182 -0.0259697 0)
(0.526682 -0.0254783 0)
(0.584274 -0.0249569 0)
(0.64179 -0.024346 0)
(0.698627 -0.023533 0)
(0.754534 -0.0222412 0)
(0.804571 -0.0198405 -1.10913e-18)
(0.855046 -0.0147924 0)
(0.851671 0.00283843 0)
(0.00466695 -0.0345212 1.93293e-18)
(0.0098563 -0.0322612 -1.10133e-18)
(0.00918292 -0.0184706 0)
(0.00552889 -0.00402924 3.447e-19)
(-0.000572853 0.00930729 0)
(-0.00890314 0.0207011 1.32146e-19)
(-0.0194204 0.0298114 -2.41112e-19)
(-0.0320117 0.0367549 -2.21984e-19)
(-0.0465034 0.0419289 0)
(-0.062659 0.0458246 -1.89355e-19)
(-0.0802482 0.0488834 -8.76949e-20)
(-0.0990893 0.0514285 0)
(-0.119048 0.0536648 0)
(-0.14003 0.0557082 0)
(-0.161973 0.0576173 0)
(-0.184839 0.0594174 -6.28722e-20)
(-0.208602 0.0611161 0)
(-0.233251 0.0627126 1.13192e-19)
(-0.258779 0.0642023 0)
(-0.285184 0.0655807 0)
(-0.312472 0.0668451 -9.92639e-20)
(-0.340653 0.0679972 0)
(-0.369745 0.0690454 9.21314e-20)
(-0.399771 0.0700113 -4.45364e-20)
(-0.430763 0.0709299 4.31202e-20)
(-0.462767 0.0718402 -4.18306e-20)
(-0.495851 0.0727798 -4.06749e-20)
(-0.530043 0.0737939 0)
(-0.565335 0.0748918 0)
(-0.601775 0.0760448 3.83387e-20)
(-0.639637 0.0772815 -3.76491e-20)
(-0.679026 0.0786472 0)
(-0.719727 0.0800188 0)
(-0.761412 0.0810985 3.78839e-20)
(-0.802984 0.0818539 0)
(-0.844508 0.0820301 0)
(-0.886461 0.0818489 -3.78991e-20)
(-0.927276 0.0827441 0)
(-0.967666 0.0850388 3.85197e-20)
(-1.00811 0.0867125 -7.50746e-20)
(-1.05043 0.0883372 0)
(-1.09107 0.0892724 0)
(-1.13048 0.0898529 -1.36872e-19)
(-1.1689 0.0900525 -1.33645e-19)
(-1.20668 0.089695 -1.30659e-19)
(-1.24418 0.0890515 6.37643e-20)
(-1.28132 0.0882909 -6.27069e-20)
(-1.31812 0.0874283 -1.83998e-19)
(-1.35461 0.0864899 1.20142e-19)
(-1.39081 0.0854955 5.90617e-20)
(-1.42673 0.0844616 0)
(-1.46238 0.0833994 -5.6912e-20)
(-1.49774 0.0823158 5.56194e-20)
(-1.53282 0.0812145 0)
(-1.56761 0.0800971 0)
(-1.6021 0.0789632 0)
(-1.63627 0.0778117 -5.22913e-20)
(-1.67012 0.0766403 0)
(-1.70363 0.0754469 1.01079e-19)
(-1.73677 0.0742285 0)
(-1.76954 0.0729827 9.80737e-20)
(-1.8019 0.0717064 0)
(-1.83384 0.0703976 -9.52487e-20)
(-1.86534 0.0690533 0)
(-1.89636 0.0676719 9.25765e-20)
(-1.92687 0.0662511 -4.55174e-20)
(-1.95686 0.0647898 0)
(-1.9863 0.0632862 -8.88004e-20)
(-2.01514 0.06174 -4.39156e-20)
(-2.04337 0.06015 -4.33192e-20)
(-2.07095 0.0585162 0)
(-2.09785 0.0568381 -4.19336e-20)
(-2.12403 0.0551162 -4.15808e-20)
(-2.14947 0.0533505 0)
(-2.17413 0.0515419 4.04532e-20)
(-2.19797 0.0496908 -7.96023e-20)
(-2.22097 0.0477989 0)
(-2.2431 0.0458668 -3.87886e-20)
(-2.2643 0.0438966 0)
(-2.28457 0.0418889 1.12903e-19)
(-2.30385 0.0398458 0)
(-2.32211 0.0377682 -1.09606e-19)
(-2.33934 0.0356581 -3.6024e-20)
(-2.35548 0.0335162 3.53516e-20)
(-2.37051 0.0313447 6.95989e-20)
(-2.3844 0.0291443 -6.84857e-20)
(-2.39712 0.0269168 0)
(-2.40864 0.024662 0)
(-2.41892 0.0223804 0)
(-2.42795 0.0200706 1.91918e-19)
(-2.4357 0.0177301 6.27962e-20)
(-2.44216 0.0153562 -6.15745e-20)
(-2.44732 0.0129458 0)
(-2.4512 0.0104951 -5.91011e-20)
(-2.45382 0.00800296 5.78022e-20)
(-2.45524 0.00549067 5.65109e-20)
(-2.45557 0.00302709 0)
(-2.45491 0.000701331 0)
(-2.4529 -0.00150521 0)
(-2.44945 -0.00366221 5.10133e-20)
(-2.44452 -0.00578847 0)
(-2.4381 -0.00789319 -9.64448e-20)
(-2.43017 -0.00997735 -1.40108e-19)
(-2.42072 -0.01204 9.04819e-20)
(-2.40974 -0.0140787 0)
(-2.39722 -0.0160912 4.23207e-20)
(-2.38316 -0.0180745 0)
(-2.36755 -0.0200263 7.78733e-20)
(-2.35039 -0.021944 -3.75044e-20)
(-2.33169 -0.0238252 -3.58377e-20)
(-2.31146 -0.0256673 0)
(-2.28969 -0.027468 -9.61757e-20)
(-2.26639 -0.0292247 6.07395e-20)
(-2.24159 -0.0309352 2.8268e-20)
(-2.21529 -0.0325972 0)
(-2.18751 -0.0342085 2.45245e-20)
(-2.15826 -0.035767 6.84845e-20)
(-2.12758 -0.0372702 0)
(-2.09549 -0.0387161 3.80616e-20)
(-2.062 -0.0401025 3.40558e-20)
(-2.02715 -0.0414278 2.99861e-20)
(-1.99098 -0.0426904 0)
(-1.95351 -0.0438893 0)
(-1.91478 -0.0450232 0)
(-1.87483 -0.0460919 -6.97812e-21)
(-1.8337 -0.0470949 -3.90788e-21)
(-1.79142 -0.0480338 0)
(-1.74805 -0.0489102 2.1644e-22)
(-1.70362 -0.049728 4.76254e-21)
(-1.65817 -0.0504844 0)
(-1.61174 -0.0511681 1.49985e-20)
(-1.56439 -0.0517813 3.74382e-20)
(-1.51615 -0.0523375 -2.44829e-20)
(-1.46708 -0.0528354 -2.72459e-20)
(-1.41721 -0.0532711 0)
(-1.36659 -0.0536462 0)
(-1.31528 -0.0539622 0)
(-1.2633 -0.0542206 -4.89876e-20)
(-1.21072 -0.054423 5.18706e-20)
(-1.15757 -0.0545723 1.16004e-19)
(-1.10389 -0.0546722 -6.41827e-20)
(-1.04974 -0.0547263 6.71503e-20)
(-0.995153 -0.0547379 7.44969e-20)
(-0.940168 -0.054709 0)
(-0.884824 -0.0546426 0)
(-0.829154 -0.0545408 -8.80372e-20)
(-0.773193 -0.0544072 0)
(-0.716971 -0.0542444 0)
(-0.660517 -0.0540567 2.10268e-19)
(-0.603855 -0.0538467 0)
(-0.547009 -0.0536187 1.14877e-19)
(-0.489999 -0.0533755 -1.22489e-19)
(-0.432841 -0.0531214 0)
(-0.375549 -0.0528587 1.31352e-19)
(-0.318135 -0.0525919 0)
(-0.260607 -0.0523225 0)
(-0.202972 -0.0520543 -1.5022e-19)
(-0.145232 -0.0517885 3.09638e-19)
(-0.0873918 -0.0515271 -1.6155e-19)
(-0.0294531 -0.0512685 0)
(0.0285442 -0.0509938 0)
(0.0866154 -0.0506967 1.70709e-19)
(0.144841 -0.0503665 0)
(0.203271 -0.0499111 1.73748e-19)
(0.261871 -0.0493299 0)
(0.32062 -0.0487477 0)
(0.37954 -0.0482241 0)
(0.438668 -0.0477611 1.81686e-19)
(0.498037 -0.0473491 0)
(0.557673 -0.0469735 -1.84278e-19)
(0.61759 -0.0466168 0)
(0.677776 -0.0462535 0)
(0.738183 -0.0458453 3.73737e-19)
(0.798694 -0.0453286 -3.75835e-19)
(0.859112 -0.0445861 0)
(0.918925 -0.0434013 0)
(0.977726 -0.0412349 0)
(1.03247 -0.0371204 1.15868e-18)
(1.08653 -0.027686 0)
(1.11613 -0.00363349 -8.05908e-19)
(-0.000447532 -0.0412451 -8.45222e-22)
(-0.00357085 -0.0251884 1.06074e-18)
(-0.0104604 -0.00537927 0)
(-0.0193394 0.012757 -4.30111e-19)
(-0.0296837 0.0289408 0)
(-0.0412014 0.0430882 0)
(-0.0539226 0.0551302 3.59722e-23)
(-0.0679599 0.0651198 1.33503e-19)
(-0.0833863 0.0732785 1.25549e-19)
(-0.100202 0.0799419 1.1867e-19)
(-0.118348 0.085473 0)
(-0.137739 0.0901954 0)
(-0.158285 0.0943616 -1.01462e-19)
(-0.179907 0.0981492 -1.93403e-19)
(-0.202547 0.101674 1.84757e-19)
(-0.226165 0.105005 0)
(-0.250735 0.108184 1.69857e-19)
(-0.276246 0.111231 -8.17432e-20)
(-0.302699 0.11416 0)
(-0.3301 0.116978 1.5241e-19)
(-0.35846 0.119693 7.38056e-20)
(-0.387797 0.12232 -1.43204e-19)
(-0.418129 0.124877 -6.95699e-20)
(-0.449469 0.127391 0)
(-0.481818 0.129894 1.31897e-19)
(-0.515168 0.132418 1.28677e-19)
(-0.549493 0.134988 0)
(-0.584727 0.13763 1.22989e-19)
(-0.620724 0.140332 0)
(-0.657289 0.143054 1.18256e-19)
(-0.694269 0.145787 5.81903e-20)
(-0.731516 0.148544 0)
(-0.768808 0.15119 0)
(-0.805887 0.153487 0)
(-0.842459 0.155241 0)
(-0.878533 0.156014 0)
(-0.914291 0.155956 0)
(-0.949496 0.156027 1.04989e-19)
(-0.984019 0.154264 -1.54312e-19)
(-1.01857 0.150768 0)
(-1.0536 0.148162 0)
(-1.08839 0.146293 0)
(-1.12261 0.144919 1.23537e-22)
(-1.15615 0.143421 9.13085e-20)
(-1.18923 0.141719 1.78718e-19)
(-1.22207 0.139996 -1.75131e-19)
(-1.25469 0.138259 -8.57889e-20)
(-1.28709 0.136502 8.43019e-20)
(-1.31929 0.134724 -1.47638e-22)
(-1.3513 0.132927 8.111e-20)
(-1.38311 0.131112 0)
(-1.41474 0.129283 7.83124e-20)
(-1.44617 0.127438 -1.57428e-22)
(-1.47741 0.125578 0)
(-1.50845 0.123699 0)
(-1.53927 0.121798 -7.3329e-20)
(-1.56986 0.119872 0)
(-1.6002 0.117915 0)
(-1.63028 0.115924 6.98552e-20)
(-1.66008 0.113895 1.37955e-19)
(-1.68958 0.111822 -6.81266e-20)
(-1.71876 0.109702 0)
(-1.74759 0.107531 6.61799e-20)
(-1.77605 0.105306 0)
(-1.80411 0.103024 6.40152e-20)
(-1.83175 0.100682 6.34192e-20)
(-1.85895 0.0982785 -1.24773e-19)
(-1.88566 0.0958119 -6.13746e-20)
(-1.91186 0.093281 0)
(-1.93753 0.0906849 1.19646e-19)
(-1.96263 0.0880236 0)
(-1.98712 0.0852968 1.74635e-19)
(-2.01098 0.0825053 1.14706e-19)
(-2.03417 0.0796497 1.13088e-19)
(-2.05666 0.0767312 -1.11481e-19)
(-2.07842 0.073751 1.64932e-19)
(-2.09942 0.0707114 0)
(-2.11961 0.067614 0)
(-2.13897 0.0644612 -1.05103e-19)
(-2.15746 0.0612551 -1.55355e-19)
(-2.17505 0.0579985 0)
(-2.1917 0.0546935 5.02329e-20)
(-2.20739 0.051343 0)
(-2.22208 0.0479495 -1.45691e-19)
(-2.23574 0.0445159 -1.12501e-22)
(-2.24834 0.041045 9.8265e-23)
(-2.25985 0.0375397 9.21544e-20)
(-2.27024 0.0340028 0)
(-2.27949 0.0304376 -8.87879e-20)
(-2.28757 0.0268474 -3.80583e-23)
(-2.29447 0.0232359 0)
(-2.30018 0.0196092 0)
(-2.30468 0.015977 0)
(-2.30797 0.0123532 7.99927e-20)
(-2.31006 0.00875778 0)
(-2.31092 0.00521441 0)
(-2.31054 0.00173436 0)
(-2.30886 -0.00170959 0)
(-2.3058 -0.00513937 0)
(-2.30134 -0.0085473 6.84999e-20)
(-2.29545 -0.0119285 0)
(-2.28812 -0.01528 6.42439e-20)
(-2.27933 -0.0185983 6.21379e-20)
(-2.26906 -0.0218794 -6.00018e-20)
(-2.25731 -0.025119 0)
(-2.24407 -0.0283127 -5.56375e-20)
(-2.22933 -0.0314561 0)
(-2.21309 -0.0345449 -5.11484e-20)
(-2.19535 -0.037575 4.88565e-20)
(-2.17612 -0.0405423 1.4023e-19)
(-2.15539 -0.0434427 0)
(-2.13318 -0.0462724 1.26079e-19)
(-2.10949 -0.0490272 4.01134e-20)
(-2.08434 -0.0517036 0)
(-2.05773 -0.0542977 6.97057e-20)
(-2.02969 -0.0568061 6.47239e-20)
(-2.00023 -0.0592254 -8.90877e-20)
(-1.96937 -0.061552 0)
(-1.93714 -0.0637827 -2.42469e-20)
(-1.90356 -0.0659143 -2.1628e-20)
(-1.86867 -0.0679442 -5.79488e-20)
(-1.83248 -0.0698699 0)
(-1.79504 -0.0716896 0)
(-1.75637 -0.0734017 0)
(-1.71652 -0.0750053 -9.27998e-21)
(-1.67553 -0.0765004 0)
(-1.63343 -0.0778883 0)
(-1.59026 -0.0791719 -1.33839e-22)
(-1.54606 -0.0803544 -2.93447e-21)
(-1.50088 -0.0814353 0)
(-1.45476 -0.0824056 0)
(-1.40773 -0.0832636 -2.28139e-20)
(-1.35984 -0.0840225 0)
(-1.31114 -0.0846846 3.41936e-20)
(-1.26167 -0.0852466 3.86193e-20)
(-1.21147 -0.0857102 0)
(-1.16059 -0.0860781 0)
(-1.10906 -0.0863527 -5.57412e-20)
(-1.05694 -0.0865373 -1.3138e-21)
(-1.00427 -0.0866361 -1.31856e-21)
(-0.951075 -0.0866546 0)
(-0.897414 -0.086598 -1.58437e-19)
(-0.843321 -0.0864713 0)
(-0.788833 -0.0862783 0)
(-0.733986 -0.0860235 0)
(-0.678811 -0.0857109 1.02514e-19)
(-0.623341 -0.0853459 0)
(-0.567603 -0.084933 -2.24787e-19)
(-0.511624 -0.0844781 -1.19266e-19)
(-0.455427 -0.0839857 0)
(-0.399032 -0.0834618 -1.30302e-19)
(-0.342458 -0.082911 0)
(-0.285718 -0.0823389 0)
(-0.228825 -0.0817497 -4.37341e-19)
(-0.171789 -0.0811489 3.01486e-19)
(-0.114617 -0.0805392 0)
(-0.0573118 -0.0799247 3.2285e-19)
(0.000119202 -0.0793064 -1.67475e-19)
(0.057671 -0.0786855 0)
(0.115355 -0.0780608 0)
(0.173184 -0.0774325 0)
(0.23117 -0.0768046 -5.36414e-19)
(0.289343 -0.0761728 0)
(0.347749 -0.0755382 -1.84789e-19)
(0.406412 -0.0749228 0)
(0.465327 -0.0743484 0)
(0.524502 -0.0738331 0)
(0.583949 -0.0733772 0)
(0.643684 -0.0729708 0)
(0.70372 -0.0725965 0)
(0.76406 -0.0722306 -4.01506e-19)
(0.824684 -0.0718363 0)
(0.885539 -0.071356 -2.05969e-19)
(0.946511 -0.0706938 6.22116e-19)
(1.00741 -0.0696791 0)
(1.0678 -0.0679977 0)
(1.12737 -0.0649884 -4.2677e-19)
(1.18407 -0.0594103 -4.33574e-19)
(1.24105 -0.048154 4.39038e-19)
(1.28473 -0.0234412 4.52748e-19)
(-0.00567953 -0.0309098 -2.96745e-18)
(-0.0144175 -0.00617559 -1.27053e-18)
(-0.0251615 0.0167564 -4.59745e-19)
(-0.0375789 0.036809 -1.64313e-19)
(-0.0509435 0.0546145 0)
(-0.0649246 0.0704134 2.38191e-19)
(-0.0796 0.0842805 -1.08877e-19)
(-0.0951263 0.0962878 0)
(-0.111631 0.106585 -9.59959e-20)
(-0.129195 0.1154 0)
(-0.147848 0.123007 1.74073e-19)
(-0.167583 0.129675 0)
(-0.188366 0.13564 7.97852e-20)
(-0.210157 0.141091 1.53218e-19)
(-0.232916 0.146166 -1.47395e-19)
(-0.25661 0.150961 0)
(-0.281213 0.155539 -1.37189e-19)
(-0.306708 0.159943 0)
(-0.333082 0.164195 0)
(-0.360325 0.16831 -1.24867e-19)
(-0.388424 0.172298 0)
(-0.417363 0.176162 -3.48948e-23)
(-0.447116 0.179906 0)
(-0.477641 0.183529 0)
(-0.508876 0.187027 3.04305e-23)
(-0.540733 0.190387 -1.06749e-19)
(-0.573103 0.19359 -1.04231e-19)
(-0.605847 0.196613 -1.01779e-19)
(-0.638798 0.199435 0)
(-0.671772 0.202017 -1.94527e-19)
(-0.7046 0.204308 0)
(-0.737138 0.206229 -9.32137e-20)
(-0.769267 0.207678 0)
(-0.800906 0.208532 0)
(-0.832048 0.208698 8.75783e-20)
(-0.862805 0.208105 0)
(-0.893335 0.206846 -8.38478e-20)
(-0.923655 0.205147 1.32542e-23)
(-0.953794 0.202771 1.60314e-19)
(-0.984011 0.19985 -1.56556e-19)
(-1.01439 0.197065 0)
(-1.04472 0.194553 0)
(-1.07478 0.192233 -7.32067e-20)
(-1.10454 0.189917 0)
(-1.13407 0.187545 -7.03728e-20)
(-1.16347 0.185163 6.9009e-20)
(-1.19274 0.182784 6.77081e-20)
(-1.22188 0.180408 0)
(-1.25092 0.178032 -6.52729e-20)
(-1.27984 0.175651 -6.41301e-20)
(-1.30865 0.173263 1.25943e-19)
(-1.33734 0.170863 -6.19764e-20)
(-1.3659 0.168447 -6.0959e-20)
(-1.39433 0.16601 0)
(-1.42262 0.163547 0)