# vtk DataFile Version 2.0
track0
ASCII
DATASET POLYDATA
POINTS 12040 float
-0.0205 0.001 1e-05
-0.02052 0.000999985 1e-05
-0.02054 0.000999974 1e-05
-0.02056 0.000999965 1e-05
-0.02058 0.000999959 1e-05
-0.0206 0.000999956 1e-05
-0.0205 0.00367778 1e-05
-0.02052 0.00367778 1e-05
-0.02054 0.00367777 1e-05
-0.02056 0.00367777 1e-05
-0.02058 0.00367777 1e-05
-0.0206 0.00367777 1e-05
-0.0205 0.00635556 1e-05
-0.02052 0.00635555 1e-05
-0.02054 0.00635555 1e-05
-0.02056 0.00635555 1e-05
-0.02058 0.00635555 1e-05
-0.0206 0.00635555 1e-05
-0.0205 0.00903333 1e-05
-0.02052 0.00903333 1e-05
-0.02054 0.00903333 1e-05
-0.02056 0.00903333 1e-05
-0.02058 0.00903333 1e-05
-0.0206 0.00903333 1e-05
-0.0205 0.0117111 1e-05
-0.02052 0.0117111 1e-05
-0.02054 0.0117111 1e-05
-0.02056 0.0117111 1e-05
-0.02058 0.0117111 1e-05
-0.0206 0.0117111 1e-05
-0.0205 0.0143889 1e-05
-0.02052 0.0143889 1e-05
-0.02054 0.0143889 1e-05
-0.02056 0.0143889 1e-05
-0.02058 0.0143889 1e-05
-0.0206 0.0143889 1e-05
-0.0205 0.0170667 1e-05
-0.02052 0.0170667 1e-05
-0.02054 0.0170667 1e-05
-0.02056 0.0170667 1e-05
-0.02058 0.0170667 1e-05
-0.0206 0.0170667 1e-05
-0.0205 0.0197444 1e-05
-0.02052 0.0197444 1e-05
-0.02054 0.0197444 1e-05
-0.02056 0.0197444 1e-05
-0.02058 0.0197444 1e-05
-0.0206 0.0197444 1e-05
-0.0205 0.0224222 1e-05
-0.02052 0.0224222 1e-05
-0.02054 0.0224222 1e-05
-0.02056 0.0224222 1e-05
-0.02058 0.0224222 1e-05
-0.0206 0.0224222 1e-05
-0.0205 0.0251 1e-05
-0.02052 0.0250998 1e-05
-0.02054 0.0250997 1e-05
-0.02056 0.0250995 1e-05
-0.02058 0.0250995 1e-05
-0.0206 0.0250994 1e-05
-0.0205 0.001 1e-05
-0.0202034 0.00100022 1e-05
-0.0199069 0.00100067 1e-05
-0.0196103 0.00100132 1e-05
-0.0193137 0.00100219 1e-05
-0.0190172 0.00100326 1e-05
-0.0187132 0.00100466 1e-05
-0.0184093 0.00100588 1e-05
-0.0181054 0.0010071 1e-05
-0.0178015 0.00100832 1e-05
-0.0174976 0.00100953 1e-05
-0.0172058 0.00101083 1e-05
-0.016914 0.00101193 1e-05
-0.0166222 0.00101303 1e-05
-0.0163305 0.00101413 1e-05
-0.0160387 0.00101522 1e-05
-0.0157586 0.00101636 1e-05
-0.0154784 0.00101744 1e-05
-0.0151983 0.00101856 1e-05
-0.0149182 0.00101971 1e-05
-0.0146381 0.0010209 1e-05
-0.0143745 0.00102209 1e-05
-0.014111 0.00102327 1e-05
-0.0138474 0.00102449 1e-05
-0.0135839 0.00102574 1e-05
-0.0133613 0.00102682 1e-05
-0.0133477 0.00102688 1e-05
-0.0133341 0.00102695 1e-05
-0.0133206 0.00102702 1e-05
-0.013307 0.00102709 1e-05
-0.0132934 0.00102715 1e-05
-0.0130353 0.00102844 1e-05
-0.0127771 0.00102974 1e-05
-0.0125189 0.00103106 1e-05
-0.0122607 0.0010324 1e-05
-0.0120025 0.00103375 1e-05
-0.0117547 0.00103506 1e-05
-0.0115068 0.00103637 1e-05
-0.0112589 0.00103769 1e-05
-0.0110111 0.00103902 1e-05
-0.0107632 0.00104035 1e-05
-0.0105252 0.00104162 1e-05
-0.0102873 0.0010429 1e-05
-0.0100493 0.00104418 1e-05
-0.00981133 0.00104546 1e-05
-0.00957337 0.00104674 1e-05
-0.00934491 0.00104796 1e-05
-0.00911645 0.00104918 1e-05
-0.00888799 0.0010504 1e-05
-0.00865954 0.00105161 1e-05
-0.00843108 0.00105283 1e-05
-0.00821175 0.00105398 1e-05
-0.00799242 0.00105514 1e-05
-0.00777309 0.0010563 1e-05
-0.00755376 0.00105745 1e-05
-0.00733443 0.00105859 1e-05
-0.00712387 0.00105968 1e-05
-0.0069133 0.00106077 1e-05
-0.00670273 0.00106186 1e-05
-0.00649216 0.00106294 1e-05
-0.0062816 0.00106402 1e-05
-0.00607944 0.00106504 1e-05
-0.00587729 0.00106607 1e-05
-0.00567514 0.00106709 1e-05
-0.00547298 0.00106811 1e-05
-0.00527083 0.00106912 1e-05
-0.00507675 0.00107008 1e-05
-0.00488267 0.00107105 1e-05
-0.0046886 0.00107201 1e-05
-0.00449452 0.00107297 1e-05
-0.00430044 0.00107392 1e-05
-0.00411412 0.00107483 1e-05
-0.0039278 0.00107573 1e-05
-0.00374147 0.00107664 1e-05
-0.00355515 0.00107754 1e-05
-0.00336883 0.00107844 1e-05
-0.00318995 0.00107929 1e-05
-0.00301107 0.00108015 1e-05
-0.00283219 0.001081 1e-05
-0.00265331 0.00108185 1e-05
-0.00247443 0.0010827 1e-05
-0.0023027 0.00108351 1e-05
-0.00213097 0.00108432 1e-05
-0.00195924 0.00108513 1e-05
-0.0017875 0.00108594 1e-05
-0.00161577 0.00108675 1e-05
-0.0014509 0.00108751 1e-05
-0.00128603 0.00108828 1e-05
-0.00112116 0.00108906 1e-05
-0.000956289 0.00108983 1e-05
-0.000791418 0.0010906 1e-05
-0.000633135 0.00109134 1e-05
-0.000474851 0.00109209 1e-05
-0.000316567 0.00109283 1e-05
-0.000158284 0.00109358 1e-05
0 0.00109432 1e-05
0.000105677 0.00109481 1e-05
0.000211355 0.0010953 1e-05
0.000317032 0.00109579 1e-05
0.00042271 0.00109628 1e-05
0.000528387 0.00109677 1e-05
0.000634886 0.00109725 1e-05
0.000741385 0.00109773 1e-05
0.000847885 0.0010982 1e-05
0.000954384 0.00109868 1e-05
0.00106088 0.00109915 1e-05
0.00116821 0.00109962 1e-05
0.00127554 0.00110008 1e-05
0.00138286 0.00110054 1e-05
0.00149019 0.00110099 1e-05
0.00159752 0.00110144 1e-05
0.00170568 0.00110188 1e-05
0.00181384 0.00110232 1e-05
0.001922 0.00110275 1e-05
0.00203016 0.00110316 1e-05
0.00213833 0.00110358 1e-05
0.00224733 0.00110398 1e-05
0.00235633 0.00110438 1e-05
0.00246533 0.00110477 1e-05
0.00257434 0.00110515 1e-05
0.00268334 0.00110552 1e-05
0.00279319 0.00110588 1e-05
0.00290304 0.00110624 1e-05
0.00301289 0.00110659 1e-05
0.00312274 0.00110694 1e-05
0.00323259 0.00110727 1e-05
0.00334329 0.0011076 1e-05
0.003454 0.00110792 1e-05
0.0035647 0.00110823 1e-05
0.0036754 0.00110854 1e-05
0.00378611 0.00110884 1e-05
0.00389767 0.00110913 1e-05
0.00400924 0.00110942 1e-05
0.0041208 0.0011097 1e-05
0.00423237 0.00110997 1e-05
0.00434393 0.00111023 1e-05
0.00445636 0.00111048 1e-05
0.00456879 0.00111073 1e-05
0.00468123 0.00111097 1e-05
0.00479366 0.00111121 1e-05
0.00490609 0.00111143 1e-05
0.0050194 0.00111165 1e-05
0.0051327 0.00111186 1e-05
0.00524601 0.00111207 1e-05
0.00535932 0.00111226 1e-05
0.00547262 0.00111245 1e-05
0.00558681 0.00111263 1e-05
0.005701 0.0011128 1e-05
0.00581518 0.00111297 1e-05
0.00592937 0.00111313 1e-05
0.00604356 0.00111328 1e-05
0.00615863 0.00111343 1e-05
0.00627371 0.00111356 1e-05
0.00638878 0.00111369 1e-05
0.00650386 0.00111382 1e-05
0.00661893 0.00111393 1e-05
0.0067349 0.00111404 1e-05
0.00685087 0.00111414 1e-05
0.00696684 0.00111423 1e-05
0.00708281 0.00111431 1e-05
0.00719878 0.00111439 1e-05
0.00729279 0.00111445 1e-05
0.00738679 0.0011145 1e-05
0.0074808 0.00111454 1e-05
0.00757481 0.00111459 1e-05
0.0076646 0.00111462 1e-05
0.00768831 0.00111463 1e-05
0.00771201 0.00111464 1e-05
0.00773572 0.00111464 1e-05
0.00775943 0.00111465 1e-05
0.00778313 0.00111466 1e-05
0.00790091 0.00111469 1e-05
0.00801869 0.00111471 1e-05
0.00813647 0.00111473 1e-05
0.00825425 0.00111473 1e-05
0.00837203 0.00111473 1e-05
0.00849073 0.00111472 1e-05
0.00860942 0.0011147 1e-05
0.00872812 0.00111468 1e-05
0.00884682 0.00111465 1e-05
0.00896551 0.00111461 1e-05
0.00908513 0.00111455 1e-05
0.00920475 0.00111449 1e-05
0.00932437 0.00111443 1e-05
0.00944398 0.00111435 1e-05
0.0095636 0.00111427 1e-05
0.00968415 0.00111417 1e-05
0.0098047 0.00111407 1e-05
0.00992525 0.00111396 1e-05
0.0100458 0.00111385 1e-05
0.0101663 0.00111372 1e-05
0.0102878 0.00111358 1e-05
0.0104093 0.00111344 1e-05
0.0105308 0.00111329 1e-05
0.0106523 0.00111313 1e-05
0.0107738 0.00111296 1e-05
0.0108962 0.00111277 1e-05
0.0110186 0.00111258 1e-05
0.0111411 0.00111238 1e-05
0.0112635 0.00111218 1e-05
0.0113859 0.00111197 1e-05
0.0115093 0.00111173 1e-05
0.0116327 0.0011115 1e-05
0.0117561 0.00111126 1e-05
0.0118795 0.00111101 1e-05
0.0120028 0.00111075 1e-05
0.0121272 0.00111047 1e-05
0.0122515 0.00111019 1e-05
0.0123759 0.0011099 1e-05
0.0125002 0.0011096 1e-05
0.0126245 0.0011093 1e-05
0.0127498 0.00110897 1e-05
0.0128752 0.00110864 1e-05
0.0130005 0.0011083 1e-05
0.0131258 0.00110796 1e-05
0.0132511 0.0011076 1e-05
0.0133774 0.00110723 1e-05
0.0135036 0.00110685 1e-05
0.0136299 0.00110646 1e-05
0.0137562 0.00110607 1e-05
0.0138825 0.00110567 1e-05
0.0140098 0.00110524 1e-05
0.014137 0.00110481 1e-05
0.0142643 0.00110438 1e-05
0.0143915 0.00110393 1e-05
0.0145188 0.00110348 1e-05
0.0146471 0.001103 1e-05
0.0147753 0.00110253 1e-05
0.0149036 0.00110204 1e-05
0.0150318 0.00110154 1e-05
0.0151601 0.00110104 1e-05
0.0152893 0.00110051 1e-05
0.0154186 0.00109998 1e-05
0.0155478 0.00109944 1e-05
0.0156771 0.00109889 1e-05
0.0158063 0.00109834 1e-05
0.0159366 0.00109776 1e-05
0.0160668 0.00109718 1e-05
0.0161971 0.00109659 1e-05
0.0163274 0.00109599 1e-05
0.0164576 0.00109538 1e-05
0.0165889 0.00109475 1e-05
0.0167201 0.00109412 1e-05
0.0168514 0.00109347 1e-05
0.0169827 0.00109282 1e-05
0.0171139 0.00109216 1e-05
0.0172462 0.00109148 1e-05
0.0173785 0.0010908 1e-05
0.0175108 0.0010901 1e-05
0.0176431 0.00108939 1e-05
0.0177754 0.00108867 1e-05
0.0179087 0.00108795 1e-05
0.018042 0.00108721 1e-05
0.0181753 0.00108646 1e-05
0.0183087 0.00108569 1e-05
0.018442 0.00108493 1e-05
0.0185763 0.00108415 1e-05
0.0187107 0.00108336 1e-05
0.018845 0.00108255 1e-05
0.0189794 0.00108173 1e-05
0.0191137 0.00108091 1e-05
0.0192491 0.00108009 1e-05
0.0193845 0.00107925 1e-05
0.0195199 0.00107838 1e-05
0.0196553 0.00107751 1e-05
0.0197907 0.00107663 1e-05
0.0199272 0.00107576 1e-05
0.0200636 0.00107486 1e-05
0.0202001 0.00107394 1e-05
0.0203365 0.00107301 1e-05
0.020473 0.00107209 1e-05
0.0206105 0.00107116 1e-05
0.020748 0.00107021 1e-05
0.0208855 0.00106924 1e-05
0.021023 0.00106825 1e-05
0.0211606 0.00106728 1e-05
0.0212991 0.0010663 1e-05
0.0214377 0.0010653 1e-05
0.0215763 0.00106427 1e-05
0.0217149 0.00106323 1e-05
0.0218535 0.0010622 1e-05
0.0219931 0.00106117 1e-05
0.0221328 0.00106011 1e-05
0.0222724 0.00105903 1e-05
0.0224121 0.00105793 1e-05
0.0225517 0.00105685 1e-05
0.0226925 0.00105577 1e-05
0.0228332 0.00105465 1e-05
0.022974 0.00105351 1e-05
0.0231147 0.00105237 1e-05
0.0232555 0.00105123 1e-05
0.0233973 0.00105009 1e-05
0.0235391 0.00104892 1e-05
0.023681 0.00104773 1e-05
0.0238228 0.00104653 1e-05
0.0239647 0.00104533 1e-05
0.0241076 0.00104414 1e-05
0.0242505 0.00104292 1e-05
0.0243935 0.00104167 1e-05
0.0245364 0.00104041 1e-05
0.0246794 0.00103916 1e-05
0.0248234 0.00103791 1e-05
0.0249675 0.00103663 1e-05
0.0251115 0.00103533 1e-05
0.0252556 0.00103401 1e-05
[...]
POINT_DATA 12040
 FIELD attributes 2
p 1 12040 float
-4.56597 -4.56265 -4.55933 -4.55602 -4.55271 -4.54939
-4.71824 -4.71822 -4.7182 -4.71817 -4.71815 -4.71813
-4.8922 -4.89207 -4.89195 -4.89183 -4.8917 -4.8916
-4.98533 -4.98527 -4.98522 -4.98516 -4.98511 -4.98506
-5.03024 -5.03013 -5.03002 -5.0299 -5.02979 -5.02968
-5.03666 -5.0365 -5.03634 -5.03618 -5.03602 -5.03586
-5.00966 -5.00958 -5.00951 -5.00944 -5.00937 -5.0093
-4.94005 -4.94001 -4.93997 -4.93993 -4.93989 -4.93985
-4.81875 -4.81876 -4.81876 -4.81877 -4.81878 -4.81878
-2.60614 -2.62548 -2.64468 -2.66375 -2.68268 -2.70148
-4.56597 -4.56526 -4.56164 -4.55794 -4.55417 -4.5458 -4.55965 -4.57462 -4.5896 -4.60457 -4.629 -4.65077 -4.68071 -4.71065 -4.74059 -4.77334 -4.789 -4.81071 -4.83241 -4.85412 -4.87745 -4.89635 -4.91726 -4.93817 -4.95909 -4.97676 -4.97783 -4.97891 -4.97998 -4.98105 -4.98212 -5.00379 -5.02546 -5.04712 -5.06879 -5.09019 -5.10896 -5.12753 -5.14611 -5.16469 -5.1827 -5.19833 -5.21368 -5.22903 -5.24438 -5.25918 -5.27296 -5.28649 -5.30003 -5.31356 -5.32664 -5.33935 -5.3518 -5.36425 -5.3767 -5.38872 -5.40052 -5.41201 -5.4235 -5.43499 -5.44606 -5.45702 -5.46769 -5.47836 -5.48904 -5.49935 -5.50966 -5.51969 -5.52972 -5.53975 -5.54946 -5.55924 -5.56881 -5.57838 -5.58795 -5.5973 -5.60673 -5.61584 -5.62496 -5.63408 -5.64299 -5.65216 -5.66145 -5.67073 -5.68002 -5.68951 -5.69922 -5.70864 -5.71805 -5.72746 -5.73678 -5.74679 -5.75786 -5.76893 -5.78 -5.79151 -5.80215 -5.81391 -5.82567 -5.83743 -5.84877 -5.85908 -5.86902 -5.87895 -5.88888 -5.89785 -5.90558 -5.91417 -5.92277 -5.93136 -5.94059 -5.94894 -5.95764 -5.96634 -5.97504 -5.98382 -5.99213 -5.99941 -6.00668 -6.01396 -6.02032 -6.02723 -6.03281 -6.0384 -6.04399 -6.04848 -6.05425 -6.05896 -6.06367 -6.06837 -6.07211 -6.07706 -6.0811 -6.08515 -6.08919 -6.09242 -6.0964 -6.09963 -6.10287 -6.1061 -6.10874 -6.11174 -6.11419 -6.11664 -6.11909 -6.12118 -6.12348 -6.12542 -6.12736 -6.12931 -6.13106 -6.13302 -6.13477 -6.13652 -6.13826 -6.13991 -6.14169 -6.14334 -6.14499 -6.14664 -6.14825 -6.14957 -6.15082 -6.15208 -6.15334 -6.15454 -6.15486 -6.15518 -6.1555 -6.15581 -6.15615 -6.15765 -6.15917 -6.16069 -6.16221 -6.1639 -6.16523 -6.16675 -6.16828 -6.1698 -6.17173 -6.17286 -6.17444 -6.17601 -6.17759 -6.17988 -6.18081 -6.18251 -6.1842 -6.18589 -6.18866 -6.1894 -6.19122 -6.19304 -6.19486 -6.19809 -6.19862 -6.20054 -6.20245 -6.20436 -6.20804 -6.20837 -6.21039 -6.21241 -6.21444 -6.21856 -6.21876 -6.22091 -6.22306 -6.22522 -6.22975 -6.22986 -6.23215 -6.23444 -6.23673 -6.24163 -6.24169 -6.24411 -6.24653 -6.24896 -6.25415 -6.25421 -6.25677 -6.25932 -6.26201 -6.26733 -6.26766 -6.27014 -6.27284 -6.27592 -6.28118 -6.28185 -6.28425 -6.28708 -6.29053 -6.2957 -6.29673 -6.29908 -6.30205 -6.30581 -6.31089 -6.31227 -6.31462 -6.31773 -6.32175 -6.32674 -6.32846 -6.33085 -6.33409 -6.33833 -6.34323 -6.34527 -6.34774 -6.35111 -6.35552 -6.36034 -6.36269 -6.36527 -6.36877 -6.37332 -6.37807 -6.38071 -6.38341 -6.38704 -6.39169 -6.39638 -6.39929 -6.4022 -6.40597 -6.41062 -6.41528 -6.41844 -6.42159 -6.42548 -6.43012 -6.43476 -6.43816 -6.44156 -6.44556 -6.45019 -6.45481 -6.45844 -6.46206 -6.46617 -6.47076 -6.47536 -6.47918 -6.483 -6.48719 -6.49174 -6.4963 -6.50028 -6.50426 -6.50851 -6.51304 -6.51758 -6.52168 -6.52579 -6.53011 -6.53466 -6.53921 -6.54342 -6.54763 -6.55204 -6.55661 -6.56118 -6.56548 -6.56979 -6.57426 -6.57883 -6.58344 -6.58779 -6.59219 -6.59669 -6.60128 -6.6059 -6.6103 -6.61476 -6.6193 -6.6239 -6.62855 -6.63298 -6.6375 -6.64207 -6.64668 -6.65135 -6.65581 -6.66036 -6.66495 -6.66956 -6.67425 -6.67872 -6.6833 -6.6879 -6.6925 -6.69719 -6.70166 -6.70625 -6.71085 -6.71544 -6.72012 -6.72459 -6.72916 -6.73374 -6.73832 -6.74296 -6.74742 -6.75197 -6.75652 -6.76107 -6.76565 -6.7701 -6.7746 -6.7791 -6.78361 -6.78814 -6.79254 -6.79699 -6.80144 -6.80588 -6.81034 -6.81469 -6.81906 -6.82343 -6.82779 -6.83217 -6.83293 -6.83369 -6.83445 -6.83522 -6.83597 -6.8395 -6.84302 -6.84654 -6.85006 -6.8536 -6.85778 -6.86195 -6.86613 -6.87031 -6.87451 -6.87858 -6.88263 -6.88669 -6.89075 -6.89482 -6.89877 -6.90269 -6.90661 -6.91054 -6.91447 -6.91827 -6.92203 -6.92579 -6.92955 -6.93331 -6.93695 -6.94052 -6.94409 -6.94766 -6.95121 -6.95467 -6.95804 -6.9614 -6.96476 -6.96809 -6.97134 -6.97452 -6.97766 -6.98077 -6.98386 -6.98689 -6.98985 -6.99273 -6.99558 -6.99839 -7.00116 -7.00389 -7.0065 -7.00904 -7.01155 -7.01404 -7.01652 -7.01882 -7.02102 -7.02321 -7.02539 -7.02756 -7.02955 -7.03139 -7.03324 -7.03507 -7.03691 -7.03856 -7.04003 -7.04149 -7.04296 -7.04444 -7.04572 -7.04679 -7.04785 -7.04893 -7.05001 -7.05091 -7.05153 -7.05216 -7.05282 -7.05347 -7.05392 -7.05413 -7.0543 -7.05451 -7.05464 -7.05463 -7.05443 -7.0541 -7.05383 -7.05342 -7.0529 -7.05228 -7.05144 -7.05065 -7.04966 -7.04861 -7.04753 -7.04614 -7.04481 -7.04319 -7.04158 -7.03997 -7.03808 -7.03609 -7.03388 -7.03168 -7.02947 -7.02708 -7.0244 -7.02157 -7.01874 -7.01591 -7.013 -7.01039 -7.0077 -7.00502 -7.00234 -6.99979 -6.99898 -6.99816 -6.99735 -6.99653 -6.99569 -6.9916 -6.98748 -6.98337 -6.97926 -6.975 -6.97035 -6.96552 -6.9607 -6.95587 -6.95076 -6.94554 -6.93997 -6.9344 -6.92883 -6.92282 -6.91698 -6.91067 -6.90433 -6.89788 -6.89103 -6.88441 -6.87747 -6.87034 -6.86292 -6.85525 -6.84781 -6.84025 -6.83228 -6.82385 -6.81533 -6.80705 -6.79877 -6.78992 -6.78052 -6.77113 -6.76197 -6.75283 -6.74311 -6.73281 -6.72251 -6.71246 -6.70242 -6.6918 -6.68057 -6.66934 -6.65837 -6.64729 -6.63569 -6.62367 -6.61149 -6.59958 -6.58732 -6.57475 -6.56201 -6.54885 -6.53597 -6.52248 -6.50892 -6.49536 -6.48129 -6.46723 -6.45265 -6.43808 -6.42352 -6.40869 -6.39404 -6.37914 -6.36423 -6.34933 -6.33541 -6.33452 -6.33364 -6.33276 -6.33188 -6.33099 -6.31449 -6.29798 -6.28147 -6.26498 -6.24821 -6.23091 -6.21334 -6.19578 -6.17824 -6.16013 -6.14199 -6.12339 -6.10476 -6.08594 -6.06667 -6.04744 -6.02803 -6.00833 -5.98811 -5.96774 -5.94743 -5.92713 -5.90626 -5.88477 -5.86329 -5.84188 -5.82048 -5.79846 -5.77586 -5.75326 -5.73074 -5.70809 -5.68487 -5.66132 -5.6376 -5.61396 -5.58982 -5.56547 -5.54111 -5.51625 -5.49135 -5.46585 -5.44035 -5.41487 -5.3892 -5.37488 -5.36035 -5.34582 -5.3313 -5.31729 -5.30512 -5.29294 -5.28077 -5.26861 -5.25632 -5.22869 -5.20099 -5.1733 -5.14562 -5.11754 -5.08897 -5.06013 -5.0313 -5.00231 -4.97296 -4.94325 -4.91346 -4.88349 -4.85307 -4.82256 -4.79171 -4.76087 -4.72964 -4.69799 -4.66634 -4.63435 -4.60237 -4.56985 -4.5371 -4.50432 -4.4712 -4.43776 -4.4041 -4.37042 -4.33651 -4.30216 -4.26735 -4.23256 -4.19777 -4.16291 -4.15099 -4.13896 -4.12692 -4.11488 -4.1031 -4.07921 -4.05532 -4.03144 -4.00757 -3.98343 -3.9466 -3.90962 -3.87266 -3.83568 -3.79807 -3.76024 -3.72224 -3.68414 -3.64563 -3.60687 -3.56792 -3.52898 -3.48963 -3.44977 -3.40989 -3.36983 -3.32977 -3.28909 -3.24815 -3.20717 -3.166 -3.12441 -3.0826 -3.0408 -2.99874 -2.95768 -2.91619 -2.87471 -2.83323 -2.79413 -2.79223 -2.79034 -2.78845 -2.78655 -2.78464 -2.74074 -2.69684 -2.65295 -2.60908 -2.56466 -2.51997 -2.47501 -2.43006 -2.38481 -2.33913 -2.29338 -2.24765 -2.20154 -2.15484 -2.10812 -2.06133 -2.01455 -1.96715 -1.91945 -1.87172 -1.82391 -1.77565 -1.72717 -1.67869 -1.62999 -1.59368 -1.55698 -1.52029 -1.4836 -1.44849 -1.43541 -1.42233 -1.40924 -1.39616 -1.38293 -1.33263 -1.28225 -1.23189 -1.18154 -1.13045 -1.07936 -1.02814 -0.976825 -0.924969 -0.872924 -0.820888 -0.768864 -0.716366 -0.663449 -0.610501 -0.557553 -0.504344 -0.450757 -0.397154 -0.34334 -0.296127 -0.248447 -0.200776 -0.153113 -0.107842 -0.100604 -0.0933666 -0.0861294 -0.0788923 -0.0715787 -0.0164225 0.0387567 0.0939248 0.149082 0.204902 0.260682 0.316548 0.372492 0.428944 0.485542 0.542078 0.598601 0.655564 0.712822 0.770127 0.827376 0.88496 0.942739 1.00051 1.05843 1.08629 1.11438 1.14246 1.17055 1.19786 1.22833 1.25879 1.28925 1.31971 1.35045 1.40933 1.46829 1.52725 1.5864 1.6459 1.70531 1.76471 1.82433 1.88427 1.94426 2.00418 2.06422 2.12451 2.1848 2.24522 2.28561 2.32623 2.36684 2.40745 2.44655 2.46694 2.48733 2.50773 2.52812 2.54864 2.60967 2.67073 2.73177 2.79291 2.85434 2.91566 2.97696 3.03838 3.09997 3.16163 3.22319 3.28482 3.34657 3.40831 3.47013 3.50107 3.53207 3.56308 3.59408 3.62425 3.65533 3.68641 3.71748 3.74856 3.77974 3.84178 3.9038 3.9658 4.02786 4.09005 4.15211 4.21416 4.27623 4.33826 4.40039 4.46239 4.52437 4.58635 4.64831 4.71035 4.71316 4.71597 4.71878 4.72159 4.72439 4.78354 4.84267 4.9018 4.96091 5.02007 5.08188 5.14368 5.20535 5.26693 5.3286 5.39011 5.45155 5.51287 5.57419 5.63549 5.65749 5.67942 5.70134 5.72325 5.74483 5.78403 5.82324 5.86243 5.90161 5.94073 6.00151 6.06221 6.12283 6.18323 6.2437 6.30393 6.3641 6.42402 6.48389 6.54372 6.5732 6.60254 6.63183 6.66112 6.68992 6.72012 6.75032 6.78051 6.81068 6.84074 6.89972 6.95855 7.01733 7.0758 7.13428 7.19244 7.25055 7.30826 7.3659 7.42345 7.45217 7.48069 7.50914 7.53759 7.56574 7.5943 7.62287 7.65143 7.67991 7.70822 7.76462 7.82085 7.87698 7.93253 7.9881 8.04341 8.09852 8.15315 8.20778 8.2622 8.27793 8.29352 8.30903 8.32455 8.34003 8.37831 8.41658 8.45486 8.49296 8.53073 8.58371 8.63669 8.68913 8.74103 8.79291 8.84456 8.89567 8.94649 8.99732 9.04813 9.04824 9.04835 9.04846 9.04856 9.04867 9.09856 9.14845 9.19834 9.24794 9.29697 9.34584 9.39471 9.44295 9.4906 9.5382 9.57153 9.60445 9.63714 9.66985 9.70329 9.71707 9.73085 9.74464 9.75833 9.77186 9.81768 9.86319 9.9087 9.95357 9.99812 10.0424 10.0866 10.13 10.1732 10.2161 10.2369 10.2574 10.2777 10.298 10.3189 10.3405 10.3621 10.3837 10.4052 10.4263 10.4674 10.5082 10.5489 10.5887 10.6285 10.6678 10.7071 10.7456 10.7841 10.8221 10.839 10.8557 10.8722 10.8888 10.9059 10.9264 10.9469 10.9673 10.9877 11.0077 11.0438 11.0796 11.1153 11.1503 11.1852 11.2196 11.254 11.2876 11.321 11.3541 11.378 11.4014 11.4247 11.448 11.4731 11.4815 11.4899 11.4983 11.5066 11.5148 11.5458 11.5766 11.6074 11.6379 11.6679 11.6974 11.7269 11.7559 11.7843 11.8127 11.8406 11.8682 11.8954 11.9227 11.9495 11.9648 11.9797 11.9946 12.0095 12.0256 12.0362 12.0469 12.0576 12.0683 12.0788 12.1036 12.1281 12.1526 12.177 12.201 12.2244 12.2478 12.2708 12.2934 12.316 12.338 12.36 12.3816 12.4029 12.4241 12.4448 12.4652 12.4856 12.506 12.5261 12.5362 12.5459 12.5557 12.5655 12.5764 12.5854 12.5944 12.6034 12.6124 12.6213 12.6396 12.658 12.6764 12.6948 12.7143 12.7331 12.7488 12.763 12.7747 12.7844 12.7933 12.8022 12.8183 12.8424 12.8664 12.89 12.9136 12.9224 12.9195 12.9155 12.9101 12.908 12.9063 12.9046 12.9033 12.9032 12.9029 12.9026 12.9023 12.902 12.9009 12.8997 12.8985 12.8973 12.8955 12.892 12.8874 12.8825 12.8763 12.8695 12.8611 12.8527 12.843 12.832 12.8209 12.808 12.7943 12.7798 12.7651 12.7491 12.733 12.7156 12.6981 12.6807 12.6596 12.6581 12.6567 12.6552 12.6537 12.6521 12.6279 12.6035 12.579 12.5545 12.5285 12.4994 12.469 12.4383 12.4063 12.3735 12.3378 12.3021 12.264 12.2238 12.1835 12.1401 12.0967 12.0507 12.0028 11.9544 11.9027 11.8489 11.794 11.739 11.6815 11.6192 11.5545 11.4898 11.425 11.3598 11.3483 11.3363 11.3244 11.3125 11.3001 11.2377 11.1752 11.1126 11.0501 10.9858 10.9018 10.8155 10.7291 10.6424 10.5518 10.456 10.3578 10.2581 10.1559 10.052 9.94243 9.83283 9.71751 9.59706 9.47652 9.34987 9.22318 9.0923 8.95727 8.82214 8.68043 8.538 8.38599 8.22671 8.06567 7.89712 7.72876 7.56058 7.39234 7.22394 7.04788 6.84422 6.63804 6.43192 6.20483 5.97357 5.76602 5.55846 5.3509 5.15357 4.96512 4.73702 4.50917 4.28159 3.98901 3.91633 3.84363 3.77091 3.69816 3.61479 3.35339 3.11127 2.86805 2.62378 2.48996 2.31217 1.88476 1.46394 0.982881 0