# vtk DataFile Version 2.0
track0
ASCII
DATASET POLYDATA
POINTS 12040 float
-0.0205 0.001 1e-05
-0.02052 0.000999985 1e-05
-0.02054 0.000999974 1e-05
-0.02056 0.000999965 1e-05
-0.02058 0.000999959 1e-05
-0.0206 0.000999956 1e-05
-0.0205 0.00367778 1e-05
-0.02052 0.00367778 1e-05
-0.02054 0.00367777 1e-05
-0.02056 0.00367777 1e-05
-0.02058 0.00367777 1e-05
-0.0206 0.00367777 1e-05
-0.0205 0.00635556 1e-05
-0.02052 0.00635555 1e-05
-0.02054 0.00635555 1e-05
-0.02056 0.00635555 1e-05
-0.02058 0.00635555 1e-05
-0.0206 0.00635555 1e-05
-0.0205 0.00903333 1e-05
-0.02052 0.00903333 1e-05
-0.02054 0.00903333 1e-05
-0.02056 0.00903333 1e-05
-0.02058 0.00903333 1e-05
-0.0206 0.00903333 1e-05
-0.0205 0.0117111 1e-05
-0.02052 0.0117111 1e-05
-0.02054 0.0117111 1e-05
-0.02056 0.0117111 1e-05
-0.02058 0.0117111 1e-05
-0.0206 0.0117111 1e-05
-0.0205 0.0143889 1e-05
-0.02052 0.0143889 1e-05
-0.02054 0.0143889 1e-05
-0.02056 0.0143889 1e-05
-0.02058 0.0143889 1e-05
-0.0206 0.0143889 1e-05
-0.0205 0.0170667 1e-05
-0.02052 0.0170667 1e-05
-0.02054 0.0170667 1e-05
-0.02056 0.0170667 1e-05
-0.02058 0.0170667 1e-05
-0.0206 0.0170667 1e-05
-0.0205 0.0197444 1e-05
-0.02052 0.0197444 1e-05
-0.02054 0.0197444 1e-05
-0.02056 0.0197444 1e-05
-0.02058 0.0197444 1e-05
-0.0206 0.0197444 1e-05
-0.0205 0.0224222 1e-05
-0.02052 0.0224222 1e-05
-0.02054 0.0224222 1e-05
-0.02056 0.0224222 1e-05
-0.02058 0.0224222 1e-05
-0.0206 0.0224222 1e-05
-0.0205 0.0251 1e-05
-0.02052 0.0250998 1e-05
-0.02054 0.0250997 1e-05
-0.02056 0.0250995 1e-05
-0.02058 0.0250995 1e-05
-0.0206 0.0250994 1e-05
-0.0205 0.001 1e-05
-0.0202034 0.00100022 1e-05
-0.0199069 0.00100067 1e-05
-0.0196103 0.00100132 1e-05
-0.0193137 0.00100219 1e-05
-0.0190172 0.00100326 1e-05
-0.0187132 0.00100466 1e-05
-0.0184093 0.00100588 1e-05
-0.0181054 0.0010071 1e-05
-0.0178015 0.00100832 1e-05
-0.0174976 0.00100953 1e-05
-0.0172058 0.00101083 1e-05
-0.016914 0.00101193 1e-05
-0.0166222 0.00101303 1e-05
-0.0163305 0.00101413 1e-05
-0.0160387 0.00101522 1e-05
-0.0157586 0.00101636 1e-05
-0.0154784 0.00101744 1e-05
-0.0151983 0.00101856 1e-05
-0.0149182 0.00101971 1e-05
-0.0146381 0.0010209 1e-05
-0.0143745 0.00102209 1e-05
-0.014111 0.00102327 1e-05
-0.0138474 0.00102449 1e-05
-0.0135839 0.00102574 1e-05
-0.0133613 0.00102682 1e-05
-0.0133477 0.00102688 1e-05
-0.0133341 0.00102695 1e-05
-0.0133206 0.00102702 1e-05
-0.013307 0.00102709 1e-05
-0.0132934 0.00102715 1e-05
-0.0130353 0.00102844 1e-05
-0.0127771 0.00102974 1e-05
-0.0125189 0.00103106 1e-05
-0.0122607 0.0010324 1e-05
-0.0120025 0.00103375 1e-05
-0.0117547 0.00103506 1e-05
-0.0115068 0.00103637 1e-05
-0.0112589 0.00103769 1e-05
-0.0110111 0.00103902 1e-05
-0.0107632 0.00104035 1e-05
-0.0105252 0.00104162 1e-05
-0.0102873 0.0010429 1e-05
-0.0100493 0.00104418 1e-05
-0.00981133 0.00104546 1e-05
-0.00957337 0.00104674 1e-05
-0.00934491 0.00104796 1e-05
-0.00911645 0.00104918 1e-05
-0.00888799 0.0010504 1e-05
-0.00865954 0.00105161 1e-05
-0.00843108 0.00105283 1e-05
-0.00821175 0.00105398 1e-05
-0.00799242 0.00105514 1e-05
-0.00777309 0.0010563 1e-05
-0.00755376 0.00105745 1e-05
-0.00733443 0.00105859 1e-05
-0.00712387 0.00105968 1e-05
-0.0069133 0.00106077 1e-05
-0.00670273 0.00106186 1e-05
-0.00649216 0.00106294 1e-05
-0.0062816 0.00106402 1e-05
-0.00607944 0.00106504 1e-05
-0.00587729 0.00106607 1e-05
-0.00567514 0.00106709 1e-05
-0.00547298 0.00106811 1e-05
-0.00527083 0.00106912 1e-05
-0.00507675 0.00107008 1e-05
-0.00488267 0.00107105 1e-05
-0.0046886 0.00107201 1e-05
-0.00449452 0.00107297 1e-05
-0.00430044 0.00107392 1e-05
-0.00411412 0.00107483 1e-05
-0.0039278 0.00107573 1e-05
-0.00374147 0.00107664 1e-05
-0.00355515 0.00107754 1e-05
-0.00336883 0.00107844 1e-05
-0.00318995 0.00107929 1e-05
-0.00301107 0.00108015 1e-05
-0.00283219 0.001081 1e-05
-0.00265331 0.00108185 1e-05
-0.00247443 0.0010827 1e-05
-0.0023027 0.00108351 1e-05
-0.00213097 0.00108432 1e-05
-0.00195924 0.00108513 1e-05
-0.0017875 0.00108594 1e-05
-0.00161577 0.00108675 1e-05
-0.0014509 0.00108751 1e-05
-0.00128603 0.00108828 1e-05
-0.00112116 0.00108906 1e-05
-0.000956289 0.00108983 1e-05
-0.000791418 0.0010906 1e-05
-0.000633135 0.00109134 1e-05
-0.000474851 0.00109209 1e-05
-0.000316567 0.00109283 1e-05
-0.000158284 0.00109358 1e-05
0 0.00109432 1e-05
0.000105677 0.00109481 1e-05
0.000211355 0.0010953 1e-05
0.000317032 0.00109579 1e-05
0.00042271 0.00109628 1e-05
0.000528387 0.00109677 1e-05
0.000634886 0.00109725 1e-05
0.000741385 0.00109773 1e-05
0.000847885 0.0010982 1e-05
0.000954384 0.00109868 1e-05
0.00106088 0.00109915 1e-05
0.00116821 0.00109962 1e-05
0.00127554 0.00110008 1e-05
0.00138286 0.00110054 1e-05
0.00149019 0.00110099 1e-05
0.00159752 0.00110144 1e-05
0.00170568 0.00110188 1e-05
0.00181384 0.00110232 1e-05
0.001922 0.00110275 1e-05
0.00203016 0.00110316 1e-05
0.00213833 0.00110358 1e-05
0.00224733 0.00110398 1e-05
0.00235633 0.00110438 1e-05
0.00246533 0.00110477 1e-05
0.00257434 0.00110515 1e-05
0.00268334 0.00110552 1e-05
0.00279319 0.00110588 1e-05
0.00290304 0.00110624 1e-05
0.00301289 0.00110659 1e-05
0.00312274 0.00110694 1e-05
0.00323259 0.00110727 1e-05
0.00334329 0.0011076 1e-05
0.003454 0.00110792 1e-05
0.0035647 0.00110823 1e-05
0.0036754 0.00110854 1e-05
0.00378611 0.00110884 1e-05
0.00389767 0.00110913 1e-05
0.00400924 0.00110942 1e-05
0.0041208 0.0011097 1e-05
0.00423237 0.00110997 1e-05
0.00434393 0.00111023 1e-05
0.00445636 0.00111048 1e-05
0.00456879 0.00111073 1e-05
0.00468123 0.00111097 1e-05
0.00479366 0.00111121 1e-05
0.00490609 0.00111143 1e-05
0.0050194 0.00111165 1e-05
0.0051327 0.00111186 1e-05
0.00524601 0.00111207 1e-05
0.00535932 0.00111226 1e-05
0.00547262 0.00111245 1e-05
0.00558681 0.00111263 1e-05
0.005701 0.0011128 1e-05
0.00581518 0.00111297 1e-05
0.00592937 0.00111313 1e-05
0.00604356 0.00111328 1e-05
0.00615863 0.00111343 1e-05
0.00627371 0.00111356 1e-05
0.00638878 0.00111369 1e-05
0.00650386 0.00111382 1e-05
0.00661893 0.00111393 1e-05
0.0067349 0.00111404 1e-05
0.00685087 0.00111414 1e-05
0.00696684 0.00111423 1e-05
0.00708281 0.00111431 1e-05
0.00719878 0.00111439 1e-05
0.00729279 0.00111445 1e-05
0.00738679 0.0011145 1e-05
0.0074808 0.00111454 1e-05
0.00757481 0.00111459 1e-05
0.0076646 0.00111462 1e-05
0.00768831 0.00111463 1e-05
0.00771201 0.00111464 1e-05
0.00773572 0.00111464 1e-05
0.00775943 0.00111465 1e-05
0.00778313 0.00111466 1e-05
0.00790091 0.00111469 1e-05
0.00801869 0.00111471 1e-05
0.00813647 0.00111473 1e-05
0.00825425 0.00111473 1e-05
0.00837203 0.00111473 1e-05
0.00849073 0.00111472 1e-05
0.00860942 0.0011147 1e-05
0.00872812 0.00111468 1e-05
0.00884682 0.00111465 1e-05
0.00896551 0.00111461 1e-05
0.00908513 0.00111455 1e-05
0.00920475 0.00111449 1e-05
0.00932437 0.00111443 1e-05
0.00944398 0.00111435 1e-05
0.0095636 0.00111427 1e-05
0.00968415 0.00111417 1e-05
0.0098047 0.00111407 1e-05
0.00992525 0.00111396 1e-05
0.0100458 0.00111385 1e-05
0.0101663 0.00111372 1e-05
0.0102878 0.00111358 1e-05
0.0104093 0.00111344 1e-05
0.0105308 0.00111329 1e-05
0.0106523 0.00111313 1e-05
0.0107738 0.00111296 1e-05
0.0108962 0.00111277 1e-05
0.0110186 0.00111258 1e-05
0.0111411 0.00111238 1e-05
0.0112635 0.00111218 1e-05
0.0113859 0.00111197 1e-05
0.0115093 0.00111173 1e-05
0.0116327 0.0011115 1e-05
0.0117561 0.00111126 1e-05
0.0118795 0.00111101 1e-05
0.0120028 0.00111075 1e-05
0.0121272 0.00111047 1e-05
0.0122515 0.00111019 1e-05
0.0123759 0.0011099 1e-05
0.0125002 0.0011096 1e-05
0.0126245 0.0011093 1e-05
0.0127498 0.00110897 1e-05
0.0128752 0.00110864 1e-05
0.0130005 0.0011083 1e-05
0.0131258 0.00110796 1e-05
0.0132511 0.0011076 1e-05
0.0133774 0.00110723 1e-05
0.0135036 0.00110685 1e-05
0.0136299 0.00110646 1e-05
0.0137562 0.00110607 1e-05
0.0138825 0.00110567 1e-05
0.0140098 0.00110524 1e-05
0.014137 0.00110481 1e-05
0.0142643 0.00110438 1e-05
0.0143915 0.00110393 1e-05
0.0145188 0.00110348 1e-05
0.0146471 0.001103 1e-05
0.0147753 0.00110253 1e-05
0.0149036 0.00110204 1e-05
0.0150318 0.00110154 1e-05
0.0151601 0.00110104 1e-05
0.0152893 0.00110051 1e-05
0.0154186 0.00109998 1e-05
0.0155478 0.00109944 1e-05
0.0156771 0.00109889 1e-05
0.0158063 0.00109834 1e-05
0.0159366 0.00109776 1e-05
0.0160668 0.00109718 1e-05
0.0161971 0.00109659 1e-05
0.0163274 0.00109599 1e-05
0.0164576 0.00109538 1e-05
0.0165889 0.00109475 1e-05
0.0167201 0.00109412 1e-05
0.0168514 0.00109347 1e-05
0.0169827 0.00109282 1e-05
0.0171139 0.00109216 1e-05
0.0172462 0.00109148 1e-05
0.0173785 0.0010908 1e-05
0.0175108 0.0010901 1e-05
0.0176431 0.00108939 1e-05
0.0177754 0.00108867 1e-05
0.0179087 0.00108795 1e-05
0.018042 0.00108721 1e-05
0.0181753 0.00108646 1e-05
0.0183087 0.00108569 1e-05
0.018442 0.00108493 1e-05
0.0185763 0.00108415 1e-05
0.0187107 0.00108336 1e-05
0.018845 0.00108255 1e-05
0.0189794 0.00108173 1e-05
0.0191137 0.00108091 1e-05
0.0192491 0.00108009 1e-05
0.0193845 0.00107925 1e-05
0.0195199 0.00107838 1e-05
0.0196553 0.00107751 1e-05
0.0197907 0.00107663 1e-05
0.0199272 0.00107576 1e-05
0.0200636 0.00107486 1e-05
0.0202001 0.00107394 1e-05
0.0203365 0.00107301 1e-05
0.020473 0.00107209 1e-05
0.0206105 0.00107116 1e-05
0.020748 0.00107021 1e-05
0.0208855 0.00106924 1e-05
0.021023 0.00106825 1e-05
0.0211606 0.00106728 1e-05
0.0212991 0.0010663 1e-05
0.0214377 0.0010653 1e-05
0.0215763 0.00106427 1e-05
0.0217149 0.00106323 1e-05
0.0218535 0.0010622 1e-05
0.0219931 0.00106117 1e-05
0.0221328 0.00106011 1e-05
0.0222724 0.00105903 1e-05
0.0224121 0.00105793 1e-05
0.0225517 0.00105685 1e-05
0.0226925 0.00105577 1e-05
0.0228332 0.00105465 1e-05
0.022974 0.00105351 1e-05
0.0231147 0.00105237 1e-05
0.0232555 0.00105123 1e-05
0.0233973 0.00105009 1e-05
0.0235391 0.00104892 1e-05
0.023681 0.00104773 1e-05
0.0238228 0.00104653 1e-05
0.0239647 0.00104533 1e-05
0.0241076 0.00104414 1e-05
0.0242505 0.00104292 1e-05
0.0243935 0.00104167 1e-05
0.0245364 0.00104041 1e-05
0.0246794 0.00103916 1e-05
0.0248234 0.00103791 1e-05
0.0249675 0.00103663 1e-05
0.0251115 0.00103533 1e-05
0.0252556 0.00103401 1e-05
[...]
POINT_DATA 12040
 FIELD attributes 1
U 3 12040 float
10.0004 	0.00731834 	0 10.0004 	0.00585467 	0 10.0003 	0.004391 	0 10.0002 	0.00292734 	0 10.0001 	0.00146367 	0 10 	0 	0
10.0001 	0.000879542 	0 10 	0.000703634 	0 10 	0.000527725 	0 10 	0.000351817 	0 10 	0.000175908 	0 10 	0 	0
10.0001 	0.000466612 	0 10.0001 	0.000373099 	0 10.0001 	0.000279586 	0 10 	0.000186074 	0 10 	9.25608e-05 	0 10 	0 	0
10 	0.000266718 	0 10 	0.000213374 	0 10 	0.000160031 	0 10 	0.000106687 	0 10 	5.33435e-05 	0 10 	0 	0
10 	8.10534e-05 	0 10 	6.48427e-05 	0 10 	4.8632e-05 	0 10 	3.24214e-05 	0 10 	1.62107e-05 	0 10 	0 	0
10 	-2.56436e-05 	0 10 	-2.05148e-05 	0 10 	-1.53861e-05 	0 10 	-1.02574e-05 	0 10 	-5.12871e-06 	0 10 	0 	0
10 	-0.000215732 	0 10 	-0.000172586 	0 10 	-0.000129439 	0 10 	-8.62928e-05 	0 10 	-4.31464e-05 	0 10 	0 	0
10 	-0.000377569 	0 10 	-0.000302055 	0 10 	-0.000226542 	0 10 	-0.000151028 	0 10 	-7.55139e-05 	0 10 	0 	0
9.99999 	-0.000427397 	0 9.99999 	-0.000341917 	0 9.99999 	-0.000256438 	0 10 	-0.000170959 	0 10 	-8.54793e-05 	0 10 	0 	0
9.17387 	0.0870992 	0 9.1308 	0.0696794 	0 9.08741 	0.0522593 	0 9.04368 	0.0348389 	0 8.99962 	0.0174184 	0 8.95524 	0 	0
10.0004 	0.00731834 	0 10.0024 	0.0151686 	0 10.0045 	0.0221874 	0 10.0065 	0.0291619 	0 10.0085 	0.0360925 	0 10.0135 	0.0463077 	0 10.0163 	0.0402067 	0 10.0207 	0.040165 	0 10.0252 	0.0401235 	0 10.0296 	0.0400822 	0 10.0356 	0.0445427 	0 10.0384 	0.0379021 	0 10.0424 	0.037858 	0 10.0464 	0.0378138 	0 10.0504 	0.0377696 	0 10.0545 	0.0408709 	0 10.0567 	0.0387929 	0 10.0592 	0.040102 	0 10.0616 	0.0414127 	0 10.064 	0.0427251 	0 10.0662 	0.0451833 	0 10.0677 	0.0452943 	0 10.069 	0.0464966 	0 10.0704 	0.0477 	0 10.0717 	0.0489046 	0 10.0728 	0.0499229 	0 10.0729 	0.0499854 	0 10.073 	0.0500479 	0 10.073 	0.0501104 	0 10.0731 	0.0501729 	0 10.0732 	0.050226 	0 10.0737 	0.0508528 	0 10.0742 	0.0514736 	0 10.0748 	0.0520949 	0 10.0753 	0.0527168 	0 10.0758 	0.0531745 	0 10.0757 	0.0534704 	0 10.0753 	0.0536609 	0 10.075 	0.0538515 	0 10.0746 	0.0540422 	0 10.0741 	0.0539944 	0 10.0736 	0.0541398 	0 10.0725 	0.0541168 	0 10.0715 	0.0540938 	0 10.0704 	0.0540708 	0 10.0688 	0.0537785 	0 10.0684 	0.0538595 	0 10.0668 	0.0537267 	0 10.0652 	0.0535938 	0 10.0636 	0.0534609 	0 10.061 	0.0530415 	0 10.061 	0.0530967 	0 10.059 	0.0529032 	0 10.057 	0.0527095 	0 10.0549 	0.0525159 	0 10.0514 	0.0520233 	0 10.052 	0.0520778 	0 10.0497 	0.0518585 	0 10.0474 	0.051639 	0 10.0451 	0.0514196 	0 10.0404 	0.0508931 	0 10.0419 	0.0509683 	0 10.0394 	0.050745 	0 10.0369 	0.0505217 	0 10.0343 	0.0502983 	0 10.0286 	0.0497548 	0 10.031 	0.0498577 	0 10.0284 	0.0496475 	0 10.0257 	0.0494372 	0 10.0231 	0.0492268 	0 10.0162 	0.0486894 	0 10.0198 	0.0488304 	0 10.0171 	0.0486353 	0 10.0143 	0.0484402 	0 10.0116 	0.0482451 	0 10.0035 	0.0477057 	0 10.0083 	0.0478874 	0 10.0056 	0.0477495 	0 10.0029 	0.0476115 	0 10.0001 	0.0474735 	0 9.99084 	0.047001 	0 9.99702 	0.0472588 	0 9.99431 	0.0471453 	0 9.99161 	0.0470317 	0 9.9889 	0.0469181 	0 9.97844 	0.0464158 	0 9.986 	0.0466941 	0 9.98338 	0.0467445 	0 9.98077 	0.0467948 	0 9.97815 	0.0468451 	0 9.96654 	0.0465714 	0 9.97561 	0.0469558 	7.9449e-22 9.97365 	0.0469117 	5.21293e-21 9.97169 	0.0468677 	9.6314e-21 9.96972 	0.0468236 	1.40499e-20 9.95767 	0.0463071 	1.19026e-20 9.96802 	0.046484 	8.24035e-20 9.9663 	0.0462123 	7.65061e-20 9.96458 	0.0459407 	7.06059e-20 9.96285 	0.045669 	6.47031e-20 9.9506 	0.0449957 	-1.31731e-20 9.96083 	0.044948 	-3.56781e-20 9.95915 	0.0446241 	-3.967e-20 9.95746 	0.0443001 	-4.36605e-20 9.95578 	0.0439761 	-4.76495e-20 9.94368 	0.0433713 	-1.86571e-20 9.95346 	0.0431392 	-1.64299e-20 9.95159 	0.0425378 	-1.14275e-20 9.94972 	0.0419364 	-6.42548e-21 9.94784 	0.0413348 	-1.42386e-21 9.9359 	0.0405164 	6.20332e-21 9.94527 	0.0401992 	-4.90519e-21 9.94316 	0.0393687 	-2.1201e-20 9.94105 	0.038538 	-3.74986e-20 9.93894 	0.0377071 	-5.3798e-20 9.92704 	0.0366002 	-7.68441e-20 9.93586 	0.0363651 	-1.0894e-19 9.93339 	0.0355365 	-9.81153e-20 9.93091 	0.0347076 	-8.72837e-20 9.92844 	0.0338785 	-7.64455e-20 9.9165 	0.0326416 	-2.61362e-20 9.92461 	0.0325288 	3.06653e-20 9.92173 	0.0317798 	4.24846e-20 9.91885 	0.0310306 	5.42957e-20 9.91597 	0.0302812 	6.60985e-20 9.90405 	0.0290218 	3.22091e-20 9.91136 	0.0289439 	-4.16558e-20 9.90809 	0.0282297 	-4.69875e-20 9.90481 	0.0275153 	-5.23065e-20 9.90152 	0.0268006 	-5.76127e-20 9.88973 	0.0255553 	-2.80962e-22 9.89611 	0.0254372 	5.38762e-20 9.89242 	0.0247304 	4.56419e-20 9.88871 	0.0240233 	3.73949e-20 9.885 	0.0233159 	2.91352e-20 9.8734 	0.0221221 	-2.49739e-20 9.87868 	0.0219391 	-7.35174e-20 9.87451 	0.0212388 	-9.29792e-20 9.87034 	0.0205382 	-1.12436e-19 9.86616 	0.0198373 	-1.31888e-19 9.85485 	0.0187237 	-1.19524e-19 9.8588 	0.0184727 	-1.37082e-19 9.85415 	0.017783 	-1.26186e-19 9.84948 	0.0170931 	-1.15286e-19 9.84482 	0.0164028 	-1.04382e-19 9.83395 	0.0153835 	-7.301e-20 9.83632 	0.0150724 	-6.14231e-20 9.83117 	0.0143984 	-4.52085e-20 9.82603 	0.0137241 	-2.89954e-20 9.82087 	0.0130496 	-1.27839e-20 9.81069 	0.0121266 	1.88237e-21 9.81116 	0.0117488 	0 9.80555 	0.0110853 	0 9.79992 	0.0104215 	0 9.79429 	0.00975746 	0 9.7851 	0.00892555 	0 9.78332 	0.00846694 	-1.44136e-20 9.77723 	0.00780904 	-3.10479e-20 9.77114 	0.00715082 	-4.76836e-20 9.76504 	0.00649228 	-6.43209e-20 9.7572 	0.0057536 	-8.1607e-20 9.75402 	0.00532595 	-8.55304e-20 9.74876 	0.00480139 	-8.60521e-20 9.74349 	0.00427661 	-8.65707e-20 9.73822 	0.0037516 	-8.70864e-20 9.73317 	0.0032499 	-8.75761e-20 9.73183 	0.00311667 	-8.79058e-20 9.73048 	0.00298343 	-8.82356e-20 9.72913 	0.00285017 	-8.85654e-20 9.72778 	0.00271689 	-8.88952e-20 9.72514 	0.00252512 	-8.88905e-20 9.71927 	0.00192886 	-6.48721e-20 9.7122 	0.00127888 	-3.93204e-20 9.70512 	0.000628501 	-1.37771e-20 9.69802 	-2.22873e-05 	1.17576e-20 9.68328 	-0.00101158 	4.41385e-20 9.68281 	-0.00135151 	4.49359e-20 9.6753 	-0.00199682 	4.59324e-20 9.66778 	-0.00264258 	4.69269e-20 9.66026 	-0.00328878 	4.79195e-20 9.63887 	-0.0045241 	5.06402e-20 9.64366 	-0.00463922 	3.99353e-20 9.63573 	-0.00527962 	2.92281e-20 9.6278 	-0.00592051 	1.85199e-20 9.61986 	-0.00656187 	7.81066e-21 9.59217 	-0.00799761 	-8.98576e-22 9.60191 	-0.00793255 	-7.36775e-21 9.5936 	-0.00856903 	-1.75976e-20 9.58528 	-0.00920602 	-2.78264e-20 9.57694 	-0.00984353 	-3.80542e-20 9.54344 	-0.0114275 	-4.8295e-20 9.55773 	-0.0112332 	-4.842e-20 9.54905 	-0.0118679 	-5.48948e-20 9.54037 	-0.0125031 	-6.13668e-20 9.53167 	-0.0131389 	-6.78359e-20 9.49298 	-0.0148156 	-8.41108e-20 9.51131 	-0.0145432 	-1.30946e-19 9.5023 	-0.0151758 	-1.22595e-19 9.49327 	-0.015809 	-1.14255e-19 9.48424 	-0.0164427 	-1.05928e-19 9.44104 	-0.0181509 	-3.65186e-20 9.46284 	-0.0178513 	-2.34724e-20 9.45351 	-0.0184817 	-1.64868e-20 9.44418 	-0.0191127 	-9.50046e-21 9.43483 	-0.0197444 	-2.5134e-21 9.38786 	-0.0214275 	0 9.41253 	-0.0211505 	0 9.40292 	-0.0217803 	0 9.3933 	-0.0224107 	0 9.38367 	-0.0230418 	0 9.33369 	-0.0246487 	0 9.36063 	-0.0244431 	1.51345e-21 9.35077 	-0.0250735 	8.01803e-21 9.34089 	-0.0257047 	1.45219e-20 9.331 	-0.0263366 	2.10251e-20 9.27874 	-0.0278166 	3.67043e-20 9.30739 	-0.0277314 	1.39806e-19 9.2973 	-0.0283623 	1.4239e-19 9.28719 	-0.0289939 	1.44986e-19 9.27706 	-0.0296262 	1.47596e-19 9.22324 	-0.030927 	3.68721e-20 9.25304 	-0.0310041 	1.98375e-20 9.24274 	-0.0316341 	1.40111e-20 9.23243 	-0.0322649 	8.18396e-21 9.22016 	-0.0329157 	3.17507e-21 9.16736 	-0.0339726 	1.53376e-20 9.19443 	-0.0342769 	9.24165e-20 9.18736 	-0.0348759 	1.00387e-19 9.17686 	-0.035505 	1.01485e-19 9.16045 	-0.0361592 	8.9335e-20 9.11128 	-0.0369498 	3.49294e-21 9.135 	-0.0374721 	-8.77483e-20 9.13136 	-0.0380774 	-1.13503e-19 9.12071 	-0.0387044 	-1.2253e-19 9.10087 	-0.0393108 	-1.13654e-19 9.05517 	-0.0398578 	-5.42382e-20 9.07575 	-0.0405769 	-1.57592e-19 9.07498 	-0.0412315 	-1.9195e-19 9.0642 	-0.0418563 	-1.93977e-19 9.0416 	-0.0423702 	-1.53501e-19 8.99917 	-0.0426971 	-4.1577e-20 9.01683 	-0.0435912 	-2.19299e-20 9.01843 	-0.0443324 	-9.72332e-21 9.00753 	-0.0449547 	-3.29858e-21 8.98278 	-0.0453382 	0 8.94342 	-0.0454693 	0 8.95839 	-0.0465171 	0 8.96189 	-0.047376 	0 8.9509 	-0.047996 	0 8.92454 	-0.0482178 	1.76601e-21 8.88804 	-0.0481766 	4.69804e-21 8.90055 	-0.0493573 	1.90362e-21 8.90554 	-0.050359 	0 8.89448 	-0.0509765 	0 8.867 	-0.0510124 	2.11422e-21 8.83314 	-0.0508222 	5.05001e-21 8.84341 	-0.0521164 	2.25522e-21 8.84954 	-0.0532804 	1.12537e-21 8.83843 	-0.0538957 	6.95868e-21 8.81025 	-0.0537274 	2.16302e-20 8.77881 	-0.0534098 	3.79845e-20 8.78706 	-0.0547985 	1.49129e-19 8.79402 	-0.0561385 	2.53286e-19 8.78288 	-0.0567516 	2.5638e-19 8.75435 	-0.0563674 	1.49583e-19 8.72515 	-0.0559435 	3.84441e-20 8.73158 	-0.0574104 	2.23283e-20 8.73795 	-0.0588788 	6.21375e-21 8.72658 	-0.0594505 	2.42869e-22 8.6994 	-0.0589395 	3.06964e-21 8.67223 	-0.0584283 	5.89628e-21 8.67702 	-0.0599574 	3.21456e-21 8.68175 	-0.0614881 	5.33596e-22 8.67076 	-0.0620291 	1.94064e-21 8.64544 	-0.0614483 	-1.51971e-21 8.62012 	-0.060867 	-4.9792e-21 8.62345 	-0.0624443 	-4.34524e-20 8.62672 	-0.0640231 	-8.19291e-20 8.61615 	-0.0645345 	-8.31165e-20 8.59251 	-0.0639003 	-4.79161e-20 8.56889 	-0.0632657 	-1.27141e-20 8.57091 	-0.0648834 	7.52529e-20 8.57288 	-0.0665027 	1.63215e-19 8.56277 	-0.0669866 	1.70765e-19 8.54066 	-0.0663111 	9.74734e-20 8.51857 	-0.065635 	2.41817e-20 8.51945 	-0.0672863 	1.40666e-20 8.52028 	-0.0689392 	3.9482e-21 8.51066 	-0.0693966 	4.36484e-22 8.48993 	-0.0686881 	4.53284e-21 8.46922 	-0.0679791 	8.63075e-21 8.4691 	-0.069649 	3.7076e-21 8.46892 	-0.0713206 	-1.22022e-21 8.4598 	-0.0717512 	-1.84771e-20 8.44032 	-0.0710239 	-6.29184e-20 8.42085 	-0.0702961 	-1.07362e-19 8.41985 	-0.0719679 	-2.23665e-19 8.41879 	-0.0736414 	-3.39963e-19 8.41019 	-0.0740476 	-3.26442e-19 8.39182 	-0.0733216 	-1.93123e-19 8.37347 	-0.0725951 	-5.98056e-20 8.3717 	-0.0742629 	5.03305e-20 8.3698 	-0.0759194 	1.59378e-19 8.36142 	-0.0762739 	1.57214e-19 8.34444 	-0.0756054 	8.03735e-20 8.3271 	-0.0748924 	3.10064e-22 8.32464 	-0.0765522 	-7.91628e-20 8.32128 	-0.0780192 	-1.47983e-19 8.31304 	-0.0783822 	-1.56186e-19 8.29816 	-0.07789 	-1.01783e-19 8.28174 	-0.077198 	-3.2782e-20 8.27868 	-0.0788471 	-2.28195e-20 8.27412 	-0.0801256 	-1.29443e-20 8.26602 	-0.0804983 	-3.27686e-21 8.25296 	-0.0801845 	1.20963e-20 8.23738 	-0.0795183 	3.03968e-20 8.23378 	-0.0811545 	1.09861e-20 8.22827 	-0.0822474 	-2.23903e-21 8.2203 	-0.0826312 	-7.39689e-21 8.20883 	-0.0824962 	-3.17967e-21 8.19401 	-0.0818602 	1.00847e-20 8.18993 	-0.083483 	-4.64228e-21 8.18366 	-0.0843958 	-1.41327e-20 8.17581 	-0.0847925 	-1.98157e-20 8.16573 	-0.0848351 	-3.03081e-20 8.1516 	-0.0842329 	-4.95522e-20 8.1471 	-0.0858426 	4.69676e-20 8.14025 	-0.0865821 	7.49558e-20 8.13252 	-0.0869932 	7.70625e-20 8.12363 	-0.0872111 	6.23865e-20 8.11013 	-0.0866453 	-2.02447e-20 8.10525 	-0.0882425 	6.12474e-20 8.09798 	-0.088816 	7.39179e-20 8.09035 	-0.0892429 	7.67121e-20 8.0825 	-0.0896329 	7.67437e-20 8.06958 	-0.0891059 	8.91233e-21 8.06431 	-0.0906629 	-5.92326e-22 8.05679 	-0.0911068 	-4.02602e-22 8.04926 	-0.091551 	-2.12898e-22 8.04171 	-0.0919955 	-2.32151e-23 8.02991 	-0.0916226 	1.55398e-20 8.02407 	-0.0930004 	0 8.01664 	-0.0934629 	0 8.0092 	-0.0939256 	0 8.00174 	-0.0943887 	0 7.99109 	-0.0942034 	1.27393e-20 7.98481 	-0.0954103 	0 7.97747 	-0.0958925 	0 7.97011 	-0.0963751 	0 7.96273 	-0.0968579 	0 7.9531 	-0.096856 	0 7.94649 	-0.0978999 	0 7.93922 	-0.0984032 	0 7.93194 	-0.0989068 	0 7.92463 	-0.0994106 	0 7.91588 	-0.099588 	-6.55516e-21 7.90905 	-0.100477 	0 7.90185 	-0.101002 	0 7.89462 	-0.101528 	0 7.88738 	-0.102054 	0 7.87941 	-0.102406 	-7.15608e-21 7.87242 	-0.103148 	0 7.86528 	-0.103696 	0 7.85812 	-0.104245 	0 7.85093 	-0.104794 	0 7.84363 	-0.105318 	-1.08841e-21 7.84238 	-0.105449 	-1.37401e-21 7.84111 	-0.105551 	-3.01922e-21 7.83985 	-0.105653 	-4.66448e-21 7.83858 	-0.105756 	-6.30978e-21 7.83733 	-0.105857 	-7.94221e-21 7.83133 	-0.106329 	-1.5001e-20 7.82532 	-0.106802 	-2.2059e-20 7.81929 	-0.107274 	-2.91161e-20 7.81324 	-0.107747 	-3.61723e-20 7.80787 	-0.108088 	-4.32333e-20 7.80037 	-0.108807 	-4.13403e-20 7.79311 	-0.109407 	-4.07548e-20 7.78582 	-0.110008 	-4.01665e-20 7.77851 	-0.110608 	-3.95755e-20 7.77267 	-0.110921 	-4.19259e-20 7.7649 	-0.111808 	-3.2632e-20 7.75766 	-0.112435 	-2.33235e-20 7.75041 	-0.113062 	-1.40137e-20 7.74313 	-0.113689 	-4.70242e-21 7.73812 	-0.113878 	0 7.73005 	-0.11493 	-1.99677e-21 7.72284 	-0.115585 	-6.25907e-21 7.7156 	-0.116239 	-1.05206e-20 7.70834 	-0.116894 	-1.47815e-20 7.70414 	-0.116965 	-1.90138e-20 7.69578 	-0.118178 	-4.62006e-20 7.68858 	-0.118861 	-6.37633e-20 7.68136 	-0.119544 	-8.13276e-20 7.67411 	-0.120228 	-9.88934e-20 7.67068 	-0.120188 	-8.8861e-20 7.66202 	-0.121558 	-6.74384e-20 7.65483 	-0.122272 	-5.74808e-20 7.64762 	-0.122985 	-4.75168e-20 7.64057 	-0.123663 	-3.89379e-20 7.63771 	-0.123557 	-6.04671e-20 7.62895 	-0.124993 	-7.28915e-20 7.62155 	-0.125826 	-6.02091e-20 7.61433 	-0.126572 	-4.38685e-20 7.60809 	-0.127132 	-2.44667e-20 7.60516 	-0.127078 	5.02761e-21 7.59641 	-0.128529 	8.84506e-21 7.58868 	-0.129531 	7.11088e-21 7.58145 	-0.13031 	2.59671e-21 7.576 	-0.130757 	0 7.57298 	-0.130755 	0 7.56424 	-0.132222 	0 7.55617 	-0.13339 	0 7.54892 	-0.134202 	0 7.54423 	-0.134542 	0 7.54112 	-0.134594 	0 7.53238 	-0.136077 	0 7.52397 	-0.137408 	-3.76352e-21 7.51669 	-0.138253 	-1.94121e-20 7.51274 	-0.138493 	-3.51174e-20 7.50954 	-0.138598 	-5.08354e-20 7.50079 	-0.1401 	-3.3803e-20 7.49202 	-0.14159 	-1.66887e-20 7.48478 	-0.142456 	3.70278e-21 7.48147 	-0.142614 	7.33711e-21 7.47816 	-0.142772 	1.09714e-20 7.46939 	-0.144295 	3.97581e-20 7.46057 	-0.145817 	6.85432e-20 7.4538 	-0.146698 	8.11373e-20 7.45038 	-0.14691 	6.79099e-20 7.44695 	-0.147121 	5.46806e-20 7.43816 	-0.148665 	3.33684e-20 7.42931 	-0.150209 	1.20481e-20 7.42295 	-0.151119 	3.59526e-21 7.41941 	-0.151384 	1.18527e-20 7.41586 	-0.151649 	2.01111e-20 7.40703 	-0.153215 	7.6086e-20 7.39815 	-0.154782 	1.32064e-19 7.39218 	-0.155723 	1.32676e-19 7.38851 	-0.156041 	7.72987e-20 7.38482 	-0.156359 	2.19196e-20 7.37595 	-0.157949 	1.4407e-20 7.36703 	-0.15954 	6.89763e-21 7.36144 	-0.160513 	6.99192e-21 7.35762 	-0.160883 	1.50387e-20 7.35378 	-0.161254 	2.30867e-20 7.34487 	-0.162869 	7.76644e-20 7.33624 	-0.164425 	1.26942e-19 7.33088 	-0.165405 	1.24899e-19 7.32669 	-0.165914 	7.89365e-20 7.3227 	-0.166337 	2.49822e-20 7.31373 	-0.167978 	1.77044e-20 7.30586 	-0.169419 	1.03913e-20 7.30038 	-0.170439 	2.99958e-21 7.29568 	-0.171135 	0 7.29153 	-0.171609 	0 7.28249 	-0.173277 	0 7.27535 	-0.174608 	0 7.26973 	-0.175667 	0 7.26454 	-0.176548 	0 7.26021 	-0.177074 	0 7.25109 	-0.178769 	0 7.24465 	-0.179992 	0 7.2389 	-0.181091 	0 7.2332 	-0.182154 	9.69671e-22 7.22868 	-0.182731 	1.48765e-20 7.2196 	-0.184433 	2.75511e-22 7.21373 	-0.185572 	7.84122e-21 7.20782 	-0.186711 	1.54091e-20 7.20187 	-0.187851 	2.29792e-20 7.19691 	-0.188582 	3.35143e-20 7.18855 	-0.19017 	8.86544e-20 7.18253 	-0.191349 	9.2409e-20 7.17646 	-0.192528 	9.61428e-20 7.17035 	-0.193707 	9.98557e-20 7.16484 	-0.194626 	5.41525e-20 7.15719 	-0.196104 	9.20901e-20 7.15099 	-0.197322 	8.14519e-20 7.14475 	-0.19854 	7.07925e-20 7.13847 	-0.199758 	6.01118e-20 7.13242 	-0.200865 	3.48966e-20 7.12691 	-0.201943 	3.31211e-20 7.12201 	-0.20291 	3.34564e-20 7.11709 	-0.203878 	3.37945e-20 7.11214 	-0.204845 	3.41356e-20 7.10741 	-0.205764 	3.44624e-20 7.10582 	-0.206063 	3.41867e-20 7.10422 	-0.206362 	3.39107e-20 7.10262 	-0.206661 	3.36345e-20 7.10102 	-0.206961 	3.33579e-20 7.09971 	-0.207229 	3.38188e-20 7.09284 	-0.208554 	3.22992e-20 7.08608 	-0.209848 	3.14809e-20 7.07928 	-0.211142 	3.06575e-20 7.07244 	-0.212436 	2.9829e-20 7.06705 	-0.213569 	3.39685e-20 7.05928 	-0.215064 	3.55555e-20 7.05233 	-0.216396 	2.98958e-20 7.04533 	-0.217728 	2.42438e-20 7.03829 	-0.21906 	1.85996e-20 7.03392 	-0.220102 	1.91793e-21 7.02523 	-0.221766 	-2.29942e-22 7.01807 	-0.223135 	-1.55164e-22 7.01086 	-0.224504 	-8.03592e-23 7.0036 	-0.225873 	-5.52586e-24 7.00027 	-0.226825 	0 6.99074 	-0.228637 	0 6.98325 	-0.230062 	-1.12221e-20 6.97582 	-0.231467 	-2.30219e-20 6.96931 	-0.232772 	-3.40791e-20 6.96606 	-0.233733 	-4.26033e-20 6.9563 	-0.235574 	-3.21085e-20 6.94783 	-0.237173 	-1.99983e-20 6.94017 	-0.238614 	-6.83355e-21 6.93472 	-0.239821 	2.67316e-21 6.93123 	-0.240823 	8.96173e-21 6.92125 	-0.242693 	3.5441e-21 6.91176 	-0.244464 	2.45586e-21 6.90386 	-0.245939 	1.44138e-20 6.8995 	-0.247047 	3.15787e-20 6.89575 	-0.248089 	4.96972e-20 6.88554 	-0.249986 	3.07577e-20 6.87526 	-0.251884 	1.18146e-20 6.86755 	-0.253366 	-3.65793e-22 6.86358 	-0.254446 	-3.19614e-21 6.85958 	-0.255525 	-6.02772e-21 6.84912 	-0.257449 	-5.0095e-20 6.83859 	-0.259373 	-9.41635e-20 6.83118 	-0.260895 	-9.9083e-20 6.82694 	-0.26201 	-6.44696e-20 6.82267 	-0.263126 	-2.98563e-20 6.81196 	-0.265075 	-6.49724e-20 6.80118 	-0.267024 	-1.00095e-19 6.79405 	-0.268585 	-9.83781e-20 6.78953 	-0.269734 	-6.1619e-20 6.78498 	-0.270883 	-2.48588e-20 6.77401 	-0.272857 	-6.17073e-20 6.7637 	-0.274758 	-9.0653e-20 6.75676 	-0.276319 	-8.25834e-20 6.75133 	-0.27761 	-5.0628e-20 6.74649 	-0.278791 	-9.07012e-21 6.73526 	-0.280787 	-6.74591e-21 6.72614 	-0.282567 	-4.31015e-21 6.71892 	-0.284155 	-1.77505e-21 6.7123 	-0.28563 	0 6.70717 	-0.286842 	0 6.69565 	-0.28886 	0 6.68775 	-0.290516 	0 6.68024 	-0.292128 	0 6.67268 	-0.29374 	0 6.66697 	-0.295028 	0 6.65624 	-0.296961 	-6.83805e-22 6.6485 	-0.298595 	-3.32135e-21 6.6407 	-0.30023 	-5.96017e-21 6.63284 	-0.301864 	-8.60026e-21 6.62587 	-0.30334 	-7.16883e-21 6.61676 	-0.305067 	-2.31445e-20 6.60908 	-0.306648 	-2.0408e-20 6.60135 	-0.308229 	-1.7654e-20 6.59357 	-0.30981 	-1.48825e-20 6.58624 	-0.311288 	-1.22746e-20 6.58575 	-0.311383 	-1.21483e-20 6.58525 	-0.311477 	-1.20219e-20 6.58475 	-0.311571 	-1.18955e-20 6.58425 	-0.311665 	-1.1769e-20 6.58381 	-0.311751 	-1.23309e-20 6.57502 	-0.313431 	-5.44811e-21 6.56618 	-0.315102 	1.43665e-21 6.55729 	-0.316773 	8.31998e-21 6.54833 	-0.318443 	1.52019e-20 6.54047 	-0.319967 	2.08172e-20 6.5308 	-0.321818 	1.87778e-20 6.52163 	-0.323506 	1.99695e-20 6.51239 	-0.325193 	2.1154e-20 6.50309 	-0.32688 	2.23312e-20 6.49603 	-0.32828 	3.2353e-20 6.4855 	-0.330285 	3.86286e-20 6.47593 	-0.332004 	3.72697e-20 6.46634 	-0.333706 	3.54654e-20 6.45753 	-0.335305 	2.84987e-20 6.45048 	-0.33668 	1.01566e-20 6.43959 	-0.338693 	2.62234e-20 6.42906 	-0.340587 	3.38798e-20 6.41913 	-0.342301 	2.8971e-20 6.41117 	-0.343768 	9.71235e-21 6.4038 	-0.345157 	-1.40066e-20 6.39253 	-0.347177 	-8.15352e-21 6.38119 	-0.349197 	-2.30222e-21 6.37132 	-0.350897 	-2.18364e-21 6.36366 	-0.352299 	-1.67892e-21 6.35595 	-0.3537 	-1.16965e-21 6.34431 	-0.355725 	8.86089e-24 6.33259 	-0.35775 	1.19394e-21 6.32298 	-0.359477 	3.00855e-21 6.31498 	-0.360889 	7.32688e-21 6.30692 	-0.3623 	1.16483e-20 6.2949 	-0.364328 	8.17858e-21 6.28331 	-0.366296 	4.70928e-21 6.27386 	-0.368005 	1.23041e-21 6.2651 	-0.369526 	0 6.25669 	-0.370945 	0 6.24429 	-0.372974 	0 6.23369 	-0.374786 	0 6.22388 	-0.376497 	0 6.21403 	-0.378202 	0 6.20525 	-0.379626 	0 6.19299 	-0.381594 	7.01914e-22 6.18289 	-0.383305 	4.36015e-21 6.17272 	-0.385016 	8.02071e-21 6.16248 	-0.386726 	1.16836e-20 6.15259 	-0.388333 	1.53537e-20 6.14612 	-0.389356 	1.47037e-20 6.14043 	-0.390289 	1.50831e-20 6.13471 	-0.391221 	1.5464e-20 6.12897 	-0.392153 	1.58463e-20 6.12342 	-0.393052 	1.62164e-20 6.11876 	-0.393837 	1.72322e-20 6.11408 	-0.394622 	1.82511e-20 6.10939 	-0.395408 	1.92731e-20 6.10468 	-0.396193 	2.0298e-20 6.10004 	-0.396901 	1.73576e-20 6.0899 	-0.398699 	1.44579e-20 6.07948 	-0.400409 	9.61981e-21 6.06899 	-0.402119 	4.79096e-21 6.05843 	-0.403828 	-2.86079e-23 6.04805 	-0.405292 	-1.15402e-20 6.03801 	-0.407276 	-3.27008e-20 6.02722 	-0.408981 	-3.23184e-20 6.01635 	-0.410686 	-3.19517e-20 6.00552 	-0.412294 	-2.63966e-20 5.99484 	-0.413678 	-8.68744e-21 5.