/*--------------------------------*- C++ -*----------------------------------*\
  =========                 |
  \\      /  F ield         | OpenFOAM: The Open Source CFD Toolbox
   \\    /   O peration     | Website:  https://openfoam.org
    \\  /    A nd           | Version:  8
     \\/     M anipulation  |
\*---------------------------------------------------------------------------*/
FoamFile
{
    version     2.0;
    format      ascii;
    class       volScalarField;
    location    "120";
    object      epsilon;
}
// * * * * * * * * * * * * * * * * * * * * * * * * * * * * * * * * * * * * * //

dimensions      [0 2 -3 0 0 0 0];

internalField   nonuniform List<scalar> 
12225
(
285.525
270.709
257.908
243.823
232.438
223.118
216.763
212.715
212.745
213.98
217.233
220.943
228.138
232.817
241.546
246.328
256.849
254.951
52.4851
91.9051
106.953
114.785
124.812
136.846
152.658
169.989
191.147
211.047
235.404
255.655
281.526
299.652
325.806
340.351
366.106
382.711
20.5251
34.8842
44.662
50.4877
55.3762
59.6367
64.6382
69.6842
76.2989
83.2515
91.4471
99.4466
108.233
117.223
125.7
136.016
142.994
155.938
16.0032
19.4899
24.074
27.5724
30.4872
32.8822
35.1443
37.3106
39.4911
41.9442
44.3302
47.2493
49.6897
53.1275
55.4702
59.4197
61.6055
66.1953
15.0387
15.7137
17.3958
19.0826
20.635
22.0313
23.2416
24.4381
25.4399
26.6045
27.5215
28.7737
29.638
31.0124
31.8391
33.327
34.1197
35.8192
14.7897
14.8259
15.2492
15.8689
16.5655
17.2892
17.9218
18.587
19.1178
19.7377
20.1934
20.8046
21.2122
21.8327
22.2097
22.8505
23.1913
23.9207
14.7657
14.6147
14.6409
14.7261
14.9342
15.2207
15.4909
15.8099
16.0705
16.384
16.6185
16.9224
17.1329
17.4314
17.621
17.9236
18.0843
18.4326
14.7686
14.5867
14.4659
14.3803
14.3676
14.3895
14.4394
14.5336
14.6183
14.7371
14.831
14.9573
15.0486
15.1781
15.2632
15.3974
15.4685
15.6327
14.768
14.591
14.4348
14.2963
14.185
14.1043
14.0398
14.0067
13.9813
13.9786
13.9809
13.9919
14.004
14.0305
14.0471
14.0829
14.0992
14.1562
14.7665
14.594
14.432
14.282
14.1429
14.0219
13.9115
13.8193
13.7369
13.6697
13.6101
13.5633
13.5181
13.4873
13.4518
13.4349
13.4027
13.403
14.7659
14.5945
14.4321
14.2803
14.1361
14.0032
13.8781
13.7643
13.6581
13.5628
13.4734
13.3951
13.3197
13.256
13.1915
13.1409
13.0841
13.0459
14.7657
14.5943
14.4321
14.2798
14.1353
13.9998
13.8714
13.7518
13.6384
13.5336
13.4339
13.3429
13.2555
13.177
13.1002
13.0328
12.9649
12.9078
14.7657
14.5941
14.432
14.2794
14.1349
13.9989
13.8698
13.7484
13.6331
13.5249
13.4219
13.3256
13.2337
13.1483
13.0662
12.9906
12.9173
12.8506
14.7657
14.5939
14.4318
14.279
14.1346
13.9982
13.8691
13.7472
13.6315
13.5222
13.4184
13.3203
13.227
13.139
13.0551
12.976
12.9005
12.8295
14.7657
14.5938
14.4317
14.2787
14.1342
13.9977
13.8686
13.7464
13.6307
13.5211
13.4171
13.3185
13.2249
13.1361
13.0517
12.9717
12.8955
12.8232
14.7657
14.5937
14.4316
14.2785
14.1339
13.9973
13.8681
13.7458
13.63
13.5202
13.4162
13.3175
13.2237
13.1348
13.0502
12.9699
12.8935
12.8209
14.7657
14.5937
14.4315
14.2783
14.1337
13.997
13.8677
13.7453
13.6294
13.5196
13.4154
13.3166
13.2228
13.1338
13.0491
12.9687
12.8922
12.8194
14.7657
14.5937
14.4314
14.2782
14.1335
13.9968
13.8674
13.745
13.629
13.5191
13.4149
13.316
13.2222
13.133
13.0483
12.9678
12.8912
12.8183
14.7657
14.5937
14.4314
14.2782
14.1335
13.9967
13.8673
13.7448
13.6288
13.5189
13.4146
13.3157
13.2218
13.1326
13.0478
12.9672
12.8906
12.8177
14.7657
14.5937
14.4314
14.2782
14.1336
13.9968
13.8674
13.745
13.629
13.5191
13.4148
13.3159
13.222
13.1328
13.048
12.9674
12.8908
12.8178
14.7657
14.5937
14.4315
14.2784
14.1338
13.997
13.8677
13.7453
13.6295
13.5196
13.4155
13.3166
13.2229
13.1339
13.0494
12.969
12.8927
12.82
14.7657
14.5937
14.4316
14.2785
14.1341
13.9974
13.8685
13.7464
13.6312
13.522
13.419
13.3214
13.2293
13.1418
13.0595
12.981
12.9073
12.8368
14.7659
14.5937
14.4318
14.2788
14.1353
14.0002
13.8742
13.756
13.6463
13.5435
13.4485
13.3592
13.277
13.1992
13.1282
13.0601
12.9988
12.9386
14.7661
14.5928
14.4329
14.2844
14.1515
14.0321
13.9289
13.8375
13.7593
13.6894
13.6306
13.5769
13.5328
13.4905
13.4574
13.423
13.3989
13.3694
14.7641
14.5936
14.461
14.3604
14.3029
14.2766
14.2796
14.2939
14.3202
14.3529
14.3959
14.4345
14.4825
14.5218
14.5721
14.6091
14.6619
14.6942
14.757
14.6921
14.7579
14.9172
15.1828
15.4611
15.7475
16.012
16.2723
16.5038
16.7361
16.9387
17.1509
17.3312
17.5313
17.6941
17.8895
18.0369
14.9575
15.4344
16.5693
17.6884
18.7052
19.5678
20.3371
20.9969
21.6194
22.1661
22.719
23.2111
23.7404
24.205
24.7337
25.1841
25.7269
26.1685
16.258
20.939
25.0148
27.7588
29.7842
31.3586
32.7765
34.0584
35.3592
36.6166
37.9758
39.2982
40.7629
42.148
43.721
45.1783
46.8901
48.3669
29.9427
47.2251
54.8702
58.6735
61.6134
64.4321
67.5791
70.9794
74.7383
78.7159
82.9877
87.3494
91.9118
96.461
101.114
105.642
110.199
114.608
165.79
160.073
154.899
149.564
144.479
139.678
135.613
132.11
129.27
126.973
125.319
124.045
123.34
122.83
122.827
122.985
123.272
123.832
2.42738
1.69999
2.6508
3.52292
4.36365
5.17435
5.94906
6.66933
7.30996
7.82261
8.1342
8.11491
7.54608
7.64234
7.94556
8.31215
8.61851
8.92742
39.108
39.8149
40.2113
39.4703
44.7071
49.4931
54.9785
60.8123
67.0644
73.6687
80.6227
87.889
95.4622
103.309
111.429
119.79
128.397
137.219
146.27
155.522
164.997
174.672
184.569
194.665
204.989
215.516
226.278
237.253
248.474
259.919
271.622
283.56
295.769
308.223
320.959
333.948
347.225
360.758
374.583
388.664
403.033
417.651
432.544
447.67
463.049
478.637
494.447
510.435
526.6
542.901
559.321
575.818
592.352
608.884
625.345
641.691
657.844
673.774
689.455
704.997
720.234
735.114
749.602
763.647
777.21
790.222
802.684
814.482
825.709
836.192
846.002
854.933
862.834
869.891
876.027
881.298
885.681
889.212
891.911
893.88
895.203
894.45
894.12
892.959
891.101
888.643
885.847
882.605
879.054
875.23
871.186
866.969
862.587
858.249
853.91
849.594
845.317
840.969
836.823
832.836
829.95
825.827
822.343
820.405
817.296
815.68
812.913
810.287
807.232
804.432
802.781
800.268
798.215
795.095
793.818
790.911
788.121
785.059
781.698
778.007
773.937
769.577
765.078
760.136
754.728
748.801
742.309
735.227
727.528
719.204
710.255
700.674
690.478
679.655
668.208
656.146
643.607
630.627
617.114
602.985
589.069
574.082
560.665
552.691
545.416
537.875
530.044
521.849
513.345
504.604
495.532
486.033
476.308
466.488
456.461
446.165
435.663
425.039
414.069
401.018
390.997
356.066
6.26143
3.69035
3.54789
3.85834
4.36918
4.99791
5.70858
6.47928
7.28556
8.12356
9.02137
10.0238
11.2962
12.6069
13.9799
15.5738
17.6355
20.5402
24.9459
26.9997
29.0537
31.4041
34.2785
37.2208
40.3116
43.5217
46.8415
50.2566
53.7608
57.3476
61.0144
64.7581
68.5781
72.4732
76.4459
80.4975
84.6345
88.859
93.1627
97.5455
102.011
106.559
111.192
115.912
120.721
125.62
130.611
135.695
140.875
146.15
151.522
156.99
162.557
168.219
173.978
179.831
185.779
191.816
197.943
204.153
210.443
216.806
223.238
229.73
236.276
242.866
249.493
256.144
262.809
269.472
276.12
282.738
289.307
295.815
302.252
308.624
314.955
321.298
327.638
333.836
339.884
345.76
351.449
356.929
362.19
367.206
371.976
376.47
380.674
384.521
388.008
391.148
393.942
396.395
398.499
400.261
401.684
402.771
403.503
403.8
403.955
403.816
403.409
402.749
401.895
400.859
399.668
398.344
396.907
395.381
393.783
392.152
390.489
388.814
387.114
385.427
383.787
382.186
380.702
379.122
377.705
376.46
375.136
373.952
372.636
371.337
370.012
368.768
367.667
366.466
365.242
363.965
362.904
361.576
360.241
358.829
357.329
355.725
354.02
352.225
350.356
348.339
346.178
343.841
341.322
338.604
335.683
332.55
329.203
325.637
321.857
317.852
313.624
309.173
304.525
299.69
294.662
289.419
284.119
278.593
273.138
268.65
264.359
259.975
255.447
250.763
245.933
240.988
235.93
230.714
225.371
219.924
214.374
208.738
203.041
197.363
191.756
185.94
181.661
176.409
11.2883
5.9072
5.16589
5.21267
5.57644
6.14136
6.86499
7.73302
8.74562
9.90453
11.2051
12.6661
14.1993
15.7958
17.4297
19.1534
21.0425
23.1418
25.3947
27.4614
29.5804
31.8257
34.2777
36.7885
39.3603
42.004
44.7194
47.503
50.3514
53.2621
56.2352
59.2725
62.3712
65.5306
68.7512
72.0335
75.3784
78.7858
82.255
85.7864
89.381
93.0392
96.7625
100.551
104.407
108.33
112.321
116.382
120.512
124.712
128.982
133.323
137.735
142.217
146.768
151.389
156.077
160.831
165.65
170.531
175.471
180.466
185.514
190.61
195.75
200.929
206.14
211.377
216.634
221.904
227.177
232.448
237.707
242.95
248.172
253.373
258.552
263.709
268.818
273.841
278.765
283.573
288.251
292.784
297.158
301.358
305.369
309.179
312.765
316.103
319.176
321.988
324.539
326.823
328.839
330.583
332.057
333.259
334.191
334.857
335.315
335.532
335.54
335.31
334.902
334.331
333.617
332.779
331.831
330.791
329.674
328.497
327.27
326.007
324.714
323.408
322.103
320.805
319.526
318.239
316.999
315.798
314.588
313.396
312.173
310.947
309.721
308.515
307.335
306.119
304.884
303.628
302.392
301.068
299.708
298.292
296.812
295.259
293.631
291.93
290.152
288.275
286.285
284.172
281.923
279.534
276.994
274.301
271.448
268.432
265.258
261.913
258.397
254.715
250.874
246.881
242.736
238.44
234.038
229.509
224.963
220.673
216.455
212.191
207.844
203.41
198.896
194.318
189.686
184.988
180.242
175.468
170.618
165.732
160.825
155.963
151.214
146.589
142.836
139.845
16.6313
8.3714
7.02711
6.85932
7.13423
7.67195
8.40677
9.31261
10.3757
11.5845
12.9215
14.3598
15.9079
17.5364
19.2055
20.9255
22.7248
24.6264
26.6176
28.6616
30.79
33.0229
35.3165
37.6857
40.1279
42.6361
45.2088
47.8464
50.5418
53.2886
56.0785
58.926
61.8313
64.7944
67.8158
70.8955
74.0338
77.2303
80.485
83.7979
87.1696
90.6003
94.0907
97.6412
101.253
104.925
108.66
112.457
116.317
120.24
124.227
128.277
132.392
136.571
140.813
145.119
149.488
153.92
158.412
162.965
167.576
172.244
176.966
181.739
186.562
191.429
196.339
201.286
206.266
211.274
216.306
221.354
226.415
231.483
236.553
241.62
246.679
251.718
256.718
261.659
266.525
271.303
275.978
280.534
284.958
289.232
293.342
297.273
301.008
304.522
307.804
310.848
313.647
316.197
318.49
320.524
322.295
323.805
325.054
326.052
326.816
327.348
327.661
327.74
327.595
327.27
326.784
326.158
325.405
324.539
323.574
322.525
321.402
320.219
318.985
317.713
316.412
315.092
313.757
312.408
311.06
309.713
308.351
306.979
305.585
304.177
302.757
301.33
299.893
298.428
296.936
295.413
293.866
292.262
290.611
288.905
287.136
285.299
283.391
281.409
279.349
277.196
274.941
272.574
270.087
267.474
264.728
261.844
258.819
255.645
252.326
248.84
245.202
241.416
237.487
233.421
229.22
224.894
220.466
215.948
211.4
206.921
202.462
197.972
193.432
188.844
184.217
179.559
174.882
170.187
165.488
160.798
156.112
151.446
146.776
142.17
137.687
133.419
129.731
126.968
21.9193
10.8971
8.94607
8.56591
8.74017
9.23086
9.94336
10.8365
11.887
13.0779
14.3919
15.811
17.3187
18.9005
20.5587
22.2919
24.1006
25.9819
27.9347
29.9608
32.0643
34.2454
36.4967
38.8163
41.2017
43.65
46.1589
48.7255
51.3513
54.0373
56.7861
59.5957
62.4654
65.3949
68.3842
71.4338
74.5444
77.7152
80.9455
84.2352
87.5845
90.9936
94.463
97.9931
101.584
105.237
108.952
112.73
116.571
120.475
124.444
128.478
132.577
136.741
140.972
145.268
149.631
154.06
158.555
163.116
167.741
172.431
177.184
181.998
186.872
191.805
196.792
201.833
206.922
212.058
217.236
222.451
227.699
232.974
238.27
243.58
248.895
254.202
259.485
264.731
269.923
275.048
280.09
285.032
289.858
294.551
299.093
303.468
307.655
311.635
315.388
318.907
322.179
325.197
327.95
330.433
332.639
334.568
336.22
337.599
338.714
339.572
340.185
340.549
340.657
340.522
340.194
339.696
339.04
338.24
337.311
336.266
335.119
333.881
332.567
331.185
329.747
328.262
326.736
325.176
323.588
321.974
320.331
318.66
316.957
315.226
313.466
311.681
309.864
308.011
306.118
304.182
302.2
300.162
298.066
295.909
293.685
291.389
289.017
286.567
284.034
281.409
278.683
275.848
272.9
269.832
266.64
263.318
259.864
256.274
252.55
248.684
244.68
240.543
236.278
231.89
227.387
222.782
218.092
213.335
208.55
203.78
199.013
194.229
189.415
184.567
179.705
174.84
169.981
165.137
160.318
155.538
150.803
146.127
141.515
136.993
132.594
128.426
124.688
121.722
26.9346
13.3487
10.8016
10.2051
10.2676
10.6952
11.3649
12.2219
13.2358
14.3869
15.6588
17.0375
18.5109
20.0692
21.7069
23.4206
25.2087
27.0708
29.0068
31.017
33.1016
35.2595
37.4883
39.7862
42.1515
44.5826
47.0786
49.6389
52.2638
54.9537
57.7093
60.5302
63.4162
66.3671
69.3828
72.463
75.6074
78.8161
82.0894
85.4275
88.8304
92.2984
95.8318
99.4307
103.096
106.827
110.626
114.492
118.427
122.43
126.504
130.648
134.864
139.152
143.513
147.948
152.458
157.044
161.705
166.443
171.257
176.147
181.115
186.158
191.276
196.468
201.733
207.068
212.472
217.941
223.473
229.062
234.704
240.393
246.123
251.883
257.664
263.455
269.242
275.011
280.748
286.436
292.058
297.596
303.032
308.347
313.519
318.529
323.356
327.974
332.365
336.511
340.4
344.018
347.352
350.392
353.129
355.558
357.678
359.49
360.998
362.209
363.132
363.778
364.126
364.19
363.99
363.585
362.982
362.196
361.242
360.135
358.89
357.522
356.043
354.467
352.804
351.065
349.259
347.393
345.473
343.504
341.487
339.422
337.31
335.153
332.951
330.703
328.408
326.061
323.66
321.201
318.682
316.098
313.445
310.72
307.921
305.043
302.084
299.04
295.909
292.682
289.356
285.924
282.381
278.723
274.948
271.053
267.033
262.889
258.619
254.225
249.708
245.075
240.332
235.488
230.554
225.542
220.468
215.351
210.216
205.086
199.962
194.835
189.703
184.561
179.44
174.339
169.266
164.232
159.245
154.32
149.466
144.698
140.032
135.493
131.106
126.934
123.1
119.842
31.5124
15.6276
12.5124
11.6953
11.6445
11.9992
12.616
13.4273
14.3969
15.5026
16.7285
18.0622
19.4938
21.0153
22.621
24.3068
26.0706
27.911
29.8274
31.8194
33.8866
36.0281
38.2431
40.5305
42.8894
45.3193
47.8198
50.3911
53.0333
55.7468
58.5321
61.3892
64.3183
67.3196
70.3929
73.5383
76.7559
80.0455
83.4074
86.8417
90.3486
93.9281
97.5806
101.306
105.106
108.979
112.928
116.952
121.053
125.231
129.487
133.823
138.239
142.738
147.32
151.987
156.739
161.579
166.506
171.524
176.631
181.83
187.12
192.502
197.977
203.543
209.2
214.948
220.783
226.704
232.709
238.793
244.951
251.178
257.466
263.807
270.19
276.604
283.036
289.472
295.895
302.288
308.633
314.909
321.096
327.17
333.109
338.889
344.485
349.869
355.015
359.904
364.518
368.837
372.845
376.527
379.872
382.869
385.516
387.809
389.75
391.346
392.602
393.531
394.128
394.376
394.316
393.991
393.418
392.615
391.6
390.389
388.999
387.448
385.749
383.917
381.966
379.908
377.753
375.511
373.189
370.791
368.323
365.787
363.185
360.517
357.786
354.989
352.126
349.195
346.193
343.117
339.966
336.736
333.426
330.032
326.553
322.986
319.331
315.586
311.746
307.811
303.774
299.634
295.388
291.034
286.571
281.997
277.31
272.512
267.604
262.588
257.471
252.26
246.964
241.594
236.162
230.681
225.166
219.634
214.102
208.586
203.089
197.609
192.149
186.711
181.308
175.947
170.635
165.382
160.199
155.096
150.087
145.187
140.413
135.793
131.351
127.133
123.174
119.641
35.5529
17.6689
14.0289
12.9927
12.832
13.1117
13.6722
14.4348
15.358
16.4176
17.5973
18.8855
20.2733
21.7539
23.322
24.974
26.7074
28.5205
30.4125
32.3828
34.4308
36.5564
38.759
41.0383
43.3944
45.8272
48.337
50.9242
53.5894
56.3333
59.1565
62.0596
65.0433
68.1078
71.2536
74.4809
77.7898
81.1807
84.6536
88.2088
91.8465
95.5668
99.3702
103.257
107.228
111.283
115.424
119.651
123.965
128.367
132.86
137.443
142.119
146.889
151.756
156.72
161.783
166.948
172.215
177.588
183.066
188.652
194.347
200.152
206.067
212.093
218.23
224.478
230.834
237.299
243.868
250.538
257.306
264.165
271.108
278.127
285.211
292.349
299.527
306.731
313.942
321.143
328.313
335.429
342.468
349.404
356.21
362.858
369.321
375.563
381.556
387.275
392.694
397.792
402.547
406.938
410.95
414.571
417.79
420.605
423.014
425.02
426.63
427.851
428.693
429.136
429.217
428.957
428.4
427.56
426.456
425.11
423.54
421.765
419.802
417.669
415.381
412.951
410.393
407.718
404.933
402.047
399.065
395.991
392.829
389.58
386.245
382.824
379.316
375.721
372.037
368.261
364.392
360.429
356.37
352.214
347.961
343.611
339.163
334.617
329.973
325.23
320.387
315.443
310.398
305.253
300.009
294.666
289.227
283.693
278.071
272.365
266.584
260.738
254.838
248.896
242.925
236.939
230.951
224.976
219.028
213.116
207.245
201.415
195.63
189.893
184.212
178.593
173.043
167.572
162.189
156.904
151.731
146.685
141.784
137.052
132.514
128.208
124.113
120.337
39.0086
19.439
15.329
14.0876
13.8209
14.027
14.5314
15.2455
16.1232
17.138
18.273
19.5167
20.8608
22.2994
23.8276
25.4424
27.1414
28.9231
30.7866
32.7315
34.7577
36.8651
39.0537
41.3237
43.6757
46.1104
48.6286
51.2311
53.919
56.6933
59.5556
62.507
65.5487
68.6816
71.9064
75.2237
78.634
82.1378
85.7355
89.4274
93.214
97.0956
101.073
105.146
109.316
113.583
117.949
122.415
126.981
131.649
136.421
141.298
146.283
151.376
156.581
161.898
167.331
172.882
178.552
184.344
190.259
196.3
202.468
208.766
215.193
221.751
228.441
235.262
242.213
249.294
256.502
263.834
271.286
278.852
286.525
294.297
302.157
310.094
318.093
326.139
334.213
342.296
350.364
358.394
366.358
374.227
381.971
389.558
396.954
404.123
411.026
417.635
423.919
429.849
435.4
440.546
445.267
449.546
453.37
456.732
459.628
462.06
464.032
465.552
466.632
467.263
467.468
467.275
466.719
465.821
464.605
463.095
461.314
459.282
457.019
454.545
451.878
449.033
446.026
442.869
439.573
436.147
432.597
428.931
425.15
421.258
417.257
413.147
408.929
404.601
400.163
395.614
390.953
386.179
381.293
376.294
371.184
365.965
360.637
355.204
349.666
344.027
338.287
332.45
326.518
320.496
314.388
308.198
301.931
295.594
289.195
282.743
276.248
269.723
263.18
256.634
250.097
243.584
237.106
230.677
224.306
218
211.762
205.594
199.496
193.472
187.526
181.663
175.889
170.212
164.639
159.18
153.849
148.658
143.625
138.773
134.12
129.697
125.46
121.469
41.8681
20.9279
16.411
14.9844
14.6181
14.7545
15.2051
15.8728
16.707
17.6793
18.7719
19.9732
21.2752
22.6723
24.1605
25.737
27.3998
29.1478
30.9804
32.8975
34.8997
36.988
39.1606
41.4187
43.764
46.1982
48.7225
51.3384
54.0467
56.8479
59.7469
62.7456
65.8458
69.0489
72.3562
75.7689
79.2877
82.9136
86.6472
90.4893
94.4405
98.5016
102.673
106.956
111.351
115.86
120.483
125.221
130.077
135.051
140.146
145.363
150.704
156.172
161.768
167.495
173.356
179.352
185.486
191.761
198.178
204.74
211.449
218.306
225.313
232.472
239.782
247.245
254.859
262.624
270.537
278.595
286.795
295.131
303.596
312.181
320.876
329.668
338.544
347.485
356.475
365.489
374.505
383.495
392.43
401.277
410.001
418.568
426.939
435.069
442.919
450.45
457.627
464.417
470.787
476.707
482.152
487.101
491.537
495.45
498.834
501.688
504.017
505.827
507.129
507.928
508.241
508.096
507.518
506.536
505.18
503.477
501.452
499.129
496.531
493.68
490.597
487.298
483.802
480.123
476.273
472.263
468.101
463.793
459.345
454.76
450.04
445.187
440.201
435.082
429.83
424.445
418.927
413.276
407.492
401.579
395.538
389.373
383.088
376.687
370.175
363.557
356.839
350.028
343.13
336.155
329.11
322.004
314.846
307.648
300.419
293.173
285.924
278.685
271.471
264.297
257.178
250.125
243.151
236.265
229.476
222.786
216.197
209.707
203.317
197.027
190.838
184.754
178.778
172.915
167.172
161.557
156.081
150.758
145.601
140.63
135.859
131.31
126.928
122.756
44.1432
22.1392
17.2841
15.6962
15.2393
15.3116
15.7119
16.3359
17.1295
18.0623
19.1155
20.2774
21.54
22.898
24.348
25.8876
27.5155
29.2311
31.0324
32.9204
34.8971
36.9655
39.1205
41.3656
43.7032
46.1353
48.6643
51.292
54.0203
56.8497
59.7885
62.834
65.9933
69.2697
72.6646
76.1798
79.8164
83.5759
87.4595
91.4681
95.6031
99.8654
104.256
108.776
113.428
118.211
123.128
128.18
133.368
138.695
144.162
149.772
155.525
161.426
167.475
173.675
180.028
186.538
193.206
200.034
207.025
214.181
221.503
228.994
236.654
244.486
252.489
260.663
269.009
277.524
286.207
295.054
304.061
313.223
322.532
331.979
341.554
351.244
361.034
370.906
380.84
390.813
400.8
410.771
420.693
430.531
440.247
449.802
459.151
468.246
477.042
485.492
493.558
501.198
508.376
515.056
521.208
526.807
531.833
536.272
540.117
543.366
546.021
548.09
549.584
550.516
550.904
550.771
550.134
549.029
547.495
545.563
543.258
540.608
537.639
534.374
530.837
527.048
523.025
518.786
514.343
509.71
504.895
499.905
494.748
489.426
483.943
478.299
472.498
466.537
460.42
454.144
447.712
441.124
434.383
427.492
420.454
413.276
405.964
398.525
390.968
383.3
375.534
367.678
359.747
351.752
343.707
335.627
327.524
319.414
311.312
303.235
295.198
287.219
279.314
271.498
263.786
256.19
248.721
241.386
234.191
227.136
220.216
213.43
206.774
200.246
193.844
187.567
181.418
175.397
169.511
163.765
158.168
152.73
147.465
142.388
137.506
132.834
128.317
123.999
45.86
23.0847
17.9627
16.2405
15.7039
15.7192
16.0736
16.6575
17.414
18.3109
19.3288
20.4554
21.683
23.0067
24.4232
25.9311
27.5282
29.2155
30.9895
32.8518
34.8037
36.8459
38.9807
41.2118
43.5421
45.9748
48.5132
51.1605
53.92
56.7947
59.78
62.8782
66.1051
69.464
72.9586
76.5908
80.3626
84.2758
88.3321
92.5332
96.8809
101.377
106.022
110.819
115.769
120.874
126.134
131.553
137.132
142.872
148.777
154.846
161.084
167.491
174.07
180.822
187.751
194.857
202.143
209.611
217.263
225.099
233.122
241.332
249.731
258.318
267.095
276.059
285.211
294.548
304.068
313.766
323.638
333.677
343.876
354.225
364.713
375.326
386.049
396.864
407.749
418.68
429.63
440.568
451.459
462.264
472.943
483.452
493.744
503.763
513.459
522.782
531.685
540.123
548.053
555.435
562.235
568.424
573.978
578.882
583.125
586.706
589.627
591.896
593.526
594.533
594.937
594.762
594.01
592.728
590.968
588.759
586.129
583.108
579.724
576.004
571.973
567.654
563.066
558.228
553.156
547.861
542.356
536.647
530.741
524.643
518.355
511.881
505.22
498.375
491.345
484.132
476.738
469.163
461.411
453.487
445.398
437.15
428.753
420.217
411.555
402.779
393.904
384.947
375.925
366.856
357.761
348.658
339.567
330.506
321.497
312.559
303.711
294.974
286.366
277.903
269.599
261.465
253.51
245.743
238.165
230.768
223.548
216.498
209.61
202.879
196.299
189.866
183.579
177.436
171.44
165.593
159.904
154.379
149.029
143.863
138.885
134.099
129.477
125.052
47.0523
23.7803
18.4638
16.6366
16.0325
16.0006
16.314
16.8625
17.5866
18.4528
19.4411
20.539
21.7387
23.0355
24.4268
25.912
27.485
29.1456
30.8927
32.7326
34.6679
36.7002
38.8325
41.066
43.4042
45.8516
48.4127
51.0915
53.8922
56.8183
59.8658
63.0447
66.3659
69.8352
73.4569
77.2355
81.1756
85.2794
89.549
93.9869
98.5954
103.377
108.334
113.467
118.78
124.275
129.953
135.817
141.867
148.107
154.538
161.162
167.98
174.994
182.205
189.615
197.226
205.037
213.051
221.269
229.69
238.315
247.145
256.18
265.419
274.861
284.505
294.35
304.392
314.628
325.055
335.667
346.459
357.421
368.546
379.823
391.24
402.782
414.433
426.174
437.982
449.834
461.7
473.549
485.344
497.043
508.604
519.98
531.119
541.966
552.46
562.549
572.18
581.305
589.875
597.847
605.183
611.85
617.822
623.082
627.619
631.429
634.517
636.89
638.565
639.56
639.893
639.595
638.644
637.118
635.066
632.517
629.503
626.055
622.204
617.98
613.408
608.513
603.318
597.841
592.099
586.106
579.872
573.406
566.715
559.804
552.674
545.331
537.773
530.003
522.022
513.831
505.432
496.828
488.023
479.022
469.835
460.471
450.942
441.263
431.448
421.516
411.487
401.382
391.225
381.041
370.856
360.696
350.584
340.546
330.606
320.791
311.121
301.62
292.309
283.204
274.318
265.661
257.243
249.068
241.138
233.431
225.943
218.665
211.585
204.694
197.98
191.436
185.055
178.832
172.768
166.861
161.115
155.536
150.129
144.901
139.846
134.98
130.289
125.8
47.7969
24.2539
18.8065
16.9022
16.2447
16.1753
16.4569
16.9778
17.6774
18.5214
19.4895
20.5693
21.753
23.0366
24.4159
25.888
27.4515
29.1062
30.8537
32.6967
34.6385
36.6818
38.8312
41.0849
43.4504
45.9332
48.5388
51.2728
54.1408
57.1484
60.3015
63.6076
67.0742
70.7082
74.5156
78.5023
82.6741
87.0357
91.5903
96.3413
101.292
106.445
111.804
117.371
123.149
129.141
135.348
141.772
148.416
155.281
162.368
169.679
177.213
184.973
192.957
201.167
209.602
218.261
227.145
236.252
245.582
255.132
264.901
274.888
285.088
295.5
306.119
316.943
327.965
339.181
350.585
362.168
373.923
385.841
397.91
410.117
422.45
434.893
447.428
460.036
472.694
485.377
498.056
510.698
523.267
535.72
548.012
560.096
571.917
583.414
594.529
605.203
615.38
625.008
634.036
642.418
650.111
657.082
663.303
668.755
673.427
677.314
680.422
682.762
684.351
685.218
685.359
684.819
683.56
681.7
679.27
676.301
672.828
668.885
664.504
659.715
654.547
649.026
643.175
637.013
630.559
623.825
616.824
609.564
602.051
594.29
586.284
578.036
569.546
560.817
551.849
542.644
533.205
523.535
513.639
503.526
493.204
482.688
471.991
461.131
450.129
439.006
427.789
416.505
405.183
393.856
382.557
371.317
360.168
349.14
338.261
327.566
317.076
306.819
296.82
287.072
277.606
268.439
259.577
251.027
242.788
234.839
227.151
219.71
212.501
205.509
198.717
192.115
185.69
179.436
173.347
167.422
161.66
156.063
150.634
145.374
140.279
135.383
130.666
126.155
47.9863
24.4822
18.9931
17.0501
16.3607
16.2682
16.5311
17.0372
17.7256
18.5623
19.5274
20.6078
21.795
23.0843
24.4717
25.9552
27.5345
29.21
30.9838
32.8587
34.8382
36.9262
39.1274
41.4471
43.8912
46.4663
49.1792
52.0371
55.0476
58.2183
61.5574
65.0731
68.7735
72.6668
76.7607
81.0627
85.5803
90.3184
95.2826
100.478
105.908
111.577
117.488
123.645
130.05
136.706
143.615
150.779
158.198
165.874
173.806
181.994
190.437
199.134
208.084
217.283
226.731
236.423
246.358
256.531
266.938
277.575
288.438
299.52
310.816
322.32
334.025
345.924
358.009
370.271
382.701
395.289
408.023
420.891
433.879
446.973
460.158
473.416
486.728
500.075
513.435
526.782
540.088
553.322
566.446
579.42
592.198
604.733
616.969
628.848
640.308
651.288
661.734
671.59
680.804
689.329
697.122
704.148
710.377
715.791
720.378
724.135
727.068
729.191
730.52
731.081
730.89
729.942
728.269
725.96
723.044
719.559
715.537
711.015
706.027
700.605
694.778
688.572
682.011
675.115
667.901
660.384
652.575
644.48
636.108
627.461
618.543
609.355
599.9
590.177
580.189
569.938
559.427
548.661
537.645
526.389
514.904
503.207
491.315
479.25
467.035
454.699
442.273
429.791
417.288
404.805
392.383
380.061
367.875
355.861
344.045
332.45
321.124
310.108
299.437
289.144
279.204
269.629
260.42
251.583
243.133
234.981
227.136
219.58
212.291
205.248
198.432
191.823
185.407
179.172
173.109
167.212
161.477
155.903
150.484
145.233
140.154
135.278
130.579
126.093
47.8476
24.5305
19.0606
17.1097
16.4109
16.3149
16.5798
17.0942
17.7964
18.6521
19.6409
20.7501
21.9723
23.3027
24.7388
26.2798
27.9261
29.6794
31.5422
33.5184
35.6126
37.8305
40.1783
42.6631
45.2922
48.0739
51.0166
54.1294
57.4217
60.9032
64.5837
68.4731
72.5813
76.9179
81.4925
86.3135
91.388
96.7248
102.333
108.217
114.382
120.83
127.566
134.592
141.91
149.523
157.43
165.632
174.128
182.916
191.994
201.358
211.004
220.929
231.126
241.59
252.316
263.297
274.525
285.994
297.694
309.618
321.756
334.099
346.636
359.358
372.252
385.308
398.514
411.857
425.323
438.899
452.57
466.318
480.13
493.986
507.872
521.765
535.65
549.503
563.308
577.036
590.664
604.161
617.494
630.624
643.51
656.105
668.359
680.213
691.608
702.488
712.797
722.483
731.495
739.788
747.318
754.05
759.956
765.017
769.222
772.569
775.065
776.725
777.57
777.604
776.864
775.315
773.066
770.153
766.61
762.475
757.783
752.57
746.872
740.719
734.141
727.166
719.815
712.11
704.066
695.697
687.014
678.023
668.73
659.138
649.249
639.065
628.586
617.816
606.754
595.404
583.769
571.855
559.67
547.224
534.531
521.611
508.484
495.177
481.716
468.136
454.475
440.776
427.076
413.423
399.854
386.404
373.144
360.107
347.396
335.027
323.002
311.365
300.186
289.372
278.979
269.023
259.504
250.417
241.75
233.463
225.535
217.938
210.643
203.622
196.851
190.306
183.964
177.811
171.833
166.019
160.364
154.86
149.517
144.345
139.349
134.55
129.92
125.524
47.4939
24.4882
19.0531
17.121
16.448
16.3838
16.6879
17.2483
18.006
18.9285
19.9963
21.1981
22.5272
23.9802
25.5556
27.2541
29.0775
31.0291
33.113
35.3347
37.7005
40.218
42.8954
45.7416
48.7661
51.979
55.3906
59.012
62.8549
66.9306
71.251
75.8276
80.672
85.7956
91.2096
96.9254
102.955
109.303
115.971
122.965
130.29
137.948
145.941
154.27
162.934
171.931
181.258
190.91
200.882
211.169
221.761
232.651
243.831
255.29
267.02
279.008
291.245
303.719
316.419
329.331
342.443
355.741
369.213
382.843
396.617
410.519
424.535
438.649
452.843
467.104
481.411
495.75
510.1
524.444
538.762
553.037
567.247
581.378
595.405
609.316
623.088
636.702
650.133
663.36
676.35
689.074
701.494
713.571
725.259
736.507
747.265
757.479
767.101
776.084
784.384
791.958
798.765
804.772
809.954
814.29
817.768
820.388
822.16
823.099
823.193
822.499
820.959
818.683
815.7
812.045
807.754
802.863
797.407
791.422
784.942
777.996
770.614
762.821
754.638
746.085
737.177
727.926
718.34
708.427
698.189
687.628
676.747
665.545
654.024
642.186
630.032
617.566
604.792
591.717
578.352
564.707
550.801
536.653
522.291
507.748
493.05
478.238
463.352
448.411
433.488
418.653
404.002
389.586
375.429
361.567
348.122
335.007
322.309
310.073
298.333
287.081
276.333
266.097
256.37
247.138
238.377
230.055
222.139
214.595
207.383
200.471
193.828
187.424
181.23
175.231
169.404
163.735
158.226
152.875
147.685
142.664
137.813
133.151
128.645
124.384
46.761
24.2026
18.9414
17.1162
16.5251
16.5439
16.9435
17.6151
18.5029
19.5769
20.8199
22.2225
23.7802
25.4917
27.3578
29.3814
31.5667
33.9194
36.4461
39.1545
42.0538
45.154
48.4656
51.9997
55.768
59.7821
64.0544
68.5977
73.4244
78.5471
83.9779
89.7288
95.8112
102.236
109.015
116.159
123.675
131.567
139.834
148.473
157.485
166.865
176.609
186.712
197.167
207.963
219.092
230.543
242.302
254.357
266.695
279.301
292.16
305.258
318.58
332.111
345.835
359.738
373.802
388.014
402.355
416.81
431.362
445.994
460.687
475.423
490.185
504.953
519.71
534.436
549.113
563.721
578.24
592.651
606.933
621.068
635.037
648.822
662.407
675.776
688.915
701.807
714.436
726.782
738.823
750.533
761.887
772.851
783.39
793.463
803.028
812.044
820.471
828.271
835.409
841.849
847.552
852.487
856.63
859.96
862.462
864.134
864.994
865.012
864.231
862.612
860.245
857.152
853.364
848.916
843.838
838.167
831.934
825.172
817.913