/*--------------------------------*- C++ -*----------------------------------*\
  =========                 |
  \\      /  F ield         | OpenFOAM: The Open Source CFD Toolbox
   \\    /   O peration     | Website:  https://openfoam.org
    \\  /    A nd           | Version:  8
     \\/     M anipulation  |
\*---------------------------------------------------------------------------*/
FoamFile
{
    version     2.0;
    format      ascii;
    class       volScalarField;
    location    "120";
    object      k;
}
// * * * * * * * * * * * * * * * * * * * * * * * * * * * * * * * * * * * * * //

dimensions      [0 2 -2 0 0 0 0];

internalField   nonuniform List<scalar> 
12225
(
0.362817
0.343997
0.327733
0.309836
0.295369
0.283525
0.275449
0.270307
0.270344
0.271901
0.276065
0.280705
0.289984
0.295714
0.30723
0.312523
0.327701
0.336174
0.440194
0.468693
0.461605
0.44837
0.450357
0.458323
0.474397
0.498848
0.524224
0.552542
0.580681
0.606718
0.634056
0.654655
0.68056
0.694637
0.720194
0.733995
0.390547
0.417867
0.420231
0.416822
0.411633
0.407802
0.408007
0.410045
0.414479
0.421554
0.430686
0.439922
0.451227
0.461526
0.473055
0.48444
0.494157
0.508768
0.377546
0.38698
0.391408
0.391342
0.390222
0.387897
0.385658
0.384085
0.382871
0.382898
0.383392
0.384359
0.386313
0.388579
0.391007
0.394506
0.396885
0.40188
0.374562
0.376089
0.378413
0.378665
0.378263
0.377205
0.375487
0.373737
0.372006
0.370453
0.369253
0.368116
0.367375
0.36684
0.366462
0.366434
0.366481
0.366975
0.373815
0.372709
0.372645
0.372383
0.37176
0.370816
0.369552
0.368081
0.366568
0.364975
0.363521
0.362064
0.360746
0.359535
0.358395
0.357449
0.35647
0.355866
0.373783
0.371742
0.370386
0.369286
0.368233
0.367113
0.365913
0.364585
0.363235
0.361805
0.360416
0.35902
0.357669
0.356377
0.355112
0.353964
0.352794
0.35182
0.37382
0.37156
0.369634
0.367976
0.3665
0.365107
0.363774
0.362428
0.361104
0.359763
0.358445
0.357139
0.355855
0.354614
0.35339
0.35224
0.351091
0.35005
0.373832
0.371553
0.369449
0.367525
0.365776
0.364153
0.362643
0.361197
0.359815
0.35847
0.357165
0.355897
0.35466
0.353467
0.352298
0.351186
0.350089
0.349067
0.373831
0.37156
0.369418
0.367405
0.365528
0.363772
0.362132
0.360584
0.35912
0.357725
0.356391
0.355113
0.353882
0.352703
0.351562
0.350474
0.349413
0.348417
0.373829
0.37156
0.369413
0.367378
0.365458
0.363645
0.361936
0.360323
0.358797
0.35735
0.355976
0.354668
0.35342
0.35223
0.351089
0.350004
0.348956
0.347968
0.373828
0.371558
0.369409
0.36737
0.365439
0.363608
0.361875
0.360233
0.358676
0.3572
0.355797
0.354466
0.353197
0.351991
0.350839
0.349745
0.348695
0.347702
0.373827
0.371556
0.369405
0.367365
0.36543
0.363593
0.36185
0.360196
0.358625
0.357132
0.355714
0.354366
0.353083
0.351863
0.350699
0.349595
0.348537
0.347536
0.373827
0.371555
0.369401
0.367359
0.365422
0.363583
0.361836
0.360177
0.3586
0.3571
0.355673
0.354316
0.353024
0.351795
0.350623
0.349508
0.348444
0.347433
0.373826
0.371553
0.369398
0.367355
0.365415
0.363575
0.361826
0.360164
0.358584
0.357081
0.355651
0.35429
0.352994
0.351759
0.350583
0.349462
0.348393
0.347376
0.373826
0.371552
0.369396
0.367351
0.36541
0.363567
0.361817
0.360154
0.358572
0.357067
0.355635
0.354272
0.352973
0.351736
0.350557
0.349434
0.348362
0.347341
0.373825
0.371551
0.369394
0.367348
0.365406
0.363562
0.36181
0.360145
0.358562
0.357056
0.355622
0.354257
0.352957
0.351719
0.350538
0.349413
0.348339
0.347315
0.373825
0.371551
0.369393
0.367346
0.365403
0.363558
0.361806
0.36014
0.358555
0.357048
0.355613
0.354247
0.352946
0.351706
0.350524
0.349397
0.348321
0.347296
0.373825
0.37155
0.369393
0.367346
0.365402
0.363557
0.361804
0.360137
0.358552
0.357044
0.355609
0.354242
0.35294
0.351699
0.350516
0.349388
0.348311
0.347285
0.373825
0.371551
0.369393
0.367347
0.365404
0.363559
0.361806
0.36014
0.358555
0.357047
0.355612
0.354245
0.352942
0.351702
0.350518
0.34939
0.348314
0.347287
0.373825
0.371551
0.369395
0.367349
0.365407
0.363563
0.361811
0.360146
0.358562
0.357055
0.355622
0.354256
0.352956
0.351716
0.350535
0.349408
0.348334
0.347308
0.373826
0.371552
0.369397
0.367352
0.365412
0.363571
0.361822
0.360161
0.358583
0.357083
0.355657
0.354299
0.353007
0.351775
0.350602
0.349483
0.348417
0.347398
0.373826
0.371554
0.369399
0.367359
0.365429
0.363603
0.361875
0.36024
0.358691
0.35722
0.355823
0.354494
0.353227
0.352019
0.350865
0.349763
0.34871
0.3477
0.373828
0.371551
0.369412
0.367417
0.365556
0.363819
0.362189
0.360651
0.359189
0.357793
0.356456
0.355171
0.353936
0.352745
0.3516
0.350495
0.349435
0.348409
0.373823
0.371554
0.369604
0.367893
0.366339
0.364892
0.363495
0.362122
0.360761
0.359413
0.35808
0.356769
0.355488
0.354237
0.353028
0.351855
0.350733
0.349644
0.373788
0.371991
0.371113
0.370265
0.36936
0.368311
0.367048
0.365629
0.36412
0.362575
0.36103
0.359522
0.358073
0.356682
0.355381
0.354141
0.353009
0.351924
0.374355
0.375572
0.377775
0.377857
0.377288
0.375885
0.373835
0.37164
0.369505
0.367482
0.365664
0.364083
0.36271
0.361535
0.36061
0.359819
0.359291
0.358804
0.379125
0.394296
0.398249
0.396573
0.392538
0.387602
0.383645
0.380447
0.378268
0.376852
0.376497
0.376741
0.377417
0.378694
0.380447
0.38243
0.384838
0.387152
0.408394
0.42754
0.422415
0.411055
0.402226
0.397923
0.398625
0.400962
0.40607
0.413055
0.421003
0.429835
0.438848
0.448208
0.457332
0.466586
0.475368
0.484241
0.36605
0.353415
0.341988
0.33021
0.318982
0.308381
0.299411
0.29167
0.285404
0.280333
0.276682
0.273867
0.272313
0.271176
0.271215
0.271478
0.272196
0.273401
0.00838309
0.0267725
0.0417046
0.0554185
0.0685906
0.0812409
0.0931052
0.103889
0.113032
0.120002
0.123918
0.124686
0.121644
0.123931
0.12881
0.131697
0.130761
0.123927
0.107881
0.122774
0.131251
0.141136
0.15586
0.16655
0.178588
0.190879
0.203586
0.216581
0.229827
0.243265
0.256862
0.270573
0.284384
0.298256
0.312188
0.326147
0.340149
0.354164
0.368227
0.382306
0.396437
0.410591
0.424806
0.439056
0.453381
0.467754
0.482219
0.496747
0.511382
0.526091
0.540922
0.555838
0.570887
0.586028
0.601305
0.616677
0.632188
0.647788
0.663513
0.679313
0.695224
0.711187
0.727236
0.743313
0.759445
0.775575
0.791719
0.807823
0.823887
0.839862
0.855728
0.871437
0.886942
0.902199
0.917155
0.93177
0.946036
0.960028
0.97373
0.986974
0.999802
1.01214
1.02399
1.03527
1.04603
1.05613
1.0657
1.07454
1.08277
1.09018
1.09665
1.10235
1.10722
1.11132
1.11462
1.11718
1.11901
1.12024
1.12085
1.12003
1.11793
1.11644
1.11403
1.11111
1.10773
1.10392
1.09976
1.09528
1.09056
1.08565
1.0806
1.07547
1.0703
1.06516
1.05998
1.05497
1.05005
1.04513
1.04042
1.03582
1.03137
1.02719
1.02297
1.01984
1.01604
1.01257
1.00905
1.00556
1.00251
0.999184
0.995467
0.992019
0.989436
0.985934
0.982484
0.978901
0.975104
0.971108
0.966889
0.962639
0.958057
0.953188
0.948022
0.942468
0.936498
0.930084
0.923194
0.915807
0.90791
0.899493
0.890553
0.88109
0.871112
0.860592
0.849545
0.83804
0.82617
0.81375
0.800938
0.788159
0.774223
0.763933
0.756768
0.749645
0.742255
0.734509
0.726441
0.718007
0.709373
0.700282
0.690786
0.681016
0.671044
0.660763
0.650081
0.639078
0.627819
0.614431
0.603798
0.565976
0.0217215
0.0530887
0.0733719
0.0893281
0.10358
0.117033
0.129891
0.142083
0.153347
0.163457
0.172391
0.180997
0.191687
0.203486
0.214754
0.225247
0.235341
0.245724
0.258045
0.27625
0.296587
0.318428
0.339679
0.360207
0.381443
0.403342
0.425809
0.448763
0.47214
0.495884
0.519938
0.544257
0.568801
0.593536
0.618438
0.643483
0.668662
0.693965
0.719396
0.744949
0.770632
0.796445
0.822404
0.848511
0.874787
0.901238
0.927886
0.954739
0.981821
1.00914
1.03672
1.06456
1.0927
1.12113
1.14987
1.17894
1.20835
1.2381
1.26817
1.29853
1.32919
1.36013
1.39134
1.42281
1.45453
1.48645
1.51857
1.55084
1.58324
1.61572
1.64822
1.6807
1.71308
1.7453
1.77729
1.80889
1.83998
1.87038
1.90008
1.92921
1.9577
1.98547
2.01246
2.03856
2.06371
2.08782
2.11083
2.13265
2.15321
2.17231
2.18986
2.20587
2.2203
2.23316
2.24443
2.2541
2.26218
2.26867
2.2736
2.2767
2.2782
2.2788
2.27815
2.27609
2.27289
2.26867
2.26354
2.2576
2.25094
2.24368
2.23591
2.22774
2.21924
2.21052
2.20169
2.19281
2.18387
2.175
2.16626
2.15768
2.14928
2.14111
2.13319
2.12561
2.11814
2.11092
2.1039
2.09704
2.09038
2.08377
2.07732
2.07099
2.06481
2.05854
2.05227
2.04592
2.03942
2.0327
2.02574
2.01851
2.01096
2.00306
1.99472
1.98584
1.97637
1.96623
1.95537
1.94372
1.93126
1.91794
1.90374
1.88862
1.87259
1.85562
1.8377
1.81882
1.79903
1.77836
1.75676
1.73449
1.71157
1.68817
1.66437
1.63976
1.61427
1.58794
1.56085
1.53305
1.50465
1.47561
1.44568
1.41529
1.38456
1.35341
1.32187
1.29021
1.25836
1.22599
1.19963
1.14283
0.0390988
0.0812828
0.105914
0.124923
0.141765
0.157653
0.173091
0.18831
0.203399
0.218481
0.233804
0.249817
0.266911
0.284602
0.302527
0.320724
0.339509
0.359312
0.380638
0.403879
0.428613
0.454389
0.48088
0.507851
0.535404
0.563569
0.592307
0.621561
0.651273
0.681387
0.711851
0.742615
0.773641
0.804896
0.836355
0.867998
0.899814
0.931791
0.963926
0.996215
1.02866
1.06127
1.09405
1.12701
1.16016
1.19351
1.22708
1.26087
1.29492
1.32922
1.3638
1.39867
1.43384
1.46932
1.50513
1.54126
1.57774
1.61455
1.65169
1.68917
1.72696
1.76507
1.80349
1.84219
1.88116
1.92037
1.9598
1.99941
2.03916
2.07901
2.11891
2.1588
2.19862
2.23829
2.27774
2.31689
2.35565
2.39395
2.4317
2.46885
2.50531
2.54097
2.57574
2.60951
2.64217
2.67361
2.70374
2.73247
2.75966
2.78517
2.80886
2.8307
2.85066
2.86868
2.88474
2.89881
2.91088
2.92096
2.92906
2.93519
2.93948
2.94184
2.9426
2.94182
2.93946
2.93574
2.93078
2.92469
2.9176
2.90961
2.90086
2.89146
2.88151
2.87114
2.86047
2.84955
2.83846
2.82732
2.81617
2.80505
2.79404
2.78318
2.77243
2.76188
2.75142
2.7411
2.73092
2.72087
2.71093
2.70103
2.69124
2.68145
2.67169
2.66182
2.65188
2.64177
2.63144
2.62083
2.60987
2.59854
2.58677
2.57453
2.5617
2.54821
2.53396
2.51888
2.5029
2.48596
2.468
2.44898
2.42886
2.4076
2.38518
2.36159
2.33683
2.31089
2.2838
2.25558
2.22622
2.19584
2.16472
2.13278
2.10006
2.06642
2.03188
1.99649
1.96035
1.9235
1.88607
1.84812
1.80965
1.77084
1.73182
1.69246
1.65279
1.61328
1.57402
1.53534
1.50144
1.45074
0.0575812
0.108645
0.137989
0.1603
0.179839
0.19819
0.216104
0.233998
0.252113
0.270636
0.289737
0.309592
0.33029
0.35174
0.373862
0.396693
0.42038
0.445115
0.471074
0.498337
0.526824
0.556369
0.586798
0.617953
0.649781
0.682246
0.715303
0.748903
0.782992
0.817517
0.852428
0.887679
0.923235
0.959065
0.995143
1.03145
1.06797
1.10469
1.1416
1.17871
1.21601
1.2535
1.29118
1.32908
1.36718
1.40551
1.44408
1.4829
1.52199
1.56135
1.601
1.64095
1.68123
1.72183
1.76277
1.80406
1.84571
1.88772
1.9301
1.97283
2.01593
2.05938
2.10317
2.1473
2.19174
2.23648
2.28148
2.32673
2.37218
2.41779
2.46351
2.5093
2.55509
2.60081
2.6464
2.69178
2.73686
2.78157
2.8258
2.86945
2.91243
2.95462
2.9959
3.03615
3.07523
3.11303
3.14942
3.18428
3.21747
3.24882
3.27821
3.30555
3.33079
3.35385
3.37468
3.39324
3.4095
3.42344
3.43509
3.44448
3.45166
3.45671
3.45957
3.46048
3.45956
3.45692
3.4527
3.44705
3.44008
3.43192
3.42271
3.41258
3.40166
3.39007
3.37793
3.36534
3.35239
3.33918
3.32579
3.31228
3.29871
3.28512
3.27153
3.25796
3.24439
3.23085
3.21733
3.20384
3.19035
3.17683
3.1633
3.14968
3.13597
3.1221
3.10805
3.09375
3.07916
3.0642
3.04883
3.033
3.01666
2.99973
2.98212
2.96375
2.94453
2.92439
2.90324
2.88102
2.85767
2.83314
2.80738
2.78036
2.75206
2.72247
2.69159
2.65942
2.62598
2.59131
2.55545
2.51851
2.48069
2.44199
2.40242
2.36195
2.32064
2.27854
2.23574
2.19233
2.14843
2.10411
2.05948
2.01465
1.96978
1.92492
1.88022
1.83603
1.79254
1.75025
1.71186
1.66453
0.0758345
0.134767
0.168698
0.194327
0.21654
0.237218
0.257302
0.277334
0.297645
0.318464
0.339952
0.362238
0.385397
0.409454
0.434414
0.460312
0.487214
0.5152
0.544332
0.574624
0.606035
0.63848
0.671856
0.706064
0.741028
0.776689
0.812991
0.849879
0.887299
0.925201
0.963539
1.00228
1.04138
1.08081
1.12055
1.16057
1.20087
1.24141
1.2822
1.32322
1.36448
1.40597
1.44769
1.48965
1.53186
1.57431
1.61704
1.66003
1.70332
1.7469
1.7908
1.83503
1.8796
1.92453
1.96982
2.01549
2.06156
2.10802
2.15488
2.20215
2.24983
2.29792
2.3464
2.39529
2.44456
2.49419
2.54417
2.59447
2.64507
2.69591
2.74697
2.79819
2.84951
2.90088
2.95223
3.00347
3.05453
3.1053
3.15569
3.20558
3.25487
3.30342
3.35109
3.39776
3.44328
3.48749
3.53026
3.57144
3.61086
3.64835
3.68376
3.71698
3.7479
3.77645
3.80254
3.82609
3.84706
3.86542
3.88117
3.89432
3.90491
3.91302
3.9187
3.9219
3.92285
3.92172
3.91865
3.91378
3.90725
3.89919
3.88976
3.87908
3.86731
3.85457
3.84101
3.82673
3.81185
3.79646
3.78067
3.76454
3.74815
3.73155
3.71476
3.69782
3.68074
3.66353
3.64621
3.62877
3.6112
3.59349
3.57563
3.55758
3.53931
3.5208
3.502
3.48288
3.46337
3.44343
3.42302
3.40207
3.38054
3.35836
3.33544
3.31169
3.28705
3.26144
3.23477
3.20699
3.17803
3.14782
3.11635
3.08357
3.04947
3.01404
2.97728
2.93922
2.89988
2.85933
2.81764
2.7749
2.73125
2.68674
2.64139
2.59521
2.54827
2.50064
2.4524
2.40367
2.35454
2.30515
2.25559
2.206
2.15654
2.10734
2.05859
2.01066
1.96391
1.91915
1.87786
1.83181
0.093098
0.15874
0.196895
0.225651
0.250379
0.273192
0.295176
0.316968
0.338976
0.361476
0.384664
0.40868
0.433622
0.459551
0.486505
0.514519
0.543627
0.573858
0.605229
0.637731
0.671328
0.705963
0.741565
0.778058
0.815375
0.853451
0.892231
0.931659
0.971684
1.01226
1.05335
1.0949
1.13689
1.17929
1.22206
1.26518
1.30864
1.35242
1.39649
1.44086
1.48551
1.53044
1.57566
1.62115
1.66693
1.713
1.75937
1.80605
1.85305
1.90038
1.94806
1.99611
2.04453
2.09334
2.14256
2.1922
2.24228
2.2928
2.34377
2.39521
2.44712
2.4995
2.55235
2.60568
2.65947
2.71371
2.7684
2.82351
2.87901
2.93488
2.99108
3.04757
3.10428
3.16118
3.21817
3.2752
3.33217
3.38898
3.44553
3.50171
3.55738
3.61241
3.66665
3.71996
3.77217
3.8231
3.8726
3.92049
3.96659
4.01069
4.05262
4.09223
4.1294
4.164
4.19592
4.22505
4.25133
4.27469
4.29511
4.31259
4.32714
4.33881
4.34766
4.35377
4.35705
4.35783
4.35623
4.35245
4.34662
4.33886
4.32935
4.31823
4.30566
4.29179
4.27675
4.26069
4.24373
4.22598
4.20756
4.18854
4.16902
4.14905
4.12868
4.10795
4.0869
4.06554
4.04388
4.02195
3.99973
3.97722
3.95441
3.93129
3.90783
3.884
3.85979
3.83515
3.81005
3.78445
3.75831
3.73158
3.70422
3.67616
3.64733
3.61765
3.58707
3.5555
3.52288
3.48916
3.45426
3.41814
3.38077
3.34211
3.30216
3.26091
3.2184
3.17466
3.12973
3.0837
3.03662
2.98861
2.93975
2.89012
2.83973
2.78864
2.73689
2.68458
2.63177
2.57859
2.52514
2.47156
2.41796
2.36449
2.31132
2.25862
2.20662
2.15568
2.10623
2.05915
2.01531
1.96927
0.108809
0.179969
0.221843
0.253412
0.280427
0.305178
0.328853
0.352165
0.375577
0.399411
0.4239
0.449213
0.475469
0.502751
0.531115
0.560599
0.591226
0.62301
0.65595
0.690027
0.72521
0.761452
0.798697
0.836886
0.875959
0.915858
0.95653
0.997923
1.03999
1.08269
1.12597
1.16981
1.21416
1.259
1.30429
1.35002
1.39616
1.44268
1.48958
1.53683
1.58444
1.63239
1.68067
1.7293
1.77825
1.82756
1.8772
1.92721
1.97758
2.02833
2.07947
2.13102
2.18299
2.2354
2.28827
2.34161
2.39544
2.44977
2.50461
2.55999
2.6159
2.67237
2.72939
2.78697
2.8451
2.90379
2.96303
3.0228
3.08309
3.14386
3.2051
3.26675
3.32879
3.39114
3.45375
3.51655
3.57943
3.64232
3.7051
3.76765
3.82983
3.89151
3.95253
4.01272
4.0719
4.12988
4.18647
4.24148
4.29469
4.34588
4.39483
4.44136
4.48531
4.52651
4.56483
4.60012
4.63227
4.6612
4.68685
4.70919
4.7282
4.74393
4.75642
4.76573
4.7719
4.77492
4.77518
4.77278
4.76788
4.76063
4.75119
4.73973
4.72642
4.71142
4.69488
4.67696
4.65779
4.63752
4.61626
4.59411
4.57118
4.54753
4.52323
4.49834
4.47289
4.44692
4.42047
4.39354
4.36614
4.33828
4.30996
4.28117
4.25191
4.22215
4.19189
4.1611
4.12977
4.09786
4.06535
4.03221
3.99839
3.96385
3.92853
3.89238
3.85534
3.81736
3.77837
3.73832
3.69716
3.65486
3.61137
3.56669
3.52082
3.47379
3.42562
3.37638
3.32611
3.2749
3.22283
3.16997
3.11641
3.06222
3.00743
2.95207
2.8962
2.83991
2.78326
2.72636
2.66933
2.61229
2.55539
2.49876
2.44259
2.38707
2.33245
2.27909
2.22744
2.17832
2.13222
2.08532
0.122635
0.198182
0.243211
0.277222
0.306258
0.332743
0.357933
0.382589
0.407213
0.432163
0.457698
0.484013
0.511249
0.539507
0.568857
0.599344
0.630993
0.663816
0.697809
0.732954
0.769223
0.806579
0.844975
0.884364
0.924695
0.965918
1.00798
1.05085
1.09447
1.1388
1.18381
1.22945
1.2757
1.32253
1.3699
1.41779
1.46617
1.51503
1.56434
1.61409
1.66427
1.71486
1.76586
1.81727
1.86908
1.92129
1.97391
2.02695
2.08041
2.13431
2.18865
2.24346
2.29875
2.35454
2.41084
2.46767
2.52506
2.58301
2.64155
2.70069
2.76045
2.82084
2.88187
2.94355
3.00589
3.06889
3.13254
3.19684
3.26179
3.32735
3.39352
3.46025
3.52751
3.59525
3.66341
3.73192
3.80069
3.86965
3.93867
4.00763
4.0764
4.14484
4.21276
4.28001
4.34637
4.41164
4.47562
4.53806
4.59875
4.65741
4.71379
4.76768
4.81888
4.86717
4.91239
4.95434
4.99288
5.02789
5.05927
5.08696
5.11093
5.13118
5.14773
5.16065
5.17
5.17578
5.17819
5.17747
5.17377
5.16724
5.15805
5.14639
5.13243
5.11634
5.09832
5.07851
5.05709
5.0342
5.00996
4.98452
4.95797
4.9304
4.90191
4.87254
4.84238
4.81145
4.7798
4.74745
4.71443
4.68076
4.64644
4.61148
4.57589
4.53967
4.50281
4.46531
4.42716
4.38837
4.34892
4.30879
4.26796
4.2264
4.18408
4.14095
4.09699
4.05214
4.00638
3.95965
3.91192
3.86317
3.8134
3.76259
3.71077
3.65798
3.60426
3.54969
3.49432
3.43824
3.38151
3.32422
3.26643
3.2082
3.14956
3.09053
3.03117
2.97153
2.9117
2.85175
2.79179
2.73197
2.67241
2.61327
2.55472
2.49697
2.44028
2.38501
2.33158
2.28072
2.23267
2.18461
0.134423
0.213344
0.260963
0.297033
0.327809
0.355811
0.382338
0.408181
0.433864
0.459765
0.486161
0.513266
0.541235
0.570186
0.600202
0.631339
0.66363
0.697091
0.731724
0.767517
0.80445
0.842493
0.881612
0.921768
0.96292
1.00503
1.04805
1.09194
1.13667
1.1822
1.22849
1.27551
1.32322
1.37161
1.42064
1.47028
1.52052
1.57132
1.62267
1.67454
1.72694
1.77983
1.83322
1.88709
1.94145
1.99629
2.05161
2.10742
2.16373
2.22054
2.27787
2.33573
2.39414
2.45312
2.51267
2.57283
2.63362
2.69504
2.75712
2.81988
2.88334
2.94752
3.01242
3.07807
3.14447
3.21163
3.27956
3.34826
3.41772
3.48793
3.55888
3.63055
3.7029
3.77588
3.84946
3.92357
3.99812
4.07304
4.14822
4.22354
4.29886
4.37403
4.44888
4.52322
4.59684
4.66952
4.74103
4.8111
4.87948
4.94588
5.00999
5.07157
5.13036
5.18613
5.23864
5.28767
5.33303
5.37455
5.4121
5.44558
5.47494
5.50013
5.52117
5.53808
5.55094
5.55982
5.56475
5.56604
5.56381
5.55825
5.54953
5.53784
5.52337
5.50632
5.48689
5.46525
5.44158
5.41604
5.38879
5.35996
5.32969
5.29807
5.2652
5.23118
5.19606
5.15991
5.12278
5.08471
5.04574
5.0059
4.9652
4.92368
4.88134
4.83821
4.7943
4.74963
4.70421
4.65805
4.61117
4.56357
4.51524
4.46619
4.41639
4.36584
4.31452
4.26242
4.20951
4.15579
4.10123
4.04584
3.98963
3.93261
3.87483
3.81634
3.75719
3.69746
3.63723
3.57656
3.51553
3.4542
3.39263
3.33085
3.26888
3.20675
3.14447
3.08211
3.01969
2.95731
2.89506
2.83307
2.77147
2.71041
2.65006
2.59063
2.53238
2.47566
2.42084
2.36857
2.3189
2.26971
0.144141
0.225569
0.27525
0.313004
0.345234
0.374526
0.402203
0.429071
0.455663
0.482365
0.509466
0.537187
0.565694
0.595118
0.625552
0.657063
0.689694
0.723473
0.758409
0.794501
0.831738
0.870101
0.909568
0.950109
0.991692
1.03429
1.07786
1.12238
1.16781
1.21412
1.26129
1.30928
1.35806
1.40762
1.45791
1.50892
1.56063
1.613
1.66603
1.71969
1.77397
1.82884
1.88431
1.94036
1.99698
2.05418
2.11195
2.1703
2.22923
2.28875
2.34887
2.40961
2.47097
2.53297
2.59564
2.65899
2.72303
2.78779
2.85329
2.91955
2.98658
3.05441
3.12306
3.19253
3.26286
3.33404
3.40609
3.47901
3.55282
3.6275
3.70304
3.77944
3.85667
3.93469
4.01347
4.09295
4.17307
4.25374
4.33486
4.41633
4.49802
4.57976
4.66139
4.74271
4.8235
4.90354
4.98255
5.06028
5.13642
5.21064
5.28263
5.35207
5.41867
5.48216
5.54223
5.59864
5.65113
5.6995
5.74357
5.78321
5.81831
5.84882
5.8747
5.89598
5.9127
5.92494
5.93277
5.93638
5.93595
5.93165
5.92364
5.91214
5.89735
5.87951
5.85881
5.83545
5.80962
5.78151
5.75129
5.71909
5.68508
5.64937
5.61207
5.57329
5.53311
5.4916
5.44882
5.40484
5.35969
5.31344
5.2661
5.21773
5.16835
5.11799
5.0667
5.01449
4.96142
4.90751
4.8528
4.79731
4.74108
4.68412
4.62646
4.5681
4.50906
4.44937
4.38903
4.32806
4.26647
4.20428
4.14154
4.07827
4.01454
3.95041
3.88596
3.82126
3.75641
3.69145
3.62645
3.56147
3.49655
3.4317
3.36692
3.30223
3.23761
3.17309
3.1087
3.04448
2.98054
2.91699
2.85394
2.79154
2.72995
2.66937
2.61005
2.55231
2.4965
2.44316
2.39222
2.34208
0.151838
0.235046
0.286317
0.325404
0.358808
0.389155
0.417782
0.445498
0.47284
0.500194
0.527849
0.556029
0.584909
0.614623
0.645274
0.676938
0.709671
0.743509
0.778475
0.814578
0.851817
0.890188
0.929678
0.970268
1.01194
1.05467
1.09844
1.14321
1.18898
1.23571
1.28338
1.33196
1.38144
1.43179
1.48298
1.53501
1.58783
1.64144
1.69582
1.75094
1.80678
1.86334
1.9206
1.97856
2.0372
2.09652
2.15652
2.2172
2.27857
2.34062
2.40338
2.46684
2.53101
2.59592
2.66158
2.728
2.7952
2.86319
2.93201
3.00165
3.07215
3.14353
3.21579
3.28896
3.36307
3.43811
3.51411
3.59107
3.66901
3.74793
3.82783
3.9087
3.99052
4.07328
4.15695
4.24147
4.3268
4.41287
4.49958
4.58685
4.67454
4.7625
4.85058
4.93857
5.02626
5.11339
5.19969
5.28489
5.36864
5.4506
5.5304
5.6077
5.68215
5.75342
5.82119
5.88512
5.94494
6.00039
6.05123
6.09729
6.13843
6.17455
6.20559
6.23155
6.25246
6.26837
6.27939
6.28567
6.28735
6.28462
6.27758
6.26652
6.25167
6.23325
6.21148
6.18659
6.15877
6.12823
6.09515
6.05969
6.02202
5.98227
5.94058
5.89705
5.85179
5.80488
5.7564
5.70642
5.655
5.6022
5.54808
5.49268
5.43605
5.37825
5.31933
5.25934
5.19834
5.13639
5.07354
5.00987
4.94542
4.88024
4.8144
4.74794
4.68092
4.61339
4.54539
4.47698
4.40821
4.33912
4.26979
4.20026
4.13062
4.06095
3.99133
3.92187
3.85264
3.78369
3.71507
3.64683
3.57898
3.51153
3.44446
3.37773
3.31133
3.24523
3.17945
3.11398
3.04893
2.98441
2.9205
2.85732
2.79504
2.73382
2.67392
2.6156
2.5592
2.50516
2.45333
2.40254
0.15761
0.241996
0.294439
0.334539
0.368846
0.400013
0.429381
0.457759
0.48568
0.513526
0.541584
0.570076
0.599175
0.629022
0.659723
0.691364
0.724008
0.757704
0.792483
0.828367
0.865366
0.903487
0.942728
0.983086
1.02455
1.06712
1.11076
1.15548
1.20125
1.24807
1.29591
1.34476
1.3946
1.44542
1.4972
1.54992
1.60356
1.6581
1.71353
1.76982
1.82697
1.88496
1.94377
2.00341
2.06385
2.1251
2.18715
2.25
2.31366
2.37811
2.44338
2.50946
2.57636
2.64409
2.71267
2.78209
2.85238
2.92354
2.99559
3.06855
3.14244
3.21726
3.29303
3.36978
3.44752
3.52626
3.60602
3.68681
3.76864
3.85153
3.93547
4.02047
4.10653
4.19363
4.28175
4.37086
4.46092
4.55188
4.64366
4.73618
4.82932
4.92296
5.01694
5.11107
5.20513
5.29886
5.392
5.48424
5.57523
5.6646
5.75193
5.83686
5.91899
5.99793
6.07331
6.14477
6.21195
6.27454
6.33228
6.38492
6.43228
6.47423
6.51068
6.54159
6.56696
6.58685
6.60134
6.61057
6.61468
6.61382
6.60811
6.59776
6.5831
6.56436
6.54178
6.51559
6.48601
6.45324
6.4175
6.37895
6.33778
6.29414
6.24817
6.19999
6.14973
6.09747
6.04332
5.98735
5.92965
5.87028
5.80931
5.74682
5.68285
5.6175
5.55082
5.48289
5.41379
5.34362
5.27246
5.20039
5.12752
5.05392
4.9797
4.90495
4.82976
4.75423
4.67843
4.60247
4.52643
4.45041
4.37447
4.29872
4.22324
4.14815
4.07354
3.99953
3.92619
3.85356
3.78167
3.71057
3.64023
3.57066
3.50178
3.43356
3.36593
3.29883
3.23223
3.16609
3.10053
3.03562
2.97143
2.90806
2.84562
2.78429
2.72428
2.66585
2.60926
2.55491
2.50261
2.45153
0.161581
0.246642
0.29989
0.34071
0.375665
0.40742
0.437319
0.466165
0.494487
0.52266
0.550967
0.579624
0.608804
0.638646
0.669261
0.700738
0.733151
0.766556
0.800989
0.836477
0.873044
0.910711
0.949491
0.989395
1.03043
1.07262
1.11591
1.16031
1.20583
1.25246
1.3002
1.34905
1.39899
1.45001
1.50212
1.55529
1.6095
1.66475
1.72101
1.77824
1.83647
1.8957
1.95589
2.01704
2.07913
2.14217
2.20616
2.27108
2.33694
2.40373
2.47146
2.54012
2.60972
2.68025
2.75171
2.82412
2.89748
2.97179
3.04706
3.12329
3.20051
3.27871
3.3579
3.43811
3.51934
3.6016
3.68491
3.76928
3.85472
3.94125
4.02887
4.1176
4.20742
4.29835
4.39037
4.48347
4.57762
4.67278
4.76891
4.86593
4.96376
5.06229
5.16137
5.26084
5.36048
5.46006
5.55929
5.65787
5.75544
5.85161
5.94593
6.038
6.12738
6.21365
6.29637
6.37513
6.44952
6.51918
6.58378
6.64303
6.69669
6.7446
6.78661
6.82266
6.85273
6.87683
6.89505
6.9075
6.91437
6.91563
6.9116
6.90226
6.88809
6.86932
6.84621
6.819
6.78792
6.75319
6.71503
6.67363
6.62918
6.58185
6.53179
6.47914
6.42403
6.36657
6.30686
6.24501
6.1811
6.11523
6.04746
5.9779
5.90661
5.83369
5.75923
5.68333
5.60609
5.52763
5.44807
5.36753
5.28614
5.20404
5.12135
5.03821
4.95477
4.87116
4.78751
4.70397
4.62065
4.5377
4.45523
4.37333
4.29214
4.21178
4.13238
4.05404
3.9768
3.90074
3.82591
3.75231
3.67993
3.60872
3.53859
3.46944
3.40118
3.33372
3.26695
3.20076
3.13532
3.07063
3.00675
2.94374
2.88171
2.8208
2.76119
2.7031
2.64675
2.59253
2.54017
2.48921
0.164024
0.249227
0.30293
0.344194
0.379553
0.411672
0.441892
0.471012
0.499555
0.527891
0.556295
0.584981
0.614116
0.643838
0.674259
0.705471
0.737554
0.770566
0.804557
0.83954
0.875553
0.912634
0.950812
0.990115
1.03057
1.07223
1.11502
1.15898
1.2041
1.2504
1.29788
1.34655
1.39642
1.44748
1.49973
1.55317
1.60779
1.66358
1.72052
1.77859
1.83785
1.89825
1.95976
2.02234
2.08601
2.1508
2.21669
2.28367
2.35174
2.4209
2.49112
2.5624
2.63474
2.70812
2.78253
2.85798
2.93444
3.01193
3.09042
3.16993
3.25045
3.33197
3.41451
3.49805
3.58262
3.66821
3.75483
3.84249
3.93119
4.02096
4.1118
4.20373
4.29674
4.39085
4.48606
4.58237
4.67978
4.77826
4.87778
4.97832
5.0798
5.18215
5.28525
5.38896
5.49309
5.59743
5.7017
5.8056
5.90877
6.0108
6.11126
6.20969
6.30563
6.3986
6.48813
6.57375
6.655
6.73145
6.80271
6.86844
6.92836
6.98222
7.02986
7.07116
7.10607
7.13457
7.15674
7.17266
7.18246
7.18623
7.18418
7.17621
7.16282
7.14433
7.121
7.09307
7.06079
7.0244
6.98412
6.94015
6.8927
6.84194
6.78805
6.73117
6.67143
6.60898
6.54392
6.47636
6.40642
6.33418
6.25975
6.18324
6.10473
6.02434
5.94217
5.85836
5.77304
5.68633
5.59841
5.50942
5.41954
5.32895
5.2378
5.1463
5.05463
4.96298
4.87152
4.78043
4.68991
4.60009
4.51097
4.42286
4.33593
4.25035
4.16629
4.08382
4.0032
3.92432
3.84714
3.77165
3.69779
3.6255
3.55466
3.48513
3.41678
3.34947
3.28305
3.21731
3.15262
3.08884
3.02594
2.96396
2.90297
2.84308
2.78445
2.72725
2.67163
2.61797
2.56602
2.51562
0.164513
0.249742
0.303682
0.345178
0.380734
0.413012
0.443358
0.472568
0.501162
0.529507
0.557873
0.586468
0.615457
0.644974
0.675128
0.706013
0.73771
0.770296
0.803853
0.838347
0.873838
0.910368
0.947975
0.986691
1.02654
1.06753
1.10969
1.15306
1.19766
1.24353
1.29067
1.33912
1.38887
1.43996
1.49237
1.54613
1.60123
1.65765
1.7154
1.77444
1.83476
1.89636
1.95924
2.02332
2.08865
2.15528
2.2232
2.29237
2.36279
2.43444
2.5073
2.58135
2.65657
2.73294
2.81042
2.88901
2.96867
3.04939
3.13116
3.21394
3.29773
3.38252
3.46828
3.55501
3.64271
3.73136
3.82096
3.91152
4.00304
4.09552
4.18898
4.28343
4.37887
4.47533
4.57282
4.67136
4.77094
4.8716
4.97331
5.07608
5.17989
5.28468
5.39038
5.4969
5.60408
5.71174
5.81964
5.92747
6.0349
6.14153
6.24691
6.35058
6.45205
6.55081
6.64633
6.7381
6.82561
6.90836
6.9859
7.05782
7.12378
7.18348
7.23669
7.28327
7.32309
7.35613
7.38241
7.402
7.41503
7.42162
7.42171
7.41555
7.40324
7.38535
7.36212
7.33381
7.30067
7.26295
7.22088
7.17467
7.12454
7.07067
7.01325
6.95243
6.88836
6.82118
6.75103
6.67801
6.60226
6.52389
6.44301
6.35975
6.27421
6.18652
6.09683
6.00527
5.91201
5.81721
5.72105
5.62375
5.52552
5.42656
5.32708
5.22734
5.12757
5.02778
4.92837
4.8296
4.73178
4.63516
4.54011
4.44655
4.35467
4.26464
4.17665
4.09078
4.0074
3.92601
3.84682
3.76981
3.69493
3.62206
3.55104
3.4817
3.41384
3.3473
3.28189
3.21728
3.15381
3.09134
3.02982
2.96925
2.90968
2.85119
2.79392
2.73799
2.68351
2.63093
2.57988
2.53053
0.164035
0.24891
0.30272
0.344147
0.379641
0.411853
0.442124
0.47125
0.499748
0.527982
0.556217
0.584657
0.613461
0.642759
0.672655
0.703237
0.734576
0.766728
0.799727
0.833639
0.868525
0.90444
0.941433
0.979556
1.01886
1.05938
1.10113
1.14416
1.18849
1.23417
1.28123
1.32969
1.37959
1.43095
1.48378
1.53812
1.594
1.65134
1.71015
1.77044
1.83219
1.89541
1.96008
2.02609
2.09352
2.1624
2.23271
2.30444
2.37757
2.45206
2.52792
2.60507
2.68349
2.76312
2.84392
2.92586
3.00889
3.09298
3.17808
3.26417
3.3512
3.43915
3.52798
3.61767
3.70819
3.79953
3.89167
3.98459
4.07829
4.17278
4.26806
4.36414
4.46103
4.55875
4.65735
4.75683
4.85724
4.95862
5.061
5.1644
5.26886
5.37437
5.48092
5.58845
5.6969
5.80609
5.91584
6.02587
6.13587
6.24547
6.35425
6.46175
6.56745
6.67082
6.7713
6.86832
6.96131
7.04974
7.13306
7.21079
7.28251
7.34788
7.4066
7.45844
7.50326
7.54096
7.57153
7.59501
7.61149
7.62119
7.62371
7.61971
7.60883
7.59185
7.56904
7.54066
7.50697
7.46823
7.42466
7.3765
7.32396
7.26725
7.20655
7.14202
7.07384
7.00215
6.92709
6.84881
6.76742
6.68307
6.59588
6.506
6.41355
6.31869
6.22157
6.12238
6.02129
5.91849
5.81421
5.70867
5.60201
5.49453
5.38654
5.27839
5.17041
5.06313
4.95657
4.851
4.74682
4.64451
4.54362
4.44465
4.34788
4.2535
4.16171
4.07263
3.98642
3.90298
3.82232
3.7444
3.6691
3.59627
3.52572
3.45722
3.39054
3.32544
3.2617
3.1991
3.13763
3.07723
3.01781
2.95936
2.90189
2.84546
2.79015
2.73607
2.68322
2.63206
2.58223
2.53423
0.162495
0.246556
0.299938
0.341062
0.376285
0.408241
0.43827
0.467165
0.49544
0.523457
0.551478
0.579702
0.608285
0.637355
0.667014
0.697351
0.728445
0.760373
0.793197
0.826964
0.861727
0.897545
0.934477
0.972585
1.01193
1.05258
1.09453
1.13782
1.18251
1.22865
1.27628
1.32545
1.37618
1.42851
1.48246
1.53805
1.59527
1.65407
1.71449
1.77655
1.84025
1.9056
1.97258
2.0412
2.11143
2.18324
2.25661
2.33151
2.40789
2.4857
2.56489
2.64541
2.72718
2.81016
2.89428
2.97949
3.06572
3.15293
3.24104
3.33002
3.4198
3.51033
3.60157
3.69348
3.786
3.87911
3.97278
4.06698
4.1617
4.25693
4.35267
4.44894
4.54575
4.64314
4.74113
4.83978
4.93916
5.03932
5.14033
5.24229
5.34526
5.4493
5.55442
5.66069
5.76808
5.87652
5.98583
6.09579
6.20608
6.31639
6.4264
6.53567
6.64372
6.74999
6.8539
6.95483
7.05217
7.14525
7.23344
7.3162
7.39308
7.46364
7.52751
7.5844
7.63408
7.67641
7.71132
7.73878
7.75886
7.77169
7.77721
7.77561
7.76664
7.75095
7.72897
7.70094
7.66714
7.62782
7.58321
7.53357
7.4791
7.42001
7.3565
7.28875
7.21692
7.14117
7.06167
6.97855
6.89197
6.80208
6.70902
6.61295
6.51402
6.41241
6.30828
6.20175
6.09307
5.9825
5.87031
5.75676
5.64239
5.52737
5.41195
5.29656
5.18181
5.06738
4.95387
4.84168
4.73118