/*--------------------------------*- C++ -*----------------------------------*\
  =========                 |
  \\      /  F ield         | OpenFOAM: The Open Source CFD Toolbox
   \\    /   O peration     | Website:  https://openfoam.org
    \\  /    A nd           | Version:  8
     \\/     M anipulation  |
\*---------------------------------------------------------------------------*/
FoamFile
{
    version     2.0;
    format      ascii;
    class       volScalarField;
    location    "120";
    object      nut;
}
// * * * * * * * * * * * * * * * * * * * * * * * * * * * * * * * * * * * * * //

dimensions      [0 2 -1 0 0 0 0];

internalField   nonuniform List<scalar> 
12225
(
4.14928e-05
3.93414e-05
3.74816e-05
3.54349e-05
3.37804e-05
3.24259e-05
3.1502e-05
3.09141e-05
3.09185e-05
3.10952e-05
3.15748e-05
3.20969e-05
3.31738e-05
3.38044e-05
3.51699e-05
3.56856e-05
3.76287e-05
3.98945e-05
0.000332273
0.00021512
0.000179305
0.000157627
0.000146251
0.000138151
0.000132681
0.000131752
0.000129392
0.000130195
0.000128915
0.000129587
0.000128523
0.000128721
0.000127943
0.000127594
0.000127507
0.000126695
0.000668812
0.000450494
0.000355861
0.000309711
0.000275384
0.000250974
0.000231787
0.000217156
0.000202642
0.000192113
0.000182555
0.000175147
0.000169307
0.000163539
0.000160225
0.000155286
0.000153693
0.000149393
0.00080163
0.000691529
0.000572735
0.000499897
0.000449518
0.000411826
0.000380884
0.000355849
0.000334078
0.000314583
0.00029842
0.000281398
0.000270305
0.000255788
0.000248057
0.000235732
0.000230119
0.000219588
0.000839613
0.000810109
0.000740852
0.00067626
0.000624059
0.00058124
0.000545967
0.000514409
0.000489585
0.000464252
0.000445881
0.000423853
0.00040984
0.000390535
0.000379612
0.000362608
0.000354276
0.000338376
0.000850345
0.000843258
0.00081957
0.000786459
0.00075087
0.000715789
0.000685822
0.000656026
0.000632578
0.000607394
0.00058897
0.000567091
0.000552153
0.000532865
0.000520503
0.000503241
0.000493133
0.000476476
0.000851582
0.000851012
0.000843301
0.000833453
0.000817158
0.000796904
0.000777899
0.000756678
0.000738903
0.000719074
0.000703491
0.000685514
0.000672006
0.000655738
0.000644082
0.000629123
0.000619418
0.000604361
0.000851584
0.000851811
0.000850043
0.000847451
0.00084141
0.000833751
0.000824812
0.000813413
0.000802806
0.000790434
0.00077968
0.000767472
0.000757343
0.000745653
0.000736389
0.000725225
0.000717189
0.000705456
0.000851675
0.000851527
0.000851019
0.000850339
0.000848877
0.000846168
0.000843027
0.000838294
0.000833396
0.000827344
0.000821192
0.000814733
0.00080838
0.000801429
0.000795196
0.000788181
0.000782353
0.000774665
0.000851755
0.000851385
0.000851045
0.000850631
0.000850247
0.000849366
0.000848404
0.000846776
0.000844951
0.000842522
0.000839911
0.00083678
0.000833769
0.000830111
0.000826924
0.000822844
0.000819839
0.000815153
0.000851785
0.000851358
0.000851012
0.000850613
0.000850329
0.000849904
0.000849525
0.000848927
0.0008483
0.000847389
0.000846459
0.000845167
0.000843978
0.000842332
0.000840974
0.000838999
0.000837605
0.000835311
0.000851788
0.000851359
0.000850996
0.000850605
0.000850291
0.000849938
0.000849645
0.000849279
0.000848953
0.000848501
0.000848095
0.000847502
0.000846991
0.000846235
0.000845632
0.000844708
0.000844045
0.00084296
0.000851786
0.000851363
0.000850985
0.000850604
0.000850269
0.000849925
0.000849629
0.000849312
0.000849041
0.000848726
0.00084846
0.000848123
0.000847841
0.000847462
0.000847153
0.000846723
0.000846385
0.000845901
0.000851783
0.000851364
0.000850978
0.000850601
0.000850256
0.000849916
0.000849607
0.000849299
0.000849021
0.000848739
0.000848487
0.000848223
0.000847988
0.000847734
0.000847509
0.000847259
0.000847037
0.000846789
0.000851781
0.000851364
0.000850972
0.000850598
0.000850246
0.000849908
0.000849591
0.000849286
0.000849
0.000848723
0.000848463
0.000848212
0.000847976
0.000847746
0.00084753
0.00084732
0.000847121
0.000846927
0.00085178
0.000851363
0.000850969
0.000850594
0.000850239
0.000849901
0.00084958
0.000849275
0.000848985
0.000848707
0.000848444
0.000848192
0.000847953
0.000847724
0.000847506
0.000847298
0.000847099
0.00084691
0.000851779
0.000851362
0.000850967
0.000850591
0.000850234
0.000849895
0.000849572
0.000849265
0.000848973
0.000848695
0.00084843
0.000848176
0.000847935
0.000847704
0.000847484
0.000847274
0.000847073
0.000846882
0.000851779
0.000851362
0.000850965
0.000850589
0.000850231
0.000849891
0.000849567
0.000849259
0.000848966
0.000848686
0.000848419
0.000848165
0.000847922
0.00084769
0.000847468
0.000847257
0.000847054
0.000846861
0.000851779
0.000851362
0.000850965
0.000850588
0.00085023
0.000849889
0.000849565
0.000849257
0.000848962
0.000848682
0.000848415
0.000848159
0.000847915
0.000847682
0.000847459
0.000847246
0.000847042
0.000846847
0.000851779
0.000851362
0.000850965
0.000850589
0.000850231
0.000849891
0.000849567
0.00084926
0.000848965
0.000848686
0.000848417
0.000848163
0.000847918
0.000847685
0.000847461
0.000847248
0.000847042
0.000846846
0.000851779
0.000851363
0.000850967
0.000850592
0.000850235
0.000849897
0.000849573
0.000849267
0.000848973
0.000848694
0.000848424
0.000848169
0.00084792
0.000847683
0.000847451
0.000847231
0.000847013
0.000846806
0.000851778
0.000851366
0.000850968
0.000850599
0.00085024
0.000849907
0.00084958
0.000849274
0.000848964
0.000848671
0.000848365
0.000848072
0.000847756
0.000847455
0.000847122
0.00084681
0.000846456
0.000846134
0.000851773
0.000851376
0.00085097
0.000850615
0.00085024
0.000849889
0.000849478
0.000849054
0.000848529
0.000847978
0.0008473
0.000846604
0.000845766
0.000844938
0.000843952
0.000843027
0.000841914
0.000840935
0.000851768
0.000851415
0.000850964
0.000850548
0.000849861
0.000848966
0.00084761
0.000845976
0.000843904
0.000841636
0.000838954
0.000836213
0.000833114
0.00083011
0.000826758
0.000823673
0.000820175
0.000817166
0.000851859
0.00085138
0.000850196
0.000848243
0.00084447
0.000839354
0.000832765
0.000825658
0.000817961
0.000810009
0.000801615
0.000793624
0.000785326
0.000777698
0.000769732
0.000762686
0.000755105
0.000748771
0.000852108
0.000847667
0.000839902
0.000827145
0.000808709
0.000789645
0.000769976
0.000751411
0.000733303
0.000716892
0.000700929
0.000686773
0.00067282
0.000660657
0.000648361
0.000637919
0.000626927
0.000617987
0.000843241
0.000822505
0.000775187
0.000726456
0.000684897
0.000649849
0.000618462
0.000592017
0.00056838
0.000548307
0.000529684
0.000513982
0.000498741
0.000486002
0.000473184
0.000462685
0.000451594
0.000442771
0.000795682
0.00066824
0.000570629
0.000509903
0.000465607
0.000431181
0.000404148
0.000382478
0.000364199
0.000349065
0.000335938
0.000325055
0.000314499
0.000306225
0.000297947
0.00029135
0.000284261
0.000278906
0.000501314
0.000348356
0.000292674
0.00025918
0.000236324
0.000221176
0.000211621
0.000203853
0.000198564
0.000195073
0.000192221
0.000190365
0.000188581
0.000187435
0.000186164
0.000185468
0.000184554
0.000184141
7.27385e-05
7.02255e-05
6.79542e-05
6.56137e-05
6.33828e-05
6.12761e-05
5.94944e-05
5.79551e-05
5.67108e-05
5.57032e-05
5.49775e-05
5.44181e-05
5.41097e-05
5.38815e-05
5.38986e-05
5.39336e-05
5.40929e-05
5.43262e-05
2.60563e-06
3.79468e-05
5.90519e-05
7.84602e-05
9.70338e-05
0.000114798
0.000131142
0.000145647
0.000157301
0.000165679
0.000169901
0.000172423
0.000176483
0.000180874
0.000187939
0.000187793
0.000178553
0.000154829
2.67833e-05
3.40727e-05
3.85569e-05
4.54201e-05
4.89028e-05
5.04411e-05
5.22098e-05
5.39223e-05
5.5622e-05
5.73061e-05
5.8964e-05
6.05991e-05
6.22029e-05
6.37785e-05
6.53216e-05
6.68346e-05
6.8316e-05
6.97679e-05
7.11912e-05
7.25874e-05
7.39601e-05
7.53084e-05
7.66358e-05
7.7942e-05
7.92307e-05
8.05011e-05
8.17572e-05
8.29977e-05
8.42268e-05
8.54427e-05
8.66497e-05
8.78455e-05
8.90347e-05
9.02141e-05
9.13888e-05
9.25551e-05
9.37178e-05
9.4873e-05
9.60256e-05
9.71703e-05
9.83108e-05
9.9442e-05
0.000100568
0.000101684
0.000102794
0.000103891
0.000104982
0.00010606
0.000107128
0.000108182
0.000109224
0.000110249
0.000111259
0.000112248
0.000113217
0.000114162
0.000115081
0.00011597
0.00011683
0.000117658
0.00011848
0.000119261
0.000120016
0.000120734
0.000121422
0.000122069
0.000122683
0.000123252
0.000123789
0.000124276
0.000124722
0.000125114
0.000125443
0.000125723
0.000125948
0.000126123
0.000126246
0.000126322
0.000126354
0.000126354
0.000126305
0.000126225
0.000125798
0.000125626
0.000125346
0.000125035
0.000124667
0.000124265
0.000123829
0.000123359
0.000122866
0.000122353
0.000121835
0.00012129
0.000120738
0.000120188
0.000119625
0.00011911
0.000118584
0.00011804
0.000117383
0.000116928
0.000116418
0.000115749
0.000115237
0.000114758
0.000114293
0.000113882
0.00011352
0.000113127
0.000112673
0.000112279
0.000111732
0.000111394
0.000110993
0.000110614
0.00011023
0.000109854
0.000109473
0.000109092
0.000108715
0.000108372
0.000107974
0.000107574
0.000107174
0.00010676
0.000106334
0.000105893
0.000105433
0.000104954
0.000104451
0.000103926
0.000103374
0.0001028
0.000102206
0.000101587
0.000100924
0.00010023
9.95442e-05
9.88367e-05
9.80108e-05
9.73859e-05
9.62213e-05
9.5032e-05
9.45018e-05
9.40313e-05
9.35485e-05
9.30448e-05
9.25197e-05
9.19495e-05
9.13946e-05
9.08077e-05
9.01657e-05
8.9478e-05
8.87851e-05
8.80721e-05
8.73023e-05
8.64812e-05
8.56718e-05
8.47277e-05
8.39176e-05
8.09671e-05
6.78188e-06
6.87354e-05
0.000136563
0.000186131
0.000221002
0.000246645
0.000265995
0.000280414
0.000290489
0.000296008
0.000296483
0.000294139
0.000292751
0.0002956
0.000296905
0.000293202
0.000282649
0.000264565
0.000240233
0.000254383
0.000272486
0.000290589
0.00030294
0.000313734
0.000324842
0.000336422
0.000348371
0.000360647
0.000373181
0.000385911
0.000398762
0.000411676
0.000424597
0.000437481
0.000450278
0.00046295
0.000475454
0.000487771
0.000499961
0.000512022
0.00052395
0.000535755
0.000547441
0.000559023
0.00057051
0.000581921
0.000593268
0.000604571
0.000615847
0.000627115
0.000638392
0.000649699
0.000661053
0.000672476
0.000683983
0.000695599
0.000707347
0.000719235
0.00073123
0.000743342
0.000755577
0.000767944
0.000780446
0.000793088
0.000805872
0.000818797
0.000831865
0.000845072
0.000858415
0.000871885
0.000885475
0.000899165
0.000912939
0.000926756
0.000940565
0.000954198
0.000967432
0.00097993
0.000991728
0.00100338
0.00101486
0.00102612
0.00103713
0.00104787
0.00105829
0.00106836
0.00107804
0.00108731
0.00109613
0.0011045
0.00111234
0.00111959
0.00112625
0.00113228
0.0011377
0.00114247
0.0011466
0.00115008
0.00115299
0.00115528
0.00115637
0.00115737
0.00115788
0.00115768
0.00115687
0.00115556
0.00115377
0.00115154
0.0011489
0.0011459
0.0011426
0.00113898
0.00113512
0.00113107
0.00112698
0.0011228
0.00111843
0.001114
0.00110938
0.00110519
0.00110072
0.00109598
0.00109173
0.00108741
0.0010836
0.00107999
0.00107665
0.00107325
0.00106964
0.00106637
0.00106333
0.00106057
0.00105733
0.00105478
0.00105225
0.00104986
0.00104758
0.00104538
0.00104324
0.00104108
0.00103882
0.00103664
0.00103445
0.00103223
0.00102995
0.00102759
0.00102511
0.00102248
0.00101967
0.00101667
0.00101343
0.00100997
0.00100628
0.00100234
0.00099809
0.000993458
0.000988545
0.000983459
0.000977609
0.000971886
0.000965276
0.000954745
0.000943085
0.000930827
0.000918105
0.000904997
0.000891559
0.000877732
0.00086364
0.000849393
0.000834617
0.000819707
0.000804806
0.000789768
0.000774522
0.000759101
0.000743191
0.000727519
0.000712977
0.000666327
1.21882e-05
0.00010066
0.000195434
0.000269443
0.000324357
0.000364235
0.000392784
0.000412706
0.000425743
0.000433746
0.000439069
0.000443449
0.000451551
0.000461505
0.000472586
0.000483346
0.000493
0.000502098
0.000513479
0.000534592
0.000558945
0.000583877
0.000607162
0.000630963
0.000655463
0.000680527
0.000706057
0.000731961
0.000758153
0.000784534
0.000810984
0.000837369
0.000863648
0.00088977
0.00091568
0.000941338
0.000966719
0.000991817
0.00101664
0.00104119
0.00106548
0.00108951
0.00111329
0.00113686
0.00116023
0.00118343
0.00120649
0.00122942
0.00125227
0.00127506
0.00129782
0.00132059
0.00134338
0.00136623
0.00138917
0.00141222
0.0014354
0.00145873
0.00148221
0.00150586
0.00152969
0.00155372
0.00157794
0.00160237
0.00162701
0.00165185
0.00167688
0.00170211
0.0017275
0.00175304
0.0017787
0.00180444
0.0018302
0.00185591
0.00188147
0.00190675
0.0019316
0.0019559
0.00197972
0.00200324
0.00202641
0.00204917
0.00207145
0.0020932
0.00211434
0.0021348
0.00215451
0.00217342
0.00219147
0.0022086
0.0022247
0.0022397
0.00225354
0.00226617
0.00227757
0.00228771
0.00229657
0.00230416
0.0023105
0.00231556
0.00231916
0.00232137
0.00232253
0.00232288
0.00232199
0.00232008
0.00231719
0.00231339
0.00230874
0.00230334
0.00229727
0.00229057
0.00228337
0.00227575
0.00226786
0.00225967
0.0022512
0.00224259
0.00223385
0.00222521
0.00221641
0.00220757
0.00219899
0.00219057
0.00218253
0.00217473
0.00216716
0.00215963
0.00215212
0.00214491
0.00213803
0.00213129
0.00212443
0.00211805
0.00211179
0.00210568
0.00209966
0.00209371
0.00208775
0.00208171
0.00207555
0.00206935
0.00206301
0.00205652
0.0020498
0.00204279
0.00203545
0.00202771
0.00201951
0.00201085
0.0020016
0.00199184
0.00198151
0.0019706
0.00195903
0.00194677
0.00193385
0.00192034
0.00190586
0.0018908
0.00187471
0.00185519
0.00183373
0.00181114
0.00178773
0.00176363
0.00173892
0.00171362
0.00168781
0.00166173
0.00163521
0.00160843
0.00158206
0.00155552
0.00152871
0.0015019
0.00147459
0.00144727
0.00142043
0.00135449
1.79424e-05
0.000126901
0.000243868
0.000337155
0.000408004
0.000460786
0.000499964
0.000529171
0.000551339
0.000569033
0.000584707
0.000600722
0.000617192
0.000634962
0.000654996
0.000676823
0.000699885
0.00072408
0.000750329
0.000779811
0.000811267
0.000843632
0.000877492
0.000911964
0.000946957
0.000982531
0.00101859
0.00105498
0.00109171
0.00112876
0.00116617
0.0012035
0.00124068
0.00127762
0.00131426
0.00135058
0.00138653
0.00142212
0.00145733
0.00149219
0.00152669
0.00156084
0.00159468
0.00162821
0.00166146
0.00169447
0.00172726
0.00175988
0.00179235
0.0018247
0.00185699
0.00188923
0.00192147
0.00195373
0.00198606
0.00201847
0.00205099
0.00208365
0.00211647
0.00214945
0.00218263
0.002216
0.00224958
0.00228338
0.00231738
0.00235159
0.002386
0.00242058
0.00245532
0.00249019
0.00252514
0.00256012
0.00259507
0.00262992
0.00266456
0.00269891
0.00273286
0.00276635
0.00279942
0.00283208
0.00286429
0.00289596
0.00292701
0.00295735
0.00298689
0.00301554
0.0030432
0.0030698
0.00309524
0.00311943
0.00314225
0.00316361
0.00318343
0.00320164
0.0032182
0.00323304
0.00324615
0.00325751
0.00326711
0.00327493
0.00328092
0.00328519
0.00328747
0.0032884
0.00328812
0.00328636
0.00328322
0.00327875
0.00327306
0.00326625
0.00325843
0.00324972
0.00324022
0.00323007
0.00321939
0.00320822
0.00319666
0.00318482
0.00317278
0.00316064
0.00314837
0.00313608
0.00312391
0.00311189
0.0031001
0.00308851
0.00307709
0.00306578
0.00305458
0.00304362
0.00303292
0.00302236
0.00301187
0.00300167
0.00299161
0.00298166
0.00297179
0.00296194
0.00295205
0.00294204
0.00293189
0.00292159
0.00291108
0.00290029
0.00288916
0.0028776
0.00286555
0.00285294
0.00283969
0.00282579
0.00281114
0.00279591
0.00277993
0.00276314
0.00274549
0.00272695
0.00270752
0.00268722
0.00266585
0.00264352
0.0026199
0.00259375
0.00256565
0.00253619
0.0025057
0.0024743
0.00244206
0.00240906
0.00237541
0.00234128
0.0023067
0.00227176
0.00223687
0.00220196
0.00216772
0.00213401
0.00210033
0.00206646
0.00203299
0.00196395
2.36129e-05
0.000150004
0.000286306
0.000396765
0.000482837
0.000548651
0.000599233
0.000638792
0.00067076
0.00069795
0.000722702
0.000746911
0.000771868
0.000798324
0.000826142
0.000855461
0.00088645
0.000919442
0.000954609
0.000991874
0.0010309
0.00107136
0.00111312
0.00115589
0.00119949
0.0012438
0.00128872
0.00133414
0.00137985
0.00142567
0.00147143
0.00151706
0.00156249
0.00160767
0.00165253
0.00169701
0.00174107
0.00178471
0.00182794
0.00187075
0.00191316
0.00195516
0.00199679
0.00203806
0.00207899
0.00211961
0.00215996
0.00220007
0.00223998
0.00227972
0.00231933
0.00235885
0.00239832
0.00243776
0.00247722
0.00251672
0.0025563
0.00259597
0.00263578
0.00267572
0.00271582
0.0027561
0.00279656
0.00283721
0.00287804
0.00291906
0.00296024
0.00300158
0.00304304
0.0030846
0.00312621
0.00316783
0.00320939
0.00325084
0.0032921
0.0033331
0.00337376
0.00341406
0.00345397
0.00349344
0.00353239
0.00357076
0.00360843
0.00364531
0.0036813
0.00371629
0.00375016
0.00378282
0.00381416
0.00384406
0.00387239
0.00389905
0.00392394
0.00394698
0.00396809
0.00398721
0.00400429
0.0040193
0.00403221
0.004043
0.00405165
0.00405821
0.00406268
0.00406496
0.00406564
0.00406491
0.00406245
0.00405831
0.0040526
0.00404544
0.00403698
0.00402733
0.00401663
0.00400501
0.00399259
0.00397949
0.00396581
0.00395167
0.00393716
0.00392237
0.00390737
0.00389225
0.00387709
0.00386196
0.00384691
0.00383196
0.00381711
0.00380234
0.00378769
0.0037732
0.00375888
0.00374471
0.00373067
0.0037168
0.00370307
0.00368944
0.00367586
0.0036623
0.00364869
0.00363499
0.00362114
0.00360711
0.00359284
0.00357826
0.0035633
0.00354786
0.00353187
0.00351525
0.00349793
0.00347984
0.00346089
0.00344114
0.00342052
0.00339896
0.00337644
0.00335293
0.00332841
0.00330287
0.00327622
0.00324843
0.00321926
0.0031881
0.00315518
0.00312086
0.00308544
0.00304922
0.00301209
0.00297408
0.00293532
0.00289597
0.00285613
0.0028159
0.00277555
0.00273516
0.00269514
0.00265596
0.00261796
0.00258111
0.00254533
0.00248104
2.8961e-05
0.000169893
0.000323018
0.000449054
0.000549502
0.000628044
0.00068998
0.000739837
0.000781318
0.000817401
0.000850446
0.000882274
0.000914194
0.000947063
0.000981339
0.0010173
0.0010551
0.00109484
0.00113653
0.0011801
0.00122536
0.00127213
0.00132021
0.00136941
0.00141953
0.0014704
0.00152186
0.00157374
0.00162589
0.00167815
0.00173037
0.00178246
0.00183435
0.00188595
0.00193721
0.00198808
0.00203855
0.00208857
0.00213812
0.0021872
0.0022358
0.00228393
0.00233161
0.00237886
0.0024257
0.00247215
0.00251826
0.00256405
0.00260956
0.00265483
0.00269989
0.00274479
0.00278955
0.00283423
0.00287885
0.00292344
0.00296804
0.00301268
0.00305738
0.00310216
0.00314705
0.00319206
0.0032372
0.00328249
0.00332792
0.00337349
0.0034192
0.00346504
0.00351098
0.00355701
0.00360309
0.00364919
0.00369526
0.00374126
0.00378713
0.00383283
0.00387831
0.00392351
0.00396838
0.00401284
0.00405683
0.00410024
0.00414299
0.00418496
0.00422605
0.00426614
0.00430511
0.00434285
0.00437922
0.00441409
0.00444733
0.00447882
0.00450845
0.0045361
0.0045617
0.00458514
0.00460637
0.00462532
0.00464194
0.00465621
0.0046681
0.00467761
0.00468478
0.00468962
0.0046922
0.00469304
0.00469219
0.00468927
0.00468446
0.0046779
0.00466971
0.00466004
0.00464902
0.00463678
0.00462348
0.00460922
0.00459415
0.00457837
0.004562
0.00454515
0.00452789
0.00451032
0.00449254
0.0044746
0.00445657
0.00443849
0.00442038
0.00440227
0.0043842
0.0043662
0.00434829
0.00433048
0.00431276
0.00429517
0.00427768
0.00426028
0.00424292
0.00422559
0.00420824
0.00419082
0.00417329
0.0041556
0.0041377
0.00411952
0.00410097
0.00408197
0.00406245
0.00404231
0.00402149
0.00399991
0.00397751
0.00395426
0.00393011
0.00390501
0.00387893
0.00385184
0.00382372
0.00379454
0.00376425
0.00373278
0.00369997
0.00366553
0.00362953
0.0035922
0.00355373
0.00351442
0.00347393
0.00343253
0.00339035
0.00334754
0.00330424
0.00326059
0.00321677
0.00317296
0.00312947
0.0030867
0.00304531
0.00300636
0.00296941
0.00291237
3.38136e-05
0.000186529
0.00035399
0.000494179
0.000607802
0.000698549
0.00077148
0.00083128
0.000881803
0.000926146
0.00096675
0.00100549
0.00104373
0.00108246
0.0011223
0.00116364
0.0012067
0.00125158
0.00129828
0.00134674
0.00139683
0.00144839
0.00150125
0.00155523
0.00161013
0.00166578
0.00172199
0.00177862
0.00183549
0.00189246
0.00194941
0.00200623
0.00206282
0.0021191
0.00217503
0.00223054
0.00228559
0.00234016
0.00239422
0.00244775
0.00250076
0.00255325
0.00260523
0.00265671
0.00270772
0.00275828
0.00280843
0.00285819
0.00290761
0.00295671
0.00300554
0.00305413
0.00310252
0.00315075
0.00319886
0.00324688
0.00329484
0.00334278
0.00339073
0.0034387
0.00348674
0.00353485
0.00358305
0.00363137
0.0036798
0.00372836
0.00377705
0.00382586
0.00387479
0.00392382
0.00397294
0.00402211
0.00407132
0.00412053
0.00416971
0.0042188
0.00426778
0.00431658
0.00436516
0.00441343
0.00446133
0.00450877
0.00455566
0.00460187
0.00464731
0.00469185
0.00473536
0.00477772
0.00481878
0.0048584
0.00489643
0.00493273
0.00496716
0.00499961
0.00502995
0.00505806
0.00508386
0.00510726
0.00512817
0.00514655
0.00516236
0.00517558
0.0051862
0.00519426
0.00519982
0.00520312
0.00520448
0.00520355
0.00520043
0.00519523
0.00518807
0.00517909
0.00516843
0.00515623
0.00514265
0.00512781
0.00511185
0.0050949
0.00507709
0.00505852
0.0050393
0.00501954
0.00499932
0.00497872
0.00495783
0.00493669
0.00491537
0.00489391
0.00487236
0.00485076
0.00482916
0.00480757
0.00478602
0.00476453
0.00474311
0.00472176
0.00470046
0.00467921
0.00465797
0.00463672
0.00461542
0.00459403
0.00457249
0.00455075
0.00452872
0.00450634
0.00448351
0.00446017
0.00443622
0.00441161
0.00438626
0.00436012
0.00433314
0.00430527
0.00427649
0.00424676
0.00421606
0.00418435
0.00415158
0.00411769
0.00408256
0.00404605
0.00400818
0.00396906
0.00392882
0.00388759
0.00384533
0.00380215
0.0037582
0.00371362
0.00366857
0.00362319
0.00357767
0.00353219
0.00348705
0.00344263
0.00339956
0.00335914
0.0033219
0.0032712
3.80713e-05
0.00020006
0.000379476
0.000532353
0.000657845
0.00075998
0.000843349
0.000912636
0.000971742
0.00102383
0.00107141
0.00111642
0.00116033
0.0012042
0.00124877
0.00129451
0.00134172
0.00139053
0.001441
0.00149308
0.00154668
0.00160167
0.0016579
0.0017152
0.0017734
0.00183231
0.00189178
0.00195164
0.00201173
0.00207192
0.00213207
0.00219208
0.00225185
0.00231129
0.00237035
0.00242895
0.00248707
0.00254466
0.00260171
0.00265819
0.0027141
0.00276944
0.00282423
0.00287846
0.00293217
0.00298537
0.0030381
0.00309038
0.00314225
0.00319375
0.00324491
0.00329577
0.00334637
0.00339675
0.00344695
0.00349699
0.00354693
0.00359679
0.00364661
0.00369641
0.00374624
0.0037961
0.00384604
0.00389607
0.00394621
0.00399648
0.00404688
0.00409744
0.00414814
0.00419899
0.00424999
0.00430113
0.0043524
0.00440377
0.00445523
0.00450675
0.00455829
0.00460981
0.00466127
0.0047126
0.00476373
0.00481458
0.00486507
0.00491508
0.0049645
0.00501321
0.00506107
0.00510795
0.0051537
0.00519814
0.00524112
0.00528248
0.00532206
0.0053597
0.00539525
0.00542857
0.00545953
0.00548801
0.00551391
0.00553713
0.0055576
0.00557529
0.00559015
0.00560221
0.00561148
0.00561823
0.0056224
0.00562425
0.00562351
0.00562035
0.00561487
0.00560721
0.00559749
0.00558588
0.00557252
0.00555755
0.00554112
0.00552336
0.00550442
0.0054844
0.00546344
0.00544165
0.00541912
0.00539595
0.00537225
0.00534808
0.00532352
0.00529864
0.00527351
0.00524819
0.00522273
0.00519719
0.0051716
0.00514601
0.00512044
0.00509493
0.00506947
0.00504408
0.00501876
0.00499349
0.00496825
0.00494303
0.00491776
0.00489241
0.00486691
0.00484118
0.00481517
0.00478878
0.00476194
0.00473459
0.00470664
0.00467805
0.00464875
0.0046187
0.00458787
0.00455623
0.00452373
0.00449033
0.00445599
0.00442064
0.00438421
0.0043466
0.00430782
0.00426791
0.00422695
0.00418499
0.00414207
0.00409827
0.00405373
0.0040086
0.00396304
0.0039172
0.00387126
0.00382544
0.00378002
0.00373538
0.00369217
0.0036515
0.00361472
0.00356937
4.16899e-05
0.000210732
0.000399842
0.000563653
0.000699758
0.0008123
0.000905378
0.000983572
0.00105075
0.00111008
0.00116411
0.00121485
0.00126381
0.00131215
0.00136068
0.00140997
0.00146037
0.00151209
0.00156522
0.00161977
0.00167567
0.00173285
0.00179117
0.00185049
0.00191066
0.00197151
0.00203288
0.00209462
0.00215659
0.00221865
0.00228066
0.0023425
0.00240406
0.00246527
0.00252606
0.00258636
0.00264615
0.00270537
0.00276401
0.00282205
0.00287948
0.00293631
0.00299253
0.00304816
0.00310321
0.00315772
0.00321171
0.00326521
0.00331824
0.00337086
0.00342309
0.00347497
0.00352654
0.00357784
0.00362891
0.00367979
0.00373053
0.00378114
0.00383169
0.00388219
0.0039327
0.00398323
0.00403382
0.00408451
0.00413532
0.00418628
0.00423741
0.00428874
0.00434028
0.00439205
0.00444405
0.00449631
0.00454882
0.00460157
0.00465458
0.00470781
0.00476126
0.0048149
0.00486869
0.00492258
0.00497651
0.00503042
0.00508421
0.0051378
0.00519106
0.00524388
0.00529611
0.00534761
0.00539821
0.00544774
0.005496
0.00554282
0.005588
0.00563136
0.00567272
0.00571189
0.0057487
0.00578299
0.00581462
0.00584346
0.00586941
0.00589237
0.00591229
0.00592915
0.00594294
0.00595391
0.00596186
0.00596709
0.00596942
0.00596899
0.00596583
0.00596008
0.00595188
0.00594137
0.00592871
0.00591405
0.00589754
0.00587933
0.00585956
0.00583836
0.00581587
0.00579222
0.00576752
0.00574188
0.00571543
0.00568825
0.00566044
0.0056321
0.00560331
0.00557416
0.00554471
0.00551505
0.00548525
0.00545536
0.00542544
0.00539554
0.0053657
0.00533596
0.00530633
0.00527684
0.00524748
0.00521824
0.0051891
0.00516003
0.00513098
0.0051019
0.00507271
0.00504335
0.00501376
0.00498385
0.00495356
0.00492282
0.00489159
0.0048598
0.00482743
0.00479442
0.00476075
0.00472635
0.00469118
0.00465516
0.00461822
0.00458032
0.00454143
0.00450155
0.00446072
0.00441896
0.0043763
0.00433281
0.00428863
0.00424393
0.00419886
0.00415359
0.00410829
0.00406318
0.00401856
0.00397483
0.00393263
0.00389302
0.00385748
0.00381694
4.46616e-05
0.000218814
0.000415493
0.000588439
0.000733805
0.000855621
0.00095751
0.00104387
0.00111848
0.00118448
0.00124442
0.00130031
0.00135373
0.0014059
0.00145768
0.00150973
0.00156246
0.00161615
0.00167095
0.0017269
0.00178399
0.00184213
0.00190136
0.00196152
0.00202246
0.00208401
0.00214603
0.0022084
0.002271
0.00233375
0.00239639
0.00245881
0.0025209
0.00258258
0.0026438
0.00270449
0.00276462
0.00282415
0.00288307
0.00294135
0.00299899
0.00305599
0.00311236
0.00316811
0.00322326
0.00327783
0.00333185
0.00338535
0.00343836
0.00349093
0.00354308
0.00359486
0.0036463
0.00369745
0.00374834
0.00379903
0.00384954
0.00389993
0.00395024
0.0040005
0.00405075
0.00410105
0.00415142
0.00420192
0.00425257
0.00430341
0.00435449
0.00440583
0.00445747
0.00450944
0.00456178
0.00461449
0.00466762
0.00472117
0.00477516
0.00482959
0.00488447
0.00493978
0.0049955
0.00505161
0.00510806
0.00516479
0.00522174
0.0052788
0.00533588
0.00539284
0.00544956
0.00550586
0.00556158
0.00561651
0.00567046
0.00572321
0.00577453
0.00582421
0.00587202
0.00591773
0.00596113
0.00600202
0.00604019
0.00607549
0.00610775
0.00613684
0.00616268
0.00618519
0.00620434
0.00622025
0.00623286
0.00624224
0.00624844
0.00625149
0.00625135
0.00624816
0.00624206
0.00623321
0.00622177
0.00620791
0.00619176
0.00617349
0.00615325
0.00613118
0.00610745
0.00608217
0.0060555
0.00602756
0.00599848
0.00596839
0.00593739
0.00590561
0.00587315
0.00584013
0.00580663
0.00577276
0.00573862
0.00570429
0.00566987
0.00563541
0.00560101
0.00556672
0.0055326
0.00549868
0.005465
0.00543158
0.00539842
0.00536551
0.00533281
0.0053003
0.00526792
0.00523561
0.00520332
0.00517098
0.00513852
0.00510588
0.00507299
0.0050398
0.00500628
0.00497237
0.00493803
0.00490319
0.00486778
0.00483173
0.00479495
0.00475743
0.0047191
0.00467997
0.00464
0.00459921
0.00455759
0.00451519
0.00447218
0.00442874
0.00438501
0.00434115
0.00429735
0.00425382
0.0042109
0.00416897
0.00412872
0.00409117
0.00405777
0.00402163
4.70045e-05
0.000224588
0.000426865
0.000607146
0.000760332
0.000890155
0.000999798
0.00109343
0.0011747
0.00124666
0.00131183
0.00137223
0.00142947
0.00148478
0.0015391
0.00159312
0.00164733
0.00170204
0.00175758
0.00181402
0.00187131
0.00192935
0.0019884
0.00204827
0.00210882
0.00216991
0.00223142
0.00229322
0.00235523
0.00241738
0.00247932
0.00254115
0.00260259
0.00266352
0.0027239
0.0027837
0.00284289
0.00290144
0.00295933
0.00301657
0.00307314
0.00312905
0.00318432
0.00323896
0.00329299
0.00334644
0.00339934
0.00345171
0.0035036
0.00355505
0.00360608
0.00365674
0.00370707
0.00375711
0.00380691
0.00385651
0.00390595
0.00395528
0.00400453
0.00405377
0.00410304
0.00415237
0.00420183
0.00425145
0.00430129
0.00435139
0.0044018
0.00445258
0.00450376
0.00455539
0.00460753
0.00466021
0.00471347
0.00476736
0.0048219
0.00487713
0.00493306
0.00498971
0.00504707
0.00510514
0.00516389
0.00522328
0.00528326
0.00534375
0.00540464
0.00546583
0.00552716
0.00558847
0.00564958
0.00571027
0.00577032
0.00582947
0.00588749
0.00594409
0.00599902
0.006052
0.00610277
0.00615105
0.00619662
0.00623923
0.00627869
0.00631481
0.00634746
0.00637652
0.00640192
0.00642366
0.00644172
0.00645617
0.00646709
0.00647448
0.00647809
0.00647815
0.00647482
0.00646827
0.00645865
0.00644613
0.00643086
0.00641302
0.00639275
0.00637023
0.00634562
0.00631906
0.00629071
0.00626073
0.00622925
0.00619643
0.00616241
0.00612731
0.00609127
0.00605443
0.00601691
0.00597884
0.00594034
0.00590152
0.00586251
0.00582341
0.00578433
0.00574537
0.00570661
0.00566812
0.00562999
0.00559224
0.00555492
0.00551804
0.00548161
0.0054456
0.00540998
0.00537472
0.00533977
0.00530508
0.00527058
0.00523619
0.00520187
0.00516754
0.00513318
0.00509873
0.00506416
0.00502934
0.00499419
0.00495862
0.00492256
0.00488597
0.0048488
0.00481101
0.00477255
0.00473337
0.00469346
0.00465283
0.00461168
0.00457021
0.00452855
0.00448685
0.00444529
0.00440411
0.00436363
0.00432426
0.00428675
0.0042521
0.00422154
0.00418953
4.87499e-05
0.000228314
0.000434372
0.000620207
0.000779697
0.000916136
0.00103232
0.00113216
0.00121911
0.00129616
0.00136575
0.00142988
0.00149015
0.00154782
0.00160385
0.00165896
0.00171377
0.00176859
0.00182393
0.00187987
0.00193649
0.00199387
0.00205194
0.00211059
0.00216971
0.00222919
0.0022889
0.00234873
0.00240858
0.00246837
0.00252834
0.0025884
0.00264794
0.00270689
0.00276518
0.00282281
0.00287977
0.00293605
0.00299163
0.00304652
0.00310074
0.00315432
0.00320727
0.00325961
0.00331136
0.00336256
0.00341323
0.00346343
0.00351319
0.00356254
0.00361152
0.00366018
0.00370856
0.00375669
0.00380463
0.00385241
0.00390009
0.0039477
0.00399529
0.00404292
0.00409063
0.00413848
0.00418651
0.00423478
0.00428335
0.00433227
0.0043816
0.0044314
0.00448173
0.00453265
0.00458422
0.00463651
0.00468957
0.00474346
0.00479824
0.00485396
0.00491066
0.00496837
0.00502713
0.00508694
0.00514781