/*--------------------------------*- C++ -*----------------------------------*\
  =========                 |
  \\      /  F ield         | OpenFOAM: The Open Source CFD Toolbox
   \\    /   O peration     | Website:  https://openfoam.org
    \\  /    A nd           | Version:  8
     \\/     M anipulation  |
\*---------------------------------------------------------------------------*/
FoamFile
{
    version     2.0;
    format      ascii;
    class       volScalarField;
    location    "120";
    object      p;
}
// * * * * * * * * * * * * * * * * * * * * * * * * * * * * * * * * * * * * * //

dimensions      [0 2 -2 0 0 0 0];

internalField   nonuniform List<scalar> 
12225
(
-2.10038
-4.28894
-5.38863
-5.70892
-5.88965
-6.05794
-6.18859
-6.28243
-6.35735
-6.42246
-6.47947
-6.53016
-6.5741
-6.61172
-6.64205
-6.65507
-6.66738
-6.55902
-5.26388
-6.03217
-6.19242
-6.09978
-6.08673
-6.15387
-6.23048
-6.29494
-6.35289
-6.40812
-6.45982
-6.50669
-6.54899
-6.58587
-6.61766
-6.63615
-6.6592
-6.6394
-5.66505
-5.64989
-5.777
-5.85499
-5.94937
-6.06885
-6.17511
-6.25873
-6.32892
-6.39216
-6.44947
-6.5006
-6.54661
-6.587
-6.62302
-6.64988
-6.68421
-6.70789
-5.5431
-5.48609
-5.72742
-5.88538
-5.9866
-6.09212
-6.18888
-6.26775
-6.33494
-6.39604
-6.45201
-6.5026
-6.5487
-6.59018
-6.62855
-6.66238
-6.70376
-6.75099
-5.53277
-5.55713
-5.78493
-5.92613
-6.00925
-6.10063
-6.19097
-6.26756
-6.33366
-6.39405
-6.44982
-6.50081
-6.54784
-6.5912
-6.6326
-6.67255
-6.71955
-6.77689
-5.59077
-5.63964
-5.81367
-5.93722
-6.01826
-6.10544
-6.19266
-6.26812
-6.33377
-6.39383
-6.44958
-6.50104
-6.54899
-6.5941
-6.6381
-6.68245
-6.73299
-6.79363
-5.65115
-5.69532
-5.83027
-5.94626
-6.02956
-6.1131
-6.19626
-6.26994
-6.33486
-6.39445
-6.45006
-6.50187
-6.55063
-6.59724
-6.64333
-6.69062
-6.74304
-6.80362
-5.70474
-5.74231
-5.85206
-5.96005
-6.04264
-6.12169
-6.20042
-6.27207
-6.33613
-6.39519
-6.45059
-6.50269
-6.55216
-6.59999
-6.64761
-6.69663
-6.7496
-6.80836
-5.75453
-5.7876
-5.87834
-5.97602
-6.05573
-6.13061
-6.20519
-6.27461
-6.33763
-6.39606
-6.45116
-6.50339
-6.55338
-6.60205
-6.65061
-6.70035
-6.75285
-6.80904
-5.80167
-5.83086
-5.90621
-5.99319
-6.06907
-6.14021
-6.21083
-6.27779
-6.33951
-6.39715
-6.4518
-6.50397
-6.55419
-6.60328
-6.65219
-6.70186
-6.75323
-6.80655
-5.84607
-5.87151
-5.93457
-6.01154
-6.08296
-6.15046
-6.21731
-6.28161
-6.34183
-6.39851
-6.45254
-6.5044
-6.55456
-6.60365
-6.65241
-6.70144
-6.75123
-6.80171
-5.88418
-5.90648
-5.96057
-6.02924
-6.09616
-6.16029
-6.22386
-6.28567
-6.34431
-6.39996
-6.45326
-6.50464
-6.55445
-6.60322
-6.65144
-6.69951
-6.74768
-6.79566
-5.9194
-5.93908
-5.98583
-6.0471
-6.10945
-6.17027
-6.23073
-6.29006
-6.34704
-6.40154
-6.45399
-6.50469
-6.55397
-6.60214
-6.64957
-6.69647
-6.74293
-6.78864
-5.95633
-5.9735
-6.01347
-6.06742
-6.12467
-6.18176
-6.23886
-6.29541
-6.3504
-6.40345
-6.45473
-6.50448
-6.55287
-6.6001
-6.64636
-6.69173
-6.73624
-6.77951
-5.99372
-6.0085
-6.04248
-6.08957
-6.14146
-6.19449
-6.24805
-6.3016
-6.35426
-6.40552
-6.45532
-6.50373
-6.55085
-6.59675
-6.64146
-6.685
-6.72731
-6.76814
-6.02961
-6.04225
-6.07121
-6.11223
-6.15889
-6.20774
-6.25772
-6.30815
-6.35825
-6.40741
-6.45538
-6.50211
-6.54758
-6.59177
-6.63463
-6.67609
-6.71609
-6.75447
-6.06109
-6.07199
-6.09702
-6.13308
-6.17513
-6.2201
-6.26668
-6.31408
-6.36154
-6.40842
-6.45434
-6.49911
-6.54264
-6.58484
-6.62562
-6.66488
-6.70254
-6.73852
-6.08378
-6.09348
-6.11584
-6.14846
-6.18712
-6.22905
-6.27289
-6.31774
-6.36283
-6.40753
-6.45141
-6.49416
-6.53566
-6.57579
-6.61444
-6.6515
-6.68691
-6.72064
-6.09075
-6.09995
-6.12128
-6.1526
-6.18991
-6.23047
-6.27288
-6.31624
-6.35981
-6.40295
-6.44519
-6.48624
-6.52594
-6.56419
-6.6009
-6.63598
-6.66939
-6.70117
-6.07471
-6.08452
-6.10723
-6.14044
-6.17963
-6.22155
-6.26479
-6.30861
-6.35233
-6.3953
-6.43708
-6.47745
-6.51628
-6.55351
-6.58908
-6.62293
-6.65507
-6.68556
-6.0479
-6.05873
-6.08408
-6.12122
-6.16413
-6.20883
-6.25411
-6.29956
-6.34441
-6.388
-6.43001
-6.47034
-6.50894
-6.54575
-6.58076
-6.61396
-6.64541
-6.67519
-6.0127
-6.02454
-6.05397
-6.09764
-6.14602
-6.19413
-6.24209
-6.28994
-6.33661
-6.38131
-6.42392
-6.46455
-6.5032
-6.53987
-6.57457
-6.60738
-6.63838
-6.6677
-5.97215
-5.98407
-6.01858
-6.07192
-6.12754
-6.17959
-6.23056
-6.28107
-6.32964
-6.37554
-6.41894
-6.46007
-6.49897
-6.53565
-6.57023
-6.60284
-6.63358
-6.66261
-5.92845
-5.93944
-5.98126
-6.04573
-6.10797
-6.16471
-6.22037
-6.27425
-6.32451
-6.37128
-6.41531
-6.45685
-6.49592
-6.53259
-6.56704
-6.59947
-6.63
-6.65878
-5.88151
-5.88703
-5.94974
-6.02798
-6.08996
-6.14825
-6.20942
-6.26776
-6.32023
-6.36818
-6.41305
-6.45513
-6.4944
-6.53107
-6.56541
-6.59768
-6.62804
-6.65669
-5.8382
-5.80189
-5.91146
-6.02247
-6.08474
-6.14004
-6.20225
-6.26197
-6.31511
-6.3637
-6.40923
-6.4518
-6.49135
-6.52816
-6.56257
-6.59484
-6.62518
-6.65375
-5.85242
-5.69348
-5.82244
-5.97654
-6.06668
-6.13805
-6.20695
-6.26783
-6.32053
-6.36866
-6.41373
-6.45573
-6.49466
-6.53088
-6.56471
-6.59646
-6.62635
-6.65461
-5.97562
-5.79524
-5.80945
-5.88159
-5.97
-6.06922
-6.15988
-6.2336
-6.2952
-6.35017
-6.40027
-6.44576
-6.48719
-6.5252
-6.56033
-6.59301
-6.62371
-6.65303
-5.68299
-6.27409
-6.36296
-6.23872
-6.1844
-6.21156
-6.25852
-6.3017
-6.34315
-6.38515
-6.42642
-6.46547
-6.50205
-6.53629
-6.56827
-6.59816
-6.62617
-6.65405
-2.69367
-4.45698
-5.4617
-5.76087
-5.91005
-6.05367
-6.16768
-6.24858
-6.31269
-6.36938
-6.42041
-6.46616
-6.50746
-6.5452
-6.5799
-6.61138
-6.63949
-6.66243
-7.84575
-7.84514
-7.84558
-7.84819
-7.8521
-7.85686
-7.86238
-7.86855
-7.87521
-7.88194
-7.88796
-7.89255
-7.89761
-7.9059
-7.91707
-7.9295
-7.94283
-7.95736
-7.97454
-7.99408
-8.01105
-8.02435
-8.04179
-8.06432
-8.08825
-8.11382
-8.14088
-8.16919
-8.19861
-8.22889
-8.25986
-8.29123
-8.32285
-8.35445
-8.38591
-8.41694
-8.44745
-8.4772
-8.50611
-8.53396
-8.5607
-8.58612
-8.61019
-8.6327
-8.65363
-8.67277
-8.69009
-8.70539
-8.71863
-8.72959
-8.7382
-8.74424
-8.74764
-8.74815
-8.74567
-8.73994
-8.73082
-8.71804
-8.70145
-8.68074
-8.65575
-8.62617
-8.5918
-8.55234
-8.50757
-8.45719
-8.40097
-8.33865
-8.27
-8.19479
-8.11284
-8.02396
-7.928
-7.82486
-7.71442
-7.59669
-7.47151
-7.33867
-7.19803
-7.0498
-6.89423
-6.73158
-6.56212
-6.38616
-6.20407
-6.01624
-5.82335
-5.62603
-5.42497
-5.22051
-5.01282
-4.80256
-4.59045
-4.37728
-4.16379
-3.95068
-3.73862
-3.52818
-3.31993
-3.11434
-2.91183
-2.71279
-2.51752
-2.3263
-2.13929
-1.95665
-1.77839
-1.6045
-1.43487
-1.2694
-1.10786
-0.950036
-0.79559
-0.644205
-0.495442
-0.348835
-0.203782
-0.0597143
0.0840188
0.22793
0.372585
0.518583
0.666781
0.817893
0.972768
1.13202
1.29647
1.46668
1.64345
1.82731
2.01904
2.21906
2.42807
2.6464
2.87457
3.11282
3.36154
3.6209
3.89106
4.17185
4.46303
4.7643
5.07537
5.39587
5.72528
6.06292
6.40801
6.75965
7.11687
7.4786
7.8437
8.21097
8.57918
8.94707
9.31335
9.67678
10.0362
10.3903
10.7382
11.0787
11.4109
11.7337
12.0462
12.3476
12.6372
12.9143
13.1785
13.4295
13.6669
13.8906
14.1008
14.2975
14.4813
14.6529
14.8136
14.9652
15.1121
15.2592
15.4351
15.6294
-7.84157
-7.84213
-7.84305
-7.84516
-7.84762
-7.85016
-7.853
-7.85628
-7.85983
-7.86323
-7.86612
-7.86904
-7.87415
-7.88172
-7.88975
-7.8978
-7.90635
-7.91634
-7.92802
-7.93998
-7.95317
-7.97445
-8.00142
-8.02583
-8.05049
-8.0765
-8.10386
-8.1324
-8.162
-8.19244
-8.22353
-8.25503
-8.28675
-8.31845
-8.34995
-8.38104
-8.41156
-8.44133
-8.47024
-8.49811
-8.52485
-8.5503
-8.5744
-8.59698
-8.618
-8.63729
-8.65479
-8.67033
-8.68386
-8.69518
-8.70421
-8.71077
-8.71475
-8.71595
-8.71423
-8.70936
-8.7012
-8.6895
-8.67408
-8.65468
-8.63109
-8.60306
-8.57035
-8.53268
-8.48982
-8.44148
-8.38744
-8.32742
-8.2612
-8.18853
-8.1092
-8.02302
-7.92978
-7.82933
-7.7215
-7.60613
-7.48306
-7.35234
-7.21411
-7.0685
-6.91559
-6.75557
-6.58865
-6.4151
-6.23528
-6.04954
-5.85846
-5.66271
-5.46295
-5.25943
-5.05247
-4.84264
-4.63066
-4.41734
-4.20339
-3.98953
-3.77642
-3.56466
-3.35485
-3.14748
-2.94305
-2.74194
-2.54452
-2.35107
-2.16182
-1.97692
-1.79646
-1.62042
-1.44877
-1.28138
-1.11809
-0.958636
-0.802751
-0.650064
-0.500213
-0.352727
-0.207129
-0.0627577
0.0809554
0.224592
0.368658
0.513895
0.661039
0.810914
0.964222
1.12173
1.28412
1.45214
1.62645
1.80775
1.99666
2.19379
2.39973
2.61492
2.83981
3.07475
3.32008
3.57608
3.84284
4.12028
4.40816
4.70625
5.01427
5.33189
5.65859
5.99374
6.33657
6.68618
7.04162
7.40182
7.76566
8.13191
8.49935
8.86671
9.23271
9.5961
9.95565
10.3102
10.6585
10.9995
11.3321
11.6553
11.9685
12.2708
12.5615
12.8401
13.1059
13.3586
13.5979
13.8237
14.0361
14.2352
14.4216
14.596
14.7597
14.9145
15.0649
15.2144
15.3864
15.5621
-7.83094
-7.83395
-7.83763
-7.84124
-7.84395
-7.84592
-7.84765
-7.84938
-7.85111
-7.85275
-7.85436
-7.85652
-7.86037
-7.86633
-7.8735
-7.88139
-7.89023
-7.90059
-7.9127
-7.92601
-7.94062
-7.95835
-7.9794
-8.00176
-8.02566
-8.05114
-8.07799
-8.10599
-8.13495
-8.16465
-8.19493
-8.22554
-8.25632
-8.28706
-8.3176
-8.34776
-8.37739
-8.40634
-8.43449
-8.46168
-8.48782
-8.51277
-8.53644
-8.5587
-8.57947
-8.59861
-8.61603
-8.63161
-8.64523
-8.65676
-8.66607
-8.67302
-8.67747
-8.67924
-8.67819
-8.67411
-8.66683
-8.65613
-8.64182
-8.62367
-8.60144
-8.5749
-8.54381
-8.5079
-8.46694
-8.42065
-8.36878
-8.31108
-8.2473
-8.1772
-8.10056
-8.01715
-7.92678
-7.82926
-7.72439
-7.61204
-7.49207
-7.36449
-7.22939
-7.08687
-6.93701
-6.77996
-6.61591
-6.44512
-6.26788
-6.08454
-5.89561
-5.70174
-5.5035
-5.30125
-5.09521
-4.88603
-4.67444
-4.46118
-4.24698
-4.03254
-3.81853
-3.6056
-3.39432
-3.18527
-2.97893
-2.77576
-2.57617
-2.38046
-2.18893
-2.00175
-1.81905
-1.64086
-1.46719
-1.29792
-1.13296
-0.972014
-0.814884
-0.661202
-0.510604
-0.362631
-0.216835
-0.0725774
0.0706796
0.21354
0.356505
0.500391
0.645845
0.793758
0.944767
1.09973
1.25927
1.42422
1.59518
1.77297
1.95812
2.15139
2.35323
2.56424
2.78478
3.01532
3.25616
3.50761
3.76978
4.04261
4.32593
4.61954
4.92324
5.23666
5.55937
5.89071
6.22998
6.57629
6.92872
7.2862
7.64763
8.01183
8.37757
8.74363
9.10876
9.47174
9.83137
10.1865
10.5359
10.8784
11.213
11.5387
11.8546
12.1598
12.4537
12.7355
13.0048
13.2611
13.504
13.7336
13.9498
14.1528
14.3431
14.5215
14.6893
14.8482
15.0026
15.1541
15.3211
15.4702
-7.81357
-7.8195
-7.82712
-7.83336
-7.83744
-7.83998
-7.84167
-7.84291
-7.84392
-7.84489
-7.84609
-7.84801
-7.8513
-7.85633
-7.86293
-7.87086
-7.88012
-7.89091
-7.90345
-7.91772
-7.93373
-7.95169
-7.97171
-7.99347
-8.01684
-8.04165
-8.06776
-8.09495
-8.12307
-8.15191
-8.1813
-8.21103
-8.24094
-8.27082
-8.30054
-8.32992
-8.35883
-8.3871
-8.41464
-8.44128
-8.46694
-8.49148
-8.51482
-8.53681
-8.55739
-8.57642
-8.59381
-8.60942
-8.62317
-8.63491
-8.64451
-8.65184
-8.65675
-8.65907
-8.65864
-8.65528
-8.64881
-8.63901
-8.62569
-8.60861
-8.58755
-8.56227
-8.53253
-8.49807
-8.45864
-8.41397
-8.3638
-8.30788
-8.24595
-8.17777
-8.10309
-8.0217
-7.93336
-7.8379
-7.73511
-7.62486
-7.50703
-7.38161
-7.24864
-7.10818
-6.96031
-6.80515
-6.64289
-6.47375
-6.29803
-6.11604
-5.92826
-5.73531
-5.53779
-5.33589
-5.13005
-4.92086
-4.70907
-4.49541
-4.28061
-4.06536
-3.85034
-3.6362
-3.42355
-3.21298
-3.00502
-2.80015
-2.59879
-2.40129
-2.20796
-2.01902
-1.83463
-1.65485
-1.47969
-1.3091
-1.14294
-0.981004
-0.823075
-0.668843
-0.51789
-0.369783
-0.224048
-0.0801383
0.062508
0.204472
0.346342
0.488913
0.632874
0.779027
0.928101
1.08089
1.23808
1.40049
1.56877
1.7437
1.92587
2.11603
2.31466
2.52235
2.7395
2.96657
3.20389
3.45175
3.71026
3.97938
4.25899
4.54895
4.84906
5.15901
5.47833
5.80643
6.14258
6.48595
6.8356
7.19051
7.54958
7.91167
8.27558
8.64013
9.00409
9.36628
9.7255
10.0806
10.4303
10.7736
11.1093
11.4366
11.7544
12.0619
12.3581
12.6425
12.9145
13.1737
13.4196
13.6523
13.8716
14.0778
14.2713
14.4529
14.6237
14.7854
14.9415
15.0925
15.2517
15.3777
-7.79351
-7.8024
-7.81449
-7.82396
-7.83006
-7.83394
-7.83648
-7.83826
-7.83967
-7.84106
-7.84281
-7.84532
-7.84904
-7.85426
-7.86108
-7.86945
-7.87939
-7.89092
-7.90412
-7.91903
-7.93569
-7.95411
-7.97426
-7.99597
-8.01913
-8.0436
-8.06925
-8.09589
-8.12338
-8.15152
-8.18017
-8.20912
-8.23823
-8.26732
-8.29627
-8.3249
-8.3531
-8.38071
-8.40764
-8.43374
-8.45893
-8.48307
-8.50609
-8.52784
-8.54826
-8.56721
-8.5846
-8.60031
-8.61422
-8.6262
-8.63612
-8.64385
-8.64923
-8.6521
-8.6523
-8.64963
-8.64392
-8.63495
-8.62253
-8.60641
-8.58637
-8.56217
-8.53356
-8.50029
-8.46208
-8.41867
-8.3698
-8.3152
-8.25461
-8.18777
-8.11443
-8.03436
-7.94733
-7.85314
-7.75159
-7.64256
-7.52592
-7.40162
-7.26967
-7.13011
-6.983
-6.82848
-6.6667
-6.49791
-6.32238
-6.14043
-5.9525
-5.75924
-5.56114
-5.35858
-5.15182
-4.94163
-4.72874
-4.51392
-4.29787
-4.08131
-3.86493
-3.64939
-3.43534
-3.22337
-3.01404
-2.80788
-2.60529
-2.40667
-2.21229
-2.02246
-1.83731
-1.65694
-1.48132
-1.31047
-1.14421
-0.982405
-0.82476
-0.671047
-0.520782
-0.373586
-0.228912
-0.0862974
0.0548975
0.19515
0.335246
0.475837
0.617815
0.761754
0.908613
1.05896
1.21375
1.37354
1.53928
1.71149
1.89105
2.07844
2.27441
2.47933
2.6938
2.91816
3.15283
3.39802
3.65387
3.92034
4.19736
4.48483
4.78256
5.09025
5.40742
5.73347
6.06768
6.40924
6.75721
7.11058
7.46827
7.82915
8.19206
8.55579
8.91916
9.28097
9.64003
9.99519
10.3453
10.6892
11.0259
11.3543
11.6735
11.9826
12.2807
12.5672
12.8413
13.1027
13.3511
13.5861
13.8079
14.0165
14.2125
14.3962
14.569
14.732
14.8879
15.0361
15.1868
15.2942
-7.77498
-7.78653
-7.80271
-7.81528
-7.82362
-7.82928
-7.83328
-7.8363
-7.83883
-7.84132
-7.84418
-7.84779
-7.85248
-7.85852
-7.86605
-7.87513
-7.88582
-7.89811
-7.91204
-7.92758
-7.94473
-7.96346
-7.98372
-8.00539
-8.02839
-8.05256
-8.0778
-8.10394
-8.13085
-8.15837
-8.18635
-8.21461
-8.24303
-8.27144
-8.29972
-8.32772
-8.35533
-8.3824
-8.40885
-8.43453
-8.45937
-8.48323
-8.50604
-8.52767
-8.54804
-8.56701
-8.58451
-8.60039
-8.61456
-8.62687
-8.6372
-8.6454
-8.65132
-8.65479
-8.65566
-8.65372
-8.64879
-8.64065
-8.62911
-8.61391
-8.59484
-8.57163
-8.54405
-8.5118
-8.47465
-8.4323
-8.38448
-8.33091
-8.27133
-8.20546
-8.13305
-8.05384
-7.9676
-7.87412
-7.77321
-7.66471
-7.54851
-7.42452
-7.29273
-7.15316
-7.00587
-6.85099
-6.68868
-6.51918
-6.34276
-6.15974
-5.97058
-5.7759
-5.57629
-5.37192
-5.16336
-4.95124
-4.73641
-4.51964
-4.30167
-4.08322
-3.865
-3.64772
-3.43202
-3.21855
-3.00789
-2.80057
-2.59704
-2.39766
-2.20275
-2.01259
-1.82736
-1.64712
-1.47187
-1.30159
-1.13616
-0.975406
-0.819056
-0.666791
-0.518216
-0.372874
-0.230272
-0.0898662
0.0489171
0.186668
0.324124
0.462061
0.601244
0.742401
0.886346
1.03381
1.18563
1.34251
1.50529
1.67462
1.85128
2.03587
2.22904
2.43127
2.64312
2.86498
3.09722
3.34006
3.59362
3.85789
4.13283
4.41839
4.71437
5.02045
5.33615
5.66088
5.99393
6.33445
6.68154
7.03419
7.39135
7.75186
8.11459
8.47831
8.84187
9.20404
9.56365
9.91953
10.2705
10.6155
10.9534
11.2832
11.604
11.9148
12.2148
12.5032
12.7794
13.0429
13.2933
13.5305
13.7544
13.9651
14.163
14.3485
14.5225
14.6859
14.8406
14.985
15.1276
15.2198
-7.76116
-7.77485
-7.79413
-7.80919
-7.8196
-7.8271
-7.83277
-7.8373
-7.84125
-7.84509
-7.84926
-7.8541
-7.85993
-7.86696
-7.87537
-7.88525
-7.89667
-7.90964
-7.92417
-7.94023
-7.9578
-7.97682
-7.99723
-8.01892
-8.04182
-8.0658
-8.09074
-8.11651
-8.14299
-8.17001
-8.19747
-8.2252
-8.25307
-8.28095
-8.30872
-8.33624
-8.3634
-8.39009
-8.4162
-8.44161
-8.46624
-8.48997
-8.51271
-8.53435
-8.5548
-8.57393
-8.59165
-8.60783
-8.62236
-8.63511
-8.64594
-8.6547
-8.66124
-8.66539
-8.66698
-8.66581
-8.6617
-8.65441
-8.64375
-8.62946
-8.6113
-8.58903
-8.56238
-8.53107
-8.49482
-8.45336
-8.40639
-8.35363
-8.2948
-8.2296
-8.15777
-8.07905
-7.99319
-7.89997
-7.79918
-7.69067
-7.57429
-7.44996
-7.31764
-7.17733
-7.02911
-6.87308
-6.70942
-6.53836
-6.36019
-6.17525
-5.98398
-5.78705
-5.58498
-5.37814
-5.16694
-4.95217
-4.7347
-4.51536
-4.29489
-4.07407
-3.85361
-3.63426
-3.4167
-3.2016
-2.98957
-2.78114
-2.57679
-2.37689
-2.18178
-1.99168
-1.80679
-1.62715
-1.45284
-1.28376
-1.11983
-0.960797
-0.806448
-0.65636
-0.510187
-0.367405
-0.227574
-0.0900667
0.0456227
0.18027
0.314486
0.449224
0.58506
0.72296
0.863515
1.00773
1.15618
1.30988
1.46939
1.63566
1.8092
1.99088
2.18113
2.38065
2.58984
2.80921
3.03904
3.27958
3.53096
3.79318
4.06624
4.35008
4.64454
4.94928
5.26379
5.58748
5.91965
6.25949
6.6061
6.95848
7.31556
7.67621
8.03926
8.40353
8.76781
9.13089
9.49159
9.84871
10.2011
10.5476
10.8871
11.2187
11.5414
11.8541
12.1561
12.4465
12.7248
12.9904
13.243
13.4822
13.7081
13.9207
14.1201
14.307
14.4818
14.6451
14.7982
14.9387
15.074
15.1536
-7.75393
-7.76896
-7.79017
-7.80692
-7.81895
-7.82808
-7.83531
-7.84132
-7.84668
-7.85187
-7.85733
-7.86337
-7.87031
-7.87833
-7.88762
-7.89827
-7.91035
-7.9239
-7.93892
-7.95538
-7.97327
-7.9925
-8.01303
-8.03476
-8.0576
-8.08143
-8.10617
-8.13167
-8.15783
-8.1845
-8.21158
-8.23891
-8.2664
-8.2939
-8.32132
-8.34852
-8.37542
-8.40188
-8.42782
-8.45313
-8.47772
-8.50146
-8.5243
-8.5461
-8.56677
-8.5862
-8.60429
-8.6209
-8.63593
-8.64923
-8.66067
-8.6701
-8.67735
-8.68226
-8.68464
-8.68431
-8.68105
-8.67464
-8.66487
-8.65148
-8.63422
-8.61284
-8.58705
-8.55657
-8.52113
-8.48041
-8.43412
-8.38196
-8.32363
-8.25884
-8.1873
-8.10873
-8.02288
-7.92951
-7.8284
-7.71938
-7.6023
-7.47705
-7.3436
-7.20194
-7.05212
-6.89426
-6.72855
-6.55521
-6.37456
-6.18694
-5.99283
-5.7929
-5.58775
-5.37767
-5.16322
-4.94521
-4.72457
-4.50215
-4.27876
-4.05519
-3.83222
-3.61059
-3.39104
-3.17425
-2.96087
-2.75144
-2.54644
-2.34626
-2.15123
-1.96154
-1.77736
-1.59881
-1.42593
-1.25863
-1.09672
-0.940015
-0.788202
-0.640908
-0.497696
-0.358092
-0.221574
-0.0875578
0.0445814
0.175574
0.30618
0.437207
0.569398
0.70359
0.840545
0.981133
1.12611
1.27633
1.43253
1.59554
1.76601
1.94467
2.13209
2.32888
2.53552
2.75243
2.97995
3.21828
3.46758
3.72789
3.99919
4.28143
4.57446
4.87795
5.1914
5.51425
5.84577
6.18519
6.53157
6.88396
7.24125
7.60234
7.96603
8.33114
8.69645
9.06077
9.42285
9.78152
10.1356
10.4839
10.8254
11.159
11.4837
11.7985
12.1027
12.3953
12.6757
12.9435
13.198
13.4393
13.667
13.8812
14.0821
14.27
14.4453
14.6082
14.7595
14.896
15.0251
15.0945
-7.75377
-7.76934
-7.7913
-7.8089
-7.82199
-7.83232
-7.84081
-7.84807
-7.85465
-7.86104
-7.86763
-7.87473
-7.88264
-7.89153
-7.90158
-7.91289
-7.92554
-7.93955
-7.95496
-7.97172
-7.98983
-8.00921
-8.02981
-8.05154
-8.07432
-8.09804
-8.12262
-8.14792
-8.17385
-8.20028
-8.22711
-8.25419
-8.28144
-8.30873
-8.33596
-8.36301
-8.3898
-8.41621
-8.44215
-8.46752
-8.49223
-8.51617
-8.53926
-8.56138
-8.58244
-8.60232
-8.62092
-8.6381
-8.65375
-8.66773
-8.6799
-8.6901
-8.69816
-8.70391
-8.70716
-8.70771
-8.70535
-8.69986
-8.69099
-8.67849
-8.66212
-8.64158
-8.6166
-8.58688
-8.55212
-8.51202
-8.46625
-8.41451
-8.35648
-8.29185
-8.22032
-8.1416
-8.05542
-7.96152
-7.85968
-7.7497
-7.63143
-7.50476
-7.36963
-7.22604
-7.07403
-6.91373
-6.74532
-6.56906
-6.38526
-6.1943
-5.99669
-5.79313
-5.58422
-5.37036
-5.1521
-4.93035
-4.70608
-4.48019
-4.25354
-4.02696
-3.80127
-3.57724
-3.35565
-3.13721
-2.92258
-2.71232
-2.50689
-2.30672
-2.11207
-1.92317
-1.74016
-1.56321
-1.39226
-1.22723
-1.06788
-0.91404
-0.765311
-0.621357
-0.481659
-0.345779
-0.213091
-0.0830722
0.0450807
0.171982
0.298593
0.425518
0.55376
0.683926
0.817067
0.953789
1.09515
1.24175
1.39459
1.55425
1.72164
1.89726
2.0819
2.27602
2.48017
2.69469
2.9199
3.15605
3.40331
3.66177
3.93142
4.21223
4.50403
4.80649
5.11913
5.44137
5.77251
6.11174
6.45817
6.8108
7.16857
7.53032
7.8949
8.26107
8.62765
8.9934
9.3571
9.71752
10.0735
10.4238
10.7674
11.1032
11.4301
11.7473
12.0537
12.3485
12.6312
12.9011
13.1577
13.4009
13.6303
13.8461
14.0482
14.2369
14.4124
14.5746
14.7241
14.8569
14.9806
15.0419
-7.7602
-7.7756
-7.79729
-7.81492
-7.82847
-7.83952
-7.84886
-7.85702
-7.86454
-7.87186
-7.87935
-7.8873
-7.89598
-7.90557
-7.91622
-7.92804
-7.94112
-7.95548
-7.97115
-7.98811
-8.00635
-8.0258
-8.04643
-8.06813
-8.09085
-8.11447
-8.13893
-8.16409
-8.18988
-8.21616
-8.24284
-8.26981
-8.29695
-8.32417
-8.35137
-8.37843
-8.40528
-8.4318
-8.45791
-8.48351
-8.50852
-8.53281
-8.55631
-8.57891
-8.60051
-8.62098
-8.64024
-8.65812
-8.67453
-8.6893
-8.7023
-8.71336
-8.72232
-8.72898
-8.73316
-8.73465
-8.73322
-8.72865
-8.72069
-8.70908
-8.69355
-8.67381
-8.64957
-8.62051
-8.58634
-8.54672
-8.50132
-8.44982
-8.39188
-8.32718
-8.2554
-8.17624
-8.08941
-7.99463
-7.89167
-7.78033
-7.66043
-7.53186
-7.39455
-7.2485
-7.09376
-6.93044
-6.75876
-6.57898
-6.39145
-6.19655
-5.99484
-5.78707
-5.57387
-5.35571
-5.13319
-4.90728
-4.679
-4.44933
-4.21917
-3.9894
-3.76087
-3.53441
-3.31082
-3.09084
-2.87512
-2.66424
-2.45867
-2.2588
-2.06492
-1.87722
-1.69589
-1.521
-1.35249
-1.19021
-1.03396
-0.883477
-0.738389
-0.598262
-0.462616
-0.330917
-0.202568
-0.0769204
0.0467757
0.169297
0.291466
0.414067
0.537964
0.663959
0.792952
0.925736
1.06322
1.20617
1.35546
1.51177
1.6759
1.84849
2.03022
2.22162
2.42319
2.63529
2.85825
3.09232
3.33769
3.59446
3.86265
4.14221
4.43299
4.73463
5.04669
5.36856
5.69957
6.03886
6.38558
6.7387
7.09717
7.45982
7.82548
8.19292
8.56095
8.9283
9.29378
9.65613
10.0142
10.3667
10.7125
11.0506
11.3799
11.6994
12.0082
12.3054
12.5903
12.8624
13.1211
13.3661
13.5972
13.8144
14.0176
14.2069
14.3824
14.5438
14.6914
14.8208
14.9398
14.9948
-7.77218
-7.78682
-7.8074
-7.82438
-7.83781
-7.84907
-7.85881
-7.86751
-7.87563
-7.88358
-7.8917
-7.90025
-7.90948
-7.91956
-7.93063
-7.94281
-7.95616
-7.97073
-7.98656
-8.00362
-8.02191
-8.04137
-8.06197
-8.08361
-8.10626
-8.12979
-8.15415
-8.17921
-8.20492
-8.23114
-8.25779
-8.28474
-8.31191
-8.33919
-8.3665
-8.39372
-8.42079
-8.44758
-8.47402
-8.50001
-8.52546
-8.55026
-8.57434
-8.59755
-8.61983
-8.64103
-8.66106
-8.67977
-8.69703
-8.71269
-8.72661
-8.7386
-8.74851
-8.75613
-8.76127
-8.7637
-8.76322
-8.75957
-8.75249
-8.74173
-8.72699
-8.70798
-8.68439
-8.65591
-8.62219
-8.58291
-8.53772
-8.48627
-8.42821
-8.36321
-8.29092
-8.21103
-8.12323
-8.02724
-7.9228
-7.8097
-7.68776
-7.55685
-7.41691
-7.26792
-7.10995
-6.94312
-6.76764
-6.58382
-6.39202
-6.19268
-5.98637
-5.77389
-5.55595
-5.33306
-5.1059
-4.8755
-4.64294
-4.40927
-4.17544
-3.94239
-3.711
-3.48216
-3.25668
-3.03533
-2.81875
-2.6075
-2.40208
-2.20284
-2.0101
-1.82404
-1.64482
-1.47244
-1.30684
-1.14779
-0.995124
-0.848476
-0.707506
-0.571686
-0.44056
-0.313482
-0.189903
-0.0690004
0.0498654
0.167672
0.285057
0.403049
0.522285
0.643861
0.768421
0.897065
1.03041
1.16954
1.31503
1.46787
1.6286
1.7981
1.97685
2.16552
2.3645
2.57421
2.79497
3.02704
3.27064
3.52588
3.79279
4.07131
4.36126
4.66232
4.97402
5.29577
5.62684
5.96644
6.31365
6.66749
7.02685
7.3906
7.75751
8.1264
8.49602
8.86516
9.23255
9.59698
9.95719
10.312
10.6602
11.0008
11.3325
11.6545
11.9658
12.2654
12.5526
12.8269
13.0876
13.3345
13.5672
13.7857
13.9899
14.1797
14.3551
14.5157
14.6613
14.7877
14.9026
14.9525
-7.78838
-7.80183
-7.82065
-7.83644
-7.84924
-7.86024
-7.86996
-7.8788
-7.88718
-7.89544
-7.9039
-7.9128
-7.92234
-7.9327
-7.94401
-7.95637
-7.96986
-7.98453
-8.0004
-8.01746
-8.03572
-8.05512
-8.07563
-8.09719
-8.11975
-8.14319
-8.16748
-8.19249
-8.21817
-8.24439
-8.27108
-8.29812
-8.32543
-8.3529
-8.38045
-8.40797
-8.43539
-8.46259
-8.48951
-8.51603
-8.54207
-8.56751
-8.59227
-8.61623
-8.6393
-8.66133
-8.68222
-8.70182
-8.72001
-8.73661
-8.75148
-8.76445
-8.77532
-8.7839
-8.78999
-8.79336
-8.79378
-8.791
-8.78475
-8.77475
-8.76072
-8.74234
-8.71929
-8.69124
-8.65783
-8.61873
-8.57356
-8.52196
-8.46356
-8.39802
-8.32496
-8.24406
-8.15499
-8.05747
-7.95121
-7.83599
-7.71162
-7.57798
-7.435
-7.28265
-7.12101
-6.95022
-6.77051
-6.58219
-6.38569
-6.18145
-5.97013
-5.75256
-5.5295
-5.30157
-5.06945
-4.83427
-4.59719
-4.35931
-4.12167
-3.88524
-3.65099
-3.4198
-3.19255
-2.96998
-2.75276
-2.54143
-2.33647
-2.13825
-1.94706
-1.7631
-1.58646
-1.41709
-1.25486
-1.09957
-0.950967
-0.808701
-0.672331
-0.541353
-0.415206
-0.293264
-0.17485
-0.0591907
0.0545138
0.167109
0.279413
0.392328
0.506693
0.623453
0.743438
0.867598
0.996731
1.13176
1.27344
1.42262
1.57997
1.74625
1.92205
2.10795
2.30439
2.51177
2.73043
2.96063
3.20261
3.45647
3.72224
3.99987
4.28916
4.5898
4.90131
5.2231
5.55443
5.89451
6.24239
6.59711
6.95753
7.32252
7.69083
8.06129
8.43265
8.80367
9.1731
9.5397
9.90221
10.2594
10.6101
10.9532
11.2875
11.6121
11.9258
12.2278
12.5174
12.7939
13.0566
13.3054
13.5397
13.7595
13.9646
14.1549
14.3301
14.4898
14.6336
14.7572
14.8686
14.9145
-7.8074
-7.81934
-7.83601
-7.85017
-7.86193
-7.87226
-7.88158
-7.8902
-7.89849
-7.90675
-7.91526
-7.92423
-7.93386
-7.94429
-7.95565
-7.96803
-7.98151
-7.99613
-8.01194
-8.02891
-8.04705
-8.06634
-8.08673
-8.10818
-8.13063
-8.154
-8.17823
-8.20321
-8.2289
-8.25517
-8.28196
-8.30917
-8.33671
-8.36447
-8.39237
-8.42031
-8.4482
-8.47594
-8.50344
-8.5306
-8.55733
-8.58351
-8.60905
-8.63382
-8.65773
-8.68063
-8.70243
-8.72295
-8.74207
-8.75962
-8.77544
-8.78933
-8.80113
-8.81062
-8.8176
-8.82182
-8.82306
-8.82104
-8.81551
-8.80616
-8.7927
-8.7748
-8.75213
-8.72434
-8.69107
-8.65194
-8.60658
-8.55461
-8.49565
-8.4293
-8.35522
-8.27303
-8.18241
-8.08304
-7.97463
-7.85697
-7.72984
-7.59312
-7.44672
-7.29065
-7.12496
-6.94982
-6.76548
-6.57228
-6.37066
-6.16114
-5.94439
-5.72131
-5.49276
-5.25934
-5.02195
-4.78171
-4.53988
-4.29765
-4.0561
-3.81628
-3.5792
-3.34581
-3.11699
-2.89349
-2.67597
-2.46498
-2.26096
-2.06429
-1.87522
-1.69394
-1.52044
-1.35468
-1.19644
-1.04554
-0.901611
-0.764314
-0.633117
-0.507528
-0.386871
-0.270563
-0.15775
-0.0477678
0.0603912
0.167394
0.27432
0.381851
0.491124
0.602814
0.71807
0.837547
0.962376
1.09317
1.231
1.37642
1.53038
1.69343
1.86628
2.04943
2.24335
2.44845
2.66507
2.89351
3.13398
3.38659
3.65138
3.92827
4.21707
4.51744
4.82895
5.15094
5.4827
5.82339
6.17211
6.52782
6.88945
7.25577
7.62561
7.99773
8.37092
8.7439
9.11546
9.48431
9.84921
10.2089
10.5622
10.9078
11.2448
11.5719
11.8881
12.1926
12.4846
12.7632
13.0281
13.2786
13.5146
13.7356
13.9416
14.1322
14.3073
14.4661
14.6083
14.7293
14.8375
14.8802
-7.82793
-7.83823
-7.85249
-7.86475
-7.87516
-7.88447
-7.89303
-7.90109
-7.90895
-7.9169
-7.92517
-7.93395
-7.94342
-7.9537
-7.96491
-7.97714
-7.99047
-8.00492
-8.02054
-8.03732
-8.05528
-8.07438
-8.09461
-8.1159
-8.13823
-8.1615
-8.18567
-8.21065
-8.23637
-8.26274
-8.28969
-8.31711
-8.34495
-8.37307
-8.4014
-8.42982
-8.45827
-8.48661
-8.51477
-8.54262
-8.57008
-8.59703
-8.62336
-8.64896
-8.6737
-8.69746
-8.72012
-8.7415
-8.76149
-8.77989
-8.79655
-8.81127
-8.82387
-8.83414
-8.84186
-8.84678
-8.84868
-8.84727
-8.84227
-8.8334
-8.82033
-8.80273
-8.78026
-8.75254
-8.7192
-8.67986
-8.63411
-8.58156
-8.52179
-8.45443
-8.37907
-8.29535
-8.20291
-8.10142
-7.9906
-7.87018
-7.73997
-7.59982
-7.44966
-7.28948
-7.11937
-6.93948
-6.75009
-6.55159
-6.34445
-6.12922
-5.90668
-5.67775
-5.44334
-5.20422
-4.9613
-4.71586
-4.46923
-4.22266
-3.9773
-3.73428
-3.49466
-3.25942
-3.02945
-2.80551
-2.58823
-2.37815
-2.17571
-1.98122
-1.79495
-1.61698
-1.4473
-1.28577
-1.13219
-0.986292
-0.847682
-0.715906
-0.590447
-0.470717
-0.356053
-0.245743
-0.138988
-0.0349506
0.0672481
0.168473
0.269663
0.37171
0.475588
0.582173
0.692452
0.807269
0.927595
1.05421
1.18804
1.32979
1.48027
1.64015
1.81005
1.9905
2.18198
2.38489
2.5996
2.82641
3.0655
3.31701
3.58093
3.85722
4.14566
4.4459
4.7575
5.07981
5.4121
5.75351
6.10314
6.45993
6.82281
7.19055
7.56197
7.93582
8.31087
8.68587
9.05958
9.43072
9.79802
10.1602
10.5161
10.8644
11.2039
11.5336
11.8525
12.1594
12.4537
12.7346
13.0015
13.2538
13.4913
13.7136
13.9204
14.1115
14.2864
14.4443
14.5849
14.7037
14.809
14.8494
-7.84888
-7.85749
-7.86928
-7.87949
-7.8883
-7.89631
-7.90378
-7.91094
-7.91806
-7.92537
-7.9331
-7.9414
-7.95044
-7.96034
-7.9712
-7.98309
-7.99609
-8.01022
-8.02553
-8.04201
-8.05968
-8.07852
-8.09851
-8.11959
-8.14175
-8.16489
-8.18899
-8.21395
-8.23972
-8.2662
-8.29332
-8.32098
-8.34911
-8.3776
-8.40636
-8.43527
-8.46426
-8.49319
-8.52199
-8.55051
-8.57868
-8.60636
-8.63344
-8.65978
-8.68528
-8.70979
-8.73318
-8.75529
-8.77597
-8.79506
-8.81238
-8.82775
-8.84096
-8.85181
-8.86006
-8.86549
-8.86784
-8.86683
-8.86218
-8.85358
-8.8407
-8.8232
-8.80072
-8.77288
-8.73927
-8.6995
-8.65315
-8.59979
-8.53901
-8.47039
-8.39354
-8.30805
-8.21355
-8.1097
-7.99619
-7.87276
-7.73918
-7.59534
-7.44111
-7.27653
-7.10165
-6.91671
-6.72197
-6.51788
-6.30493
-6.08379
-5.85521
-5.62028
-5.37987
-5.13493
-4.8865
-4.63594
-4.38466
-4.13397
-3.88511
-3.63929
-3.39758
-3.16103
-2.93049
-2.70673
-2.49035
-2.28187
-2.08169
-1.8901
-1.70731
-1.53332
-1.3681
-1.21143
-1.06315
-0.922838
-0.790092
-0.664336
-0.54507
-0.43159
-0.323282
-0.219266
-0.118843
-0.0209784
0.0750473
0.170348
0.265659
0.362148
0.460535
0.562003
0.667253
0.77745
0.893252
1.01576
1.1456
1.28376
1.43083
1.5876
1.75461
1.93244
2.12156
2.32238
2.5353
2.76058
2.99844
3.24895
3.51213
3.78791
4.07608
4.3763
4.68808
5.01078
5.34363
5.68582
6.03636
6.39425
6.75833
7.12747
7.50042
7.87597
8.25284
8.62984
9.00567
9.37908
9.74876
10.1135
10.4719
10.8228
11.165
11.4973
11.8187
12.1281
12.4247
12.7078
12.9767
13.2309
13.4699
13.6934
13.9011
14.0925
14.2673
14.4245
14.5636
14.6803
14.7831
14.8217
-7.87025
-7.87719
-7.88658
-7.89464
-7.90161
-7.90798
-7.914
-7.91986
-7.92582
-7.93209
-7.93888
-7.94634
-7.95461
-7.9638
-7.97401
-7.9853
-7.99772
-8.01131
-8.0261
-8.04209
-8.05931
-8.07772
-8.09732
-8.11807
-8.13992
-8.16283
-8.18674
-8.21158
-8.2373
-8.26378
-8.29099
-8.31879
-8.34713
-8.37587
-8.40495
-8.43424
-8.46366
-8.49307
-8.52239
-8.55147
-8.58022
-8.60848
-8.63617
-8.66311
-8.68919
-8.71426
-8.73819
-8.7608
-8.78197
-8.8015
-8.81925
-8.835
-8.84858
-8.85976
-8.86833
-8.87403
-8.87661
-8.87578
-8.87126
-8.86272
-8.84983
-8.83223
-8.80954
-8.78136
-8.74728
-8.70688
-8.65973
-8.60538
-8.5434
-8.47334
-8.39478
-8.30731
-8.21053
-8.10408
-7.98767
-7.86097
-7.72383
-7.57601
-7.41754
-7.2483
-7.06852
-6.87828
-6.67805
-6.46818
-6.24933
-6.02211
-5.78751
-5.54648
-5.30016
-5.0495
-4.79576
-4.54035
-4.28476
-4.03039
-3.77855
-3.53049
-3.28736
-3.05019
-2.81982
-2.597
-2.3823
-2.17621
-1.97907
-1.79116
-1.61257
-1.44327
-1.28316
-1.13205
-0.989644
-0.85551
-0.729107
-0.609851
-0.497128
-0.390268
-0.288536
-0.191113
-0.0971307
-0.00568168
0.0841536
0.173347
0.26284
0.353634
0.446656
0.542907
0.643289
0.748792
0.860252
0.978608
1.10464
1.2392
1.38299
1.5367