/*--------------------------------*- C++ -*----------------------------------*\
  =========                 |
  \\      /  F ield         | OpenFOAM: The Open Source CFD Toolbox
   \\    /   O peration     | Website:  https://openfoam.org
    \\  /    A nd           | Version:  8
     \\/     M anipulation  |
\*---------------------------------------------------------------------------*/
FoamFile
{
    version     2.0;
    format      ascii;
    class       surfaceScalarField;
    location    "120";
    object      phi;
}
// * * * * * * * * * * * * * * * * * * * * * * * * * * * * * * * * * * * * * //

dimensions      [0 3 -1 0 0 0 0];

internalField   nonuniform List<scalar> 
24170
(
3.129e-06
5.94021e-08
3.04661e-06
8.23946e-08
2.9735e-06
7.31144e-08
2.90483e-06
6.86652e-08
2.84046e-06
6.43705e-08
2.78308e-06
5.73886e-08
2.73369e-06
4.93891e-08
2.69165e-06
4.20429e-08
2.65586e-06
3.57939e-08
2.62525e-06
3.06151e-08
2.59883e-06
2.64301e-08
2.57572e-06
2.31245e-08
2.55519e-06
2.05322e-08
2.53656e-06
1.86487e-08
2.51927e-06
1.72971e-08
2.50147e-06
1.78013e-08
2.48336e-06
1.80796e-08
3.19225e-08
2.45141e-06
3.45306e-06
2.35873e-08
3.457e-06
7.84494e-08
3.45053e-06
7.95803e-08
3.43907e-06
8.0128e-08
3.42427e-06
7.91649e-08
3.407e-06
7.46497e-08
3.38774e-06
6.86482e-08
3.36716e-06
6.26157e-08
3.34594e-06
5.70086e-08
3.32467e-06
5.18823e-08
3.30382e-06
4.72838e-08
3.28365e-06
4.32952e-08
3.26434e-06
3.98481e-08
3.2459e-06
3.70992e-08
3.2284e-06
3.48097e-08
3.21173e-06
3.44689e-08
3.1964e-06
3.33958e-08
4.18173e-08
3.18651e-06
3.66816e-06
1.79483e-08
3.67919e-06
6.74151e-08
3.68541e-06
7.3366e-08
3.68943e-06
7.61142e-08
3.69101e-06
7.75909e-08
3.69001e-06
7.56491e-08
3.68684e-06
7.18255e-08
3.68195e-06
6.75131e-08
3.67572e-06
6.32341e-08
3.6685e-06
5.91214e-08
3.66052e-06
5.52625e-08
3.65205e-06
5.17831e-08
3.64322e-06
4.86783e-08
3.6342e-06
4.61352e-08
3.62496e-06
4.40529e-08
3.61602e-06
4.33964e-08
3.60649e-06
4.28975e-08
4.66577e-08
3.60163e-06
3.92585e-06
1.74907e-08
3.93591e-06
5.73489e-08
3.94255e-06
6.67231e-08
3.94807e-06
7.05869e-08
3.95246e-06
7.31966e-08
3.95538e-06
7.27283e-08
3.95701e-06
7.01936e-08
3.95759e-06
6.69301e-08
3.95731e-06
6.35155e-08
3.9563e-06
6.01253e-08
3.9547e-06
5.68637e-08
3.95262e-06
5.38683e-08
3.95013e-06
5.11731e-08
3.94733e-06
4.89419e-08
3.94422e-06
4.71641e-08
3.94124e-06
4.63738e-08
3.93808e-06
4.60443e-08
4.74559e-08
3.93729e-06
4.2082e-06
1.64214e-08
4.21597e-06
4.9575e-08
4.22166e-06
6.10411e-08
4.22675e-06
6.55048e-08
4.23147e-06
6.84766e-08
4.23541e-06
6.87946e-08
4.23853e-06
6.70711e-08
4.24095e-06
6.4513e-08
4.24278e-06
6.16983e-08
4.24408e-06
5.88269e-08
4.24494e-06
5.60073e-08
4.24544e-06
5.33787e-08
4.24562e-06
5.09981e-08
4.24557e-06
4.89972e-08
4.24534e-06
4.7402e-08
4.24522e-06
4.648e-08
4.24527e-06
4.59827e-08
4.6151e-08
4.24656e-06
4.51071e-06
1.48012e-08
4.51687e-06
4.3408e-08
4.52211e-06
5.58037e-08
4.5269e-06
6.07044e-08
4.53159e-06
6.37877e-08
4.53581e-06
6.45769e-08
4.53944e-06
6.3439e-08
4.54254e-06
6.14048e-08
4.5452e-06
5.90438e-08
4.54746e-06
5.65661e-08
4.54938e-06
5.40931e-08
4.55101e-06
5.17511e-08
4.5524e-06
4.96145e-08
4.55362e-06
4.77789e-08
4.55475e-06
4.62767e-08
4.556e-06
4.52199e-08
4.55752e-06
4.44541e-08
4.38671e-08
4.5598e-06
4.83433e-06
1.31941e-08
4.83962e-06
3.81221e-08
4.84473e-06
5.0696e-08
4.84941e-06
5.6024e-08
4.85402e-06
5.9184e-08
4.8583e-06
6.02966e-08
4.86213e-06
5.96123e-08
4.86554e-06
5.79958e-08
4.8686e-06
5.59966e-08
4.87133e-06
5.38359e-08
4.87379e-06
5.1642e-08
4.87601e-06
4.95321e-08
4.87805e-06
4.75822e-08
4.87997e-06
4.58619e-08
4.88186e-06
4.4395e-08
4.88386e-06
4.32062e-08
4.88613e-06
4.21755e-08
4.11055e-08
4.88889e-06
5.18104e-06
1.17306e-08
5.18574e-06
3.34231e-08
5.19073e-06
4.57062e-08
5.19536e-06
5.13906e-08
5.19992e-06
5.46225e-08
5.20425e-06
5.59687e-08
5.2082e-06
5.56557e-08
5.21181e-06
5.43938e-08
5.2151e-06
5.27019e-08
5.21813e-06
5.08109e-08
5.22092e-06
4.88533e-08
5.22352e-06
4.69356e-08
5.22597e-06
4.51334e-08
5.22834e-06
4.34953e-08
5.2307e-06
4.20321e-08
5.23317e-06
4.07287e-08
5.23586e-06
3.94787e-08
3.81111e-08
5.23886e-06
5.55269e-06
1.03782e-08
5.55688e-06
2.92376e-08
5.56167e-06
4.09156e-08
5.56626e-06
4.68038e-08
5.5708e-06
5.00855e-08
5.57518e-06
5.15969e-08
5.57924e-06
5.15905e-08
5.583e-06
5.06392e-08
5.58649e-06
4.92185e-08
5.58974e-06
4.75663e-08
5.59278e-06
4.58138e-08
5.59566e-06
4.4063e-08
5.59841e-06
4.23799e-08
5.60111e-06
4.0803e-08
5.60381e-06
3.93333e-08
5.60659e-06
3.79378e-08
5.60953e-06
3.65342e-08
3.49865e-08
5.61265e-06
5.95104e-06
9.11784e-09
5.95478e-06
2.54968e-08
5.95934e-06
3.63537e-08
5.96387e-06
4.22643e-08
5.9684e-06
4.55587e-08
5.97282e-06
4.71776e-08
5.97699e-06
4.74173e-08
5.98089e-06
4.67371e-08
5.98455e-06
4.55604e-08
5.98799e-06
4.41216e-08
5.99125e-06
4.25562e-08
5.99436e-06
4.0952e-08
5.99737e-06
3.9375e-08
6.00033e-06
3.78514e-08
6.00328e-06
3.63794e-08
6.00629e-06
3.49275e-08
6.00939e-06
3.3425e-08
3.17962e-08
6.01258e-06
6.37798e-06
7.94901e-09
6.38134e-06
2.21423e-08
6.38565e-06
3.20385e-08
6.39012e-06
3.77954e-08
6.39463e-06
4.1055e-08
6.39908e-06
4.27288e-08
6.40334e-06
4.31535e-08
6.40738e-06
4.27027e-08
6.4112e-06
4.17406e-08
6.41483e-06
4.04971e-08
6.41829e-06
3.90974e-08
6.42161e-06
3.76322e-08
6.42484e-06
3.61501e-08
6.42802e-06
3.46828e-08
6.43117e-06
3.32235e-08
6.43435e-06
3.17466e-08
6.43757e-06
3.02077e-08
2.8557e-08
6.44081e-06
5.74176e-06
7.02488e-09
5.74434e-06
1.95649e-08
5.7478e-06
2.85767e-08
5.75151e-06
3.40787e-08
5.7553e-06
3.7265e-08
5.75908e-06
3.89516e-08
5.76275e-06
3.94855e-08
5.76626e-06
3.91946e-08
5.76961e-06
3.83947e-08
5.77281e-06
3.72979e-08
5.77588e-06
3.60332e-08
5.77884e-06
3.46697e-08
5.78173e-06
3.32725e-08
5.78456e-06
3.18529e-08
5.78736e-06
3.04198e-08
5.79015e-06
2.89515e-08
5.79294e-06
2.74142e-08
2.57963e-08
5.79571e-06
6.99914e-06
6.04289e-09
7.00187e-06
1.68356e-08
7.00562e-06
2.48205e-08
7.00978e-06
2.99203e-08
7.01409e-06
3.29557e-08
7.01844e-06
3.46067e-08
7.0227e-06
3.52205e-08
7.02682e-06
3.50728e-08
7.03079e-06
3.44313e-08
7.03461e-06
3.34898e-08
7.03828e-06
3.23562e-08
7.04184e-06
3.11165e-08
7.04531e-06
2.98058e-08
7.0487e-06
2.84588e-08
7.05205e-06
2.70733e-08
7.05535e-06
2.56433e-08
7.05861e-06
2.41523e-08
2.25981e-08
7.0618e-06
8.53188e-06
5.01083e-09
8.53473e-06
1.39852e-08
8.53876e-06
2.07942e-08
8.54335e-06
2.53286e-08
8.54821e-06
2.81039e-08
8.55316e-06
2.96563e-08
8.55808e-06
3.02977e-08
8.56289e-06
3.02644e-08
8.56756e-06
2.97686e-08
8.57208e-06
2.89727e-08
8.57645e-06
2.7986e-08
8.5807e-06
2.68706e-08
8.58483e-06
2.56748e-08
8.58886e-06
2.44205e-08
8.59281e-06
2.31179e-08
8.59668e-06
2.17694e-08
8.60047e-06
2.03649e-08
1.89262e-08
8.60414e-06
1.04003e-05
3.93821e-09
1.04033e-05
1.10266e-08
1.04075e-05
1.652e-08
1.04126e-05
2.03055e-08
1.0418e-05
2.2692e-08
1.04236e-05
2.40547e-08
1.04292e-05
2.46597e-08
1.04348e-05
2.46908e-08
1.04402e-05
2.43148e-08
1.04456e-05
2.36605e-08
1.04507e-05
2.28193e-08
1.04557e-05
2.18487e-08
1.04606e-05
2.07902e-08
1.04654e-05
1.96644e-08
1.047e-05
1.84886e-08
1.04745e-05
1.72669e-08
1.04789e-05
1.6004e-08
1.47235e-08
1.04831e-05
1.26779e-05
2.82735e-09
1.2681e-05
7.95666e-09
1.26855e-05
1.19889e-08
1.2691e-05
1.4844e-08
1.2697e-05
1.66839e-08
1.27033e-05
1.77509e-08
1.27097e-05
1.82329e-08
1.27161e-05
1.82713e-08
1.27225e-05
1.79792e-08
1.27287e-05
1.74541e-08
1.27347e-05
1.67639e-08
1.27406e-05
1.59583e-08
1.27463e-05
1.50664e-08
1.27519e-05
1.41127e-08
1.27573e-05
1.31097e-08
1.27625e-05
1.2071e-08
1.27675e-05
1.10011e-08
9.93112e-09
1.27723e-05
1.54543e-05
1.66835e-09
1.54576e-05
4.72266e-09
1.54624e-05
7.14309e-09
1.54684e-05
8.87821e-09
1.54751e-05
1.00051e-08
1.54822e-05
1.06488e-08
1.54895e-05
1.09183e-08
1.54969e-05
1.08967e-08
1.55042e-05
1.06523e-08
1.55114e-05
1.02431e-08
1.55184e-05
9.71286e-09
1.55253e-05
9.09379e-09
1.5532e-05
8.40715e-09
1.55384e-05
7.67098e-09
1.55446e-05
6.89659e-09
1.55506e-05
6.09722e-09
1.55563e-05
5.27786e-09
4.46847e-09
1.55618e-05
1.88389e-05
4.19462e-10
1.88424e-05
1.2025e-09
1.88477e-05
1.80751e-09
1.88544e-05
2.21867e-09
1.88619e-05
2.45725e-09
1.887e-05
2.55061e-09
1.88784e-05
2.51983e-09
1.8887e-05
2.38342e-09
1.88954e-05
2.15986e-09
1.89038e-05
1.86577e-09
1.8912e-05
1.51478e-09
1.892e-05
1.11792e-09
1.89277e-05
6.84164e-10
1.89352e-05
2.2163e-10
1.89423e-05
-2.62601e-10
1.89492e-05
-7.60955e-10
1.89558e-05
-1.26886e-09
-1.76317e-09
1.8962e-05
2.29648e-05
-1.01874e-09
2.29689e-05
-2.89102e-09
2.29751e-05
-4.43263e-09
2.29829e-05
-5.60601e-09
2.29918e-05
-6.4298e-09
2.30014e-05
-6.99093e-09
2.30113e-05
-7.3788e-09
2.30213e-05
-7.64697e-09
2.30313e-05
-7.83625e-09
2.30411e-05
-7.97539e-09
2.30507e-05
-8.09308e-09
2.30601e-05
-8.20034e-09
2.30691e-05
-8.30953e-09
2.30777e-05
-8.42083e-09
2.3086e-05
-8.5402e-09
2.30939e-05
-8.66301e-09
2.31014e-05
-8.79237e-09
-8.90972e-09
2.31086e-05
1.68118e-05
-2.14606e-09
1.6815e-05
-6.07543e-09
1.68199e-05
-9.28603e-09
1.68259e-05
-1.16358e-08
1.68327e-05
-1.31829e-08
1.68398e-05
-1.41575e-08
1.68472e-05
-1.47448e-08
1.68546e-05
-1.50543e-08
1.68619e-05
-1.51587e-08
1.68691e-05
-1.51395e-08
1.6876e-05
-1.50401e-08
1.68827e-05
-1.49045e-08
1.68892e-05
-1.47419e-08
1.68953e-05
-1.45777e-08
1.69012e-05
-1.44075e-08
1.69068e-05
-1.42475e-08
1.69121e-05
-1.40872e-08
-1.39288e-08
1.69171e-05
1.46357e-05
-3.22815e-09
1.46387e-05
-9.1738e-09
1.46435e-05
-1.40173e-08
1.46493e-05
-1.74036e-08
1.46556e-05
-1.95006e-08
1.46622e-05
-2.0759e-08
1.46689e-05
-2.14501e-08
1.46755e-05
-2.17088e-08
1.4682e-05
-2.16703e-08
1.46883e-05
-2.14467e-08
1.46944e-05
-2.1119e-08
1.47002e-05
-2.07272e-08
1.47058e-05
-2.03057e-08
1.47111e-05
-1.98709e-08
1.47161e-05
-1.94396e-08
1.47209e-05
-1.9014e-08
1.47254e-05
-1.86024e-08
-1.81922e-08
1.47297e-05
1.27411e-05
-4.24055e-09
1.27443e-05
-1.23105e-08
1.27491e-05
-1.8863e-08
1.27548e-05
-2.30676e-08
1.27608e-05
-2.55029e-08
1.2767e-05
-2.69414e-08
1.27732e-05
-2.76488e-08
1.27792e-05
-2.77729e-08
1.27851e-05
-2.75214e-08
1.27907e-05
-2.70604e-08
1.27961e-05
-2.64798e-08
1.28012e-05
-2.58294e-08
1.2806e-05
-2.51498e-08
1.28106e-05
-2.44608e-08
1.28149e-05
-2.37843e-08
1.2819e-05
-2.31194e-08
1.28229e-05
-2.24784e-08
-2.18484e-08
1.28266e-05
1.10918e-05
-5.08659e-09
1.1095e-05
-1.55395e-08
1.11001e-05
-2.3998e-08
1.11058e-05
-2.87049e-08
1.11115e-05
-3.12526e-08
1.11174e-05
-3.27723e-08
1.11231e-05
-3.33929e-08
1.11286e-05
-3.32995e-08
1.11339e-05
-3.27942e-08
1.11389e-05
-3.20737e-08
1.11437e-05
-3.12307e-08
1.11482e-05
-3.03225e-08
1.11524e-05
-2.93888e-08
1.11564e-05
-2.84631e-08
1.11602e-05
-2.75528e-08
1.11637e-05
-2.66741e-08
1.11671e-05
-2.5821e-08
-2.49983e-08
1.11702e-05
9.65582e-06
-5.69483e-09
9.65925e-06
-1.89688e-08
9.6646e-06
-2.93517e-08
9.67011e-06
-3.42105e-08
9.67568e-06
-3.68204e-08
9.68125e-06
-3.83388e-08
9.68659e-06
-3.87336e-08
9.69162e-06
-3.83336e-08
9.69637e-06
-3.75419e-08
9.70085e-06
-3.65544e-08
9.70507e-06
-3.54475e-08
9.70903e-06
-3.42833e-08
9.71274e-06
-3.3107e-08
9.71623e-06
-3.19487e-08
9.71949e-06
-3.08231e-08
9.72256e-06
-2.97356e-08
9.72542e-06
-2.86881e-08
-2.7678e-08
9.7281e-06
8.40532e-06
-5.66632e-09
8.40964e-06
-2.32868e-08
8.41488e-06
-3.45908e-08
8.41992e-06
-3.92436e-08
8.42529e-06
-4.21916e-08
8.4307e-06
-4.37526e-08
8.43579e-06
-4.3822e-08
8.4405e-06
-4.304e-08
8.44487e-06
-4.19088e-08
8.44892e-06
-4.06034e-08
8.45267e-06
-3.91966e-08
8.45613e-06
-3.77484e-08
8.45933e-06
-3.63085e-08
8.46229e-06
-3.49029e-08
8.46501e-06
-3.35479e-08
8.46752e-06
-3.22488e-08
8.46984e-06
-3.10071e-08
-2.98172e-08
8.47198e-06
7.31455e-06
-2.92883e-09
7.32119e-06
-2.99324e-08
7.32675e-06
-4.01456e-08
7.3317e-06
-4.41985e-08
7.33711e-06
-4.75924e-08
7.34243e-06
-4.90747e-08
7.34731e-06
-4.87004e-08
7.35172e-06
-4.74509e-08
7.3557e-06
-4.5881e-08
7.35925e-06
-4.41507e-08
7.36239e-06
-4.23383e-08
7.36516e-06
-4.0522e-08
7.3676e-06
-3.87461e-08
7.36974e-06
-3.70385e-08
7.3716e-06
-3.54141e-08
7.37323e-06
-3.38744e-08
7.37464e-06
-3.24211e-08
-3.10412e-08
7.37586e-06
6.36245e-06
4.68685e-09
6.37189e-06
-3.93757e-08
6.37932e-06
-4.75748e-08
6.38597e-06
-5.0842e-08
6.39225e-06
-5.38762e-08
6.39757e-06
-5.43888e-08
6.40187e-06
-5.2994e-08
6.40534e-06
-5.09282e-08
6.40814e-06
-4.8675e-08
6.41032e-06
-4.63244e-08
6.41194e-06
-4.39594e-08
6.41307e-06
-4.16498e-08
6.41377e-06
-3.94499e-08
6.41411e-06
-3.73751e-08
6.41414e-06
-3.5441e-08
6.41391e-06
-3.36434e-08
6.41347e-06
-3.19811e-08
-3.04404e-08
6.41286e-06
5.5412e-06
8.94918e-09
5.55033e-06
-4.84997e-08
5.55835e-06
-5.55946e-08
5.56605e-06
-5.85448e-08
5.57252e-06
-6.03382e-08
5.57684e-06
-5.87131e-08
5.57909e-06
-5.52339e-08
5.57964e-06
-5.1484e-08
5.57889e-06
-4.79152e-08
5.57709e-06
-4.45324e-08
5.57449e-06
-4.13534e-08
5.57126e-06
-3.84199e-08
5.56756e-06
-3.57407e-08
5.56349e-06
-3.3307e-08
5.55917e-06
-3.1116e-08
5.55468e-06
-2.91501e-08
5.55011e-06
-2.74143e-08
-2.58538e-08
5.54552e-06
4.86004e-06
-2.34866e-08
4.86539e-06
-5.38419e-08
4.86524e-06
-5.54493e-08
4.86218e-06
-5.54749e-08
4.85701e-06
-5.51676e-08
4.84951e-06
-5.12121e-08
4.83981e-06
-4.55363e-08
4.82842e-06
-4.0088e-08
4.81585e-06
-3.53378e-08
4.80256e-06
-3.12483e-08
4.78896e-06
-2.7746e-08
4.77531e-06
-2.47679e-08
4.76181e-06
-2.22388e-08
4.74859e-06
-2.00862e-08
4.73574e-06
-1.82629e-08
4.72333e-06
-1.67373e-08
4.71146e-06
-1.55475e-08
-1.52118e-08
4.70082e-06
4.17919e-06
4.12535e-06
4.0699e-06
4.01442e-06
3.95926e-06
3.90804e-06
3.86251e-06
3.82242e-06
3.78708e-06
3.75584e-06
3.72809e-06
3.70332e-06
3.68108e-06
3.661e-06
3.64274e-06
3.626e-06
3.61045e-06
3.59524e-06
2.21608e-08
-2.21552e-08
4.10863e-08
-1.8942e-08
5.11157e-08
-9.98849e-09
5.25274e-08
-1.53166e-09
4.6825e-08
5.78295e-09
3.50183e-08
1.15908e-08
1.92446e-08
1.5923e-08
5.62338e-11
1.8971e-08
-2.0927e-08
2.11157e-08
-4.38116e-08
2.27867e-08
-6.85259e-08
2.48201e-08
-9.6735e-08
2.82707e-08
-1.24794e-07
2.81264e-08
-1.4822e-07
2.36495e-08
-1.74201e-07
2.59625e-08
-2.04038e-07
3.00466e-08
-2.38606e-07
3.44933e-08
-2.77493e-07
3.89919e-08
-3.21164e-07
4.35991e-08
-3.69935e-07
4.87915e-08
-4.22074e-07
5.20982e-08
-4.73261e-07
5.11814e-08
-5.24308e-07
5.10363e-08
-5.77654e-07
5.33434e-08
-6.31963e-07
5.43187e-08
-6.86925e-07
5.49676e-08
-7.42322e-07
5.54095e-08
-7.97918e-07
5.56074e-08
-8.5346e-07
5.55539e-08
-9.08712e-07
5.52669e-08
-9.63486e-07
5.47809e-08
-1.0176e-06
5.41318e-08
-1.07096e-06
5.33565e-08
-1.12342e-06
5.2488e-08
-1.17498e-06
5.15549e-08
-1.22555e-06
5.0583e-08
-1.27515e-06
4.9592e-08
-1.32373e-06
4.86009e-08
-1.37137e-06
4.76211e-08
-1.41801e-06
4.66642e-08
-1.46376e-06
4.57331e-08
-1.50858e-06
4.48341e-08
-1.55256e-06
4.39653e-08
-1.59567e-06
4.31298e-08
-1.63802e-06
4.23223e-08
-1.67955e-06
4.1544e-08
-1.72035e-06
4.07865e-08
-1.76039e-06
4.00498e-08
-1.79973e-06
3.93241e-08
-1.83832e-06
3.86089e-08
-1.87623e-06
3.78922e-08
-1.91337e-06
3.71742e-08
-1.94983e-06
3.64417e-08
-1.98549e-06
3.56944e-08
-2.02043e-06
3.49189e-08
-2.05452e-06
3.41175e-08
-2.08781e-06
3.32763e-08
-2.12019e-06
3.23971e-08
-2.15167e-06
3.14658e-08
-2.18214e-06
3.04871e-08
-2.21161e-06
2.94462e-08
-2.23994e-06
2.83469e-08
-2.26714e-06
2.71761e-08
-2.29307e-06
2.59392e-08
-2.31773e-06
2.46235e-08
-2.34096e-06
2.32349e-08
-2.36274e-06
2.17608e-08
-2.38295e-06
2.02061e-08
-2.40152e-06
1.85602e-08
-2.41836e-06
1.68245e-08
-2.43336e-06
1.49911e-08
-2.44644e-06
1.30561e-08
-2.45747e-06
1.10115e-08
-2.46634e-06
8.84832e-09
-2.47292e-06
6.55316e-09
-2.47706e-06
4.12628e-09
-2.47871e-06
1.61712e-09
-2.47793e-06
-8.11842e-10
-2.47493e-06
-3.0653e-09
-2.46977e-06
-5.1936e-09
-2.46258e-06
-7.27727e-09
-2.4533e-06
-9.32605e-09
-2.44205e-06
-1.1358e-08
-2.42872e-06
-1.3341e-08
-2.41353e-06
-1.52945e-08
-2.3963e-06
-1.71723e-08
-2.37738e-06
-1.90169e-08
-2.35673e-06
-2.07553e-08
-2.3347e-06
-2.24069e-08
-2.3115e-06
-2.40338e-08
-2.28677e-06
-2.54837e-08
-2.26063e-06
-2.67824e-08
-2.23322e-06
-2.789e-08
-2.2048e-06
-2.88131e-08
-2.17554e-06
-2.95529e-08
-2.14567e-06
-3.01174e-08
-2.11537e-06
-3.04983e-08
-2.08485e-06
-3.0701e-08
-2.0543e-06
-3.07056e-08
-2.0239e-06
-3.05582e-08
-1.99381e-06
-3.02237e-08
-1.96425e-06
-2.9694e-08
-1.93536e-06
-2.9003e-08
-1.90731e-06
-2.81454e-08
-1.88023e-06
-2.71433e-08
-1.85426e-06
-2.60128e-08
-1.8295e-06
-2.48e-08
-1.80602e-06
-2.35004e-08
-1.7839e-06
-2.21498e-08
-1.76318e-06
-2.07431e-08
-1.74391e-06
-1.93373e-08
-1.72605e-06
-1.79239e-08
-1.70963e-06
-1.65344e-08
-1.69458e-06
-1.51738e-08
-1.68088e-06
-1.38775e-08
-1.66839e-06
-1.26871e-08
-1.65701e-06
-1.16033e-08
-1.64662e-06
-1.05959e-08
-1.63709e-06
-9.72552e-09
-1.62824e-06
-9.0364e-09
-1.61996e-06
-8.51604e-09
-1.61211e-06
-8.16793e-09
-1.60447e-06
-8.01311e-09
-1.59682e-06
-8.08333e-09
-1.58889e-06
-8.32248e-09
-1.58054e-06
-8.77602e-09
-1.57148e-06
-9.39584e-09
-1.56162e-06
-1.02343e-08
-1.55063e-06
-1.12411e-08
-1.53844e-06
-1.24682e-08
-1.52474e-06
-1.38323e-08
-1.50944e-06
-1.54454e-08
-1.49226e-06
-1.71737e-08
-1.47317e-06
-1.91009e-08
-1.45191e-06
-2.11552e-08
-1.42845e-06
-2.33869e-08
-1.40256e-06
-2.57227e-08
-1.37411e-06
-2.81949e-08
-1.34287e-06
-3.07072e-08
-1.30884e-06
-3.33102e-08
-1.27203e-06
-3.59545e-08
-1.23249e-06
-3.87009e-08
-1.19017e-06
-4.15257e-08
-1.14499e-06
-4.44229e-08
-1.09694e-06
-4.73315e-08
-1.046e-06
-5.02471e-08
-9.92213e-07
-5.31229e-08
-9.35634e-07
-5.59569e-08
-8.76332e-07
-5.87161e-08
-8.14373e-07
-6.1401e-08
-7.49854e-07
-6.39914e-08
-6.82858e-07
-6.64791e-08
-6.13518e-07
-6.88552e-08
-5.41927e-07
-7.11146e-08
-4.68233e-07
-7.32669e-08
-3.92545e-07
-7.52804e-08
-3.15007e-07
-7.72082e-08
-2.35764e-07
-7.89447e-08
-1.55081e-07
-8.04943e-08
-7.28742e-08
-8.20398e-08
1.11609e-08
-8.39902e-08
9.73546e-08
-8.61322e-08
1.85149e-07
-8.78445e-08
2.74258e-07
-8.91068e-08
3.64245e-07
-9.00798e-08
4.54922e-07
-9.06986e-08
5.45846e-07
-9.10205e-08
6.36784e-07
-9.09602e-08
7.27299e-07
-9.05889e-08
8.17123e-07
-8.98353e-08
9.05825e-07
-8.87379e-08
9.93067e-07
-8.72328e-08
1.07838e-06
-8.53025e-08
1.1612e-06
-8.27962e-08
1.24072e-06
-7.94841e-08
1.31573e-06
-7.50046e-08
1.38393e-06
-6.81179e-08
1.44061e-06
-5.66321e-08
1.47036e-06
-2.9677e-08
4.02612e-08
1.42994e-06
1.20645e-08
-3.42026e-08
1.4684e-08
-2.15922e-08
1.10111e-08
-6.28954e-09
2.81265e-09
6.59148e-09
-9.07729e-09
1.77035e-08
-2.47565e-08
2.71696e-08
-4.38834e-08
3.50949e-08
-6.67085e-08
4.17095e-08
-9.29451e-08
4.74024e-08
-1.22843e-07
5.26496e-08
-1.55898e-07
5.79274e-08
-1.90896e-07
6.33012e-08
-2.30322e-07
6.7595e-08
-2.7685e-07
7.02436e-08
-3.24949e-07
7.4075e-08
-3.73826e-07
7.89742e-08
-4.23736e-07
8.43864e-08
-4.74556e-07
8.9824e-08
-5.25998e-07
9.50094e-08
-5.77042e-07
9.98229e-08
-6.28491e-07
1.0352e-07
-6.82693e-07
1.05365e-07
-7.381e-07
1.06426e-07
-7.92327e-07
1.07556e-07
-8.4625e-07
1.08233e-07
-8.99631e-07
1.0834e-07
-9.52215e-07
1.07991e-07
-1.00387e-06
1.0726e-07
-1.05452e-06
1.06204e-07
-1.10412e-06
1.04872e-07
-1.15266e-06
1.03316e-07
-1.20011e-06
1.01586e-07
-1.24648e-06
9.97313e-08
-1.29179e-06
9.77954e-08
-1.33605e-06
9.58167e-08
-1.37929e-06
9.38269e-08
-1.42155e-06
9.18512e-08
-1.46285e-06
8.99087e-08
-1.50324e-06
8.80126e-08
-1.54274e-06
8.61719e-08
-1.5814e-06
8.4391e-08
-1.61924e-06
8.26709e-08
-1.65628e-06
8.10098e-08
-1.69255e-06
7.94039e-08
-1.72808e-06
7.78467e-08
-1.76287e-06
7.63314e-08
-1.79693e-06
7.48487e-08
-1.83027e-06
7.33897e-08
-1.86289e-06
7.19433e-08
-1.89478e-06
7.04999e-08
-1.92594e-06
6.90475e-08
-1.95633e-06
6.75756e-08
-1.98596e-06
6.60716e-08
-2.01479e-06
6.45258e-08
-2.0428e-06
6.29262e-08
-2.06993e-06
6.12641e-08
-2.09619e-06
5.95278e-08
-2.1215e-06
5.77096e-08
-2.14583e-06
5.57988e-08
-2.16913e-06
5.37892e-08
-2.19135e-06
5.16706e-08
-2.21244e-06
4.94376e-08
-2.23235e-06
4.70816e-08
-2.25101e-06
4.45998e-08
-2.26838e-06
4.19845e-08
-2.28438e-06
3.9234e-08
-2.29896e-06
3.63424e-08
-2.31207e-06
3.33094e-08
-2.32364e-06
3.01309e-08
-2.33363e-06
2.68084e-08
-2.34199e-06
2.33418e-08
-2.34867e-06
1.9736e-08
-2.35367e-06
1.59974e-08
-2.35697e-06
1.21389e-08
-2.35862e-06
8.18294e-09
-2.35867e-06
4.16751e-09
-2.35722e-06
1.43112e-10
-2.35419e-06
-3.86259e-09
-2.34942e-06
-7.8623e-09
-2.34279e-06
-1.18558e-08
-2.33428e-06
-1.58344e-08
-2.32386e-06
-1.97797e-08
-2.31159e-06
-2.36791e-08
-2.29746e-06
-2.75036e-08
-2.28155e-06
-3.12408e-08
-2.26387e-06
-3.48587e-08
-2.24456e-06
-3.83465e-08
-2.2237e-06
-4.16514e-08
-2.20161e-06
-4.48089e-08
-2.17829e-06
-4.7742e-08
-2.15374e-06
-5.04501e-08
-2.12799e-06
-5.28575e-08
-2.1012e-06
-5.49083e-08
-2.07356e-06
-5.66228e-08
-2.04526e-06
-5.79734e-08
-2.01649e-06
-5.89819e-08
-1.98743e-06
-5.96271e-08
-1.95827e-06
-5.99236e-08
-1.92917e-06
-5.98583e-08
-1.90031e-06
-5.94562e-08
-1.87187e-06
-5.87062e-08
-1.84398e-06
-5.76198e-08
-1.81679e-06
-5.62164e-08
-1.79044e-06
-5.45151e-08
-1.76505e-06
-5.25456e-08
-1.74072e-06
-5.03522e-08
-1.71753e-06
-4.79883e-08
-1.69555e-06
-4.54859e-08
-1.67482e-06
-4.28847e-08
-1.65537e-06
-4.02135e-08
-1.6372e-06
-3.75263e-08
-1.62032e-06
-3.48525e-08
-1.60467e-06
-3.22358e-08
-1.59021e-06
-2.97089e-08
-1.57686e-06
-2.73224e-08
-1.56454e-06
-2.51168e-08
-1.55313e-06
-2.31317e-08
-1.54247e-06
-2.1363e-08
-1.53243e-06
-1.98686e-08
-1.52287e-06
-1.86914e-08
-1.51366e-06
-1.78715e-08
-1.50459e-06
-1.74108e-08
-1.49549e-06
-1.73399e-08
-1.48614e-06
-1.76639e-08
-1.47633e-06
-1.83712e-08
-1.46584e-06
-1.94739e-08
-1.4545e-06
-2.0958e-08
-1.44207e-06
-2.2835e-08
-1.42839e-06
-2.50866e-08
-1.41324e-06
-2.77334e-08
-1.39643e-06
-3.07347e-08
-1.37781e-06
-3.41131e-08
-1.35719e-06
-3.7811e-08
-1.3344e-06
-4.1849e-08
-1.30932e-06
-4.61804e-08
-1.28181e-06
-5.08118e-08
-1.25173e-06
-5.5694e-08
-1.21891e-06
-6.07851e-08
-1.18323e-06
-6.60513e-08
-1.14461e-06
-7.14501e-08
-1.10306e-06
-7.70113e-08
-1.05856e-06
-8.27081e-08
-1.01109e-06
-8.85707e-08
-9.60575e-07
-9.45099e-08
-9.07011e-07
-1.0051e-07
-8.50388e-07
-1.0648e-07
-7.90741e-07
-1.12414e-07
-7.28111e-07
-1.18232e-07
-6.62569e-07
-1.23935e-07
-5.94183e-07
-1.29464e-07
-5.2305e-07
-1.34824e-07
-4.49264e-07
-1.39962e-07
-3.72944e-07
-1.4489e-07
-2.94205e-07
-1.49573e-07
-2.13184e-07
-1.5403e-07
-1.30025e-07
-1.58202e-07
-4.48865e-08
-1.62139e-07
4.21964e-08
-1.6586e-07
1.31148e-07
-1.69312e-07
2.21792e-07
-1.72596e-07
3.13589e-07
-1.75726e-07
4.05973e-07
-1.78496e-07
4.9882e-07
-1.80686e-07
5.92011e-07
-1.82323e-07
6.85307e-07
-1.83408e-07
7.78502e-07
-1.83948e-07
8.71325e-07
-1.83897e-07
9.63547e-07
-1.83251e-07
1.05488e-06
-1.81988e-07
1.14509e-06
-1.80114e-07
1.23386e-06
-1.77566e-07
1.32087e-06
-1.7431e-07
1.40572e-06
-1.70206e-07
1.4879e-06
-1.65045e-07
1.56672e-06
-1.58357e-07
1.64108e-06
-1.49433e-07
1.70921e-06
-1.36282e-07
1.76816e-06
-1.15637e-07
1.81498e-06
-7.65593e-08
7.73762e-09
1.84728e-06
-3.34871e-09
-3.08265e-08
-1.39181e-08
-1.10515e-08
-2.75382e-08
7.35984e-09
-4.36906e-08
2.26959e-08
-6.20957e-08
3.61328e-08
-8.30535e-08
4.80732e-08
-1.06662e-07
5.87288e-08
-1.33307e-07
6.83141e-08
-1.62986e-07
7.71094e-08
-1.95762e-07
8.541e-08
-2.31238e-07
9.34323e-08
-2.69069e-07
1.01142e-07
-3.09643e-07
1.08193e-07
-3.53756e-07
1.14374e-07
-3.99983e-07
1.20312e-07
-4.47248e-07
1.2625e-07
-4.94968e-07
1.32099e-07
-5.42777e-07
1.37633e-07
-5.9041e-07
1.42623e-07
-6.37458e-07
1.46863e-07
-6.84089e-07
1.50129e-07
-7.31051e-07
1.52316e-07
-7.78313e-07
1.5367e-07
-8.25094e-07
1.54328e-07
-8.71217e-07
1.54345e-07
-9.16665e-07
1.53781e-07
-9.61399e-07
1.52718e-07
-1.00537e-06
1.51231e-07
-1.04857e-06
1.49394e-07
-1.09097e-06
1.47272e-07
-1.13258e-06
1.44926e-07
-1.17341e-06
1.42413e-07
-1.21347e-06
1.39785e-07
-1.25276e-06
1.37087e-07
-1.2913e-06
1.3436e-07
-1.32911e-06
1.31636e-07
-1.3662e-06
1.2894e-07
-1.40258e-06
1.26293e-07
-1.43827e-06
1.23707e-07
-1.47329e-06
1.2119e-07
-1.50764e-06
1.18746e-07
-1.54134e-06
1.16375e-07
-1.57441e-06
1.14073e-07
-1.60684e-06
1.11835e-07
-1.63864e-06
1.09653e-07
-1.66983e-06
1.07515e-07
-1.70039e-06
1.05411e-07
-1.73033e-06
1.03328e-07
-1.75964e-06
1.01253e-07
-1.78831e-06
9.91702e-08
-1.81633e-06
9.7066e-08
-1.84367e-06
9.49254e-08
-1.87034e-06
9.27332e-08
-1.89628e-06
9.04748e-08
-1.92149e-06
8.81358e-08
-1.94593e-06
8.57027e-08
-1.96956e-06
8.31616e-08
-1.99235e-06
8.05002e-08
-2.01426e-06
7.77061e-08
-2.03523e-06
7.47685e-08
-2.05524e-06
7.16761e-08
-2.07422e-06
6.84201e-08
-2.09213e-06
6.49917e-08
-2.10891e-06
6.13837e-08
-2.12451e-06
5.75901e-08
-2.13888e-06
5.36065e-08
-2.15197e-06
4.9429e-08
-2.16371e-06
4.50565e-08
-2.17407e-06
4.04889e-08
-2.18299e-06
3.57294e-08
-2.19044e-06
3.07838e-08
-2.19637e-06
2.56618e-08
-2.20075e-06
2.03777e-08
-2.20357e-06
1.49526e-08
-2.20481e-06
9.4124e-09
-2.20444e-06
3.78986e-09
-2.20242e-06
-1.8856e-09
-2.1987e-06
-7.60175e-09
-2.19323e-06
-1.33537e-08
-2.18598e-06
-1.9123e-08
-2.17696e-06
-2.48837e-08
-2.16616e-06
-3.0605e-08
-2.15362e-06
-3.62546e-08
-2.13935e-06
-4.17971e-08
-2.12341e-06
-4.72004e-08
-2.10586e-06
-5.2425e-08
-2.08677e-06
-5.74335e-08
-2.06628e-06
-6.21968e-08
-2.04455e-06
-6.66665e-08
-2.02172e-06
-7.08538e-08
-1.99775e-06
-7.46567e-08
-1.97273e-06
-7.80271e-08
-1.94681e-06
-8.09344e-08
-1.92014e-06
-8.33328e-08
-1.89292e-06
-8.52304e-08
-1.8653e-06
-8.66035e-08
-1.83746e-06
-8.74652e-08
-1.80956e-06
-8.78015e-08
-1.78178e-06
-8.76287e-08
-1.75426e-06
-8.69489e-08
-1.72716e-06
-8.5779e-08
-1.70062e-06
-8.41358e-08
-1.67476e-06
-8.20459e-08
-1.64971e-06
-7.95452e-08
-1.62556e-06
-7.66679e-08
-1.60241e-06
-7.3485e-08
-1.58033e-06
-7.00537e-08
-1.55937e-06
-6.64423e-08
-1.53955e-06
-6.2692e-08
-1.52091e-06
-5.88671e-08
-1.50343e-06
-5.50185e-08
-1.4871e-06
-5.12131e-08
-1.47187e-06
-4.75001e-08
-1.45769e-06
-4.39457e-08
-1.44447e-06
-4.0603e-08
-1.43213e-06
-3.75358e-08
-1.42054e-06
-3.47911e-08
-1.40957e-06
-3.24071e-08
-1.39908e-06
-3.04303e-08
-1.38892e-06
-2.89245e-08
-1.37896e-06
-2.79392e-08
-1.36901e-06
-2.74968e-08
-1.3589e-06
-2.76265e-08
-1.3484e-06
-2.83284e-08
-1.33734e-06
-2.96131e-08
-1.32549e-06
-3.14766e-08
-1.31268e-06
-3.39274e-08
-1.2987e-06
-3.69496e-08
-1.28337e-06
-4.05491e-08
-1.26648e-06
-4.47114e-08
-1.24788e-06
-4.9428e-08
-1.22737e-06
-5.4666e-08
-1.2048e-06
-6.04126e-08
-1.18e-06
-6.66349e-08
-1.15285e-06
-7.33169e-08
-1.1232e-06
-8.04193e-08
-1.09092e-06
-8.79042e-08
-1.05588e-06
-9.57038e-08
-1.01794e-06
-1.03772e-07
-9.77068e-07
-1.1207e-07
-9.3321e-07
-1.20586e-07
-8.86367e-07
-1.29322e-07
-8.36486e-07
-1.38238e-07
-7.83548e-07
-1.47283e-07
-7.27519e-07
-1.56372e-07
-6.68424e-07
-1.65446e-07
-6.06277e-07
-1.74427e-07
-5.41145e-07
-1.83266e-07
-4.73081e-07
-1.91897e-07
-4.02181e-07
-2.0029e-07
-3.28534e-07
-2.08391e-07
-2.52259e-07
-2.16176e-07
-1.73471e-07
-2.2361e-07
-9.23316e-08
-2.3066e-07
-8.98585e-09
-2.37324e-07
7.64365e-08
-2.43587e-07
1.63777e-07
-2.4945e-07
2.52833e-07
-2.54896e-07
3.43371e-07
-2.59845e-07
4.35102e-07
-2.64324e-07
5.27661e-07
-2.68299e-07
6.20728e-07
-2.71569e-07
7.14077e-07
-2.7406e-07
8.07514e-07
-2.75767e-07
9.00788e-07
-2.76705e-07
9.93686e-07
-2.76846e-07
1.08595e-06
-2.76171e-07
1.17735e-06
-2.74647e-07
1.26764e-06
-2.72271e-07
1.35656e-06
-2.69019e-07
1.44385e-06
-2.64833e-07
1.52921e-06
-2.59628e-07
1.61227e-06
-2.53233e-07
1.69261e-06
-2.45339e-07
1.76963e-06
-2.35324e-07
1.84244e-06
-2.22193e-07
1.90989e-06
-2.03664e-07
1.9704e-06
-1.76075e-07
2.02391e-06
-1.29984e-07
-4.53733e-08
2.07702e-06
-1.63133e-08
-1.44783e-08
-3.63937e-08
9.00516e-09
-5.75452e-08
2.85422e-08
-7.98865e-08
4.50066e-08
-1.03478e-07
5.97461e-08
-1.28677e-07
7.32423e-08
-1.55651e-07
8.57228e-08
-1.84699e-07
9.73428e-08
-2.15828e-07
1.08257e-07
-2.4902e-07
1.18597e-07
-2.84004e-07
1.28435e-07
-3.20589e-07
1.37732e-07
-3.58742e-07
1.46362e-07
-3.98602e-07
1.54241e-07
-4.39765e-07
1.61484e-07
-4.81689e-07
1.68179e-07
-5.23898e-07
1.74309e-07
-5.66046e-07
1.79783e-07
-6.07912e-07
1.84485e-07
-6.49364e-07
1.88315e-07
-6.90435e-07
1.91193e-07
-7.31223e-07
1.93104e-07
-7.71711e-07
1.94151e-07
-8.11817e-07
1.94433e-07
-8.51504e-07
1.94025e-07
-8.90732e-07
1.93008e-07
-9.29483e-07
1.91463e-07
-9.67725e-07
1.89472e-07
-1.00545e-06
1.87111e-07
-1.04263e-06
1.84452e-07
-1.07926e-06
1.81559e-07
-1.11535e-06
1.78496e-07
-1.15088e-06
1.75316e-07
-1.18586e-06
1.72067e-07
-1.22029e-06
1.68787e-07
-1.25416e-06
1.6551e-07
-1.28748e-06
1.62262e-07
-1.32025e-06
1.59063e-07
-1.35247e-06
1.55927e-07
-1.38414e-06
1.52861e-07
-1.41527e-06
1.49871e-07
-1.44584e-06
1.46955e-07
-1.47588e-06
1.4411e-07
-1.50537e-06
1.4133e-07
-1.53432e-06
1.38604e-07
-1.56272e-06
1.35921e-07
-1.59058e-06
1.33268e-07
-1.61788e-06
1.3063e-07
-1.64462e-06
1.2799e-07
-1.67078e-06
1.25332e-07
-1.69635e-06
1.22638e-07
-1.72132e-06
1.19891e-07
-1.74566e-06
1.17071e-07
-1.76935e-06
1.14162e-07
-1.79236e-06
1.11146e-07
-1.81466e-06
1.08006e-07
-1.83623e-06
1.04725e-07
-1.85701e-06
1.01287e-07
-1.87698e-06
9.76771e-08
-1.89609e-06
9.38819e-08
-1.9143e-06
8.98879e-08
-1.93156e-06
8.56834e-08
-1.94783e-06
8.12578e-08
-1.96304e-06
7.66029e-08
-1.97716e-06
7.17109e-08
-1.99013e-06
6.65765e-08
-2.00189e-06
6.11967e-08
-2.0124e-06
5.55704e-08
-2.02161e-06
4.96992e-08
-2.02947e-06
4.35882e-08
-2.03593e-06
3.72457e-08
-2.04095e-06
3.06851e-08
-2.0445e-06
2.39236e-08
-2.04653e-06
1.69829e-08
-2.04702e-06
9.88996e-09
-2.0459e-06
2.67313e-09
-2.04316e-06
-4.6422e-09
-2.03873e-06
-1.20344e-08
-2.03262e-06
-1.94819e-08
-2.0248e-06
-2.69552e-08
-2.01529e-06
-3.44182e-08
-2.00408e-06
-4.18294e-08
-1.99121e-06
-4.91445e-08
-1.97671e-06
-5.63166e-08
-1.96064e-06
-6.32987e-08
-1.94303e-06
-7.00412e-08
-1.92398e-06
-7.64958e-08
-1.90358e-06
-8.26071e-08
-1.88205e-06
-8.83576e-08
-1.85941e-06
-9.36499e-08
-1.83573e-06
-9.84821e-08
-1.81109e-06
-1.02752e-07
-1.78564e-06
-1.06422e-07
-1.75952e-06
-1.09451e-07
-1.73289e-06
-1.11824e-07
-1.70593e-06
-1.13525e-07
-1.67878e-06
-1.14554e-07
-1.65162e-06
-1.14906e-07
-1.62459e-06
-1.14596e-07
-1.59784e-06
-1.13633e-07
-1.57151e-06
-1.12041e-07
-1.54573e-06
-1.09849e-07
-1.52062e-06
-1.07094e-07
-1.49629e-06
-1.03825e-07
-1.47283e-06
-1.00088e-07
-1.45032e-06
-9.59657e-08
-1.42882e-06
-9.15337e-08
-1.40837e-06
-8.68782e-08
-1.389e-06
-8.20584e-08
-1.37071e-06
-7.71576e-08
-1.3535e-06
-7.2241e-08
-1.33734e-06
-6.73962e-08
-1.32218e-06
-6.26884e-08
-1.30796e-06
-5.82042e-08