/*--------------------------------*- C++ -*----------------------------------*\
  =========                 |
  \\      /  F ield         | OpenFOAM: The Open Source CFD Toolbox
   \\    /   O peration     | Website:  https://openfoam.org
    \\  /    A nd           | Version:  8
     \\/     M anipulation  |
\*---------------------------------------------------------------------------*/
FoamFile
{
    version     2.0;
    format      ascii;
    class       volVectorField;
    location    "120";
    object      U;
}
// * * * * * * * * * * * * * * * * * * * * * * * * * * * * * * * * * * * * * //

dimensions      [0 1 -1 0 0 0 0];

internalField   nonuniform List<vector> 
12225
(
(9.85698 -0.886404 0)
(9.66661 -0.740753 0)
(9.45564 -0.429464 0)
(9.22436 -0.222206 0)
(9.00624 -0.106432 0)
(8.81396 -0.0458338 0)
(8.64681 -0.0151441 0)
(8.50447 0.000509671 0)
(8.38237 0.00846379 0)
(8.27927 0.0123867 0)
(8.19011 0.0141501 0)
(8.11317 0.0152377 0)
(8.045 0.0157287 0)
(7.98421 0.0161562 0)
(7.92759 0.0164322 0)
(7.87667 0.0179203 0)
(7.81027 0.0178598 0)
(7.79829 0.022277 0)
(10.0545 0.227549 0)
(10.1211 0.326935 0)
(10.1196 0.26158 0)
(10.0855 0.186574 0)
(10.0433 0.134703 0)
(9.99657 0.101169 0)
(9.9438 0.0793682 0)
(9.88485 0.0646673 0)
(9.82337 0.0544051 0)
(9.76055 0.0468781 0)
(9.69884 0.0412062 0)
(9.63854 0.036798 0)
(9.58072 0.033368 0)
(9.52551 0.0309047 0)
(9.4724 0.0290646 0)
(9.42401 0.029795 0)
(9.37238 0.0294798 0)
(9.34431 0.0477324 0)
(10.0035 0.0579202 0)
(10.0303 0.0560158 0)
(10.056 0.033808 0)
(10.0703 0.0329328 0)
(10.0769 0.0407048 0)
(10.0777 0.0466234 0)
(10.0723 0.0494662 0)
(10.061 0.0504532 0)
(10.0456 0.0504131 0)
(10.0269 0.049787 0)
(10.0061 0.0488714 0)
(9.98348 0.0479034 0)
(9.9598 0.0470158 0)
(9.93537 0.0464629 0)
(9.9103 0.0462012 0)
(9.88568 0.0475893 0)
(9.86025 0.0491162 0)
(9.83853 0.0582402 0)
(9.99779 0.0110592 0)
(10.011 0.0266227 0)
(10.035 0.0371843 0)
(10.0524 0.0481367 0)
(10.0642 0.0555268 0)
(10.0732 0.0582883 0)
(10.0792 0.0584986 0)
(10.082 0.0578139 0)
(10.0822 0.0568455 0)
(10.0805 0.0557658 0)
(10.0771 0.0546611 0)
(10.0724 0.0536856 0)
(10.0665 0.0528761 0)
(10.0598 0.0524551 0)
(10.0521 0.05243 0)
(10.0444 0.0536965 0)
(10.0365 0.0555218 0)
(10.0301 0.0608863 0)
(9.99935 0.00720517 0)
(10.009 0.0316761 0)
(10.0274 0.0439655 0)
(10.0417 0.0499894 0)
(10.0527 0.0537073 0)
(10.0627 0.0553687 0)
(10.0713 0.0556996 0)
(10.0779 0.0554797 0)
(10.0829 0.0550347 0)
(10.0865 0.0544706 0)
(10.0891 0.0538617 0)
(10.0907 0.0533399 0)
(10.0914 0.0529682 0)
(10.0916 0.052926 0)
(10.0912 0.0532814 0)
(10.0907 0.054533 0)
(10.0905 0.0563749 0)
(10.0915 0.0596623 0)
(10.0003 0.00918765 0)
(10.0083 0.0311977 0)
(10.0227 0.0409972 0)
(10.0349 0.0454745 0)
(10.0449 0.0491539 0)
(10.0546 0.0515339 0)
(10.0635 0.0525748 0)
(10.071 0.0528903 0)
(10.0773 0.0528703 0)
(10.0827 0.0526678 0)
(10.0874 0.0523788 0)
(10.0913 0.0521274 0)
(10.0946 0.0519957 0)
(10.0975 0.0521235 0)
(10.1 0.0525892 0)
(10.1026 0.0536429 0)
(10.1055 0.055127 0)
(10.1095 0.0570961 0)
(10.0005 0.00895615 0)
(10.0071 0.0271196 0)
(10.019 0.0364769 0)
(10.0301 0.0414872 0)
(10.0395 0.0455511 0)
(10.0485 0.0482682 0)
(10.057 0.0496056 0)
(10.0646 0.0501682 0)
(10.0712 0.0503689 0)
(10.0772 0.0503683 0)
(10.0825 0.0502651 0)
(10.0874 0.0501692 0)
(10.0917 0.0501658 0)
(10.0958 0.0503579 0)
(10.0997 0.0508081 0)
(10.1037 0.0516203 0)
(10.108 0.0526728 0)
(10.1131 0.0537696 0)
(10.0004 0.00792942 0)
(10.006 0.0234203 0)
(10.0161 0.0328102 0)
(10.0262 0.0382139 0)
(10.035 0.0422547 0)
(10.0434 0.044996 0)
(10.0515 0.0464829 0)
(10.0589 0.0472187 0)
(10.0655 0.0475788 0)
(10.0716 0.0477223 0)
(10.0772 0.0477474 0)
(10.0824 0.0477518 0)
(10.0872 0.0478157 0)
(10.0918 0.0480122 0)
(10.0964 0.0483802 0)
(10.101 0.0489422 0)
(10.1059 0.049582 0)
(10.1114 0.050066 0)
(10.0004 0.00697582 0)
(10.005 0.0204747 0)
(10.0136 0.0295391 0)
(10.0228 0.034989 0)
(10.0311 0.0388907 0)
(10.039 0.0416164 0)
(10.0466 0.0432311 0)
(10.0537 0.0441143 0)
(10.0602 0.0445993 0)
(10.0663 0.0448498 0)
(10.0719 0.0449631 0)
(10.0773 0.0450278 0)
(10.0823 0.0451133 0)
(10.0872 0.0452713 0)
(10.092 0.045519 0)
(10.0969 0.0458375 0)
(10.102 0.046119 0)
(10.1075 0.0461642 0)
(10.0004 0.00614694 0)
(10.0043 0.0179156 0)
(10.0116 0.0263716 0)
(10.0198 0.0317236 0)
(10.0276 0.0355037 0)
(10.035 0.0381986 0)
(10.0422 0.0398983 0)
(10.0491 0.0408897 0)
(10.0554 0.0414662 0)
(10.0614 0.0417916 0)
(10.067 0.041963 0)
(10.0723 0.0420568 0)
(10.0775 0.0421326 0)
(10.0825 0.0422256 0)
(10.0874 0.042338 0)
(10.0924 0.0424351 0)
(10.0975 0.0424221 0)
(10.1028 0.0421552 0)
(10.0003 0.0053887 0)
(10.0037 0.0156116 0)
(10.0099 0.0233421 0)
(10.0172 0.0284999 0)
(10.0244 0.0321416 0)
(10.0314 0.0347634 0)
(10.0382 0.0364915 0)
(10.0448 0.0375493 0)
(10.051 0.0381867 0)
(10.0568 0.0385613 0)
(10.0623 0.038765 0)
(10.0676 0.038866 0)
(10.0728 0.0389115 0)
(10.0778 0.0389274 0)
(10.0827 0.0389068 0)
(10.0877 0.0388131 0)
(10.0927 0.0385698 0)
(10.0978 0.038084 0)
(10.0003 0.00472494 0)
(10.0032 0.0136754 0)
(10.0086 0.0207029 0)
(10.0152 0.0255982 0)
(10.0219 0.0290761 0)
(10.0285 0.0315947 0)
(10.0349 0.0333046 0)
(10.0412 0.0343887 0)
(10.0472 0.0350563 0)
(10.0529 0.0354539 0)
(10.0584 0.0356688 0)
(10.0636 0.0357577 0)
(10.0687 0.0357644 0)
(10.0737 0.0357037 0)
(10.0786 0.03557 0)
(10.0834 0.0353292 0)
(10.0883 0.034924 0)
(10.0932 0.0343009 0)
(10.0003 0.00411132 0)
(10.0028 0.0119095 0)
(10.0075 0.0182092 0)
(10.0134 0.0227647 0)
(10.0196 0.0260436 0)
(10.0258 0.0284316 0)
(10.032 0.0300894 0)
(10.038 0.0311695 0)
(10.0438 0.031846 0)
(10.0494 0.0322494 0)
(10.0547 0.0324586 0)
(10.0599 0.0325255 0)
(10.0649 0.0324859 0)
(10.0698 0.0323523 0)
(10.0746 0.0321192 0)
(10.0793 0.0317612 0)
(10.084 0.0312364 0)
(10.0887 0.0305224 0)
(10.0002 0.00347716 0)
(10.0024 0.010074 0)
(10.0064 0.0155333 0)
(10.0117 0.0196231 0)
(10.0174 0.0226181 0)
(10.0232 0.0248142 0)
(10.029 0.0263662 0)
(10.0347 0.0274016 0)
(10.0403 0.0280568 0)
(10.0457 0.0284424 0)
(10.0509 0.0286261 0)
(10.0559 0.0286572 0)
(10.0608 0.0285602 0)
(10.0656 0.0283514 0)
(10.0703 0.0280241 0)
(10.0749 0.0275649 0)
(10.0794 0.0269463 0)
(10.0838 0.0261677 0)
(10.0002 0.0028185 0)
(10.002 0.00816674 0)
(10.0055 0.0126843 0)
(10.0101 0.0161771 0)
(10.0153 0.018784 0)
(10.0206 0.0207097 0)
(10.0261 0.0220882 0)
(10.0315 0.0230217 0)
(10.0368 0.0236128 0)
(10.042 0.0239456 0)
(10.047 0.0240823 0)
(10.0519 0.0240578 0)
(10.0567 0.023899 0)
(10.0613 0.0236146 0)
(10.0658 0.023207 0)
(10.0702 0.0226691 0)
(10.0745 0.0219863 0)
(10.0786 0.021176 0)
(10.0002 0.00213406 0)
(10.0017 0.00618797 0)
(10.0047 0.00966815 0)
(10.0088 0.0124281 0)
(10.0134 0.014525 0)
(10.0183 0.0160838 0)
(10.0234 0.0172052 0)
(10.0284 0.017965 0)
(10.0335 0.0184344 0)
(10.0385 0.0186753 0)
(10.0433 0.0187335 0)
(10.048 0.0186392 0)
(10.0526 0.0184118 0)
(10.057 0.0180603 0)
(10.0614 0.0175899 0)
(10.0655 0.0170001 0)
(10.0696 0.0162868 0)
(10.0734 0.0154752 0)
(10.0002 0.00142025 0)
(10.0015 0.00412212 0)
(10.0041 0.00646558 0)
(10.0077 0.00835582 0)
(10.0118 0.00980821 0)
(10.0163 0.0108882 0)
(10.021 0.0116558 0)
(10.0258 0.0121601 0)
(10.0306 0.0124435 0)
(10.0353 0.0125454 0)
(10.0399 0.0124949 0)
(10.0444 0.0123144 0)
(10.0488 0.012015 0)
(10.0531 0.0116072 0)
(10.0572 0.0110938 0)
(10.0611 0.0104816 0)
(10.0649 0.00976853 0)
(10.0685 0.00898616 0)
(10.0001 0.000660506 0)
(10.0013 0.00191577 0)
(10.0036 0.0030034 0)
(10.0069 0.00387796 0)
(10.0107 0.00454151 0)
(10.0149 0.00501591 0)
(10.0193 0.00532346 0)
(10.0239 0.00548262 0)
(10.0284 0.00551069 0)
(10.0329 0.00542343 0)
(10.0373 0.00523327 0)
(10.0416 0.00494953 0)
(10.0458 0.00457786 0)
(10.0498 0.0041236 0)
(10.0537 0.0035897 0)
(10.0574 0.00298181 0)
(10.061 0.00230048 0)
(10.0644 0.00157418 0)
(10.0001 -0.000188377 0)
(10.0013 -0.000551787 0)
(10.0035 -0.000890436 0)
(10.0066 -0.00119552 0)
(10.0103 -0.00146571 0)
(10.0144 -0.00171554 0)
(10.0186 -0.00196485 0)
(10.023 -0.00222614 0)
(10.0274 -0.00251029 0)
(10.0317 -0.00282327 0)
(10.036 -0.00317396 0)
(10.0401 -0.00356512 0)
(10.0441 -0.00400234 0)
(10.0479 -0.00448494 0)
(10.0516 -0.005016 0)
(10.0551 -0.00559173 0)
(10.0585 -0.0062145 0)
(10.0617 -0.00686095 0)
(10.0001 -0.00100022 0)
(10.0013 -0.00291867 0)
(10.0037 -0.00463189 0)
(10.007 -0.00606051 0)
(10.0109 -0.0072004 0)
(10.0151 -0.00811301 0)
(10.0194 -0.00885995 0)
(10.0239 -0.00948626 0)
(10.0283 -0.0100258 0)
(10.0326 -0.0105144 0)
(10.0368 -0.0109757 0)
(10.0408 -0.0114314 0)
(10.0448 -0.0118903 0)
(10.0485 -0.0123656 0)
(10.0521 -0.0128585 0)
(10.0555 -0.0133771 0)
(10.0587 -0.0139184 0)
(10.0618 -0.0144738 0)
(10.0002 -0.00169965 0)
(10.0015 -0.00498388 0)
(10.0041 -0.00789746 0)
(10.0078 -0.0102402 0)
(10.012 -0.0120318 0)
(10.0165 -0.0134242 0)
(10.0211 -0.0145233 0)
(10.0257 -0.0153888 0)
(10.0302 -0.0160773 0)
(10.0346 -0.0166508 0)
(10.0388 -0.0171526 0)
(10.0429 -0.0176158 0)
(10.0468 -0.0180569 0)
(10.0505 -0.0184944 0)
(10.054 -0.0189338 0)
(10.0574 -0.0193856 0)
(10.0605 -0.0198492 0)
(10.0635 -0.0203186 0)
(10.0002 -0.00236338 0)
(10.0017 -0.00702325 0)
(10.0047 -0.0111578 0)
(10.009 -0.0143227 0)
(10.0137 -0.0166178 0)
(10.0186 -0.0183534 0)
(10.0235 -0.0196918 0)
(10.0283 -0.0207033 0)
(10.033 -0.021472 0)
(10.0375 -0.0220778 0)
(10.0418 -0.0225812 0)
(10.0459 -0.0230164 0)
(10.0498 -0.0234152 0)
(10.0535 -0.023792 0)
(10.057 -0.0241668 0)
(10.0603 -0.0245399 0)
(10.0635 -0.0249246 0)
(10.0664 -0.0253055 0)
(10.0002 -0.00298428 0)
(10.0018 -0.00908709 0)
(10.0054 -0.0144376 0)
(10.0105 -0.0183251 0)
(10.0159 -0.0210701 0)
(10.0212 -0.0230967 0)
(10.0264 -0.0245605 0)
(10.0315 -0.0255882 0)
(10.0364 -0.0263345 0)
(10.041 -0.0269097 0)
(10.0454 -0.0273715 0)
(10.0496 -0.027756 0)
(10.0535 -0.0280934 0)
(10.0572 -0.0284067 0)
(10.0607 -0.0287099 0)
(10.064 -0.0290119 0)
(10.0671 -0.0293174 0)
(10.0701 -0.0296229 0)
(10.0001 -0.00353135 0)
(10.0018 -0.0115449 0)
(10.0063 -0.0178785 0)
(10.0123 -0.0219762 0)
(10.0183 -0.0250455 0)
(10.0241 -0.02746 0)
(10.0297 -0.0291067 0)
(10.0351 -0.0301294 0)
(10.0402 -0.0307992 0)
(10.045 -0.0312822 0)
(10.0495 -0.0316454 0)
(10.0537 -0.0319317 0)
(10.0577 -0.0321724 0)
(10.0614 -0.0323954 0)
(10.0649 -0.0326104 0)
(10.0682 -0.032829 0)
(10.0713 -0.0330492 0)
(10.0741 -0.0332735 0)
(9.99991 -0.00338068 0)
(10.0016 -0.0149642 0)
(10.0073 -0.0227207 0)
(10.0143 -0.0262333 0)
(10.0206 -0.0288227 0)
(10.0269 -0.0311927 0)
(10.0331 -0.032922 0)
(10.0391 -0.0340211 0)
(10.0445 -0.0347355 0)
(10.0495 -0.0352184 0)
(10.0541 -0.0355411 0)
(10.0584 -0.0357581 0)
(10.0624 -0.0359152 0)
(10.066 -0.036043 0)
(10.0694 -0.0361607 0)
(10.0725 -0.0362771 0)
(10.0754 -0.0363972 0)
(10.078 -0.0365194 0)
(9.9986 -0.000398189 0)
(9.99909 -0.0157539 0)
(10.0076 -0.0274261 0)
(10.0166 -0.0324883 0)
(10.0238 -0.0348669 0)
(10.0307 -0.0362263 0)
(10.0377 -0.0369844 0)
(10.0442 -0.0374602 0)
(10.0499 -0.0378207 0)
(10.055 -0.0380829 0)
(10.0596 -0.038247 0)
(10.0636 -0.0383405 0)
(10.0672 -0.0383897 0)
(10.0703 -0.0384171 0)
(10.073 -0.0384387 0)
(10.0754 -0.0384616 0)
(10.0775 -0.0384913 0)
(10.0793 -0.0385221 0)
(9.99488 0.00133545 0)
(9.99288 -0.00809106 0)
(10.006 -0.0203493 0)
(10.0202 -0.032275 0)
(10.0307 -0.0404788 0)
(10.0393 -0.0441527 0)
(10.0468 -0.0450694 0)
(10.0529 -0.0449314 0)
(10.0578 -0.0444733 0)
(10.0617 -0.0438887 0)
(10.0646 -0.0432594 0)
(10.0668 -0.0426422 0)
(10.0682 -0.0420695 0)
(10.069 -0.0415499 0)
(10.0693 -0.0410943 0)
(10.0691 -0.0406984 0)
(10.0686 -0.0403593 0)
(10.0677 -0.0400532 0)
(9.99473 -0.0305615 0)
(9.99926 -0.0228706 0)
(10.0147 -0.00263394 0)
(10.0304 -0.00190821 0)
(10.0435 -0.0116587 0)
(10.0533 -0.0209246 0)
(10.0594 -0.0272846 0)
(10.0619 -0.0315168 0)
(10.0615 -0.0342978 0)
(10.0591 -0.0360018 0)
(10.0551 -0.0369459 0)
(10.0497 -0.0373922 0)
(10.0434 -0.0375335 0)
(10.0364 -0.0374881 0)
(10.0288 -0.0373476 0)
(10.0208 -0.0371669 0)
(10.0126 -0.0370118 0)
(10.0043 -0.0368516 0)
(10.0273 -0.182758 0)
(10.0763 -0.288313 0)
(10.0872 -0.247754 0)
(10.0777 -0.186519 0)
(10.0664 -0.140296 0)
(10.0538 -0.108223 0)
(10.0365 -0.0858855 0)
(10.0146 -0.0704286 0)
(9.98941 -0.0596637 0)
(9.96237 -0.0518965 0)
(9.93439 -0.0460821 0)
(9.90605 -0.041593 0)
(9.87786 -0.0380475 0)
(9.85012 -0.0351844 0)
(9.82309 -0.0328309 0)
(9.79687 -0.0309248 0)
(9.77171 -0.0294274 0)
(9.74764 -0.0286271 0)
(9.93574 0.689319 0)
(9.86861 0.609606 0)
(9.76454 0.380625 0)
(9.62666 0.217444 0)
(9.48592 0.119269 0)
(9.35724 0.0631873 0)
(9.24271 0.0315743 0)
(9.14116 0.0136127 0)
(9.05146 0.0032572 0)
(8.97245 -0.0028079 0)
(8.90251 -0.0063678 0)
(8.84029 -0.00849149 0)
(8.78452 -0.00974821 0)
(8.73433 -0.0105008 0)
(8.6888 -0.0110113 0)
(8.64734 -0.0112894 0)
(8.60901 -0.0115069 0)
(8.5735 -0.0121788 0)
(0.0125109 -0.0230723 -6.34605e-19)
(0.0311877 -0.0244385 3.56719e-19)
(0.0419231 -0.0147031 0)
(0.0472542 -0.00354589 0)
(0.0452818 0.00635664 0)
(0.0371502 0.0139061 -1.4471e-19)
(0.0245509 0.0190713 0)
(0.00864563 0.0222768 0)
(-0.00960541 0.0243425 0)
(-0.0296071 0.0263146 0)
(-0.050172 0.0299179 1.03907e-19)
(-0.0689196 0.0373187 0)
(-0.0938725 0.0304881 0)
(-0.124471 0.00539387 0)
(-0.142966 0.00174576 0)
(-0.168196 0.00495861 2.08761e-19)
(-0.196844 0.0108206 0)
(-0.229594 0.01858 0)
(-0.267425 0.028722 0)
(-0.309563 0.04243 0)
(-0.353918 0.0500557 0)
(-0.401558 0.0439105 0)
(-0.44733 0.0423527 0)
(-0.492231 0.0492212 1.06165e-19)
(-0.54162 0.0507899 -9.99323e-20)
(-0.59109 0.0513279 9.42021e-20)
(-0.641054 0.051583 8.90081e-20)
(-0.691303 0.0516211 0)
(-0.741646 0.0514262 0)
(-0.791872 0.0510029 -7.64331e-20)
(-0.841799 0.0503819 -7.30802e-20)
(-0.891261 0.0495978 0)
(-0.940135 0.0486889 0)
(-0.98832 0.0476882 -6.49023e-20)
(-1.03575 0.0466269 0)
(-1.08237 0.045531 0)
(-1.12817 0.0444225 5.88066e-20)
(-1.17312 0.043321 0)
(-1.21724 0.0422408 5.55574e-20)
(-1.26055 0.041192 1.08241e-19)
(-1.30305 0.0401786 0)
(-1.34479 0.0392054 0)
(-1.38578 0.0382724 0)
(-1.42606 0.0373809 0)
(-1.46565 0.0365274 0)
(-1.50458 0.0357114 9.46736e-20)
(-1.54287 0.0349265 9.28612e-20)
(-1.58054 0.0341712 9.11441e-20)
(-1.6176 0.0334378 0)
(-1.65406 0.0327239 -8.79534e-20)
(-1.68992 0.0320198 0)
(-1.72518 0.0313239 8.50374e-20)
(-1.75984 0.0306256 8.36658e-20)
(-1.79388 0.0299232 0)
(-1.82728 0.0292062 0)
(-1.86002 0.0284749 0)
(-1.89206 0.0277184 7.86387e-20)
(-1.92337 0.0269368 0)
(-1.95392 0.0261193 0)
(-1.98364 0.0252677 0)
(-2.01249 0.0243702 0)
(-2.04041 0.0234281 0)
(-2.06735 0.0224307 0)
(-2.09324 0.0213809 0)
(-2.11801 0.0202679 0)
(-2.14158 0.0190946 -6.89642e-20)
(-2.16388 0.0178501 0)
(-2.18483 0.0165364 0)
(-2.20435 0.0151442 6.59405e-20)
(-2.22236 0.013674 6.49293e-20)
(-2.23876 0.0121192 0)
(-2.25346 0.0104785 -6.2886e-20)
(-2.26637 0.0087478 6.18495e-20)
(-2.27737 0.00692594 0)
(-2.28634 0.00501507 -5.97372e-20)
(-2.29318 0.00303957 0)
(-2.29774 0.00106362 0)
(-2.29989 -0.000811886 5.64174e-20)
(-2.29994 -0.00255829 0)
(-2.29804 -0.00422378 -5.39998e-20)
(-2.2942 -0.00586345 0)
(-2.28844 -0.00748187 5.14176e-20)
(-2.2808 -0.00908945 5.00574e-20)
(-2.27127 -0.0106656 4.86487e-20)
(-2.25988 -0.0122216 9.43789e-20)
(-2.24666 -0.0137278 -9.13589e-20)
(-2.23168 -0.0152032 0)
(-2.21509 -0.0165972 0)
(-2.19708 -0.0179299 0)
(-2.17787 -0.0192193 -7.82693e-20)
(-2.15731 -0.0203665 -7.47417e-20)
(-2.13534 -0.0213919 7.1113e-20)
(-2.11209 -0.0222646 0)
(-2.08774 -0.0229914 -6.35807e-20)
(-2.06249 -0.0235718 -5.96933e-20)
(-2.03652 -0.0240076 -5.57375e-20)
(-2.01004 -0.0242893 0)
(-1.98321 -0.0244095 0)
(-1.95623 -0.0243471 0)
(-1.92928 -0.0241891 -3.94667e-20)
(-1.9025 -0.0238756 0)
(-1.87609 -0.0233644 0)
(-1.85021 -0.0227318 2.71525e-20)
(-1.82501 -0.0219578 0)
(-1.80064 -0.0210533 0)
(-1.77723 -0.0200368 1.51494e-20)
(-1.7549 -0.0189482 0)
(-1.73372 -0.0177839 0)
(-1.71378 -0.0165681 -3.803e-21)
(-1.69514 -0.0153027 -2.18806e-22)
(-1.67783 -0.0140446 0)
(-1.66188 -0.0127801 -6.59691e-21)
(-1.64727 -0.0115113 0)
(-1.63401 -0.0102367 1.28936e-20)
(-1.62205 -0.00898214 0)
(-1.61131 -0.00782302 1.86302e-20)
(-1.60168 -0.00671426 2.12802e-20)
(-1.59306 -0.00559412 0)
(-1.58532 -0.00458603 0)
(-1.57832 -0.00372782 0)
(-1.57193 -0.00294187 0)
(-1.56604 -0.00220839 0)
(-1.56046 -0.00159045 0)
(-1.55498 -0.00111584 0)
(-1.54936 -0.000743229 3.76968e-20)
(-1.5434 -0.000478841 -3.92674e-20)
(-1.53688 -0.000319301 0)
(-1.52962 -0.000269548 0)
(-1.52142 -0.00033759 0)
(-1.51207 -0.000493942 0)
(-1.50138 -0.000724756 -9.30181e-20)
(-1.48915 -0.00114638 0)
(-1.47519 -0.00161919 9.89414e-20)
(-1.45934 -0.00219799 -1.02104e-19)
(-1.44145 -0.00287316 0)
(-1.42138 -0.00366738 0)
(-1.39898 -0.00455155 0)
(-1.37405 -0.00554152 1.17489e-19)
(-1.3464 -0.0066029 1.22374e-19)
(-1.31591 -0.00776346 0)
(-1.28259 -0.00899989 1.33925e-19)
(-1.24645 -0.0103527 1.40767e-19)
(-1.20747 -0.0118221 -1.4845e-19)
(-1.16558 -0.0133936 0)
(-1.1207 -0.0150423 0)
(-1.0728 -0.0167641 -1.77899e-19)
(-1.02191 -0.0185381 0)
(-0.968034 -0.0203646 0)
(-0.91123 -0.0222314 0)
(-0.851549 -0.02414 0)
(-0.789059 -0.0260821 2.58398e-19)
(-0.723834 -0.0280586 2.81222e-19)
(-0.655971 -0.0300707 0)
(-0.585572 -0.0321242 3.36168e-19)
(-0.512747 -0.0342244 0)
(-0.437603 -0.036368 0)
(-0.36025 -0.0385972 4.49372e-19)
(-0.280867 -0.04097 0)
(-0.199575 -0.0434374 5.54181e-19)
(-0.116525 -0.0459465 0)
(-0.0318517 -0.0475058 0)
(0.0555621 -0.0475986 6.45293e-19)
(0.145205 -0.0472385 0)
(0.23663 -0.0467984 6.07802e-19)
(0.329521 -0.0463224 0)
(0.423564 -0.0457808 0)
(0.518427 -0.0451745 0)
(0.613775 -0.0444671 -5.55999e-19)
(0.7093 -0.0436907 0)
(0.804566 -0.04281 5.37689e-19)
(0.89926 -0.0418238 0)
(0.992996 -0.0407078 0)
(1.08536 -0.0394706 0)
(1.17577 -0.0380582 0)
(1.2636 -0.0363587 0)
(1.34756 -0.0342794 0)
(1.42702 -0.0313848 0)
(1.49366 -0.026953 -9.97235e-19)
(1.55845 -0.0174426 0)
(1.53349 0.00623675 0)
(0.00647438 -0.0616228 1.43801e-18)
(0.0138474 -0.0456876 -6.51568e-19)
(0.0120345 -0.021002 0)
(0.0068064 -1.58968e-05 1.93847e-19)
(-0.00201804 0.0177555 0)
(-0.0143496 0.0322024 7.24325e-20)
(-0.0299303 0.0434864 -1.32874e-19)
(-0.0486823 0.0520668 -1.25254e-19)
(-0.0705433 0.0586538 0)
(-0.0953564 0.0640389 -1.20581e-19)
(-0.12269 0.0691719 -6.27983e-20)
(-0.151658 0.0748389 0)
(-0.18652 0.0797815 0)
(-0.22583 0.0815796 0)
(-0.26822 0.0855801 0)
(-0.31166 0.0916761 -7.17796e-20)
(-0.355882 0.0987187 0)
(-0.401104 0.10583 1.24502e-19)
(-0.4472 0.112653 0)
(-0.492894 0.119314 0)
(-0.538894 0.12483 -9.81843e-20)
(-0.586885 0.127657 0)
(-0.635882 0.128927 8.61596e-20)
(-0.685213 0.130421 -4.12711e-20)
(-0.734375 0.131444 3.96857e-20)
(-0.782955 0.131561 -3.82348e-20)
(-0.830922 0.130952 -3.68884e-20)
(-0.878154 0.129735 0)
(-0.924567 0.128021 0)
(-0.970109 0.125897 3.34214e-20)
(-1.01475 0.123453 -3.22209e-20)
(-1.05848 0.120768 0)
(-1.10128 0.117919 0)
(-1.14316 0.114969 2.99233e-20)
(-1.18415 0.111976 0)
(-1.22425 0.108984 0)
(-1.26351 0.106028 -2.79317e-20)
(-1.30194 0.103136 0)
(-1.33957 0.100327 2.66231e-20)
(-1.37645 0.0976131 -5.26564e-20)
(-1.41259 0.0949995 0)
(-1.44803 0.0924885 0)
(-1.48278 0.0900766 -9.9595e-20)
(-1.51688 0.08776 -9.80124e-20)
(-1.55035 0.0855299 -9.65075e-20)
(-1.58318 0.0833791 4.73416e-20)
(-1.61541 0.0812954 -4.70419e-20)
(-1.64702 0.07927 -1.38761e-19)
(-1.67803 0.077289 9.11107e-20)
(-1.70843 0.0753435 4.5128e-20)
(-1.73821 0.0734185 0)
(-1.76736 0.0715053 -4.39506e-20)
(-1.79586 0.0695884 4.30303e-20)
(-1.82369 0.0676603 0)
(-1.85084 0.0657066 0)
(-1.87726 0.0637224 0)
(-1.90292 0.0616939 -4.1221e-20)
(-1.92779 0.0596172 0)
(-1.95183 0.0574798 8.00516e-20)
(-1.975 0.0552805 0)
(-1.99724 0.053007 7.80026e-20)
(-2.01851 0.050659 0)
(-2.03877 0.0482265 -7.59554e-20)
(-2.05795 0.0457117 0)
(-2.076 0.0431058 7.38895e-20)
(-2.09286 0.0404118 -3.63235e-20)
(-2.10848 0.0376222 0)
(-2.12281 0.0347401 -7.07077e-20)
(-2.13578 0.0317599 -3.48722e-20)
(-2.14734 0.0286838 -3.43024e-20)
(-2.15745 0.0255088 0)
(-2.16606 0.0222365 -3.30725e-20)
(-2.17314 0.0188675 -3.25131e-20)
(-2.17867 0.0154063 0)
(-2.18267 0.0118622 3.12472e-20)
(-2.18516 0.0082637 -6.12482e-20)
(-2.18623 0.00467431 0)
(-2.18596 0.00119701 -2.92112e-20)
(-2.18418 -0.00213802 0)
(-2.18068 -0.00536683 8.33868e-20)
(-2.17545 -0.00852357 0)
(-2.16845 -0.0116058 -7.87589e-20)
(-2.15971 -0.0146161 -2.53473e-20)
(-2.14922 -0.0175273 2.48449e-20)
(-2.13703 -0.0203418 4.80372e-20)
(-2.12317 -0.0230264 -4.63386e-20)
(-2.10769 -0.0255899 0)
(-2.09072 -0.0279798 0)
(-2.07245 -0.0302272 0)
(-2.05302 -0.032316 1.15169e-19)
(-2.0324 -0.0341994 3.60608e-20)
(-2.0106 -0.0358376 -3.40613e-20)
(-1.98772 -0.0371876 0)
(-1.96391 -0.0382685 -3.12662e-20)
(-1.93937 -0.0390701 2.79022e-20)
(-1.91426 -0.0396133 2.58148e-20)
(-1.88876 -0.0398881 0)
(-1.86305 -0.0399112 0)
(-1.83728 -0.0396754 0)
(-1.81162 -0.0391985 1.74547e-20)
(-1.78624 -0.0384726 0)
(-1.76128 -0.0375161 -2.80264e-20)
(-1.73689 -0.0363452 -3.53104e-20)
(-1.71319 -0.0349745 1.9972e-20)
(-1.69032 -0.0334313 0)
(-1.66838 -0.0317446 6.67082e-21)
(-1.64747 -0.0299582 0)
(-1.62765 -0.0280891 4.79095e-21)
(-1.60897 -0.0261707 -1.09312e-21)
(-1.59149 -0.0242167 6.6077e-22)
(-1.57521 -0.0222702 0)
(-1.56014 -0.0203449 1.34092e-20)
(-1.54627 -0.0184759 -1.17529e-20)
(-1.53355 -0.0166815 -7.62201e-21)
(-1.52192 -0.0149939 0)
(-1.51131 -0.0134302 -1.02506e-20)
(-1.50164 -0.0120209 -3.40077e-20)
(-1.49276 -0.010758 0)
(-1.48452 -0.00966497 -2.70772e-20)
(-1.47682 -0.00877077 -2.9113e-20)
(-1.46952 -0.00810583 -3.10046e-20)
(-1.46246 -0.00766227 0)
(-1.45546 -0.00745078 0)
(-1.44831 -0.00747175 0)
(-1.44082 -0.00770657 1.86489e-20)
(-1.43276 -0.00817018 1.91759e-20)
(-1.42395 -0.00883738 0)
(-1.41418 -0.00972118 4.06424e-20)
(-1.40326 -0.010793 4.16077e-20)
(-1.391 -0.0120828 0)
(-1.37718 -0.0135448 4.31435e-20)
(-1.36163 -0.0151926 8.83073e-20)
(-1.34418 -0.0169891 -4.47175e-20)
(-1.32464 -0.0189539 -4.5913e-20)
(-1.30287 -0.0210472 0)
(-1.27872 -0.0232799 0)
(-1.25206 -0.0256157 0)
(-1.22269 -0.0280427 -4.89557e-20)
(-1.19048 -0.0305238 5.02752e-20)
(-1.1553 -0.0330511 1.02658e-19)
(-1.11712 -0.0356281 -5.26078e-20)
(-1.07592 -0.0382571 5.41447e-20)
(-1.03165 -0.0409454 5.59007e-20)
(-0.984275 -0.0436601 0)
(-0.93372 -0.0463819 0)
(-0.879961 -0.0490752 -6.22259e-20)
(-0.822998 -0.0517297 0)
(-0.762856 -0.0543169 0)
(-0.699573 -0.0568345 1.44147e-19)
(-0.633202 -0.0592631 0)
(-0.563811 -0.0616058 7.99231e-20)
(-0.491481 -0.0638464 -8.62533e-20)
(-0.416306 -0.0659933 0)
(-0.338384 -0.0680407 9.6114e-20)
(-0.257833 -0.0700151 0)
(-0.174773 -0.0719027 0)
(-0.0893491 -0.073712 -1.19788e-19)
(-0.0016941 -0.0753239 2.49091e-19)
(0.0882767 -0.0767397 -1.29936e-19)
(0.180421 -0.0782364 0)
(0.274315 -0.0795837 0)
(0.369391 -0.0804053 1.40357e-19)
(0.465312 -0.0808145 0)
(0.561997 -0.0809363 1.49867e-19)
(0.65927 -0.0808098 0)
(0.756902 -0.0804366 0)
(0.854649 -0.0798183 0)
(0.952258 -0.078944 1.71837e-19)
(1.04947 -0.0778286 0)
(1.146 -0.0764692 -1.8083e-19)
(1.24157 -0.0748537 0)
(1.33586 -0.0729743 0)
(1.42851 -0.0707884 3.83821e-19)
(1.51901 -0.0682124 -3.91675e-19)
(1.60681 -0.065071 0)
(1.69084 -0.0611024 0)
(1.77021 -0.0554366 0)
(1.84029 -0.0468419 1.2729e-18)
(1.90532 -0.0297294 0)
(1.9362 0.00859331 -9.08053e-19)
(-0.00399355 -0.0662587 -1.53456e-21)
(-0.00783575 -0.0343638 6.43781e-19)
(-0.0180696 -0.00216517 0)
(-0.0310689 0.0244588 -2.6453e-19)
(-0.0464078 0.0472518 0)
(-0.0639339 0.066827 0)
(-0.0837466 0.08356 2.03113e-22)
(-0.106077 0.0979064 8.40158e-20)
(-0.131096 0.110506 8.06057e-20)
(-0.15881 0.122077 7.90722e-20)
(-0.189058 0.133238 0)
(-0.221639 0.144054 0)
(-0.257033 0.153559 -7.86733e-20)
(-0.295301 0.161302 -1.54704e-19)
(-0.335976 0.169049 1.49696e-19)
(-0.377981 0.177205 0)
(-0.420611 0.185458 1.37092e-19)
(-0.463519 0.193315 -6.52419e-20)
(-0.50646 0.200315 0)
(-0.548997 0.206014 1.18183e-19)
(-0.590995 0.209847 5.62871e-20)
(-0.633026 0.211594 -1.0766e-19)
(-0.675549 0.212108 -5.17848e-20)
(-0.718187 0.211781 0)
(-0.760279 0.210614 9.64152e-20)
(-0.80176 0.208648 9.32469e-20)
(-0.842639 0.205987 0)
(-0.882896 0.202732 8.75761e-20)
(-0.922505 0.198988 0)
(-0.961453 0.194857 8.26854e-20)
(-0.999736 0.190437 4.03367e-20)
(-1.03736 0.185817 0)
(-1.07432 0.18108 0)
(-1.11064 0.176297 0)
(-1.14633 0.171529 0)
(-1.18139 0.166824 0)
(-1.21584 0.162218 0)
(-1.2497 0.157737 6.89132e-20)
(-1.28297 0.153398 -1.01595e-19)
(-1.31566 0.14921 0)
(-1.3478 0.145174 0)
(-1.37938 0.141289 0)
(-1.41043 0.137546 2.05441e-22)
(-1.44095 0.133937 6.25867e-20)
(-1.47094 0.130449 1.2316e-19)
(-1.50041 0.127067 -1.2143e-19)
(-1.52936 0.123774 -5.97828e-20)
(-1.55778 0.120556 5.91845e-20)
(-1.58569 0.117394 -1.98957e-22)
(-1.61306 0.114272 5.74632e-20)
(-1.63989 0.111171 0)
(-1.66616 0.108075 5.60259e-20)
(-1.69186 0.104968 -1.86853e-22)
(-1.71696 0.101833 0)
(-1.74144 0.0986561 0)
(-1.76527 0.0954244 -5.33149e-20)
(-1.78843 0.0921239 0)
(-1.81088 0.0887443 0)
(-1.83257 0.0852741 5.11985e-20)
(-1.85348 0.0817055 1.01407e-19)
(-1.87356 0.0780287 -5.01922e-20)
(-1.89276 0.0742382 0)
(-1.91103 0.0703273 4.88618e-20)
(-1.92834 0.0662932 0)
(-1.94462 0.0621316 4.7299e-20)
(-1.95983 0.0578426 4.68121e-20)
(-1.97391 0.0534243 -9.20564e-20)
(-1.98682 0.0488795 -4.52568e-20)
(-1.9985 0.04421 0)
(-2.00891 0.0394222 8.7744e-20)
(-2.01799 0.0345236 0)
(-2.02573 0.0295263 1.27071e-19)
(-2.03207 0.0244468 8.31358e-20)
(-2.03699 0.0193086 8.15241e-20)
(-2.04048 0.0141418 -7.98717e-20)
(-2.0425 0.00898502 1.17204e-19)
(-2.04304 0.00387194 0)
(-2.04204 -0.0011916 0)
(-2.03945 -0.00621101 -7.26697e-20)
(-2.03522 -0.0111689 -1.05947e-19)
(-2.02934 -0.016045 0)
(-2.02181 -0.0208147 3.31576e-20)
(-2.01263 -0.0254561 0)
(-2.00183 -0.0299399 -9.34156e-20)
(-1.98944 -0.0342459 4.93129e-22)
(-1.9755 -0.0383433 -5.33171e-22)
(-1.96007 -0.0422115 5.56541e-20)
(-1.94324 -0.0458181 0)
(-1.92518 -0.0491556 -5.09127e-20)
(-1.90601 -0.0522073 6.70313e-22)
(-1.88576 -0.0549222 0)
(-1.86444 -0.0572529 0)
(-1.84218 -0.0591703 0)
(-1.81912 -0.0606646 3.76196e-20)
(-1.7954 -0.0617395 0)
(-1.77121 -0.0623991 0)
(-1.7467 -0.062652 0)
(-1.72202 -0.0625044 0)
(-1.69734 -0.0619685 0)
(-1.6728 -0.0610614 2.27891e-20)
(-1.64856 -0.0597966 0)
(-1.62474 -0.0581922 1.69396e-20)
(-1.60148 -0.0562738 1.44637e-20)
(-1.5789 -0.0540752 -1.20336e-20)
(-1.5571 -0.0516298 0)
(-1.53618 -0.0489921 -7.33057e-21)
(-1.51622 -0.0462088 0)
(-1.49727 -0.043327 -2.87095e-21)
(-1.47939 -0.0403813 7.42678e-22)
(-1.46259 -0.0374133 -2.96931e-21)
(-1.44689 -0.0344642 0)
(-1.43228 -0.031575 -1.47855e-20)
(-1.41873 -0.0287813 -6.30725e-21)
(-1.4062 -0.0261224 0)
(-1.39463 -0.0236358 -2.02645e-20)
(-1.38393 -0.0213591 -2.34717e-20)
(-1.37402 -0.0193209 3.99356e-20)
(-1.36475 -0.0175326 0)
(-1.356 -0.016025 1.61223e-20)
(-1.34764 -0.0148334 1.73326e-20)
(-1.33954 -0.013986 5.52752e-20)
(-1.33153 -0.0134862 0)
(-1.32345 -0.0133464 0)
(-1.31509 -0.01356 0)
(-1.30626 -0.0141208 2.22459e-20)
(-1.29676 -0.0150236 0)
(-1.2864 -0.0162607 0)
(-1.27499 -0.0178212 -2.41618e-20)
(-1.26232 -0.0196952 -2.47248e-20)
(-1.24822 -0.0218757 0)
(-1.23248 -0.0243412 0)
(-1.21493 -0.0270761 -5.23719e-20)
(-1.1954 -0.0300573 0)
(-1.17372 -0.0332703 5.41036e-20)
(-1.14973 -0.0366918 5.51719e-20)
(-1.1233 -0.0403037 0)
(-1.09427 -0.0440745 0)
(-1.06251 -0.0479644 -5.79424e-20)
(-1.02785 -0.0519441 1.04888e-22)
(-0.99021 -0.0559876 6.1476e-23)
(-0.949528 -0.0600963 0)
(-0.905773 -0.0642648 -1.263e-19)
(-0.858902 -0.068484 0)
(-0.808861 -0.0727145 0)
(-0.755606 -0.0769208 0)
(-0.699114 -0.0810609 7.19772e-20)
(-0.639392 -0.0851067 0)
(-0.576464 -0.0890246 -1.55659e-19)
(-0.510374 -0.0927952 -8.20654e-20)
(-0.441179 -0.0963987 0)
(-0.368959 -0.0998218 -9.08854e-20)
(-0.293799 -0.10305 0)
(-0.215809 -0.106089 0)
(-0.135094 -0.108929 -3.20977e-19)
(-0.0518218 -0.111555 2.25382e-19)
(0.033891 -0.113933 0)
(0.121933 -0.116108 2.46177e-19)
(0.212129 -0.118124 -1.29872e-19)
(0.304287 -0.119922 0)
(0.398111 -0.121494 0)
(0.493311 -0.122842 0)
(0.589505 -0.123861 -4.56744e-19)
(0.686432 -0.124493 0)
(0.783897 -0.124747 -1.66516e-19)
(0.881681 -0.124639 0)
(0.979545 -0.124167 0)
(1.07725 -0.123325 0)
(1.17455 -0.12211 0)
(1.27119 -0.120523 0)
(1.36692 -0.118568 0)
(1.46146 -0.116222 -4.22316e-19)
(1.55453 -0.11346 0)
(1.64577 -0.11022 -2.25528e-19)
(1.73478 -0.10638 6.91236e-19)
(1.82106 -0.10168 0)
(1.90371 -0.0957052 0)
(1.98204 -0.0874288 -4.95473e-19)
(2.05319 -0.0751488 -5.10887e-19)
(2.12071 -0.0541267 5.22355e-19)
(2.16843 -0.0133481 5.49739e-19)
(-0.0133369 -0.0455591 -2.04059e-18)
(-0.0252791 -0.00480677 -7.70932e-19)
(-0.0415747 0.0309224 -2.867e-19)
(-0.0605461 0.0605411 -1.03671e-19)
(-0.0809917 0.0863809 0)
(-0.102711 0.109328 1.50852e-19)
(-0.125899 0.129853 -6.89546e-20)
(-0.150803 0.14834 0)
(-0.177581 0.165213 -6.19166e-20)
(-0.206237 0.180869 0)
(-0.236648 0.195574 1.15259e-19)
(-0.268647 0.209301 0)
(-0.302194 0.221742 5.46479e-20)
(-0.337281 0.232743 1.06082e-19)
(-0.373733 0.242737 -1.02662e-19)
(-0.411098 0.251964 0)
(-0.448916 0.260363 -9.56492e-20)
(-0.486833 0.26771 0)
(-0.524616 0.27376 0)
(-0.562091 0.278313 -8.56163e-20)
(-0.599216 0.281185 0)
(-0.636078 0.282333 8.66395e-24)
(-0.672778 0.282057 0)
(-0.709259 0.280627 0)
(-0.74542 0.278169 4.72675e-24)
(-0.781212 0.274818 -6.97606e-20)
(-0.816612 0.27072 -6.77019e-20)
(-0.851603 0.26601 -6.58027e-20)
(-0.886169 0.260814 0)
(-0.920297 0.255246 -1.24674e-19)
(-0.953978 0.249411 0)
(-0.987205 0.243401 -5.92871e-20)
(-1.01998 0.237303 0)
(-1.05229 0.231186 0)
(-1.08415 0.225111 5.54597e-20)
(-1.11556 0.219124 0)
(-1.1465 0.213261 -5.3304e-20)
(-1.17699 0.207548 -7.42249e-23)
(-1.20701 0.202 1.02883e-19)
(-1.23659 0.196627 -1.01068e-19)
(-1.26571 0.19143 0)
(-1.29437 0.186406 0)
(-1.32258 0.181546 -4.81111e-20)
(-1.35035 0.176838 0)
(-1.37766 0.172269 -4.69003e-20)
(-1.40451 0.167819 4.62554e-20)
(-1.43092 0.163471 4.56356e-20)
(-1.45686 0.159204 0)
(-1.48233 0.154998 -4.44597e-20)
(-1.50733 0.150832 -4.38986e-20)
(-1.53184 0.146684 8.65492e-20)
(-1.55584 0.142533 -4.28191e-20)
(-1.57932 0.13836 -4.22965e-20)
(-1.60226 0.134145 0)
(-1.62463 0.129869 0)
(-1.64641 0.125515 4.07754e-20)
(-1.66757 0.121067 0)