/*--------------------------------*- C++ -*----------------------------------*\
  =========                 |
  \\      /  F ield         | OpenFOAM: The Open Source CFD Toolbox
   \\    /   O peration     | Website:  https://openfoam.org
    \\  /    A nd           | Version:  8
     \\/     M anipulation  |
\*---------------------------------------------------------------------------*/
FoamFile
{
    version     2.0;
    format      ascii;
    class       volScalarField;
    location    "270";
    object      epsilon;
}
// * * * * * * * * * * * * * * * * * * * * * * * * * * * * * * * * * * * * * //

dimensions      [0 2 -3 0 0 0 0];

internalField   nonuniform List<scalar> 
12225
(
285.524
270.701
257.922
243.803
232.471
223.073
216.825
212.694
212.74
213.959
217.232
220.908
228.092
232.646
241.421
246.064
256.313
254.714
52.4934
91.8805
106.975
114.745
124.843
136.778
152.685
169.897
191.089
210.922
235.181
255.466
280.96
299.3
324.531
339.425
363.229
378.39
20.5288
34.8721
44.6755
50.4688
55.3949
59.6071
64.6617
69.643
76.3103
83.1822
91.4211
99.3115
108.145
116.914
125.493
135.233
142.414
153.751
16.0023
19.4864
24.0814
27.5638
30.496
32.8697
35.1538
37.2938
39.5001
41.9175
44.3321
47.1998
49.6734
53.0323
55.396
59.2274
61.3477
65.6358
15.0385
15.7124
17.399
19.0786
20.6389
22.0261
23.2455
24.4311
25.4431
26.5943
27.522
28.7567
29.6297
30.9821
31.8071
33.2645
34.0334
35.6495
14.7897
14.8256
15.2495
15.8677
16.5675
17.2871
17.9235
18.5841
19.1188
19.7336
20.1927
20.7981
21.2074
21.821
22.1954
22.8258
23.1567
23.8616
14.7657
14.6146
14.6409
14.7258
14.935
15.22
15.4915
15.8088
16.0708
16.3824
16.6179
16.9198
17.1304
17.4263
17.6145
17.9127
18.0692
18.4087
14.7687
14.5866
14.466
14.3801
14.3677
14.3896
14.4394
14.5334
14.6185
14.7365
14.8307
14.9563
15.0474
15.1759
15.2602
15.3925
15.4617
15.6221
14.768
14.591
14.4349
14.2963
14.185
14.1044
14.0399
14.0066
13.9814
13.9785
13.9808
13.9917
14.0036
14.0298
14.046
14.0808
14.0964
14.1507
14.7665
14.594
14.432
14.282
14.143
14.0219
13.9115
13.8194
13.737
13.6698
13.6102
13.5633
13.5181
13.4872
13.4515
13.4342
13.4016
13.4008
14.7659
14.5945
14.4322
14.2803
14.1362
14.0032
13.8782
13.7644
13.6582
13.5629
13.4736
13.3952
13.3198
13.2561
13.1916
13.1408
13.0838
13.0451
14.7657
14.5943
14.4321
14.2798
14.1353
13.9999
13.8715
13.7518
13.6385
13.5337
13.4341
13.343
13.2557
13.1771
13.1003
13.0328
12.9647
12.9074
14.7657
14.5941
14.432
14.2794
14.1349
13.9989
13.8699
13.7485
13.6332
13.525
13.422
13.3257
13.2338
13.1484
13.0663
12.9906
12.9172
12.8502
14.7657
14.5939
14.4318
14.279
14.1346
13.9983
13.8691
13.7472
13.6315
13.5223
13.4184
13.3204
13.227
13.139
13.055
12.9759
12.9002
12.8291
14.7657
14.5938
14.4317
14.2787
14.1342
13.9977
13.8686
13.7464
13.6307
13.5211
13.4171
13.3185
13.2248
13.136
13.0516
12.9714
12.8951
12.8227
14.7657
14.5937
14.4315
14.2785
14.1339
13.9973
13.8681
13.7458
13.63
13.5202
13.4161
13.3174
13.2236
13.1346
13.05
12.9696
12.8931
12.8204
14.7657
14.5937
14.4315
14.2783
14.1337
13.997
13.8677
13.7453
13.6294
13.5195
13.4154
13.3165
13.2227
13.1336
13.0489
12.9684
12.8918
12.819
14.7657
14.5937
14.4314
14.2782
14.1335
13.9968
13.8674
13.7449
13.629
13.5191
13.4148
13.3159
13.222
13.1328
13.0481
12.9675
12.8908
12.8179
14.7657
14.5937
14.4314
14.2782
14.1335
13.9967
13.8673
13.7448
13.6288
13.5189
13.4146
13.3156
13.2217
13.1325
13.0477
12.967
12.8904
12.8174
14.7657
14.5937
14.4314
14.2782
14.1336
13.9968
13.8674
13.745
13.629
13.519
13.4148
13.3158
13.2219
13.1327
13.0479
12.9673
12.8906
12.8177
14.7657
14.5937
14.4315
14.2784
14.1337
13.997
13.8677
13.7453
13.6294
13.5195
13.4154
13.3166
13.2229
13.1338
13.0493
12.9689
12.8926
12.8199
14.7657
14.5937
14.4316
14.2785
14.1341
13.9974
13.8685
13.7464
13.6312
13.522
13.419
13.3213
13.2293
13.1418
13.0594
12.981
12.9073
12.8368
14.7659
14.5937
14.4318
14.2788
14.1353
14.0002
13.8742
13.756
13.6463
13.5435
13.4485
13.3591
13.277
13.1992
13.1282
13.0601
12.9988
12.9386
14.7661
14.5928
14.4329
14.2844
14.1515
14.0321
13.9289
13.8375
13.7593
13.6893
13.6306
13.5769
13.5328
13.4905
13.4574
13.423
13.3989
13.3693
14.7641
14.5936
14.461
14.3603
14.3029
14.2767
14.2796
14.294
14.3202
14.3529
14.3959
14.4345
14.4825
14.5217
14.572
14.609
14.6617
14.6939
14.757
14.6921
14.758
14.9172
15.1828
15.4611
15.7475
16.0121
16.2723
16.5038
16.7361
16.9387
17.1508
17.331
17.5311
17.6938
17.889
18.0362
14.9575
15.4344
16.5693
17.6884
18.7053
19.5678
20.3373
20.9969
21.6196
22.1662
22.7191
23.2111
23.7403
24.2047
24.7332
25.1832
25.7256
26.1666
16.2579
20.9389
25.015
27.7588
29.7845
31.3586
32.7769
34.0586
35.3596
36.6168
37.9761
39.298
40.7626
42.147
43.7193
45.1755
46.8858
48.3608
29.9428
47.2251
54.8706
58.6738
61.6142
64.4327
67.5804
70.9803
74.7397
78.7163
82.9881
87.348
91.9096
96.4555
101.106
105.629
110.183
114.585
165.79
160.073
154.899
149.564
144.479
139.678
135.613
132.11
129.27
126.973
125.32
124.045
123.34
122.83
122.826
122.983
123.27
123.828
0.172767
0.21806
0.406588
0.574288
0.738265
0.923378
1.13835
1.39301
1.69115
2.02971
2.4007
2.79473
3.20233
3.61537
4.02672
4.43079
4.82316
5.20114
5.56362
5.91157
6.24755
6.57574
6.90055
7.22584
7.55341
7.89084
8.23632
8.57074
8.88757
9.17603
40.1527
41.3503
42.1827
42.5991
42.7198
42.4926
41.9405
40.0213
9.0221
9.22528
9.44914
40.1149
44.6748
47.0279
50.7719
54.1112
57.9066
61.7287
65.7926
69.9905
74.3809
78.9379
83.6791
88.6005
93.7089
99.0059
104.495
110.179
116.061
122.143
128.427
134.916
141.609
148.51
155.617
162.933
170.454
178.182
186.113
194.247
202.58
211.111
219.833
228.745
237.838
247.109
256.55
266.155
275.915
285.824
295.869
306.045
316.336
326.735
337.227
347.801
358.441
369.134
379.861
390.606
401.346
412.059
422.719
433.301
443.779
454.132
464.36
474.504
484.577
494.484
504.258
513.868
523.306
532.552
541.593
550.411
558.991
567.319
575.378
583.154
590.632
597.8
604.641
611.145
617.297
623.087
628.502
633.532
638.167
642.398
646.215
649.613
652.583
655.121
657.223
658.884
660.1
660.88
661.26
661.131
660.489
659.376
657.938
656.146
653.826
651.112
647.983
644.458
640.548
636.263
631.617
626.617
621.285
615.636
609.686
603.452
596.952
590.202
583.222
576.029
568.642
561.08
553.362
545.507
537.535
529.466
521.317
513.11
504.866
496.611
488.386
480.325
473.532
469.686
466.45
463.274
460.121
456.991
453.891
450.829
447.808
444.83
441.889
438.969
436.034
433.002
429.716
425.733
420.034
396.209
0.880633
0.54572
0.553011
0.626033
0.738389
0.884223
1.06522
1.28294
1.5366
1.82275
2.13601
2.47042
2.82021
3.18036
3.54678
3.91654
4.28801
4.66118
5.03796
5.42257
5.82192
6.24624
6.7101
7.23443
7.85009
8.60526
9.57732
10.8931
12.7714
15.5895
19.9806
20.7391
21.0594
21.1561
21.0222
20.5986
20.1491
19.5491
18.6074
21.4504
23.5167
26.94
28.3901
30.0088
31.7552
33.5121
35.361
37.2578
39.2282
41.2612
43.365
45.5375
47.7819
50.0985
52.4887
54.9533
57.4933
60.1093
62.8019
65.5716
68.4187
71.3433
74.3455
77.4251
80.5816
83.8148
87.1237
90.5078
93.9657
97.4965
101.098
104.77
108.509
112.315
116.183
120.113
124.1
128.143
132.238
136.381
140.57
144.799
149.065
153.363
157.688
162.035
166.398
170.772
175.15
179.524
183.887
188.232
192.552
196.839
201.093
205.317
209.526
213.756
218.016
222.211
226.355
230.436
234.451
238.392
242.253
246.029
249.713
253.299
256.781
260.154
263.412
266.549
269.56
272.439
275.182
277.783
280.239
282.544
284.694
286.686
288.515
290.18
291.675
293
294.152
295.129
295.929
296.553
296.998
297.247
297.302
297.182
296.908
296.475
295.844
295.043
294.071
292.934
291.633
290.174
288.56
286.797
284.889
282.844
280.666
278.362
275.938
273.402
270.758
268.016
265.181
262.261
259.264
256.197
253.068
249.884
246.654
243.386
240.089
236.773
233.457
230.191
227.207
224.802
222.595
220.439
218.306
216.194
214.104
212.039
210.003
207.997
206.024
204.084
202.176
200.301
198.444
196.66
194.844
191.87
1.87724
0.967818
0.872799
0.909575
1.00256
1.13791
1.31237
1.52448
1.77183
2.05055
2.35569
2.68207
3.02496
3.38044
3.7456
4.11861
4.4989
4.88725
5.28613
5.6999
6.13527
6.60166
7.11188
7.68287
8.33654
9.10008
10.0044
11.0781
12.3296
13.7059
15.0296
15.7462
16.3048
16.8095
17.2971
17.8109
18.4301
19.2135
20.2717
21.8095
23.2838
24.7945
26.1242
27.512
28.9575
30.4517
32.0012
33.6024
35.258
36.9677
38.7328
40.5537
42.4312
44.3659
46.3583
48.4089
50.5183
52.6867
54.9147
57.2022
59.5497
61.9571
64.4244
66.9514
69.5376
72.1827
74.8862
77.6475
80.4657
83.3399
86.269
89.2519
92.2871
95.3732
98.5083
101.691
104.918
108.189
111.5
114.849
118.233
121.649
125.095
128.566
132.059
135.57
139.095
142.631
146.172
149.715
153.255
156.79
160.314
163.828
167.329
170.82
174.304
177.783
181.243
184.661
188.036
191.363
194.636
197.849
200.999
204.079
207.086
210.013
212.856
215.611
218.273
220.836
223.298
225.652
227.896
230.025
232.036
233.925
235.688
237.322
238.825
240.194
241.425
242.518
243.47
244.279
244.944
245.464
245.837
246.048
246.11
246.041
245.83
245.48
244.982
244.342
243.564
242.651
241.604
240.428
239.127
237.704
236.164
234.511
232.75
230.886
228.924
226.87
224.729
222.507
220.209
217.841
215.41
212.921
210.382
207.797
205.174
202.519
199.839
197.144
194.445
191.775
189.221
186.881
184.653
182.474
180.323
178.196
176.095
174.021
171.976
169.965
167.991
166.057
164.17
162.345
160.597
159.011
157.602
156.338
3.01696
1.44319
1.23491
1.23609
1.31895
1.45303
1.62916
1.84332
2.09223
2.37211
2.67868
3.00761
3.35497
3.71761
4.09328
4.48073
4.87968
5.29094
5.71638
6.15904
6.62316
7.11425
7.63911
8.20582
8.82362
9.50218
10.2496
11.068
11.946
12.8503
13.7256
14.5197
15.2976
16.0906
16.916
17.7923
18.7427
19.7891
20.9539
22.2009
23.4705
24.7709
26.0749
27.4191
28.8101
30.2491
31.7374
33.2755
34.8643
36.5045
38.1969
39.9421
41.7409
43.5938
45.5016
47.4646
49.4834
51.5584
53.6901
55.8788
58.1249
60.4284
62.7895
65.2083
67.6845
70.2181
72.8087
75.4559
78.1592
80.9178
83.731
86.5976
89.5167
92.4868
95.5066
98.5743
101.688
104.846
108.046
111.285
114.562
117.873
121.214
124.585
127.98
131.396
134.83
138.278
141.737
145.203
148.671
152.14
155.605
159.065
162.517
165.959
169.391
172.804
176.188
179.535
182.839
186.095
189.298
192.442
195.523
198.534
201.472
204.331
207.107
209.794
212.387
214.883
217.277
219.564
221.741
223.803
225.747
227.57
229.267
230.837
232.275
233.581
234.75
235.781
236.673
237.423
238.03
238.494
238.81
238.962
238.988
238.872
238.614
238.217
237.678
237
236.186
235.24
234.163
232.961
231.636
230.193
228.636
226.97
225.2
223.33
221.366
219.312
217.175
214.961
212.674
210.32
207.906
205.438
202.922
200.363
197.769
195.145
192.499
189.839
187.175
184.529
181.945
179.467
177.064
174.705
172.377
170.077
167.807
165.568
163.363
161.196
159.072
156.997
154.98
153.04
151.2
149.546
148.112
146.967
4.15947
1.92877
1.60323
1.56889
1.63839
1.76843
1.94402
2.15862
2.40801
2.68844
2.9961
3.32732
3.67879
4.04787
4.43269
4.83221
5.24618
5.67515
6.12034
6.58361
7.0674
7.57458
8.10844
8.67257
9.27091
9.9075
10.586
11.3081
12.0716
12.8678
13.6854
14.5196
15.3812
16.2768
17.2099
18.1834
19.2027
20.2748
21.4017
22.5915
23.8229
25.0907
26.3944
27.7412
29.1342
30.5751
32.0651
33.6054
35.1969
36.8405
38.5372
40.288
42.0937
43.9554
45.874
47.8499
49.8836
51.9761
54.1279
56.3395
58.6117
60.9448
63.3392
65.7953
68.3131
70.8928
73.5344
76.2376
79.0022
81.8276
84.7134
87.6586
90.6622
93.7233
96.8403
100.012
103.236
106.511
109.834
113.204
116.617
120.071
123.562
127.088
130.645
134.23
137.839
141.467
145.112
148.768
152.433
156.102
159.771
163.436
167.093
170.736
174.36
177.959
181.525
185.052
188.533
191.963
195.336
198.646
201.888
205.056
208.143
211.146
214.058
216.874
219.589
222.198
224.697
227.081
229.345
231.486
233.5
235.382
237.129
238.739
240.208
241.534
242.714
243.746
244.628
245.359
245.938
246.365
246.625
246.726
246.691
246.501
246.161
245.671
245.033
244.249
243.323
242.256
241.054
239.72
238.258
236.673
234.97
233.153
231.229
229.201
227.077
224.862
222.56
220.18
217.726
215.205
212.623
209.986
207.302
204.576
201.815
199.026
196.215
193.391
190.563
187.747
184.969
182.252
179.589
176.967
174.378
171.822
169.299
166.813
164.367
161.966
159.616
157.324
155.103
152.975
150.97
149.162
147.58
146.227
5.2485
2.39945
1.95834
1.88811
1.94226
2.0658
2.23824
2.45065
2.69789
2.97604
3.28162
3.61142
3.96263
4.33299
4.72088
5.12539
5.54626
5.98382
6.43896
6.91298
7.40751
7.92445
8.46585
9.03391
9.63091
10.2593
10.9213
11.6191
12.3536
13.1242
13.9298
14.7707
15.6493
16.5674
17.5254
18.5239
19.5644
20.6498
21.783
22.9651
24.1929
25.4652
26.7825
28.1467
29.5595
31.0226
32.5371
34.1046
35.7262
37.4031
39.1366
40.9277
42.7776
44.6873
46.6579
48.6908
50.7871
52.9479
55.1743
57.4672
59.8274
62.2559
64.7533
67.3202
69.9572
72.6646
75.4427
78.2916
81.211
84.2009
87.2607
90.3898
93.5872
96.8519
100.182
103.577
107.035
110.553
114.129
117.76
121.444
125.177
128.957
132.779
136.64
140.536
144.461
148.413
152.387
156.377
160.379
164.388
168.398
172.405
176.402
180.383
184.341
188.269
192.161
196.009
199.807
203.547
207.224
210.831
214.361
217.809
221.166
224.428
227.589
230.641
233.581
236.402
239.099
241.667
244.101
246.397
248.551
250.558
252.415
254.119
255.666
257.054
258.28
259.342
260.238
260.968
261.53
261.922
262.127
262.175
262.061
261.778
261.331
260.72
259.948
259.018
257.933
256.696
255.313
253.787
252.124
250.328
248.406
246.363
244.204
241.937
239.567
237.1
234.543
231.902
229.185
226.398
223.547
220.641
217.685
214.688
211.655
208.595
205.513
202.419
199.321
196.231
193.167
190.145
187.165
184.223
181.318
178.449
175.619
172.832
170.091
167.403
164.774
162.214
159.737
157.366
155.133
153.101
151.283
149.614
6.2456
2.83768
2.28636
2.18021
2.21747
2.33233
2.49915
2.70673
2.94896
3.22168
3.52157
3.84576
4.19183
4.55782
4.94234
5.3446
5.76435
6.20186
6.65786
7.13342
7.62992
8.14892
8.69215
9.26139
9.8585
10.4854
11.1441
11.8364
12.5641
13.3284
14.1302
14.9708
15.8515
16.7733
17.737
18.7432
19.7928
20.8877
22.0295
23.2195
24.458
25.7455
27.0829
28.4714
29.9124
31.4075
32.9582
34.566
36.2326
37.9595
39.7482
41.6003
43.5172
45.5006
47.552
49.6729
51.8651
54.1298
56.4686
58.8829
61.374
63.9429
66.591
69.3191
72.1282
75.0188
77.9916
81.0469
84.1849
87.4053
90.708
94.0924
97.5576
101.103
104.726
108.426
112.2
116.047
119.964
123.948
127.995
132.102
136.265
140.481
144.743
149.049
153.393
157.769
162.172
166.597
171.037
175.486
179.938
184.386
188.823
193.241
197.633
201.991
206.306
210.572
214.78
218.924
222.995
226.986
230.889
234.697
238.404
242
245.481
248.839
252.068
255.161
258.113
260.918
263.571
266.067
268.402
270.57
272.568
274.393
276.042
277.511
278.797
279.9
280.818
281.548
282.091
282.439
282.586
282.562
282.351
281.954
281.375
280.615
279.677
278.565
277.283
275.835
274.226
272.461
270.547
268.49
266.294
263.968
261.518
258.95
256.272
253.49
250.612
247.646
244.598
241.477
238.29
235.044
231.747
228.407
225.032
221.628
218.205
214.768
211.329
207.896
204.483
201.103
197.759
194.454
191.187
187.961
184.78
181.647
178.57
175.552
172.604
169.735
166.961
164.305
161.797
159.49
157.382
155.355
7.12384
3.23015
2.57708
2.43571
2.45499
2.5593
2.71829
2.91865
3.15331
3.41783
3.70895
4.02405
4.361
4.71813
5.09428
5.4888
5.90151
6.3327
6.78307
7.25367
7.7458
8.26096
8.80081
9.36709
9.96102
10.5847
11.24
11.9289
12.6529
13.4137
14.2128
15.0516
15.9315
16.8536
17.8192
18.8294
19.8854
20.9886
22.1407
23.3431
24.5968
25.9034
27.2643
28.6808
30.1546
31.6874
33.2811
34.9377
36.6591
38.4473
40.3042
42.2317
44.2321
46.3071
48.459
50.6897
53.0013
55.3958
57.875
60.4409
63.0951
65.8395
68.6754
71.6044
74.6277
77.7462
80.9609
84.2724
87.681
91.1868
94.7896
98.489
102.284
106.174
110.156
114.23
118.393
122.641
126.974
131.385
135.873
140.433
145.06
149.75
154.497
159.295
164.139
169.022
173.938
178.879
183.84
188.811
193.785
198.755
203.711
208.645
213.547
218.41
223.224
227.981
232.671
237.285
241.816
246.254
250.591
254.818
258.927
262.91
266.759
270.467
274.026
277.43
280.672
283.746
286.645
289.366
291.901
294.248
296.402
298.358
300.115
301.668
303.015
304.155
305.086
305.808
306.319
306.605
306.684
306.56
306.228
305.69
304.95
304.009
302.872
301.542
300.025
298.326
296.45
294.405
292.195
289.829
287.314
284.657
281.865
278.947
275.91
272.762
269.511
266.166
262.735
259.227
255.648
252.009
248.317
244.58
240.807
237.006
233.186
229.353
225.518
221.69
217.88
214.099
210.352
206.644
202.979
199.359
195.79
192.277
188.826
185.445
182.142
178.93
175.824
172.846
170.025
167.405
164.967
162.562
7.86689
3.56837
2.82422
2.64906
2.64974
2.7419
2.89115
3.08226
3.30729
3.56146
3.84151
4.145
4.47005
4.81526
5.17971
5.56292
5.96478
6.38537
6.82572
7.28695
7.7704
8.27756
8.81014
9.37008
9.95872
10.5775
11.2282
11.9125
12.6322
13.389
14.1845
15.0203
15.898
16.819
17.7848
18.797
19.8571
20.9668
22.128
23.3429
24.614
25.9428
27.3305
28.7785
30.2889
31.8644
33.5073
35.2202
37.0053
38.8652
40.8022
42.8189
44.9179
47.1017
49.373
51.7343
54.1882
56.7373
59.384
62.1307
64.9797
67.9332
70.9932
74.1616
77.44
80.8298
84.332
87.9478
91.6774
95.5213
99.4792
103.551
107.735
112.03
116.435
120.947
125.564
130.283
135.099
140.01
145.01
150.094
155.258
160.494
165.798
171.162
176.578
182.041
187.541
193.07
198.62
204.181
209.746
215.303
220.842
226.355
231.83
237.258
242.628
247.929
253.153
258.289
263.326
268.255
273.066
277.75
282.297
286.698
290.945
295.029
298.941
302.675
306.223
309.578
312.734
315.685
318.425
320.951
323.256
325.339
327.195
328.821
330.215
331.376
332.302
332.993
333.445
333.651
333.63
333.376
332.892
332.18
331.244
330.086
328.712
327.126
325.334
323.343
321.16
318.79
316.243
313.526
310.646
307.614
304.437
301.123
297.683
294.124
290.456
286.687
282.828
278.887
274.873
270.795
266.663
262.486
258.272
254.03
249.769
245.498
241.226
236.962
232.715
228.497
224.314
220.173
216.077
212.033
208.046
204.123
200.27
196.496
192.81
189.225
185.757
182.428
179.263
176.297
173.5
170.708
8.46649
3.84802
3.02519
2.81671
2.79987
2.87874
3.01675
3.197
3.41079
3.65302
3.92041
4.21064
4.52202
4.85319
5.20374
5.57372
5.96369
6.37439
6.80564
7.2582
7.73323
8.23213
8.7564
9.30747
9.88701
10.4968
11.1387
11.8148
12.5267
13.2765
14.0658
14.8964
15.7703
16.6891
17.6548
18.6693
19.7347
20.8529
22.0263
23.2567
24.546
25.8968
27.3118
28.7942
30.3465
31.9711
33.6713
35.45
37.3101
39.2545
41.2864
43.4088
45.6248
47.9378
50.3509
52.8673
55.4903
58.223
61.0685
64.0297
67.1096
70.3107
73.6357
77.0868
80.6659
84.3749
88.2151
92.1877
96.2931
100.532
104.903
109.408
114.043
118.808
123.7
128.717
133.856
139.112
144.482
149.96
155.541
161.219
166.988
172.84
178.768
184.764
190.82
196.925
203.072
209.25
215.449
221.658
227.867
234.065
240.239
246.379
252.472
258.508
264.473
270.358
276.149
281.836
287.408
292.853
298.16
303.319
308.32
313.151
317.803
322.268
326.536
330.599
334.449
338.079
341.481
344.651
347.581
350.268
352.707
354.893
356.823
358.496
359.908
361.059
361.947
362.573
362.932
363.026
362.862
362.44
361.763
360.837
359.663
358.247
356.593
354.709
352.6
350.274
347.74
345.004
342.076
338.965
335.68
332.231
328.627
324.878
320.994
316.984
312.859
308.628
304.303
299.891
295.405
290.853
286.245
281.591
276.9
272.183
267.448
262.704
257.961
253.229
248.516
243.833
239.187
234.586
230.036
225.544
221.115
216.758
212.479
208.289
204.197
200.217
196.364
192.659
189.124
185.788
182.612
179.425
8.92193
4.06758
3.17936
2.94042
2.90634
2.97125
3.0969
3.26508
3.46646
3.69567
3.9492
4.22533
4.52309
4.84247
5.18179
5.54048
5.91838
6.3154
6.73254
7.17116
7.63257
8.11816
8.62939
9.16785
9.7354
10.3341
10.9657
11.6321
12.3352
13.0771
13.8597
14.6851
15.5555
16.473
17.44
18.4587
19.5316
20.6613
21.8503
23.1014
24.4174
25.8013
27.2562
28.7847
30.388
32.0722
33.8424
35.7018
37.6539
39.7022
41.8502
44.1019
46.4611
48.9315
51.5173
54.2222
57.0502
60.005
63.0904
66.3099
69.6669
73.1647
76.8061
80.5939
84.5302
88.6171
92.8561
97.2483
101.794
106.494
111.348
116.353
121.51
126.816
132.267
137.861
143.593
149.459
155.453
161.569
167.801
174.141
180.581
187.114
193.729
200.418
207.17
213.974
220.821
227.697
234.592
241.493
248.387
255.262
262.104
268.902
275.64
282.306
288.887
295.37
301.742
307.99
314.101
320.064
325.865
331.494
336.938
342.188
347.231
352.059
356.662
361.03
365.156
369.031
372.649
376.004
379.089
381.899
384.431
386.68
388.643
390.318
391.703
392.797
393.601
394.114
394.334
394.266
393.911
393.27
392.352
391.162
389.702
387.979
385.999
383.768
381.296
378.591
375.661
372.515
369.165
365.619
361.888
357.982
353.913
349.691
345.327
340.832
336.216
331.491
326.666
321.754
316.764
311.708
306.596
301.437
296.244
291.024
285.789
280.548
275.311
270.087
264.885
259.717
254.589
249.511
244.488
239.53
234.643
229.834
225.114
220.491
215.976
211.583
207.327
203.227
199.303
195.58
192.012
188.427
9.2396
4.22904
3.28895
3.02309
2.97234
3.02299
3.13554
3.2907
3.47899
3.69549
3.9379
4.20276
4.48828
4.79276
5.116
5.45834
5.8201
6.20193
6.60502
7.03018
7.47856
7.95151
8.45056
8.97739
9.53383
10.1218
10.7435
11.4007
12.0959
12.8312
13.609
14.4317
15.3019
16.2221
17.1952
18.2239
19.3115
20.4607
21.6748
22.9572
24.3119
25.7418
27.2494
28.8363
30.5098
32.2757
34.1382
36.1032
38.1753
40.3582
42.6562
45.0738
47.6156
50.2863
53.0905
56.0329
59.1179
62.35
65.7336
69.2726
72.971
76.8323
80.8598
85.0562
89.424
93.9651
98.681
103.572
108.64
113.883
119.3
124.89
130.651
136.579
142.67
148.921
155.325
161.876
168.569
175.395
182.347
189.415
196.589
203.861
211.219
218.651
226.147
233.693
241.276
248.885
256.504
264.121
271.72
279.288
286.809
294.27
301.654
308.948
316.137
323.207
330.143
336.931
343.557
350.009
356.273
362.337
368.187
373.814
379.204
384.348
389.236
393.858
398.206
402.272
406.049
409.53
412.709
415.582
418.145
420.394
422.327
423.941
425.236
426.21
426.866
427.203
427.223
426.933
426.321
425.403
424.186
422.674
420.873
418.788
416.428
413.801
410.917
407.784
404.413
400.814
396.998
392.977
388.761
384.363
379.794
375.067
370.191
365.181
360.046
354.799
349.451
344.014
338.499
332.917
327.28
321.598
315.882
310.144
304.392
298.638
292.891
287.161
281.458
275.791
270.17
264.604
259.099
253.665
248.31
243.041
237.869
232.803
227.855
223.039
218.369
213.863
209.538
205.418
201.45
197.471
9.43235
4.33742
3.35802
3.069
3.00253
3.03889
3.13867
3.28295
3.46073
3.6657
3.89346
4.14247
4.41172
4.70066
5.00932
5.33756
5.68567
6.05428
6.44429
6.85675
7.2929
7.75419
8.24225
8.75887
9.30601
9.88579
10.5004
11.1523
11.844
12.578
13.3574
14.1849
15.0635
15.9964
16.9868
18.0384
19.1556
20.3413
21.5988
22.9316
24.3416
25.8333
27.4139
29.091
30.8696
32.7548
34.7522
36.8677
39.1073
41.4758
43.9785
46.6209
49.4083
52.3462
55.4399
58.6947
62.1156
65.7076
69.4754
73.4234
77.5555
81.8755
86.3866
91.0914
95.9919
101.09
106.386
111.88
117.572
123.461
129.543
135.818
142.28
148.925
155.748
162.743
169.903
177.221
184.687
192.292
200.027
207.881
215.842
223.899
232.039
240.249
248.515
256.822
265.158
273.506
281.851
290.178
298.47
306.713
314.89
322.984
330.981
338.863
346.615
354.221
361.667
368.936
376.016
382.891
389.548
395.974
402.155
408.08
413.737
419.115
424.204
428.995
433.479
437.648
441.495
445.014
448.201
451.049
453.556
455.718
457.534
459.003
460.123
460.895
461.323
461.406
461.156
460.556
459.617
458.353
456.768
454.87
452.664
450.157
447.36
444.282
440.933
437.324
433.466
429.37
425.049
420.514
415.779
410.856
405.757
400.496
395.084
389.535
383.86
378.072
372.184
366.206
360.151
354.032
347.859
341.644
335.398
329.132
322.857
316.584
310.322
304.082
297.873
291.706
285.59
279.534
273.546
267.636
261.811
256.081
250.455
244.945
239.562
234.319
229.231
224.315
219.585
215.063
210.697
206.332
9.49292
4.39184
3.38903
3.08193
3.00236
3.02831
3.11752
3.24877
3.41203
3.60204
3.81577
4.05137
4.30754
4.58366
4.87959
5.19544
5.53165
5.88892
6.2682
6.67068
7.09773
7.55099
8.03229
8.54369
9.08747
9.66597
10.2817
10.9375
11.6363
12.3814
13.1766
14.0255
14.9311
15.8971
16.9273
18.025
19.1919
20.4336
21.7567
23.1672
24.6719
26.2768
27.9879
29.8121
31.7557
33.8251
36.0271
38.3689
40.8563
43.4959
46.2942
49.2578
52.3931
55.7059
59.202
62.887
66.7662
70.8445
75.1266
79.6167
84.3184
89.2348
94.3683
99.7209
105.293
111.086
117.099
123.331
129.778
136.44
143.31
150.386
157.661
165.128
172.781
180.611
188.609
196.766
205.07
213.511
222.077
230.754
239.53
248.391
257.322
266.309
275.336
284.388
293.448
302.5
311.527
320.513
329.44
338.291
347.05
355.699
364.221
372.6
380.818
388.86
396.71
404.352
411.772
418.955
425.886
432.553
438.942
445.042
450.841
456.328
461.493
466.327
470.822
474.97
478.765
482.201
485.274
487.979
490.314
492.277
493.865
495.08
495.921
496.388
496.488
496.234
495.604
494.609
493.262
491.57
489.543
487.185
484.505
481.513
478.218
474.633
470.767
466.633
462.243
457.61
452.746
447.665
442.38
436.905
431.253
425.438
419.473
413.37
407.143
400.805
394.368
387.844
381.247
374.588
367.879
361.132
354.358
347.569
340.775
333.987
327.217
320.473
313.767
307.107
300.504
293.967
287.504
281.126
274.84
268.656
262.585
256.638
250.825
245.162
239.661
234.338
229.208
224.289
219.531
214.794
9.47324
4.40178
3.38885
3.07205
2.98253
2.99527
3.07071
3.18908
3.34034
3.51873
3.72106
3.94543
4.1908
4.45667
4.74299
5.05008
5.37858
5.72936
6.10355
6.50253
6.92793
7.38168
7.86601
8.38356
8.93774
9.5308
10.1656
10.8455
11.574
12.3542
13.1887
14.0802
15.0354
16.06
17.1595
18.3397
19.6078
20.9693
22.4305
23.9985
25.6812
27.486
29.4203
31.4918
33.7082
36.077
38.6061
41.3036
44.1766
47.233
50.4807
53.9275
57.5804
61.4451
65.5266
69.8301
74.3598
79.1201
84.1142
89.3452
94.8151
100.525
106.476
112.668
119.099
125.768
132.672
139.806
147.166
154.747
162.541
170.543
178.742
187.132
195.701
204.438
213.334
222.375
231.549
240.843
250.243
259.734
269.302
278.931
288.605
298.308
308.023
317.735
327.425
337.076
346.671
356.193
365.624
374.946
384.141
393.193
402.084
410.797
419.316
427.623
435.704
443.543
451.125
458.437
465.463
472.191
478.609
484.705
490.468
495.887
500.954
505.66
509.996
513.958
517.538
520.732
523.537
525.949
527.966
529.588
530.812
531.642
532.077
532.115
531.793
531.063
529.951
528.466
526.617
524.411
521.857
518.964
515.739
512.195
508.343
504.194
499.762
495.058
490.097
484.891
479.455
473.801
467.945
461.901
455.682
449.303
442.777
436.117
429.338
422.451
415.47
408.408
401.277
394.089
386.857
379.592
372.306
365.009
357.714
350.431
343.17
335.943
328.758
321.626
314.556
307.558
300.64
293.813
287.086
280.467
273.968
267.6
261.375
255.305
249.405
243.69
238.17
232.868
227.731
222.644
9.40917
4.39071
3.37163
3.04196
2.93994
2.94178
3.00696
3.11541
3.25712
3.42662
3.62089
3.83818
4.07761
4.33892
4.62231
4.92847
5.25866
5.61435
5.99666
6.40734
6.84852
7.32257
7.83195
8.37889
8.96447
9.59359
10.2714
11.0027
11.7924
12.646
13.5696
14.5698
15.6521
16.8234
18.0911
19.4633
20.9484
22.5548
24.291
26.1658
28.1887
30.3687
32.7149
35.2365
37.9422
40.8408
43.9399
47.2457
50.7675
54.5145
58.4962
62.7228
67.202
71.9346
76.9226
82.1679
87.6722
93.4365
99.461
105.745
112.288
119.086
126.138
133.438
140.982
148.764
156.777
165.014
173.467
182.126
190.983
200.026
209.244
218.626
228.16
237.833
247.631
257.541
267.548
277.639
287.796
298.006
308.253
318.52
328.792
339.051
349.281
359.465
369.586
379.627
389.571
399.4
409.098
418.646
428.029
437.23
446.231
455.017
463.571
471.878
479.923
487.692
495.17
502.344
509.201
515.73
521.918
527.755
533.231
538.336
543.063
547.404
551.352
554.901
558.049
560.789
563.12
565.04
566.548
567.645
568.326
568.604
568.473
567.953
567.012
565.681
563.963
561.866
559.398
556.571
553.392
549.869
546.014
541.84
537.359
532.584
527.528
522.204
516.626
510.809
504.766
498.513
492.063
485.432
478.633
471.682
464.591
457.375
450.046
442.617
435.102
427.513
419.863
412.163
404.426
396.664
388.886
381.106
373.334
365.58
357.854
350.168
342.532
334.954
327.444
320.012
312.666
305.417
298.273
291.244
284.342
277.576
270.96
264.505
258.226
252.136
246.246
240.579
235.081
229.671
9.27792
4.35362
3.33268
2.99626
2.88788
2.88391
2.94378
3.04808
3.18706
3.3557
3.55168
3.77336
4.02001
4.29169
4.58894
4.9125
5.26291
5.64051
6.04909
6.49187
6.97221
7.49381
8.06082
8.67806
9.35191
10.0871
10.8898
11.7667
12.7256
13.7746
14.9227
16.1792
17.5533
19.0549
20.6944
22.483
24.4318
26.5521
28.8554
31.3526
34.0549
36.9726
40.1158
43.4941
47.1166
50.9909
55.1237
59.5209
64.1891
69.1345
74.3634
79.8824
85.6907
91.7833
98.1561
104.805
111.725
118.912
126.358
134.059
142.005
150.19
158.605
167.241
176.088
185.137
194.376
203.794
213.381
223.125
233.013
243.034
253.175
263.422
273.764
284.186
294.674
305.216
315.797
326.402
337.018
347.629
358.222
368.78
379.289
389.734
400.1
410.37
420.529
430.562
440.454
450.187
459.748
469.12
478.287
487.236
495.95
504.416
512.618
520.542
528.175
535.504
542.516
549.2
555.543
561.537
567.169
572.431
577.313
581.808
585.91
589.612
592.907
595.794
598.268
600.323
601.964
603.188
603.987
604.383
604.34
603.932
603.069
601.813
600.156
598.109
595.677
592.87
589.697
586.171
582.299
578.089
573.556
568.712
563.57
558.144
552.446
546.492
540.296
533.871
527.232
520.394
513.371
506.179
498.831
491.342
483.725
475.993
468.16
460.237
452.238
444.174
436.058
427.902
419.717
411.514
403.304
395.098
386.906
378.74
370.608
362.522
354.49
346.523
338.629
330.817
323.097
315.477
307.967
300.578
293.319
286.201
279.237
272.438
265.819
259.393
253.169
247.172
241.348
235.655
9.14462
4.29612
3.28506
2.9512
2.84441
2.84308
2.90826
3.02019
3.16936
3.35066
3.56064
3.7985
4.06526
4.36206
4.69058
5.05311
5.45282
5.89369
6.3794
6.91486
7.50583
8.15891
8.88161
9.68241
10.5708
11.5561
12.6487
13.8602
15.2033
16.6911
18.3376
20.1566
22.1627
24.3702
26.7941
29.4487
32.3476
35.5035
38.9286
42.6343
46.6303
50.9238
55.5207
60.4263
65.6452
71.1783
77.0241
83.181
89.6506
96.4291
103.517
110.906
118.568
126.493
134.67
143.087
151.731
160.589
169.65
178.9
188.328
197.921
207.667
217.555
227.573
237.708
247.95
258.287
268.707
279.199
289.753
300.358
311.001
321.672
332.36
343.053
353.741
364.411
375.052
385.654
396.203
406.688
417.098
427.419
437.64
447.748
457.731
467.574
477.266
486.793
496.142
505.301
514.254
522.99
531.494
539.754
547.756
555.489
562.939
570.094
576.942
583.471
589.671
595.531
601.042
606.196
610.981
615.39
619.416
623.052
626.295
629.135
631.568
633.596
635.217
636.416