/*--------------------------------*- C++ -*----------------------------------*\
  =========                 |
  \\      /  F ield         | OpenFOAM: The Open Source CFD Toolbox
   \\    /   O peration     | Website:  https://openfoam.org
    \\  /    A nd           | Version:  8
     \\/     M anipulation  |
\*---------------------------------------------------------------------------*/
FoamFile
{
    version     2.0;
    format      ascii;
    class       volScalarField;
    location    "270";
    object      k;
}
// * * * * * * * * * * * * * * * * * * * * * * * * * * * * * * * * * * * * * //

dimensions      [0 2 -2 0 0 0 0];

internalField   nonuniform List<scalar> 
12225
(
0.362816
0.343987
0.327751
0.30981
0.295411
0.283468
0.275529
0.270279
0.27034
0.271865
0.276077
0.280633
0.289959
0.295506
0.307039
0.312274
0.327005
0.335215
0.440186
0.468698
0.461606
0.448368
0.450347
0.458308
0.474579
0.498487
0.524418
0.552061
0.580743
0.6061
0.633807
0.653784
0.679676
0.693068
0.717244
0.728626
0.39054
0.417874
0.420232
0.416827
0.411628
0.407802
0.408021
0.410034
0.414568
0.42138
0.430724
0.439699
0.451155
0.461136
0.472794
0.483514
0.493397
0.505958
0.377546
0.386982
0.391406
0.391343
0.390221
0.387895
0.385664
0.384079
0.382884
0.382895
0.383385
0.38432
0.38629
0.388463
0.390896
0.394233
0.396478
0.400959
0.374562
0.37609
0.378412
0.378666
0.378263
0.377205
0.375489
0.373737
0.37201
0.370455
0.369259
0.368105
0.36738
0.366803
0.36644
0.366329
0.366337
0.36669
0.373814
0.372709
0.372645
0.372384
0.371761
0.370816
0.369554
0.368082
0.366572
0.364977
0.363529
0.362063
0.360755
0.359529
0.358397
0.357426
0.356437
0.355779
0.373782
0.371742
0.370386
0.369287
0.368234
0.367114
0.365915
0.364587
0.363239
0.361808
0.360423
0.359024
0.357679
0.356383
0.355122
0.353967
0.352795
0.351803
0.37382
0.37156
0.369634
0.367976
0.366501
0.365108
0.363775
0.362429
0.361108
0.359767
0.358451
0.357145
0.355864
0.354624
0.353403
0.352252
0.351101
0.350054
0.373832
0.371553
0.369449
0.367525
0.365777
0.364154
0.362645
0.361199
0.359818
0.358474
0.35717
0.355904
0.354668
0.353476
0.352309
0.351198
0.350099
0.349075
0.373831
0.37156
0.369418
0.367405
0.365529
0.363773
0.362133
0.360585
0.359122
0.357728
0.356395
0.355119
0.353889
0.352711
0.351571
0.350483
0.349421
0.348422
0.373829
0.37156
0.369413
0.367378
0.365458
0.363645
0.361937
0.360324
0.358799
0.357353
0.355979
0.354673
0.353425
0.352236
0.351095
0.35001
0.34896
0.34797
0.373828
0.371558
0.369409
0.36737
0.365439
0.363609
0.361876
0.360234
0.358678
0.357202
0.3558
0.354469
0.353201
0.351995
0.350843
0.349748
0.348696
0.347701
0.373827
0.371556
0.369405
0.367365
0.36543
0.363593
0.361851
0.360197
0.358626
0.357134
0.355716
0.354368
0.353085
0.351865
0.350701
0.349595
0.348536
0.347532
0.373826
0.371555
0.369401
0.367359
0.365422
0.363583
0.361837
0.360178
0.3586
0.357101
0.355674
0.354317
0.353025
0.351795
0.350622
0.349506
0.34844
0.347427
0.373826
0.371553
0.369398
0.367355
0.365416
0.363575
0.361826
0.360164
0.358584
0.357081
0.355651
0.35429
0.352993
0.351758
0.35058
0.349458
0.348388
0.347368
0.373826
0.371552
0.369396
0.367351
0.36541
0.363567
0.361817
0.360153
0.358571
0.357067
0.355634
0.35427
0.352971
0.351734
0.350554
0.349429
0.348356
0.347333
0.373825
0.371551
0.369394
0.367348
0.365406
0.363562
0.36181
0.360145
0.358561
0.357055
0.355621
0.354256
0.352955
0.351716
0.350534
0.349408
0.348333
0.347308
0.373825
0.371551
0.369393
0.367346
0.365403
0.363558
0.361805
0.360139
0.358554
0.357047
0.355612
0.354245
0.352943
0.351703
0.35052
0.349392
0.348316
0.347289
0.373825
0.37155
0.369393
0.367345
0.365402
0.363557
0.361804
0.360137
0.358552
0.357043
0.355608
0.35424
0.352938
0.351696
0.350513
0.349384
0.348307
0.34728
0.373825
0.371551
0.369393
0.367347
0.365404
0.363559
0.361806
0.360139
0.358555
0.357046
0.355611
0.354244
0.352941
0.3517
0.350517
0.349388
0.348311
0.347284
0.373825
0.371551
0.369395
0.367349
0.365407
0.363563
0.361811
0.360145
0.358562
0.357055
0.355621
0.354255
0.352954
0.351715
0.350533
0.349407
0.348332
0.347307
0.373826
0.371552
0.369397
0.367352
0.365412
0.363571
0.361822
0.360161
0.358583
0.357083
0.355656
0.354298
0.353006
0.351774
0.350602
0.349483
0.348417
0.347397
0.373826
0.371554
0.369399
0.367359
0.365428
0.363602
0.361875
0.36024
0.35869
0.35722
0.355823
0.354493
0.353227
0.352018
0.350865
0.349762
0.34871
0.3477
0.373828
0.371551
0.369412
0.367417
0.365556
0.363819
0.362189
0.360651
0.359189
0.357793
0.356456
0.355171
0.353935
0.352745
0.3516
0.350495
0.349436
0.348409
0.373823
0.371554
0.369604
0.367893
0.366339
0.364892
0.363495
0.362122
0.360761
0.359413
0.35808
0.356769
0.355488
0.354237
0.353029
0.351855
0.350734
0.349645
0.373788
0.371991
0.371113
0.370266
0.36936
0.368311
0.367048
0.36563
0.36412
0.362575
0.36103
0.359522
0.358073
0.356682
0.355381
0.354141
0.353009
0.351923
0.374355
0.375572
0.377775
0.377857
0.377288
0.375886
0.373835
0.371641
0.369505
0.367482
0.365664
0.364084
0.36271
0.361535
0.36061
0.359818
0.359289
0.358801
0.379125
0.394296
0.398249
0.396573
0.392538
0.387603
0.383646
0.380448
0.378268
0.376853
0.376498
0.376741
0.377416
0.378692
0.380443
0.382424
0.384829
0.38714
0.408394
0.427541
0.422416
0.411056
0.402226
0.397925
0.398627
0.400965
0.406072
0.413058
0.421004
0.429834
0.438842
0.448198
0.457316
0.466561
0.475332
0.484192
0.36605
0.353416
0.341988
0.33021
0.318982
0.308382
0.299411
0.291671
0.285404
0.280334
0.276682
0.273867
0.272313
0.271176
0.271213
0.271475
0.272191
0.273392
0.00059854
0.00345358
0.00643163
0.00907785
0.0116622
0.0145719
0.0179432
0.0219275
0.0265816
0.0318533
0.0376175
0.0437285
0.0500472
0.0564595
0.0628753
0.0692313
0.075485
0.0816126
0.0876021
0.0934438
0.0991203
0.104592
0.109785
0.114583
0.118814
0.122238
0.124544
0.125345
0.124121
0.120149
0.112275
0.115025
0.119163
0.122587
0.124922
0.12882
0.133643
0.139671
0.145702
0.147168
0.149239
0.143983
0.155843
0.160901
0.169418
0.176658
0.184776
0.19274
0.201033
0.209412
0.217994
0.226717
0.235611
0.244659
0.253868
0.263235
0.27276
0.282442
0.292278
0.302268
0.312408
0.322698
0.333133
0.343711
0.354426
0.365275
0.376252
0.387354
0.398572
0.409902
0.421334
0.432865
0.444483
0.456183
0.467953
0.479788
0.491674
0.503606
0.515568
0.527555
0.539552
0.55155
0.563535
0.575498
0.587422
0.599299
0.611109
0.622844
0.634483
0.646012
0.65741
0.668658
0.679731
0.690608
0.701267
0.711692
0.721886
0.731895
0.741745
0.751337
0.760711
0.76984
0.778723
0.787344
0.795695
0.803764
0.811541
0.819017
0.826181
0.833026
0.83954
0.845716
0.851546
0.857022
0.862136
0.866883
0.871253
0.875244
0.878847
0.88206
0.884876
0.887294
0.889308
0.890917
0.89212
0.892915
0.8933
0.89327
0.892905
0.892056
0.890755
0.88901
0.886962
0.884602
0.881766
0.878567
0.87499
0.871051
0.866757
0.862118
0.857141
0.851835
0.846214
0.840293
0.834082
0.827596
0.820847
0.81385
0.80662
0.79917
0.791516
0.783673
0.775656
0.767482
0.759167
0.750727
0.742178
0.733539
0.724828
0.716069
0.707304
0.698666
0.691283
0.686733
0.682738
0.678789
0.674851
0.670925
0.667019
0.663139
0.659292
0.655477
0.651692
0.64792
0.644126
0.640231
0.636078
0.631228
0.624682
0.599907
0.00305297
0.0124655
0.0188455
0.0236034
0.0278091
0.0319436
0.0363621
0.0412573
0.0466937
0.0526374
0.058996
0.0656558
0.0725046
0.0794466
0.0864057
0.0933269
0.100175
0.106932
0.113591
0.12015
0.126601
0.13292
0.139051
0.144904
0.150338
0.155188
0.159295
0.162541
0.164953
0.166898
0.169546
0.175534
0.182568
0.190087
0.198251
0.207438
0.217582
0.229444
0.243813
0.254817
0.266376
0.278405
0.290711
0.30242
0.315214
0.328214
0.341624
0.35534
0.369393
0.383758
0.398443
0.413442
0.428757
0.444388
0.460336
0.476602
0.493187
0.510091
0.527315
0.544858
0.56272
0.580899
0.599393
0.618201
0.637317
0.656738
0.676459
0.696473
0.716774
0.737353
0.758203
0.779314
0.800675
0.822275
0.844101
0.866141
0.88838
0.910804
0.933396
0.956141
0.97902
1.00202
1.02511
1.04828
1.07151
1.09478
1.11806
1.14133
1.16456
1.18773
1.21081
1.23377
1.25658
1.27919
1.30157
1.32365
1.3454
1.36672
1.38762
1.40824
1.42854
1.44851
1.46813
1.48738
1.50622
1.52465
1.54263
1.56015
1.57718
1.59371
1.60971
1.62517
1.64007
1.65438
1.66809
1.68118
1.69364
1.70544
1.71658
1.72704
1.7368
1.74586
1.7542
1.76181
1.76868
1.7748
1.78018
1.7848
1.78867
1.79178
1.79402
1.79532
1.79596
1.79607
1.79528
1.79373
1.79141
1.78836
1.78457
1.78007
1.77486
1.76897
1.76241
1.75519
1.74735
1.73889
1.72985
1.72025
1.7101
1.69945
1.6883
1.6767
1.66466
1.65223
1.63942
1.62627
1.61281
1.59908
1.58509
1.5709
1.55654
1.54209
1.52781
1.514
1.50028
1.48656
1.47285
1.45918
1.44557
1.43203
1.4186
1.40527
1.39206
1.37896
1.36594
1.35296
1.33985
1.32658
1.31155
1.27694
0.00650849
0.0214622
0.0299559
0.0362685
0.041861
0.0473009
0.0528985
0.0588269
0.0651567
0.0718811
0.0789424
0.08626
0.0937494
0.101336
0.10896
0.116581
0.124176
0.131737
0.139273
0.1468
0.154335
0.161888
0.169452
0.176997
0.184476
0.191837
0.199059
0.206193
0.213416
0.221077
0.229667
0.239595
0.250475
0.262176
0.274727
0.288148
0.302407
0.317464
0.332898
0.347689
0.362786
0.378232
0.394098
0.410228
0.42685
0.44388
0.461318
0.479147
0.497367
0.515974
0.534966
0.554342
0.574103
0.59425
0.614781
0.635698
0.657
0.678688
0.70076
0.723215
0.746052
0.769267
0.792857
0.816819
0.841146
0.865834
0.890874
0.916259
0.94198
0.968027
0.99439
1.02106
1.04801
1.07524
1.10273
1.13047
1.15843
1.18661
1.21497
1.2435
1.27218
1.30099
1.3299
1.35888
1.38792
1.41699
1.44606
1.47509
1.50407
1.53297
1.56174
1.59037
1.6188
1.64703
1.675
1.70269
1.73007
1.75712
1.78382
1.81016
1.83611
1.86164
1.88671
1.9113
1.93538
1.95892
1.9819
2.00427
2.02603
2.04713
2.06755
2.08728
2.10627
2.12452
2.142
2.15868
2.17454
2.18956
2.20373
2.21703
2.22943
2.24093
2.2515
2.26114
2.26982
2.27756
2.28432
2.29012
2.29494
2.29877
2.30157
2.30322
2.30392
2.30387
2.30275
2.30064
2.29756
2.29354
2.28858
2.2827
2.27593
2.26827
2.25977
2.25043
2.24029
2.22937
2.2177
2.20532
2.19224
2.17851
2.16416
2.14922
2.13373
2.11773
2.10125
2.08434
2.06703
2.04937
2.0314
2.01316
1.99471
1.97611
1.95754
1.93917
1.92085
1.90254
1.88425
1.86599
1.84782
1.82975
1.81181
1.79403
1.77642
1.759
1.74178
1.72478
1.70794
1.69133
1.67359
1.64395
0.0104639
0.0299542
0.0404374
0.0480858
0.0547483
0.0611108
0.0675196
0.0741643
0.0811334
0.0884432
0.0960618
0.103932
0.111989
0.120174
0.128439
0.136754
0.145105
0.153498
0.161952
0.170498
0.179172
0.188012
0.197042
0.206278
0.215718
0.225363
0.235227
0.245364
0.255881
0.266935
0.278698
0.291267
0.304603
0.318685
0.333509
0.349052
0.365258
0.382038
0.399246
0.41671
0.434555
0.452803
0.471444
0.490459
0.509901
0.529776
0.550086
0.57083
0.592009
0.613624
0.635676
0.658166
0.681095
0.704465
0.728275
0.752529
0.777225
0.802363
0.827945
0.853967
0.88043
0.907329
0.934661
0.962422
0.990607
1.01921
1.04822
1.07763
1.10744
1.13762
1.16817
1.19908
1.23032
1.26189
1.29377
1.32593
1.35836
1.39104
1.42395
1.45705
1.49033
1.52377
1.55732
1.59098
1.6247
1.65846
1.69222
1.72595
1.75963
1.79322
1.82668
1.85998
1.89308
1.92596
1.95858
1.9909
2.02289
2.05453
2.08577
2.11659
2.14694
2.1768
2.20612
2.23487
2.26301
2.29051
2.31733
2.34345
2.36883
2.39343
2.41723
2.4402
2.46231
2.48353
2.50383
2.52319
2.54158
2.55899
2.57538
2.59074
2.60504
2.61828
2.63043
2.64147
2.6514
2.6602
2.66786
2.67439
2.67976
2.68397
2.68699
2.68869
2.68931
2.68891
2.68732
2.68458
2.68071
2.67573
2.66966
2.66251
2.65432
2.6451
2.63489
2.62371
2.6116
2.59857
2.58468
2.56994
2.55441
2.53811
2.52109
2.50338
2.48503
2.46609
2.4466
2.4266
2.40614
2.38526
2.36403
2.34249
2.32069
2.29873
2.2767
2.25474
2.2328
2.21086
2.18894
2.16708
2.1453
2.12365
2.10217
2.08089
2.05984
2.03907
2.01862
1.99857
1.97895
1.95991
1.9403
1.91337
0.0144316
0.037907
0.0502124
0.0590866
0.0666976
0.0738339
0.0808902
0.0880842
0.09553
0.103271
0.111303
0.119595
0.1281
0.136776
0.145587
0.154511
0.163543
0.172692
0.181983
0.191453
0.201146
0.211109
0.221384
0.232002
0.242987
0.254356
0.266127
0.278331
0.291017
0.304248
0.318088
0.332579
0.347735
0.363563
0.380062
0.397216
0.414993
0.433347
0.452226
0.471581
0.49141
0.511697
0.532427
0.553598
0.575225
0.59732
0.61989
0.642939
0.666472
0.69049
0.714999
0.74
0.765497
0.791492
0.817988
0.844986
0.872489
0.900496
0.929009
0.958027
0.987549
1.01757
1.0481
1.07911
1.11062
1.14261
1.17508
1.20801
1.24139
1.27523
1.30949
1.34417
1.37925
1.41471
1.45054
1.4867
1.52319
1.55998
1.59703
1.63433
1.67185
1.70955
1.74741
1.78539
1.82346
1.86159
1.89974
1.93788
1.97596
2.01396
2.05182
2.08952
2.12702
2.16427
2.20124
2.23788
2.27416
2.31004
2.34546
2.38039
2.4148
2.44863
2.48184
2.5144
2.54626
2.57738
2.60772
2.63725
2.66593
2.69372
2.72058
2.74649
2.7714
2.7953
2.81814
2.8399
2.86056
2.88008
2.89844
2.91561
2.93159
2.94634
2.95985
2.9721
2.98308
2.99278
3.00118
3.00828
3.01408
3.01855
3.02169
3.02335
3.02381
3.02303
3.02093
3.01754
3.01287
3.00694
2.99978
2.99141
2.98186
2.97116
2.95933
2.94641
2.93244
2.91744
2.90147
2.88455
2.86672
2.84804
2.82855
2.80828
2.7873
2.76564
2.74336
2.72051
2.69715
2.67332
2.64909
2.6245
2.59963
2.57454
2.54934
2.52412
2.49888
2.47363
2.4484
2.42323
2.39816
2.37324
2.34852
2.32404
2.29985
2.27604
2.25266
2.22986
2.20773
2.18645
2.16506
2.13887
0.0182149
0.0451276
0.0590692
0.0690602
0.0775267
0.0853441
0.0929519
0.100597
0.108418
0.116486
0.124823
0.133423
0.142262
0.151313
0.160553
0.169968
0.179557
0.189334
0.199323
0.209562
0.220094
0.230966
0.242224
0.253907
0.266046
0.278665
0.291782
0.305416
0.31959
0.334328
0.349657
0.365599
0.382167
0.39937
0.417211
0.435684
0.454777
0.474467
0.49473
0.515546
0.536898
0.55877
0.581153
0.604041
0.627439
0.651354
0.675794
0.700765
0.726273
0.752323
0.778921
0.806072
0.833779
0.862048
0.890883
0.920287
0.950262
0.980812
1.01194
1.04364
1.07592
1.10877
1.1422
1.1762
1.21076
1.24588
1.28156
1.31777
1.35452
1.39179
1.42956
1.46781
1.50654
1.54573
1.58534
1.62535
1.66575
1.70651
1.74759
1.78897
1.83061
1.87248
1.91455
1.95677
1.99912
2.04155
2.08402
2.12648
2.16891
2.21125
2.25347
2.29551
2.33733
2.37888
2.42012
2.461
2.50147
2.54148
2.58099
2.61994
2.65829
2.69599
2.73299
2.76925
2.80472
2.83935
2.8731
2.90593
2.9378
2.96866
2.99847
3.0272
3.05481
3.08126
3.10653
3.13057
3.15337
3.17489
3.1951
3.21399
3.23152
3.24768
3.26245
3.27581
3.28775
3.29824
3.3073
3.3149
3.32104
3.32571
3.32889
3.33046
3.33071
3.32952
3.32688
3.3228
3.31731
3.31042
3.30217
3.29258
3.28169
3.26951
3.2561
3.24148
3.22569
3.20878
3.19078
3.17174
3.1517
3.13071
3.10882
3.08608
3.06255
3.03827
3.01331
2.98771
2.96155
2.93487
2.90773
2.88021
2.85236
2.82425
2.79599
2.76763
2.73923
2.7108
2.68239
2.65403
2.62579
2.59771
2.56986
2.5423
2.5151
2.48834
2.46215
2.43668
2.41208
2.38854
2.36521
2.33849
0.0216795
0.0514969
0.0668634
0.0778407
0.0870651
0.0954819
0.103567
0.111591
0.119716
0.128036
0.136597
0.145416
0.15449
0.16381
0.173363
0.183147
0.193165
0.20343
0.213969
0.224815
0.236008
0.247592
0.259609
0.272098
0.285093
0.298618
0.312694
0.327334
0.342553
0.358363
0.374775
0.391801
0.409448
0.427723
0.44663
0.466167
0.48633
0.50711
0.528499
0.550485
0.573059
0.59621
0.619934
0.644226
0.669088
0.694527
0.720549
0.74716
0.774368
0.802181
0.830605
0.859648
0.889316
0.919616
0.950553
0.982132
1.01436
1.04724
1.08077
1.11496
1.14981
1.18532
1.22149
1.25831
1.29578
1.33389
1.37265
1.41203
1.45203
1.49263
1.53382
1.57558
1.61789
1.66073
1.70407
1.74789
1.79217
1.83686
1.88195
1.92738
1.97314
2.01918
2.06545
2.11192
2.15855
2.20528
2.25208
2.2989
2.34568
2.39238
2.43895
2.48533
2.53148
2.57733
2.62284
2.66794
2.71259
2.75672
2.80029
2.84323
2.8855
2.92704
2.9678
3.00772
3.04676
3.08486
3.12197
3.15805
3.19305
3.22692
3.25962
3.2911
3.32134
3.35028
3.3779
3.40415
3.42902
3.45246
3.47445
3.49496
3.51398
3.53147
3.54741
3.5618
3.57461
3.58584
3.59547
3.6035
3.60992
3.61472
3.61788
3.61933
3.6193
3.61766
3.61444
3.60964
3.6033
3.59544
3.58608
3.57526
3.56302
3.54938
3.53438
3.51807
3.50049
3.48168
3.46168
3.44055
3.41833
3.39507
3.37084
3.34567
3.31964
3.2928
3.2652
3.23692
3.20801
3.17853
3.14856
3.11815
3.08737
3.0563
3.02502
2.99361
2.96211
2.93057
2.89903
2.86755
2.83619
2.80502
2.7741
2.7435
2.71332
2.68367
2.65468
2.62654
2.59943
2.57353
2.54804
2.51994
0.0247311
0.0569415
0.0735075
0.0853245
0.0951983
0.104129
0.112621
0.120963
0.129335
0.137848
0.14657
0.155538
0.164768
0.174266
0.184034
0.194076
0.204401
0.215026
0.225975
0.237277
0.248969
0.261088
0.273673
0.286758
0.300377
0.314553
0.329306
0.344653
0.360602
0.377165
0.394349
0.412159
0.430602
0.449683
0.469404
0.489769
0.510776
0.532426
0.554717
0.577644
0.601206
0.625399
0.650223
0.675677
0.701766
0.728493
0.755868
0.783898
0.812591
0.841959
0.872008
0.90275
0.934192
0.966342
0.99921
1.0328
1.06713
1.10219
1.13799
1.17454
1.21184
1.24989
1.2887
1.32825
1.36854
1.40958
1.45135
1.49384
1.53704
1.58094
1.62551
1.67075
1.71662
1.76311
1.81018
1.85782
1.90597
1.95462
2.00373
2.05324
2.10314
2.15336
2.20387
2.25462
2.30555
2.35663
2.40778
2.45897
2.51013
2.56121
2.61215
2.66289
2.71337
2.76352
2.81329
2.86262
2.91144
2.95968
3.00729
3.05421
3.10037
3.14572
3.1902
3.23375
3.27631
3.31783
3.35825
3.39752
3.43559
3.4724
3.50791
3.54209
3.57487
3.60622
3.63611
3.66449
3.69134
3.71661
3.74029
3.76234
3.78274
3.80147
3.81851
3.83383
3.84744
3.8593
3.86943
3.87781
3.88442
3.8893
3.89237
3.89365
3.89326
3.89113
3.88728
3.88173
3.8745
3.86563
3.85514
3.84308
3.82947
3.81436
3.79779
3.7798
3.76043
3.73974
3.71778
3.69458
3.67022
3.64474
3.6182
3.59066
3.56217
3.53281
3.50264
3.47172
3.44011
3.40789
3.37513
3.34188
3.30823
3.27424
3.24
3.20558
3.17104
3.13644
3.10184
3.06728
3.03286
2.99862
2.96466
2.93107
2.89794
2.86541
2.83363
2.80279
2.7731
2.74472
2.71689
2.68693
0.0273131
0.0614365
0.0789717
0.0914729
0.101879
0.111234
0.12006
0.12866
0.137226
0.145884
0.154717
0.163779
0.173101
0.182704
0.192602
0.202808
0.213335
0.224202
0.235433
0.247054
0.259097
0.271594
0.284578
0.298082
0.312134
0.326757
0.341972
0.357795
0.374237
0.391309
0.409017
0.427369
0.446371
0.466028
0.486345
0.507326
0.528976
0.551299
0.574297
0.597973
0.622331
0.647373
0.673104
0.699528
0.726651
0.754481
0.783026
0.812299
0.842309
0.873068
0.904587
0.936879
0.969954
1.00382
1.0385
1.07399
1.1103
1.14745
1.18543
1.22426
1.26394
1.30447
1.34585
1.38808
1.43117
1.47509
1.51985
1.56543
1.61183
1.65902
1.70698
1.7557
1.80515
1.8553
1.90613
1.95759
2.00965
2.06228
2.11543
2.16906
2.22312
2.27756
2.33233
2.38737
2.44263
2.49806
2.55358
2.60915
2.66469
2.72014
2.77544
2.83052
2.88531
2.93974
2.99375
3.04726
3.1002
3.1525
3.2041
3.25493
3.30492
3.35401
3.40213
3.44922
3.49522
3.54006
3.58369
3.62605
3.66708
3.70673
3.74494
3.78168
3.8169
3.85054
3.88257
3.91296
3.94166
3.96865
3.99389
4.01735
4.03902
4.05887
4.07687
4.09302
4.10731
4.11971
4.13022
4.13884
4.14557
4.15041
4.15333
4.15436
4.15355
4.15087
4.14633
4.13997
4.13182
4.12191
4.11027
4.09695
4.08197
4.06539
4.04725
4.02759
4.00647
3.98393
3.96003
3.93482
3.90836
3.88071
3.85192
3.82206
3.79119
3.75938
3.7267
3.69321
3.65898
3.62409
3.5886
3.55259
3.51612
3.47929
3.44215
3.4048
3.3673
3.32971
3.2921
3.25454
3.2171
3.17986
3.14291
3.10636
3.07032
3.03493
3.00035
2.9668
2.93447
2.90352
2.87321
2.84137
0.0293967
0.0649943
0.0832766
0.0963052
0.107123
0.116807
0.125893
0.13469
0.143399
0.152157
0.161058
0.170166
0.179529
0.189177
0.199135
0.209422
0.220057
0.231062
0.242461
0.254279
0.266541
0.279278
0.292517
0.306285
0.32061
0.335513
0.351014
0.36713
0.383875
0.40126
0.419297
0.437994
0.457359
0.477401
0.498127
0.519545
0.541664
0.56449
0.588031
0.612297
0.637293
0.66303
0.689514
0.716755
0.744764
0.773551
0.803128
0.83351
0.864709
0.896742
0.92962
0.96336
0.997974
1.03348
1.06988
1.1072
1.14544
1.18461
1.22473
1.2658
1.30783
1.35082
1.39477
1.43968
1.48554
1.53236
1.58012
1.62882
1.67842
1.72893
1.78031
1.83254
1.88559
1.93944
1.99404
2.04936
2.10536
2.16199
2.2192
2.27695
2.33518
2.39384
2.45287
2.5122
2.57177
2.63152
2.69138
2.75129
2.81116
2.87093
2.93052
2.98987
3.04889
3.10751
3.16565
3.22323
3.28018
3.33643
3.39189
3.44649
3.50017
3.55286
3.60447
3.65495
3.70422
3.75222
3.79888
3.84416
3.88797
3.93028
3.97102
4.01015
4.04761
4.08336
4.11736
4.14957
4.17995
4.20847
4.23509
4.2598
4.28257
4.30337
4.32219
4.33901
4.35382
4.36662
4.37739
4.38613
4.39285
4.39755
4.40022
4.40089
4.39959
4.39627
4.39099
4.38377
4.37465
4.36367
4.35086
4.33626
4.31992
4.30188
4.28219
4.2609
4.23806
4.21372
4.18794
4.16078
4.13229
4.10254
4.07159
4.0395
4.00634
3.97218
3.93708
3.90112
3.86438
3.82691
3.7888
3.75013
3.71095
3.67137
3.63145
3.59126
3.5509
3.51042
3.46991
3.42942
3.38906
3.3489
3.30904
3.2696
3.2307
3.19249
3.15515
3.11888
3.08388
3.0503
3.01744
2.98345
0.0309796
0.0676569
0.0864774
0.0998845
0.110997
0.120917
0.130184
0.139116
0.147917
0.156729
0.165655
0.174769
0.184126
0.193768
0.203728
0.214031
0.224701
0.235761
0.247232
0.259139
0.271506
0.284359
0.297722
0.31162
0.326077
0.341115
0.356753
0.373011
0.389905
0.407449
0.425658
0.444542
0.464116
0.48439
0.505378
0.527089
0.549537
0.572733
0.596689
0.621418
0.646931
0.673244
0.700369
0.72832
0.757113
0.78676
0.817279
0.848687
0.881001
0.914239
0.948418
0.983555
1.01967
1.05677
1.09488
1.13401
1.17417
1.21538
1.25764
1.30097
1.34537
1.39084
1.43739
1.48502
1.53371
1.58347
1.63428
1.68613
1.73899
1.79286
1.8477
1.90348
1.96017
2.01774
2.07615
2.13534
2.19528
2.25592
2.31719
2.37904
2.44142
2.50425
2.56748
2.63104
2.69484
2.75883
2.82293
2.88705
2.95113
3.01508
3.07882
3.14227
3.20535
3.26797
3.33005
3.39151
3.45226
3.51222
3.57132
3.62947
3.6866
3.74263
3.79748
3.85109
3.90338
3.95427
4.00372
4.05164
4.09798
4.14267
4.18567
4.22692
4.26637
4.30397
4.33968
4.37346
4.40527
4.43508
4.46286
4.48859
4.51223
4.53377
4.5532
4.57049
4.58565
4.59865
4.60951
4.61821
4.62478
4.62921
4.63151
4.6317
4.62984
4.62579
4.61968
4.61155
4.60142
4.58934
4.57534
4.55947
4.54178
4.5223
4.5011
4.47823
4.45373
4.42767
4.4001
4.37107
4.34066
4.30893
4.27593
4.24173
4.20641
4.17002
4.13265
4.09437
4.05524
4.01535
3.97477
3.93357
3.89184
3.84965
3.80708
3.76422
3.72113
3.67791
3.63462
3.59135
3.54819
3.50523
3.46257
3.42034
3.37867
3.33772
3.29767
3.25872
3.22107
3.18485
3.1494
3.11317
0.0320843
0.0694981
0.0886614
0.102309
0.113605
0.123668
0.133041
0.142043
0.150881
0.159702
0.168614
0.177698
0.187017
0.196616
0.206531
0.216794
0.227431
0.238465
0.249921
0.261821
0.274189
0.287048
0.30042
0.314331
0.328801
0.343854
0.35951
0.37579
0.392714
0.4103
0.428563
0.447519
0.467185
0.487582
0.508726
0.530632
0.553317
0.576796
0.601086
0.626203
0.652163
0.678987
0.706695
0.735304
0.764834
0.795305
0.826738
0.859154
0.892574
0.927019
0.96251
0.999067
1.03671
1.07545
1.11531
1.15631
1.19846
1.24177
1.28626
1.33192
1.37878
1.42683
1.47607
1.5265
1.57812
1.6309
1.68484
1.73993
1.79613
1.85342
1.91178
1.97116
2.03153
2.09284
2.15505
2.21812
2.28198
2.34657
2.41184
2.47773
2.54416
2.61106
2.67836
2.74599
2.81386
2.8819
2.95003
3.01816
3.0862
3.15408
3.2217
3.28897
3.35581
3.42213
3.48783
3.55283
3.61705
3.68039
3.74277
3.8041
3.86431
3.92332
3.98104
4.03739
4.09232
4.14573
4.19757
4.24777
4.29625
4.34297
4.38786
4.43087
4.47195
4.51105
4.54813
4.58315
4.61607
4.64686
4.67549
4.70194
4.72617
4.74819
4.76796
4.78548
4.80075
4.81375
4.82449
4.83297
4.83921
4.84322
4.845
4.84462
4.84206
4.83719
4.83019
4.82109
4.80991
4.79671
4.78152
4.76439
4.74537
4.72451
4.70186
4.67748
4.65141
4.62373
4.59448
4.56372
4.53153
4.49795
4.46306
4.42693
4.38961
4.35118
4.31172
4.2713
4.22999
4.18786
4.145
4.10148
4.05738
4.01278
3.96777
3.92241
3.8768
3.83102
3.78515
3.73927
3.69349
3.64789
3.60259
3.55772
3.51341
3.46984
3.42717
3.38563
3.34538
3.30656
3.26858
3.23011
0.0327553
0.0705996
0.0899319
0.103694
0.115071
0.125189
0.134593
0.143603
0.152429
0.161221
0.170087
0.179111
0.188355
0.197867
0.20769
0.217857
0.228399
0.239341
0.250706
0.262519
0.274801
0.287576
0.300866
0.314695
0.329085
0.344061
0.359645
0.37586
0.392731
0.41028
0.428523
0.447481
0.467177
0.487643
0.508897
0.53096
0.553852
0.577595
0.602208
0.627712
0.654121
0.681461
0.709763
0.739052
0.769355
0.800697
0.833104
0.866602
0.901214
0.936966
0.97388
1.01198
1.05128
1.0918
1.13357
1.17659
1.22088
1.26647
1.31334
1.36152
1.411
1.4618
1.51389
1.56729
1.62197
1.67792
1.73512
1.79355
1.85318
1.91397
1.9759
2.03891
2.10297
2.16802
2.23401
2.30088
2.36857
2.43701
2.50614
2.57589
2.64617
2.71692
2.78804
2.85947
2.93112
3.00289
3.0747
3.14647
3.21809
3.28949
3.36056
3.43122
3.50136
3.5709
3.63975
3.7078
3.77498
3.84119
3.90633
3.97033
4.0331
4.09456
4.15462
4.21321
4.27025
4.32567
4.37939
4.43135
4.48149
4.52973
4.57604
4.62034
4.66259
4.70275
4.74076
4.7766
4.81022
4.8416
4.8707
4.89751
4.922
4.94416
4.96398
4.98144
4.99654
5.00928
5.01968
5.02773
5.03345
5.03686
5.03797
5.0369
5.0335
5.02773
5.01977
5.00965
4.9974
4.98307
4.96671
4.94836
4.92806
4.90588
4.88187
4.85609
4.82858
4.79941
4.76864
4.73632
4.70252
4.6673
4.63072
4.59286
4.55377
4.51354
4.47222
4.4299
4.38664
4.34253
4.29764
4.25205
4.20584
4.15909
4.11187
4.06428
4.01639
3.9683
3.92008
3.87183
3.82364
3.77562
3.72789
3.68057
3.63381
3.58778
3.54266
3.49864
3.45591
3.41461
3.37417
3.33356
0.0329678
0.0709826
0.090362
0.10414
0.115514
0.125615
0.134989
0.143955
0.152722
0.161439
0.170219
0.179148
0.188299
0.197717
0.207442
0.217506
0.22794
0.238771
0.250023
0.261719
0.273883
0.286539
0.299709
0.313418
0.327691
0.342553
0.358031
0.374149
0.390935
0.408413
0.426609
0.445554
0.465277
0.485804
0.507165
0.529386
0.552497
0.576521
0.601483
0.62741
0.654333
0.682285
0.711302
0.741413
0.772647
0.805036
0.83861
0.8734
0.909433
0.946734
0.985327
1.02523
1.06647
1.10906
1.15302
1.19836
1.2451
1.29325
1.3428
1.39377
1.44616
1.49996
1.55515
1.61173
1.66968
1.72898
1.78959
1.85149
1.91464
1.979
2.04452
2.11115
2.17885
2.24754
2.31718
2.38769
2.459
2.53105
2.60375
2.67704
2.75082
2.82502
2.89954
2.97431
3.04924
3.12422
3.19918
3.27401
3.34862
3.42292
3.49681
3.5702
3.64298
3.71508
3.78638
3.85679
3.92623
3.9946
4.06181
4.12776
4.19239
4.2556
4.3173
4.37743
4.43591
4.49266
4.54761
4.60069
4.65184
4.701
4.74811
4.79312
4.83597
4.87664
4.91506
4.95121
4.98504
5.01654
5.04567
5.07242
5.09677
5.1187
5.1382
5.15527
5.1699
5.18211
5.1919
5.19928
5.20428
5.20691
5.20721
5.20534
5.20095
5.19421
5.18523
5.17406
5.16074
5.1453
5.1278
5.10828
5.08681
5.06342
5.03817
5.01113
4.98235
4.95188
4.91978
4.88612
4.85095
4.81433
4.77632
4.737
4.69642
4.65466
4.61178
4.56786
4.52297
4.47719
4.43058
4.38323
4.33522
4.28662
4.23752
4.18801
4.13815
4.08804
4.03778
3.98744
3.93714
3.88698
3.83707
3.78756
3.73858
3.69031
3.64293
3.59663
3.55159
3.50796
3.46523
3.42263
0.0329
0.0708959
0.0902128
0.103939
0.11526
0.1253
0.134605
0.143492
0.152172
0.160795
0.16947
0.178284
0.187297
0.196563
0.206122
0.216011
0.226262
0.236905
0.247965
0.259469
0.271441
0.283906
0.296891
0.310424
0.324532
0.339246
0.354597
0.370616
0.387338
0.404797
0.423029
0.442064
0.461936
0.482676
0.504319
0.5269
0.550457
0.575026
0.600629
0.627292
0.655025
0.683896
0.713945
0.745212
0.777735
0.811548
0.846689
0.883197
0.9211
0.960415
1.00117
1.04337
1.08704
1.1322
1.17884
1.22699
1.27665
1.32781
1.38049
1.43467
1.49034
1.54749
1.60611
1.66615
1.7276
1.79042
1.85458
1.92003
1.98672
2.05461
2.12364
2.19375
2.26488
2.33696
2.40993
2.48371
2.55823
2.6334
2.70916
2.78542
2.86208
2.93907
3.01631
3.09368
3.17112
3.24852
3.32579
3.40284
3.47957
3.55589
3.63169
3.7069
3.7814
3.85511
3.92793
3.99977
4.07053
4.14012
4.20846
4.27546
4.34102
4.40508
4.46755
4.52835
4.58741
4.64465
4.70001
4.75341
4.8048
4.85412
4.90131
4.94633
4.98912
5.02964
5.06785
5.10371
5.1372
5.16828
5.19694
5.22316
5.24691
5.26819
5.28699
5.30331
5.31715
5.32853
5.33744
5.34392
5.34798
5.34966
5.34908
5.34621
5.34074
5.33297
5.32296
5.31074
5.29637
5.27988
5.26132
5.24074
5.21821
5.19376
5.16746
5.13937
5.10952
5.078
5.04484
5.0101
4.97385
4.93613
4.89702
4.85657
4.81484
4.77191
4.72783
4.68268
4.63652
4.58944
4.54149
4.49277
4.44334
4.39328
4.34267
4.2916
4.24015
4.1884
4.13645
4.08439
4.03231
3.98034
3.92858
3.87718
3.82628
3.77606
3.72668
3.67835
3.63122
3.58548
3.54066
3.49631
0.0326791
0.0705433
0.0896698
0.10324
0.114407
0.124291
0.133434
0.142155
0.150664
0.159109
0.167601
0.176224
0.185041
0.194108
0.203469
0.213164
0.223223
0.233676
0.24455
0.255874
0.267678
0.279993
0.292849
0.30628
0.320322
0.335008
0.350378
0.366467
0.383317
0.400969
0.419468
0.438869
0.459204
0.480507
0.502817
0.526169
0.550584
0.576066
0.602703
0.630559
0.659708
0.690183
0.722017
0.755247
0.789908
0.826032
0.863647
0.902769
0.943423
0.985638
1.02944
1.07485
1.12185
1.17044
1.22062
1.27239
1.32574
1.38065
1.43712
1.49512
1.55462
1.6156
1.67801
1.74183
1.80701
1.8735
1.94126
2.01022
2.08034
2.15155
2.22379
2.297
2.3711
2.44603
2.52172
2.59808
2.67505
2.75254
2.83047
2.90876
2.98733
3.06609
3.14496
3.22384
3.30265
3.38129
3.45969
3.53774
3.61536
3.69246
3.76893
3.8447
3.91967
3.99374
4.06683
4.13884
4.2097
4.27931
4.34758
4.41443
4.47977
4.54354
4.60565
4.66603
4.72461
4.78131
4.83607
4.88882
4.93951
4.98808
5.03448
5.07866
5.12057
5.16017
5.19743
5.23232
5.26479
5.29484
5.32243
5.34756
5.3702
5.39036
5.40801
5.42318
5.43586
5.44606
5.45381
5.45911
5.46202
5.46256
5.46098
5.45688
5.45029
5.44145
5.43038
5.41712
5.40174
5.38426
5.36474
5.34324
5.3198
5.29448
5.26733
5.2384
5.20775
5.17544
5.14151
5.10601
5.069
5.03054
4.99068
4.94947
4.90697
4.86325
4.81837
4.7724
4.72539
4.67742
4.62856
4.57887
4.52844
4.47734
4.42564
4.37344
4.3208
4.26781
4.21457
4.16116
4.1077
4.05428
4.00103
3.94808
3.89559
3.84372
3.79265
3.74256
3.69361
3.64601
3.59934
3.55351
0.0322274
0.069803
0.0886316
0.101967
0.112912
0.12258
0.131512
0.140028
0.148337
0.156587
0.164888
0.173324
0.181961
0.190854
0.200048
0.209585
0.2195
0.229828
0.2406
0.251852
0.263621
0.275946
0.288865
0.302419
0.316655
0.331628
0.347387
0.363971
0.381425
0.399797
0.419124
0.439417
0.460729
0.483149
0.506742
0.531569
0.557697
0.5852
0.614112
0.644485
0.676375
0.70982
0.74485
0.781492
0.819771
0.859705
0.901303
0.94457
0.989511
1.03612
1.0844
1.1343
1.18582
1.23893
1.29363
1.34988
1.40767
1.46695
1.52768
1.58983
1.65336
1.71821
1.78435
1.85171
1.92024
1.9899
2.06061
2.13233
2.205
2.27854
2.35291
2.42802
2.50383
2.58025
2.65723