/*--------------------------------*- C++ -*----------------------------------*\
  =========                 |
  \\      /  F ield         | OpenFOAM: The Open Source CFD Toolbox
   \\    /   O peration     | Website:  https://openfoam.org
    \\  /    A nd           | Version:  8
     \\/     M anipulation  |
\*---------------------------------------------------------------------------*/
FoamFile
{
    version     2.0;
    format      ascii;
    class       volScalarField;
    location    "270";
    object      nut;
}
// * * * * * * * * * * * * * * * * * * * * * * * * * * * * * * * * * * * * * //

dimensions      [0 2 -1 0 0 0 0];

internalField   nonuniform List<scalar> 
12225
(
4.14927e-05
3.93402e-05
3.74837e-05
3.54319e-05
3.37852e-05
3.24193e-05
3.15113e-05
3.09109e-05
3.09183e-05
3.10899e-05
3.15775e-05
3.20854e-05
3.31745e-05
3.37814e-05
3.51443e-05
3.56669e-05
3.75475e-05
3.97043e-05
0.000332208
0.000215181
0.000179269
0.00015768
0.000146209
0.000138211
0.000132759
0.000131633
0.000129527
0.000130045
0.000129065
0.000129419
0.00012868
0.00012853
0.000128112
0.000127365
0.000127467
0.000126273
0.000668669
0.000450666
0.000355755
0.000309835
0.000275286
0.000251098
0.000231718
0.000217272
0.000202698
0.000192114
0.000182639
0.000175208
0.00016939
0.000163695
0.000160313
0.000155589
0.000153844
0.000149849
0.000801681
0.000691661
0.000572555
0.000500054
0.000449388
0.000411979
0.000380793
0.000355997
0.000334025
0.00031478
0.000298397
0.000281637
0.000270362
0.000256095
0.000248249
0.000236171
0.000230612
0.000220446
0.000839623
0.000810186
0.00074071
0.000676407
0.00062394
0.000581378
0.000545883
0.000514554
0.000489533
0.000464435
0.000445886
0.000424081
0.000409964
0.000390837
0.000379949
0.000363081
0.000354894
0.000339459
0.000850344
0.000843276
0.000819554
0.000786523
0.000750781
0.000715879
0.000685766
0.000656132
0.000632558
0.000607526
0.000589012
0.000567267
0.000552307
0.000533132
0.000520843
0.000503719
0.000493777
0.000477425
0.000851579
0.000851018
0.0008433
0.000833475
0.000817116
0.000796949
0.000777875
0.000756738
0.000738906
0.000719155
0.000703544
0.000685638
0.000672143
0.000655952
0.000644359
0.000629518
0.000619939
0.000605089
0.000851581
0.000851815
0.000850038
0.000847461
0.000841403
0.000833751
0.000824825
0.000813436
0.000802814
0.000790477
0.000779722
0.000767552
0.000757441
0.000745803
0.000736583
0.000725503
0.000717546
0.00070595
0.000851673
0.00085153
0.000851016
0.000850343
0.000848875
0.00084617
0.000843027
0.000838306
0.000833404
0.000827364
0.000821222
0.000814776
0.000808441
0.000801517
0.000795314
0.000788349
0.000782557
0.000774996
0.000851754
0.000851386
0.000851043
0.000850633
0.000850247
0.000849368
0.000848404
0.000846781
0.000844956
0.000842532
0.000839926
0.000836803
0.000833801
0.000830158
0.000826985
0.000822931
0.000819943
0.000815312
0.000851784
0.000851358
0.000851012
0.000850613
0.000850329
0.000849905
0.000849526
0.000848929
0.000848303
0.000847394
0.000846467
0.000845179
0.000843992
0.000842355
0.000841001
0.000839038
0.000837649
0.000835372
0.000851788
0.000851359
0.000850995
0.000850605
0.000850292
0.000849938
0.000849646
0.00084928
0.000848955
0.000848505
0.000848099
0.000847508
0.000846999
0.000846246
0.000845643
0.000844724
0.000844061
0.000842981
0.000851786
0.000851363
0.000850985
0.000850604
0.000850269
0.000849926
0.00084963
0.000849313
0.000849042
0.000848729
0.000848462
0.000848126
0.000847844
0.000847466
0.000847157
0.000846727
0.000846388
0.000845904
0.000851783
0.000851364
0.000850978
0.000850602
0.000850256
0.000849916
0.000849607
0.0008493
0.000849022
0.000848741
0.000848488
0.000848224
0.000847989
0.000847735
0.000847508
0.000847258
0.000847033
0.000846783
0.000851781
0.000851364
0.000850972
0.000850598
0.000850246
0.000849908
0.000849591
0.000849286
0.000849
0.000848723
0.000848463
0.000848211
0.000847975
0.000847744
0.000847527
0.000847316
0.000847114
0.000846918
0.00085178
0.000851363
0.000850969
0.000850594
0.000850239
0.000849901
0.00084958
0.000849274
0.000848984
0.000848707
0.000848443
0.000848191
0.000847951
0.000847721
0.000847502
0.000847292
0.000847092
0.0008469
0.000851779
0.000851362
0.000850967
0.000850591
0.000850234
0.000849894
0.000849572
0.000849265
0.000848973
0.000848694
0.000848428
0.000848174
0.000847932
0.000847701
0.00084748
0.000847268
0.000847066
0.000846873
0.000851779
0.000851362
0.000850965
0.000850588
0.00085023
0.00084989
0.000849567
0.000849258
0.000848965
0.000848685
0.000848418
0.000848163
0.000847919
0.000847686
0.000847464
0.000847251
0.000847047
0.000846853
0.000851779
0.000851362
0.000850965
0.000850588
0.000850229
0.000849889
0.000849565
0.000849256
0.000848962
0.000848681
0.000848413
0.000848157
0.000847913
0.000847679
0.000847456
0.000847242
0.000847038
0.000846842
0.000851779
0.000851362
0.000850965
0.000850589
0.000850231
0.000849891
0.000849567
0.000849259
0.000848965
0.000848685
0.000848417
0.000848161
0.000847916
0.000847683
0.000847459
0.000847245
0.00084704
0.000846843
0.000851779
0.000851363
0.000850967
0.000850592
0.000850235
0.000849896
0.000849573
0.000849266
0.000848972
0.000848693
0.000848423
0.000848168
0.000847919
0.000847682
0.00084745
0.00084723
0.000847011
0.000846805
0.000851778
0.000851366
0.000850968
0.000850599
0.00085024
0.000849907
0.00084958
0.000849274
0.000848964
0.000848671
0.000848364
0.000848071
0.000847755
0.000847455
0.000847122
0.00084681
0.000846456
0.000846134
0.000851773
0.000851376
0.000850971
0.000850615
0.00085024
0.000849889
0.000849478
0.000849053
0.000848529
0.000847977
0.0008473
0.000846603
0.000845765
0.000844938
0.000843953
0.000843027
0.000841916
0.000840937
0.000851767
0.000851415
0.000850964
0.000850548
0.000849861
0.000848966
0.00084761
0.000845975
0.000843904
0.000841635
0.000838953
0.000836212
0.000833114
0.000830111
0.00082676
0.000823676
0.00082018
0.000817173
0.000851859
0.00085138
0.000850195
0.000848243
0.000844469
0.000839353
0.000832764
0.000825657
0.00081796
0.000810009
0.000801615
0.000793624
0.000785327
0.000777701
0.000769737
0.000762693
0.000755115
0.000748786
0.000852108
0.000847667
0.000839902
0.000827146
0.000808707
0.000789644
0.000769973
0.00075141
0.000733301
0.000716891
0.000700928
0.000686774
0.000672823
0.000660662
0.000648369
0.000637931
0.000626943
0.000618009
0.000843241
0.000822506
0.000775184
0.000726458
0.000684894
0.000649849
0.000618458
0.000592016
0.000568377
0.000548306
0.000529682
0.000513984
0.000498743
0.000486008
0.000473192
0.000462698
0.000451612
0.000442794
0.000795685
0.000668241
0.000570625
0.000509903
0.000465603
0.000431181
0.000404143
0.000382478
0.000364196
0.000349065
0.000335937
0.000325057
0.000314501
0.00030623
0.000297953
0.00029136
0.000284274
0.000278924
0.000501314
0.000348357
0.000292673
0.00025918
0.000236321
0.000221176
0.00021162
0.000203853
0.000198563
0.000195074
0.00019222
0.000190367
0.000188582
0.000187437
0.000186165
0.000185471
0.000184554
0.000184142
7.27385e-05
7.02256e-05
6.79542e-05
6.56138e-05
6.33828e-05
6.12762e-05
5.94944e-05
5.79552e-05
5.67109e-05
5.57033e-05
5.49776e-05
5.44182e-05
5.41097e-05
5.38815e-05
5.38979e-05
5.39332e-05
5.40919e-05
5.43246e-05
1.86624e-07
4.92274e-06
9.15652e-06
1.29145e-05
1.65802e-05
2.06964e-05
2.54547e-05
3.10647e-05
3.76028e-05
4.49901e-05
5.30498e-05
6.15789e-05
7.0394e-05
7.9353e-05
8.83592e-05
9.73569e-05
0.000106324
0.000115255
0.000124141
0.000132935
0.000141533
0.000149724
0.000157196
0.000163529
0.000168204
0.000170425
0.000169495
0.000164982
0.00015601
0.000141589
2.82551e-05
2.87969e-05
3.02965e-05
3.17492e-05
3.28767e-05
3.51479e-05
3.83267e-05
4.38696e-05
0.000211771
0.000211295
0.000212135
4.65116e-05
4.89275e-05
4.95457e-05
5.08787e-05
5.19068e-05
5.30645e-05
5.41624e-05
5.52842e-05
5.63908e-05
5.75004e-05
5.86039e-05
5.97056e-05
6.08034e-05
6.18983e-05
6.29898e-05
6.4078e-05
6.51629e-05
6.62442e-05
6.7322e-05
6.8396e-05
6.94661e-05
7.05319e-05
7.15933e-05
7.26498e-05
7.37013e-05
7.47472e-05
7.57872e-05
7.68209e-05
7.78479e-05
7.88675e-05
7.98796e-05
8.08833e-05
8.18784e-05
8.28641e-05
8.38402e-05
8.48058e-05
8.57607e-05
8.6704e-05
8.76354e-05
8.85542e-05
8.94598e-05
9.03517e-05
9.12293e-05
9.20919e-05
9.2939e-05
9.37698e-05
9.45838e-05
9.538e-05
9.61578e-05
9.69162e-05
9.76541e-05
9.83704e-05
9.9064e-05
9.97338e-05
0.000100379
0.000101001
0.000101601
0.000102185
0.000102745
0.000103283
0.000103799
0.000104292
0.000104763
0.000105211
0.000105636
0.000106037
0.000106415
0.000106768
0.000107097
0.000107401
0.00010768
0.000107935
0.000108164
0.000108368
0.000108546
0.000108699
0.000108826
0.000108927
0.000109002
0.000109051
0.000109074
0.000109071
0.000109042
0.000108987
0.000108907
0.0001088
0.000108664
0.000108513
0.000108328
0.000108117
0.000107875
0.000107614
0.000107334
0.000107025
0.000106693
0.000106337
0.000105958
0.000105557
0.000105133
0.000104687
0.00010422
0.000103732
0.000103224
0.000102696
0.000102149
0.000101585
0.000101002
0.000100403
9.97876e-05
9.91568e-05
9.85115e-05
9.78524e-05
9.71804e-05
9.64961e-05
9.58007e-05
9.50948e-05
9.43796e-05
9.36561e-05
9.29259e-05
9.21916e-05
9.14633e-05
9.08249e-05
9.03672e-05
8.99385e-05
8.95106e-05
8.90813e-05
8.86509e-05
8.822e-05
8.77891e-05
8.73587e-05
8.69289e-05
8.64996e-05
8.60699e-05
8.56375e-05
8.51972e-05
8.47388e-05
8.42322e-05
8.36133e-05
8.17497e-05
9.52562e-07
2.56268e-05
5.77995e-05
8.00928e-05
9.42612e-05
0.00010386
0.000111712
0.000119409
0.000127702
0.000136806
0.000146651
0.000157042
0.000167762
0.000178615
0.000189449
0.000200149
0.000210623
0.00022078
0.000230501
0.000239597
0.000247771
0.000254567
0.000259336
0.000261214
0.000259123
0.00025188
0.000238453
0.000218283
0.000191744
0.000160809
0.000129482
0.000133714
0.000142444
0.000153713
0.000168266
0.000188011
0.000211463
0.000242365
0.000287521
0.000272436
0.000271555
0.000258941
0.000267915
0.000274293
0.000281604
0.000289304
0.00029704
0.000305009
0.000313055
0.00032123
0.000329486
0.000337834
0.00034626
0.000354767
0.000363352
0.000372015
0.000380757
0.000389579
0.000398483
0.000407468
0.000416536
0.000425687
0.000434922
0.000444242
0.000453646
0.000463134
0.000472703
0.000482353
0.000492082
0.000501886
0.000511764
0.000521712
0.000531726
0.000541802
0.000551936
0.000562123
0.000572358
0.000582636
0.000592951
0.000603297
0.00061367
0.000624062
0.000634468
0.000644882
0.000655299
0.000665712
0.000676116
0.000686505
0.000696876
0.000707222
0.000717538
0.000727813
0.000738032
0.00074817
0.000758188
0.00076801
0.000777507
0.000786468
0.000794865
0.000803209
0.000811407
0.000819478
0.000827412
0.000835205
0.000842851
0.000850344
0.000857679
0.00086485
0.000871852
0.00087868
0.000885329
0.000891795
0.000898072
0.000904155
0.000910042
0.000915726
0.000921204
0.000926471
0.000931524
0.000936358
0.000940969
0.000945355
0.000949511
0.000953434
0.000957122
0.000960573
0.000963786
0.000966759
0.000969501
0.000972062
0.000974311
0.000976123
0.000977712
0.000979261
0.000980496
0.000981452
0.000982158
0.000982613
0.000982821
0.000982785
0.000982508
0.000981994
0.000981246
0.000980267
0.000979062
0.000977636
0.000975995
0.000974143
0.000972087
0.000969834
0.000967389
0.00096476
0.000961954
0.000958979
0.000955843
0.000952554
0.000949121
0.000945549
0.000941846
0.000938012
0.000934026
0.000929766
0.000924609
0.00091768
0.000910066
0.000902237
0.000894325
0.000886373
0.000878403
0.000870428
0.000862455
0.000854489
0.000846527
0.000838562
0.000830568
0.000822491
0.000814179
0.000805372
0.000794561
0.000764852
2.03087e-06
4.28349e-05
9.25323e-05
0.000130156
0.000157307
0.00017696
0.000191899
0.000204302
0.000215645
0.000226778
0.000238093
0.000249684
0.000261493
0.000273399
0.000285272
0.000296995
0.000308467
0.000319589
0.000330246
0.000340272
0.000349413
0.00035729
0.000363372
0.000366988
0.000367397
0.000363966
0.000356463
0.000345401
0.000332466
0.000320938
0.000315858
0.000328111
0.000346303
0.000368022
0.000392712
0.000419556
0.000446578
0.00047209
0.00049201
0.00049886
0.000508735
0.000519283
0.000535067
0.000550519
0.000566282
0.000582321
0.000598517
0.000614909
0.00063145
0.000648149
0.00066499
0.000681974
0.000699097
0.00071636
0.000733763
0.000751309
0.000768997
0.00078683
0.000804809
0.000822933
0.000841203
0.000859619
0.000878177
0.000896881
0.000915727
0.000934713
0.000953834
0.000973087
0.000992466
0.00101196
0.00103158
0.00105129
0.00107111
0.00109101
0.00111099
0.00113105
0.00115116
0.00117132
0.00119152
0.00121174
0.00123198
0.00125222
0.00127245
0.00129265
0.00131283
0.00133295
0.00135301
0.001373
0.00139289
0.00141268
0.00143234
0.00145184
0.00147116
0.00149024
0.00150904
0.00152748
0.00154548
0.00156298
0.0015801
0.00159699
0.00161361
0.00162995
0.001646
0.00166176
0.00167719
0.00169231
0.00170708
0.00172151
0.00173558
0.00174929
0.00176261
0.00177555
0.00178809
0.00180022
0.00181194
0.00182323
0.00183409
0.00184451
0.00185449
0.001864
0.00187306
0.00188164
0.00188975
0.00189737
0.00190451
0.00191115
0.0019173
0.00192296
0.00192814
0.00193292
0.00193714
0.00194047
0.00194332
0.00194599
0.00194806
0.00194958
0.00195058
0.00195107
0.00195105
0.00195054
0.00194953
0.00194804
0.00194606
0.00194362
0.00194071
0.00193736
0.00193356
0.00192933
0.00192469
0.00191964
0.0019142
0.00190838
0.0019022
0.00189568
0.00188882
0.00188166
0.0018742
0.00186646
0.00185846
0.00185019
0.00184163
0.00183263
0.00182262
0.00181096
0.00179835
0.0017853
0.00177201
0.00175859
0.00174508
0.00173151
0.0017179
0.00170428
0.00169063
0.00167694
0.00166317
0.0016492
0.00163475
0.00161909
0.00159948
0.0015558
3.26632e-06
5.59541e-05
0.000119172
0.000168355
0.000204529
0.000231314
0.000251847
0.000268554
0.000283161
0.000296781
0.000310044
0.000323237
0.000336439
0.000349622
0.000362713
0.00037564
0.000388345
0.000400789
0.000412946
0.000424782
0.000436233
0.00044718
0.000457424
0.000466686
0.000474645
0.000481044
0.00048586
0.000489548
0.000493281
0.000499046
0.000509304
0.000525856
0.000545868
0.00056806
0.000591781
0.0006163
0.000640634
0.000663785
0.000684635
0.000703945
0.00072412
0.000744936
0.00076715
0.000789577
0.000812211
0.000835054
0.000858088
0.000881315
0.000904728
0.000928327
0.000952109
0.000976074
0.00100022
0.00102456
0.00104908
0.00107379
0.00109869
0.00112379
0.00114908
0.00117457
0.00120024
0.00122611
0.00125217
0.00127841
0.00130484
0.00133144
0.0013582
0.00138513
0.00141221
0.00143944
0.0014668
0.00149428
0.00152187
0.00154956
0.00157733
0.00160517
0.00163307
0.00166101
0.00168897
0.00171694
0.0017449
0.00177283
0.00180072
0.00182855
0.0018563
0.00188395
0.00191147
0.00193886
0.00196609
0.00199312
0.00201994
0.00204651
0.0020728
0.00209876
0.00212434
0.00214951
0.00217419
0.00219844
0.00222229
0.00224578
0.0022689
0.00229163
0.00231395
0.00233585
0.00235731
0.00237832
0.00239885
0.0024189
0.00243845
0.00245749
0.002476
0.00249397
0.00251139
0.00252825
0.00254452
0.00256021
0.00257531
0.00258979
0.00260365
0.00261688
0.00262948
0.00264142
0.00265271
0.00266333
0.00267328
0.00268256
0.00269115
0.00269907
0.00270633
0.00271311
0.00271893
0.0027237
0.00272789
0.00273163
0.0027346
0.00273683
0.00273834
0.00273915
0.00273926
0.00273868
0.00273742
0.00273549
0.00273289
0.00272964
0.00272575
0.00272123
0.00271609
0.00271036
0.00270403
0.00269714
0.0026897
0.00268173
0.00267325
0.00266428
0.00265484
0.00264496
0.00263466
0.00262396
0.00261288
0.00260143
0.00258959
0.00257722
0.00256398
0.00254947
0.00253403
0.00251804
0.00250169
0.00248511
0.00246837
0.00245151
0.00243458
0.0024176
0.00240058
0.0023835
0.00236633
0.00234896
0.0023311
0.00231175
0.00228765
0.00224193
4.50643e-06
6.70505e-05
0.000141537
0.000200276
0.000244368
0.000277437
0.000302923
0.000323492
0.000341086
0.000357026
0.000372137
0.000386875
0.000401453
0.000415943
0.000430347
0.000444648
0.00045884
0.000472942
0.000486998
0.000501074
0.000515238
0.00052954
0.000543997
0.00055857
0.000573174
0.000587708
0.000602129
0.000616561
0.000631416
0.000647432
0.000665398
0.000685613
0.00070754
0.000730855
0.000755393
0.000780945
0.000807164
0.000833599
0.000860013
0.000885954
0.000912295
0.000939194
0.000966611
0.000994273
0.00102215
0.00105024
0.00107855
0.00110707
0.0011358
0.00116475
0.00119391
0.00122329
0.00125289
0.00128269
0.00131271
0.00134295
0.00137342
0.00140412
0.00143503
0.00146617
0.00149753
0.0015291
0.00156089
0.00159287
0.00162506
0.00165743
0.00168999
0.00172271
0.00175559
0.00178862
0.00182178
0.00185505
0.00188843
0.0019219
0.00195544
0.00198903
0.00202265
0.00205629
0.00208993
0.00212355
0.00215712
0.00219063
0.00222405
0.00225737
0.00229056
0.0023236
0.00235647
0.00238914
0.00242158
0.00245376
0.00248567
0.00251727
0.00254852
0.0025794
0.00260988
0.00263993
0.00266955
0.00269873
0.00272748
0.00275579
0.00278366
0.00281106
0.00283797
0.00286437
0.00289025
0.00291559
0.00294038
0.00296458
0.00298819
0.0030112
0.00303358
0.00305532
0.00307641
0.00309683
0.00311658
0.00313563
0.00315397
0.00317159
0.00318849
0.00320464
0.00322004
0.00323467
0.00324854
0.00326162
0.00327391
0.0032854
0.0032961
0.00330599
0.00331523
0.00332371
0.0033311
0.00333733
0.00334297
0.00334791
0.00335197
0.00335517
0.00335753
0.00335905
0.00335975
0.00335962
0.00335869
0.00335695
0.00335442
0.00335111
0.00334702
0.00334218
0.0033366
0.00333029
0.00332328
0.00331557
0.00330719
0.00329816
0.00328851
0.00327825
0.00326742
0.00325604
0.00324414
0.00323174
0.00321886
0.00320553
0.00319173
0.00317738
0.00316228
0.00314622
0.00312934
0.00311187
0.00309397
0.00307577
0.00305734
0.00303875
0.00302005
0.00300126
0.00298241
0.0029635
0.00294452
0.00292533
0.00290564
0.00288446
0.0028586
0.00281569
5.68934e-06
7.63863e-05
0.000160353
0.000227338
0.000278508
0.000317324
0.000347419
0.000371644
0.000392119
0.000410344
0.000427312
0.000443636
0.000459661
0.000475563
0.000491423
0.000507281
0.000523177
0.000539163
0.000555318
0.000571744
0.000588553
0.000605857
0.000623744
0.000642267
0.000661438
0.000681226
0.000701594
0.000722531
0.000744107
0.000766505
0.000789921
0.000814427
0.000839949
0.000866441
0.000893891
0.000922259
0.000951422
0.000981154
0.00101126
0.00104162
0.00107235
0.00110348
0.00113494
0.00116667
0.00119864
0.00123083
0.00126326
0.00129591
0.00132879
0.0013619
0.00139523
0.0014288
0.00146261
0.00149665
0.00153094
0.00156546
0.00160021
0.00163518
0.00167037
0.00170578
0.00174141
0.00177725
0.00181328
0.00184952
0.00188594
0.00192254
0.0019593
0.00199622
0.00203328
0.00207047
0.00210778
0.00214519
0.00218268
0.00222024
0.00225784
0.00229548
0.00233313
0.00237077
0.00240839
0.00244596
0.00248346
0.00252087
0.00255817
0.00259533
0.00263234
0.00266916
0.00270578
0.00274217
0.0027783
0.00281415
0.00284969
0.00288489
0.00291973
0.00295419
0.00298823
0.00302184
0.00305501
0.00308772
0.00311996
0.00315173
0.003183
0.00321376
0.00324398
0.00327365
0.00330274
0.00333124
0.00335913
0.00338639
0.003413
0.00343894
0.00346421
0.00348877
0.00351263
0.00353575
0.00355813
0.00357976
0.00360061
0.00362069
0.00363996
0.00365843
0.00367608
0.00369289
0.00370886
0.00372398
0.00373824
0.00375163
0.00376415
0.00377581
0.00378684
0.00379682
0.00380574
0.00381344
0.00382053
0.00382675
0.00383203
0.00383637
0.00383979
0.00384229
0.00384388
0.00384456
0.00384435
0.00384326
0.00384128
0.00383844
0.00383473
0.00383019
0.00382481
0.00381861
0.00381162
0.00380385
0.00379531
0.00378604
0.00377606
0.00376538
0.00375404
0.00374207
0.0037295
0.00371635
0.00370264
0.00368841
0.00367365
0.00365833
0.00364233
0.00362556
0.00360807
0.00358999
0.00357145
0.00355255
0.00353338
0.003514
0.00349447
0.00347483
0.00345513
0.00343538
0.00341559
0.00339567
0.00337537
0.00335376
0.00332805
0.00328959
6.77277e-06
8.41087e-05
0.000175984
0.000250126
0.000307662
0.000351799
0.000386271
0.000414053
0.0004374
0.000457954
0.000476858
0.000494862
0.000512438
0.000529863
0.000547299
0.000564842
0.000582569
0.000600554
0.000618887
0.00063767
0.000657017
0.00067704
0.000697836
0.000719477
0.000742
0.000765402
0.000789653
0.000814713
0.000840556
0.000867183
0.000894613
0.000922844
0.000951855
0.000981635
0.00101218
0.00104347
0.00107546
0.00110804
0.00114111
0.00117458
0.00120842
0.00124262
0.00127714
0.00131193
0.00134697
0.00138225
0.00141777
0.00145352
0.00148949
0.00152569
0.00156212
0.00159878
0.00163566
0.00167278
0.00171012
0.00174768
0.00178547
0.00182346
0.00186167
0.00190009
0.00193871
0.00197752
0.00201653
0.00205571
0.00209507
0.00213459
0.00217427
0.00221408
0.00225402
0.00229407
0.00233423
0.00237447
0.00241478
0.00245514
0.00249553
0.00253594
0.00257635
0.00261674
0.00265709
0.00269737
0.00273758
0.00277767
0.00281765
0.00285747
0.00289712
0.00293658
0.00297582
0.00301482
0.00305355
0.00309198
0.0031301
0.00316788
0.00320528
0.0032423
0.00327891
0.00331509
0.00335082
0.00338608
0.00342086
0.00345515
0.00348891
0.00352214
0.00355481
0.0035869
0.00361839
0.00364927
0.0036795
0.00370907
0.00373797
0.00376617
0.00379366
0.00382042
0.00384643
0.00387169
0.00389616
0.00391985
0.00394273
0.00396479
0.00398602
0.0040064
0.00402592
0.00404458
0.00406235
0.00407923
0.00409521
0.00411028
0.00412443
0.00413778
0.00415035
0.00416178
0.00417218
0.00418138
0.00418991
0.00419747
0.00420404
0.00420964
0.00421426
0.00421791
0.0042206
0.00422234
0.00422313
0.00422298
0.00422189
0.00421988
0.00421695
0.00421312
0.00420839
0.00420278
0.00419631
0.00418899
0.00418085
0.0041719
0.00416217
0.00415168
0.00414046
0.00412854
0.00411594
0.00410271
0.00408886
0.00407441
0.0040594
0.0040438
0.00402756
0.00401064
0.00399307
0.00397493
0.0039563
0.00393729
0.00391796
0.00389838
0.00387863
0.00385875
0.0038388
0.00381882
0.00379886
0.00377886
0.00375863
0.00373739
0.00371278
0.00367873
7.72709e-06
9.03394e-05
0.000188702
0.000269007
0.000332239
0.000381299
0.000419939
0.000451198
0.000477425
0.00050037
0.000521294
0.000541069
0.000560278
0.000579293
0.000598349
0.000617601
0.000637157
0.000657109
0.000677544
0.000698551
0.000720223
0.000742652
0.000765918
0.000790078
0.000815212
0.000841299
0.00086831
0.000896203
0.000924933
0.000954458
0.000984743
0.00101576
0.00104747
0.00107985
0.00111288
0.00114654
0.00118078
0.00121557
0.00125082
0.00128648
0.00132255
0.00135894
0.00139564
0.00143261
0.00146985
0.00150733
0.00154503
0.00158295
0.00162108
0.00165943
0.00169799
0.00173675
0.00177573
0.00181492
0.00185431
0.0018939
0.00193369
0.00197368
0.00201386
0.00205423
0.00209478
0.00213551
0.00217642
0.00221748
0.00225871
0.00230008
0.00234158
0.00238322
0.00242497
0.00246683
0.00250878
0.0025508
0.00259289
0.00263502
0.00267718
0.00271936
0.00276154
0.00280369
0.00284581
0.00288786
0.00292984
0.00297171
0.00301346
0.00305507
0.00309652
0.00313777
0.00317882
0.00321963
0.00326018
0.00330044
0.0033404
0.00338003
0.00341931
0.00345821
0.00349671
0.00353478
0.00357242
0.0036096
0.0036463
0.00368249
0.00371817
0.0037533
0.00378786
0.00382184
0.00385522
0.00388796
0.00392006
0.00395148
0.00398222
0.00401225
0.00404155
0.00407012
0.00409792
0.00412494
0.00415117
0.0041766
0.0042012
0.00422496
0.00424788
0.00426993
0.0042911
0.00431138
0.00433077
0.00434924
0.00436679
0.00438341
0.00439909
0.00441402
0.00442797
0.00444088
0.00445273
0.00446348
0.00447343
0.00448237
0.0044903
0.00449722
0.00450315
0.00450808
0.00451203
0.00451499
0.00451697
0.00451798
0.00451801
0.00451709
0.0045152
0.00451237
0.00450861
0.00450391
0.00449831
0.00449182
0.00448444
0.00447621
0.00446714
0.00445726
0.0044466
0.00443517
0.00442302
0.00441017
0.00439664
0.00438247
0.00436768
0.00435228
0.00433625
0.00431958
0.00430229
0.00428444
0.00426609
0.00424732
0.0042282
0.00420881
0.0041892
0.00416946
0.00414965
0.00412984
0.00411008
0.00409039
0.00407062
0.00405015
0.00402707
0.003997
8.53456e-06
9.51975e-05
0.000198741
0.000284273
0.000352542
0.00040613
0.000448712
0.000483349
0.00051244
0.000537811
0.000560813
0.000582416
0.000603295
0.000623909
0.000644556
0.00066544
0.000686707
0.000708494
0.00073085
0.000753843
0.000777542
0.000802012
0.000827301
0.000853436
0.000880481
0.000908465
0.000937377
0.00096718
0.00099783
0.00102928
0.00106148
0.00109438
0.00112796
0.00116216
0.00119696
0.00123233
0.00126823
0.00130462
0.00134144
0.00137864
0.00141613
0.0014539
0.00149197
0.00153033
0.00156896
0.00160781
0.00164686
0.0016861
0.00172552
0.00176513
0.00180493
0.00184491
0.00188506
0.0019254
0.00196592
0.00200661
0.00204748
0.00208852
0.00212974
0.00217112
0.00221267
0.00225438
0.00229625
0.00233827
0.00238044
0.00242275
0.00246519
0.00250776
0.00255045
0.00259324
0.00263613
0.00267911
0.00272216
0.00276527
0.00280842
0.00285161
0.00289481
0.002938
0.00298118
0.00302432
0.00306741
0.00311041
0.00315333
0.00319612
0.00323877
0.00328126
0.00332357
0.00336567
0.00340753
0.00344914
0.00349047
0.0035315
0.00357219
0.00361254
0.0036525
0.00369207
0.00373122
0.00376992
0.00380815
0.0038459
0.00388313
0.00391982
0.00395596
0.00399151
0.00402646
0.00406079
0.00409446
0.00412747
0.00415979
0.0041914
0.00422228
0.00425242
0.00428179
0.00431038
0.00433818
0.00436516
0.00439131
0.00441661
0.00444106
0.00446464
0.00448733
0.00450913
0.00453002
0.00454999
0.00456903
0.00458713
0.00460431
0.0046207
0.00463604
0.00465041
0.00466373
0.00467603
0.00468742
0.00469778
0.00470712
0.00471544
0.00472276
0.00472907
0.00473438
0.00473869
0.004742
0.00474433
0.00474566
0.004746
0.00474537
0.00474376
0.00474118
0.00473765
0.00473318
0.00472777
0.00472144
0.00471422
0.00470611
0.00469715
0.00468735
0.00467675
0.00466537
0.00465323
0.00464038
0.00462683
0.00461261
0.00459774
0.00458224
0.0045661
0.00454934
0.00453202
0.00451419
0.0044959
0.00447724
0.00445827
0.00443907
0.00441971
0.00440028
0.00438086
0.00436154
0.00434237
0.00432327
0.00430374
0.0042823
0.00425642
9.18621e-06
9.87996e-05
0.000206317
0.000296346
0.000368868
0.00042656
0.000472831
0.000510707
0.000542604
0.000570393
0.000595488
0.00061893
0.000641475
0.000663673
0.000685838
0.000708175
0.000730799
0.000753811
0.000777425
0.000801739
0.000826818
0.000852712
0.000879464
0.000907118
0.00093569
0.000965171
0.000995532
0.00102673
0.00105873
0.00109147
0.00112492
0.00115903
0.00119376
0.00122907
0.00126491
0.00130125
0.00133805
0.00137527
0.00141287
0.00145083
0.00148916
0.00152778
0.00156667
0.00160575
0.00164502
0.00168447
0.00172406
0.00176379
0.00180367
0.00184369
0.00188385
0.00192416
0.00196462
0.00200523
0.002046
0.00208691
0.00212798
0.00216921
0.00221059
0.00225213
0.00229383
0.00233569
0.0023777
0.00241987
0.0024622
0.00250468
0.00254731
0.00259008
0.002633
0.00267604
0.00271921
0.00276249
0.00280588
0.00284937
0.00289294
0.00293658
0.00298028
0.00302401
0.00306777
0.00311154
0.00315529
0.00319902
0.00324269
0.00328629
0.00332979
0.00337317
0.00341642
0.00345949
0.00350238
0.00354505
0.00358747
0.00362963
0.0036715
0.00371305
0.00375425
0.00379509
0.00383552
0.00387554
0.00391511
0.00395421
0.00399281
0.00403089
0.00406842
0.00410539
0.00414176
0.00417752
0.00421263
0.00424709
0.00428085
0.00431392
0.00434626
0.00437786
0.00440869
0.00443874
0.004468
0.00449644
0.00452405
0.00455082
0.00457673
0.00460177
0.00462592
0.00464917
0.00467152
0.00469295
0.00471345
0.00473301
0.00475168
0.00476944
0.00478622
0.00480206
0.00481688
0.00483073
0.00484363
0.00485545
0.00486624
0.00487602
0.0048848
0.00489257
0.00489934
0.00490511
0.00490988
0.00491364
0.00491641
0.00491818
0.00491896
0.00491874
0.00491754
0.00491536
0.00491221
0.0049081
0.00490304
0.00489704
0.00489014
0.00488233
0.00487365
0.00486412
0.00485376
0.0048426
0.00483067
0.00481801
0.00480462
0.00479055
0.00477581
0.00476042
0.0047444
0.0047278
0.00471066
0.00469304
0.00467501
0.00465663
0.004638
0.00461919
0.00460029
0.00458142
0.00456267
0.00454413
0.00452578
0.00450723
0.00448734
0.00446475
9.68133e-06
0.000101282
0.000211694
0.000305372
0.000381521
0.000442869
0.00049253
0.000533461
0.000568056
0.000598203
0.000625378
0.000650597
0.00067459
0.000697817
0.000720881
0.000744128
0.000767804
0.000792109
0.000817099
0.000842791
0.000869224
0.000896434
0.00092445
0.000953291
0.000982944
0.00101338
0.00104458
0.00107653
0.00110921
0.00114256
0.00117655
0.00121113
0.00124627
0.00128192
0.00131804
0.0013546
0.00139155
0.00142886
0.0014665
0.00150443
0.00154262
0.00158105
0.00161969
0.00165854
0.0016977
0.00173699
0.00177632
0.00181571
0.00185518
0.00189473
0.00193439
0.00197416
0.00201405
0.00205407
0.00209422
0.0021345
0.00217494
0.00221553
0.00225628
0.0022972
0.00233829
0.00237956
0.00242101
0.00246265
0.00250448
0.0025465
0.00258871
0.00263112
0.00267371
0.00271649
0.00275945
0.00280259
0.0028459
0.00288936
0.00293297
0.00297671
0.00302058
0.00306455
0.00310861
0.00315275
0.00319693
0.00324115
0.00328537
0.00332959
0.00337377
0.00341788
0.00346191
0.00350583
0.0035496
0.00359321
0.00363662
0.00367981
0.00372275
0.00376541
0.00380775
0.00384976
0.00389141
0.00393266
0.00397349
0.00401387
0.00405377
0.00409317
0.00413204
0.00417036
0.0042081
0.00424523
0.00428172
0.00431757
0.00435274
0.00438721
0.00442096
0.00445398
0.00448623
0.00451771
0.00454839
0.00457826
0.00460731
0.00463551
0.00466285
0.00468933
0.00471492
0.00473962
0.00476342
0.0047863
0.00480825
0.00482928
0.00484939
0.00486857
0.00488683
0.00490417
0.00492052
0.00493592
0.0049504
0.00496371
0.00497601
0.00498731
0.00499762
0.00500694
0.00501526
0.00502258
0.00502891
0.00503423
0.00503856
0.00504189
0.00504421
0.00504554
0.00504587
0.00504521
0.00504355
0.00504092
0.00503731
0.00503274
0.00502723
0.00502078
0.00501342
0.00500517
0.00499605
0.00498609
0.00497531
0.00496374
0.00495141
0.00493835
0.00492457
0.00491012
0.00489501
0.00487928
0.00486298
0.00484617
0.00482891
0.00481128
0.00479334
0.0047752
0.00475696
0.00473873
0.00472064
0.00470279
0.00468521
0.00466761
0.00464912
0.00462918
1.00271e-05
0.000102789
0.000215107
0.000311614
0.000390786
0.000455323
0.000508044
0.000551815
0.000588923
0.00062114
0.000649776
0.000676199
0.000701332
0.000725927
0.000750384
0.000774955
0.000799853
0.000825214
0.000851088
0.000877578
0.000904741
0.000932611
0.000961205
0.000990527
0.00102057
0.00105131
0.00108273
0.00111481
0.00114751
0.00118081
0.00121463
0.00124895
0.00128374
0.00131896
0.00135458
0.00139055
0.00142684
0.00146341
0.00150024
0.00153728
0.00157448
0.00161186
0.00164949
0.00168748
0.00172559
0.00176374
0.00180193
0.00184009
0.00187823
0.00191641
0.00195466