/*--------------------------------*- C++ -*----------------------------------*\
  =========                 |
  \\      /  F ield         | OpenFOAM: The Open Source CFD Toolbox
   \\    /   O peration     | Website:  https://openfoam.org
    \\  /    A nd           | Version:  8
     \\/     M anipulation  |
\*---------------------------------------------------------------------------*/
FoamFile
{
    version     2.0;
    format      ascii;
    class       volScalarField;
    location    "270";
    object      p;
}
// * * * * * * * * * * * * * * * * * * * * * * * * * * * * * * * * * * * * * //

dimensions      [0 2 -2 0 0 0 0];

internalField   nonuniform List<scalar> 
12225
(
-1.54007
-3.72867
-4.82877
-5.14956
-5.33101
-5.5003
-5.63214
-5.72773
-5.8049
-5.873
-5.93391
-5.98995
-6.0413
-6.0898
-6.136
-6.17607
-6.22601
-6.20841
-4.70349
-5.47199
-5.63252
-5.54041
-5.52806
-5.59616
-5.67402
-5.7402
-5.80036
-5.8585
-5.914
-5.96606
-6.01546
-6.06256
-6.10846
-6.15028
-6.19844
-6.23549
-5.10463
-5.08967
-5.21709
-5.29559
-5.39066
-5.51106
-5.61861
-5.70387
-5.77622
-5.84225
-5.90323
-5.95925
-6.01184
-6.06142
-6.10958
-6.15446
-6.20507
-6.24989
-4.98269
-4.92581
-5.16749
-5.32593
-5.42784
-5.53426
-5.63227
-5.71271
-5.78196
-5.8457
-5.90508
-5.96014
-6.01207
-6.06131
-6.10926
-6.15526
-6.20459
-6.25269
-4.97233
-4.99681
-5.22495
-5.36662
-5.4504
-5.54267
-5.63419
-5.71227
-5.78031
-5.84314
-5.90202
-5.95695
-6.00891
-6.05843
-6.10669
-6.15371
-6.20248
-6.25203
-5.03028
-5.07926
-5.25361
-5.37762
-5.45929
-5.54732
-5.63564
-5.7125
-5.77992
-5.84218
-5.90065
-5.95543
-6.00732
-6.05692
-6.10523
-6.15257
-6.20073
-6.24976
-5.09058
-5.13486
-5.27011
-5.38654
-5.47043
-5.55476
-5.63893
-5.71389
-5.78038
-5.84189
-5.89977
-5.95421
-6.00587
-6.05537
-6.10351
-6.15073
-6.19809
-6.24578
-5.14408
-5.18176
-5.29178
-5.40017
-5.48329
-5.56307
-5.64271
-5.71548
-5.78088
-5.84153
-5.89872
-5.95273
-6.00407
-6.05333
-6.10114
-6.14792
-6.19431
-6.24037
-5.19376
-5.22692
-5.3179
-5.41594
-5.49613
-5.57165
-5.64701
-5.71738
-5.78149
-5.84115
-5.89752
-5.95097
-6.00186
-6.0507
-6.09799
-6.14409
-6.18936
-6.2337
-5.24075
-5.27002
-5.34559
-5.43287
-5.50917
-5.58084
-5.65212
-5.71982
-5.78237
-5.84086
-5.89628
-5.94898
-5.99926
-6.0475
-6.0941
-6.13931
-6.18335
-6.22601
-5.28498
-5.31049
-5.37373
-5.45095
-5.52271
-5.59063
-5.65799
-5.72283
-5.78359
-5.84075
-5.89507
-5.94686
-5.99635
-6.04383
-6.08957
-6.13375
-6.17649
-6.21754
-5.32292
-5.34527
-5.3995
-5.46837
-5.53554
-5.60001
-5.66393
-5.72608
-5.78502
-5.84082
-5.894
-5.94483
-5.99346
-6.0401
-6.08494
-6.12808
-6.16962
-6.20927
-5.35793
-5.37766
-5.4245
-5.48591
-5.54844
-5.60949
-5.67015
-5.72964
-5.78668
-5.84103
-5.893
-5.94277
-5.99045
-6.03616
-6.08002
-6.12211
-6.16245
-6.20081
-5.39459
-5.41179
-5.45181
-5.50584
-5.56318
-5.62036
-5.67751
-5.73402
-5.7888
-5.8414
-5.89188
-5.94034
-5.98682
-6.03138
-6.07408
-6.11492
-6.15395
-6.19093
-5.43164
-5.44642
-5.48042
-5.52751
-5.57939
-5.63237
-5.6858
-5.7391
-5.7913
-5.84184
-5.89057
-5.93746
-5.98251
-6.02569
-6.06702
-6.10647
-6.14407
-6.17964
-5.4671
-5.47973
-5.50865
-5.54959
-5.59613
-5.6448
-5.69449
-5.74448
-5.79392
-5.84215
-5.88889
-5.934
-5.97739
-6.01901
-6.05881
-6.09677
-6.13288
-6.16705
-5.49807
-5.50894
-5.53388
-5.56979
-5.61163
-5.65629
-5.70246
-5.74929
-5.79597
-5.84183
-5.88647
-5.92967
-5.97129
-6.01124
-6.04945
-6.08588
-6.12052
-6.15331
-5.52019
-5.52983
-5.55207
-5.58449
-5.62288
-5.66443
-5.70778
-5.752
-5.79631
-5.84003
-5.88272
-5.92412
-5.96404
-6.00237
-6.03904
-6.07401
-6.10727
-6.13879
-5.52657
-5.53571
-5.5569
-5.58799
-5.62501
-5.66519
-5.70712
-5.74992
-5.79282
-5.83515
-5.87647
-5.91651
-5.9551
-5.99213
-6.02754
-6.06131
-6.09344
-6.12394
-5.51011
-5.51987
-5.54243
-5.57546
-5.61438
-5.65597
-5.6988
-5.74217
-5.78537
-5.82775
-5.86889
-5.90858
-5.94671
-5.98319
-6.01801
-6.05115
-6.08264
-6.11253
-5.48304
-5.49382
-5.51906
-5.55601
-5.5987
-5.64311
-5.68807
-5.73315
-5.77762
-5.82079
-5.86237
-5.90226
-5.94043
-5.97682
-6.01145
-6.04434
-6.07556
-6.10517
-5.44767
-5.45947
-5.48879
-5.53231
-5.5805
-5.62838
-5.67606
-5.72364
-5.77004
-5.81445
-5.8568
-5.89717
-5.93559
-5.97207
-6.00667
-6.03946
-6.07052
-6.09996
-5.40702
-5.4189
-5.45331
-5.50652
-5.56198
-5.61383
-5.66459
-5.71489
-5.76325
-5.80897
-5.85222
-5.89323
-5.93205
-5.96873
-6.0034
-6.03619
-6.06719
-6.09656
-5.36324
-5.3742
-5.41593
-5.48029
-5.54239
-5.59895
-5.65445
-5.70817
-5.75829
-5.80495
-5.84891
-5.89042
-5.92952
-5.96632
-6.001
-6.03374
-6.06468
-6.09395
-5.31626
-5.32175
-5.38437
-5.46251
-5.52437
-5.58251
-5.64353
-5.70175
-5.75413
-5.80203
-5.84689
-5.889
-5.92838
-5.96526
-5.99993
-6.03261
-6.06347
-6.09271
-5.27292
-5.23658
-5.34607
-5.45698
-5.51914
-5.57433
-5.63641
-5.69602
-5.7491
-5.79767
-5.84324
-5.88588
-5.9256
-5.96268
-5.99746
-6.0302
-6.0611
-6.09035
-5.28712
-5.12816
-5.25704
-5.41105
-5.50107
-5.57234
-5.64114
-5.70192
-5.75458
-5.80271
-5.84785
-5.88996
-5.9291
-5.96562
-5.99985
-6.0321
-6.06259
-6.09156
-5.41031
-5.22991
-5.24404
-5.31611
-5.4044
-5.50351
-5.59408
-5.66773
-5.72929
-5.78428
-5.83445
-5.88008
-5.92173
-5.96008
-5.99564
-6.02884
-6.06017
-6.09022
-5.11768
-5.70875
-5.79754
-5.67323
-5.61881
-5.64586
-5.69272
-5.73583
-5.77726
-5.81929
-5.86064
-5.89983
-5.93664
-5.97123
-6.00366
-6.03409
-6.06272
-6.09135
-2.12835
-3.89163
-4.89629
-5.19537
-5.34446
-5.48798
-5.6019
-5.68273
-5.74682
-5.80354
-5.85466
-5.90056
-5.94209
-5.98018
-6.01534
-6.04736
-6.0761
-6.0998
-6.95999
-6.96001
-6.96039
-6.96115
-6.96216
-6.96332
-6.96468
-6.96624
-6.96805
-6.97014
-6.97258
-6.97538
-6.9786
-6.98227
-6.98644
-6.99115
-6.99645
-7.00239
-7.00901
-7.01639
-7.02457
-7.03363
-7.04365
-7.05469
-7.06683
-7.08012
-7.09459
-7.11015
-7.1266
-7.14405
-7.16319
-7.18402
-7.20584
-7.2286
-7.25235
-7.27605
-7.29908
-7.3237
-7.35051
-7.37806
-7.40326
-7.42359
-7.44586
-7.47237
-7.49967
-7.52799
-7.55693
-7.58636
-7.61611
-7.64607
-7.6761
-7.70613
-7.73604
-7.76574
-7.79513
-7.82412
-7.85259
-7.88045
-7.90758
-7.93387
-7.95919
-7.98343
-8.00643
-8.02808
-8.04822
-8.0667
-8.08337
-8.09805
-8.11059
-8.12081
-8.12852
-8.13355
-8.13571
-8.13481
-8.13065
-8.12305
-8.1118
-8.0967
-8.07755
-8.05416
-8.02632
-7.99385
-7.95653
-7.9142
-7.86665
-7.81371
-7.75519
-7.69094
-7.62075
-7.5445
-7.46205
-7.37325
-7.27796
-7.17609
-7.06763
-6.95271
-6.8313
-6.70296
-6.56725
-6.42425
-6.27411
-6.11687
-5.95256
-5.7812
-5.60282
-5.41746
-5.22518
-5.02606
-4.8202
-4.60771
-4.3887
-4.16333
-3.93176
-3.69415
-3.4507
-3.20161
-2.9471
-2.68742
-2.42282
-2.15355
-1.8799
-1.60215
-1.32062
-1.03561
-0.747454
-0.456484
-0.163046
0.132523
0.42988
0.728674
1.02851
1.329
1.6298
1.93057
2.23096
2.5306
2.82913
3.12624
3.42158
3.71485
4.00575
4.294
4.57931
4.86142
5.1401
5.4151
5.68621
5.95324
6.21601
6.47436
6.72814
6.97722
7.2215
7.46088
7.69528
7.92464
8.14893
8.36812
8.58219
8.79115
8.99502
9.19385
9.38778
9.57685
9.76088
9.93975
10.1136
10.2825
10.4466
10.606
10.7606
10.9107
11.0563
11.1974
11.3345
11.4678
11.5986
11.7282
11.8678
12.0132
-6.95884
-6.95913
-6.95965
-6.96034
-6.96098
-6.96156
-6.96219
-6.96302
-6.96416
-6.96566
-6.96754
-6.96984
-6.97257
-6.97575
-6.97942
-6.98361
-6.98837
-6.99375
-6.99981
-7.00661
-7.01423
-7.02271
-7.03211
-7.04245
-7.05374
-7.06594
-7.07898
-7.09281
-7.1076
-7.12387
-7.14122
-7.15877
-7.17658
-7.19498
-7.21368
-7.23255
-7.25331
-7.27526
-7.29734
-7.32123
-7.34846
-7.38285
-7.41798
-7.44816
-7.47768
-7.50708
-7.53659
-7.56624
-7.59602
-7.62589
-7.65579
-7.68563
-7.71535
-7.74485
-7.77405
-7.80286
-7.83117
-7.85889
-7.88591
-7.91212
-7.93739
-7.96161
-7.98464
-8.00634
-8.02657
-8.04519
-8.06203
-8.07694
-8.08974
-8.10027
-8.10834
-8.11377
-8.11638
-8.11599
-8.11238
-8.10538
-8.09478
-8.08039
-8.062
-8.03942
-8.01244
-7.98088
-7.94454
-7.90324
-7.85677
-7.80498
-7.74766
-7.68467
-7.61583
-7.54098
-7.46001
-7.37277
-7.27911
-7.17892
-7.07207
-6.95838
-6.83764
-6.7099
-6.57531
-6.43384
-6.28537
-6.12985
-5.9673
-5.7977
-5.6211
-5.43753
-5.24704
-5.04972
-4.84565
-4.63493
-4.4177
-4.19408
-3.96424
-3.72834
-3.48658
-3.23914
-2.98626
-2.72816
-2.46508
-2.1973
-1.92508
-1.64872
-1.3685
-1.08474
-0.797767
-0.507911
-0.215513
0.0790881
0.375558
0.673551
0.972674
1.27253
1.57279
1.87311
2.17313
2.47249
2.77084
3.06784
3.36316
3.6565
3.94755
4.23603
4.52165
4.80414
5.08327
5.35879
5.6305
5.89818
6.16166
6.42078
6.67538
6.92533
7.17051
7.41084
7.64623
7.87662
8.10196
8.32223
8.5374
8.7475
8.95257
9.15262
9.34755
9.53714
9.72143
9.90063
10.0748
10.2441
10.4086
10.5684
10.7235
10.874
11.02
11.1618
11.2996
11.4338
11.5662
11.6974
11.8399
11.9801
-6.95498
-6.95594
-6.95731
-6.95845
-6.95916
-6.9596
-6.96001
-6.96058
-6.96145
-6.96268
-6.96432
-6.9664
-6.96894
-6.97196
-6.9755
-6.97959
-6.98427
-6.98959
-6.99562
-7.0024
-7.00999
-7.01843
-7.02778
-7.03804
-7.04921
-7.06129
-7.07427
-7.08815
-7.10297
-7.11878
-7.1354
-7.1526
-7.17052
-7.18942
-7.20932
-7.2302
-7.25241
-7.27579
-7.29963
-7.32373
-7.34877
-7.37621
-7.40495
-7.43339
-7.46204
-7.49089
-7.51992
-7.5491
-7.57839
-7.60775
-7.63711
-7.66643
-7.69562
-7.72461
-7.75332
-7.78166
-7.80954
-7.83686
-7.86351
-7.88939
-7.91437
-7.93834
-7.96117
-7.98271
-8.00283
-8.02139
-8.03822
-8.05316
-8.06606
-8.07673
-8.08501
-8.09071
-8.09365
-8.09363
-8.09048
-8.08399
-8.07397
-8.06022
-8.04254
-8.02074
-7.99461
-7.96396
-7.92861
-7.88835
-7.84301
-7.79239
-7.73633
-7.67465
-7.60718
-7.53378
-7.45429
-7.3686
-7.27655
-7.17805
-7.07298
-6.96117
-6.84241
-6.71668
-6.58404
-6.44451
-6.29803
-6.14455
-5.98407
-5.81658
-5.6421
-5.46067
-5.27235
-5.0772
-4.87531
-4.66677
-4.45172
-4.23028
-4.0026
-3.76885
-3.52922
-3.28389
-3.03308
-2.77702
-2.51595
-2.25012
-1.97982
-1.70531
-1.42689
-1.14487
-0.859563
-0.571304
-0.28043
0.0127215
0.307823
0.604527
0.902452
1.20121
1.50047
1.79988
2.09908
2.39771
2.69544
2.99191
3.2868
3.57979
3.87059
4.1589
4.44444
4.72695
5.00616
5.28185
5.55379
5.82179
6.08565
6.34521
6.60031
6.85081
7.0966
7.33758
7.57366
7.80477
8.03086
8.25189
8.46783
8.67866
8.88439
9.08504
9.28063
9.47117
9.6567
9.8372
10.0127
10.1833
10.349
10.5099
10.6661
10.8177
10.9649
11.1079
11.2471
11.3829
11.5173
11.6501
11.7949
11.9233
-6.94869
-6.95045
-6.95311
-6.95526
-6.9566
-6.95748
-6.9582
-6.95896
-6.9599
-6.96115
-6.96277
-6.96481
-6.96732
-6.97032
-6.97385
-6.97794
-6.98263
-6.98796
-6.99399
-7.00075
-7.0083
-7.01666
-7.02587
-7.03595
-7.0469
-7.05872
-7.07141
-7.08498
-7.09946
-7.11487
-7.13113
-7.14813
-7.1659
-7.18457
-7.20425
-7.22507
-7.24716
-7.2705
-7.29487
-7.31993
-7.34555
-7.37191
-7.39889
-7.42629
-7.45411
-7.48225
-7.51067
-7.53929
-7.56807
-7.59693
-7.62583
-7.6547
-7.68347
-7.71206
-7.7404
-7.7684
-7.79596
-7.82301
-7.84942
-7.87509
-7.8999
-7.92374
-7.94648
-7.96798
-7.98809
-8.00668
-8.02359
-8.03866
-8.05172
-8.0626
-8.07114
-8.07714
-8.08042
-8.08081
-8.0781
-8.0721
-8.06261
-8.04945
-8.0324
-8.01128
-7.98589
-7.95602
-7.92149
-7.88211
-7.83769
-7.78804
-7.73299
-7.67236
-7.60599
-7.53371
-7.45539
-7.37089
-7.28005
-7.18277
-7.07893
-6.96839
-6.85103
-6.7268
-6.59569
-6.45769
-6.31275
-6.16084
-6.00195
-5.83607
-5.66322
-5.48343
-5.29675
-5.10326
-4.90302
-4.69615
-4.48276
-4.26297
-4.03694
-3.80482
-3.5668
-3.32307
-3.07384
-2.81933
-2.55978
-2.29544
-2.02658
-1.75347
-1.47642
-1.19571
-0.91167
-0.624621
-0.334901
-0.0428443
0.251228
0.546957
0.843963
1.14189
1.44039
1.73912
2.0377
2.33579
2.63304
2.92911
3.22368
3.51642
3.80703
4.09522
4.38071
4.66323
4.94252
5.21834
5.49048
5.75873
6.0229
6.28281
6.53832
6.78927
7.03555
7.27706
7.51369
7.74538
7.97206
8.1937
8.41029
8.62179
8.82819
9.02949
9.22575
9.41703
9.60338
9.78476
9.96112
10.1325
10.2991
10.4608
10.6178
10.7702
10.9182
11.062
11.2021
11.3388
11.474
11.6065
11.7495
11.864
-6.94147
-6.94407
-6.94825
-6.95165
-6.95387
-6.95543
-6.95669
-6.95788
-6.95916
-6.96067
-6.96251
-6.96475
-6.96743
-6.97059
-6.97429
-6.97855
-6.9834
-6.9889
-6.99509
-7.002
-7.00968
-7.01816
-7.02746
-7.03762
-7.04864
-7.06053
-7.0733
-7.08695
-7.1015
-7.11695
-7.13328
-7.15045
-7.16844
-7.18729
-7.20707
-7.22783
-7.24963
-7.27247
-7.29628
-7.32095
-7.34633
-7.37234
-7.39885
-7.42575
-7.45304
-7.48066
-7.50857
-7.53672
-7.56504
-7.59349
-7.62199
-7.65048
-7.6789
-7.70718
-7.73522
-7.76295
-7.79029
-7.81712
-7.84336
-7.86888
-7.89359
-7.91735
-7.94004
-7.96153
-7.98166
-8.00031
-8.0173
-8.03249
-8.04571
-8.05678
-8.06554
-8.0718
-8.07537
-8.07608
-8.07372
-8.06811
-8.05905
-8.04634
-8.02979
-8.00919
-7.98434
-7.95506
-7.92115
-7.88241
-7.83866
-7.78972
-7.7354
-7.67553
-7.60995
-7.53849
-7.46101
-7.37736
-7.28741
-7.19102
-7.08809
-6.9785
-6.86215
-6.73898
-6.60895
-6.47202
-6.32816
-6.17735
-6.01955
-5.85477
-5.68304
-5.50437
-5.31882
-5.12645
-4.92735
-4.7216
-4.50933
-4.29066
-4.06574
-3.83473
-3.5978
-3.35514
-3.10696
-2.85348
-2.59494
-2.33159
-2.06369
-1.79151
-1.51535
-1.23551
-0.952288
-0.666024
-0.377052
-0.0856922
0.207725
0.502831
0.79925
1.09665
1.3947
1.69301
1.99122
2.28899
2.58597
2.88182
3.17622
3.46884
3.75938
4.04755
4.33305
4.61563
4.89503
5.171
5.44333
5.71181
5.97624
6.23646
6.4923
6.74363
6.99031
7.23223
7.46931
7.70148
7.92866
8.15083
8.36793
8.57995
8.78687
8.98869
9.18542
9.37714
9.5639
9.74567
9.92245
10.0943
10.2612
10.4234
10.5808
10.7336
10.882
11.0262
11.1665
11.3034
11.4383
11.5692
11.7088
11.8105
-6.93481
-6.93821
-6.9438
-6.94842
-6.95158
-6.9539
-6.9558
-6.95754
-6.9593
-6.96123
-6.96345
-6.96602
-6.96903
-6.97251
-6.97651
-6.98107
-6.98623
-6.99204
-6.99852
-7.00572
-7.01368
-7.02243
-7.032
-7.04242
-7.05369
-7.06584
-7.07887
-7.09278
-7.10756
-7.12322
-7.13972
-7.15707
-7.17525
-7.19429
-7.21419
-7.23499
-7.25668
-7.27923
-7.30262
-7.32678
-7.35163
-7.3771
-7.40309
-7.42953
-7.45636
-7.48355
-7.51104
-7.53879
-7.56674
-7.59484
-7.62302
-7.65122
-7.67937
-7.7074
-7.73523
-7.76278
-7.78996
-7.81666
-7.8428
-7.86825
-7.89291
-7.91666
-7.93936
-7.96089
-7.98109
-7.99983
-8.01695
-8.03228
-8.04567
-8.05694
-8.06591
-8.07241
-8.07625
-8.07724
-8.07519
-8.06991
-8.0612
-8.04886
-8.03269
-8.01249
-7.98808
-7.95924
-7.92579
-7.88753
-7.84428
-7.79585
-7.74206
-7.68274
-7.61771
-7.54683
-7.46994
-7.3869
-7.29757
-7.20182
-7.09955
-6.99063
-6.87498
-6.75254
-6.62324
-6.48705
-6.34393
-6.19385
-6.0368
-5.87277
-5.70179
-5.52387
-5.33908
-5.14747
-4.94913
-4.74414
-4.53263
-4.31471
-4.09054
-3.86026
-3.62406
-3.38212
-3.13465
-2.88187
-2.62401
-2.36131
-2.09405
-1.82249
-1.54692
-1.26764
-0.984968
-0.699222
-0.410738
-0.11983
0.173157
0.46785
0.763889
1.06096
1.35871
1.65676
1.95474
2.25231
2.54912
2.84484
3.13914
3.43169
3.7222
4.01036
4.29589
4.57852
4.858
5.13408
5.40655
5.6752
5.93982
6.20025
6.45633
6.70791
6.95487
7.1971
7.4345
7.667
7.89452
8.11703
8.33447
8.54683
8.75409
8.95623
9.15327
9.34525
9.53223
9.71422
9.89122
10.0633
10.2305
10.3928
10.5505
10.7035
10.8521
10.9964
11.1367
11.2733
11.4074
11.5361
11.6722
11.7626
-6.92979
-6.93392
-6.94065
-6.94632
-6.95035
-6.95341
-6.95598
-6.95831
-6.96061
-6.96302
-6.96568
-6.96868
-6.97209
-6.97596
-6.98035
-6.9853
-6.99084
-6.99702
-7.00388
-7.01145
-7.01977
-7.02886
-7.03877
-7.04951
-7.06109
-7.07353
-7.08682
-7.10098
-7.11599
-7.13183
-7.14851
-7.166
-7.1843
-7.20342
-7.22335
-7.24411
-7.26569
-7.28805
-7.31117
-7.335
-7.35947
-7.38454
-7.41013
-7.43619
-7.46267
-7.48952
-7.51669
-7.54414
-7.57181
-7.59966
-7.62761
-7.6556
-7.68358
-7.71146
-7.73916
-7.76661
-7.79371
-7.82037
-7.84648
-7.87194
-7.89663
-7.92043
-7.94321
-7.96483
-7.98514
-8.00402
-8.02128
-8.03679
-8.05036
-8.06183
-8.07102
-8.07774
-8.08182
-8.08307
-8.08128
-8.07627
-8.06784
-8.05579
-8.03992
-8.02004
-7.99593
-7.96742
-7.9343
-7.89638
-7.85347
-7.80539
-7.75196
-7.693
-7.62835
-7.55784
-7.48134
-7.3987
-7.30977
-7.21443
-7.11257
-7.00409
-6.8889
-6.76691
-6.63808
-6.50236
-6.35971
-6.2101
-6.05352
-5.88996
-5.71945
-5.54201
-5.3577
-5.16658
-4.96872
-4.76421
-4.55319
-4.33575
-4.11206
-3.88226
-3.64653
-3.40506
-3.15805
-2.90571
-2.64829
-2.38603
-2.11918
-1.84802
-1.57284
-1.29393
-1.01161
-0.726202
-0.438031
-0.147417
0.145285
0.439699
0.735495
1.03235
1.32991
1.62779
1.92562
2.22305
2.51976
2.81538
3.10961
3.40211
3.69259
3.98074
4.26628
4.54893
4.82846
5.1046
5.37715
5.64588
5.91062
6.17118
6.42741
6.67916
6.92629
7.16871
7.4063
7.639
7.86673
8.08943
8.30708
8.51964
8.72709
8.92942
9.12663
9.31877
9.50588
9.68799
9.86512
10.0373
10.2046
10.3671
10.5248
10.678
10.8265
10.9708
11.1109
11.2469
11.3799
11.5063
11.6392
11.7196
-6.92715
-6.93183
-6.93937
-6.94584
-6.9506
-6.95434
-6.95752
-6.96042
-6.96323
-6.96614
-6.96926
-6.9727
-6.97654
-6.98083
-6.98563
-6.99098
-6.99693
-7.0035
-7.01075
-7.0187
-7.02738
-7.03683
-7.04707
-7.05812
-7.06999
-7.08269
-7.09623
-7.11059
-7.12578
-7.14179
-7.1586
-7.1762
-7.19458
-7.21374
-7.23368
-7.25439
-7.27586
-7.29806
-7.32098
-7.34456
-7.36877
-7.39356
-7.41888
-7.44468
-7.47091
-7.49752
-7.52448
-7.55173
-7.57923
-7.60692
-7.63474
-7.66262
-7.69051
-7.71833
-7.746
-7.77344
-7.80055
-7.82724
-7.85341
-7.87894
-7.90372
-7.92763
-7.95053
-7.97229
-7.99276
-8.0118
-8.02924
-8.04493
-8.05869
-8.07036
-8.07975
-8.08669
-8.09098
-8.09243
-8.09086
-8.08607
-8.07785
-8.06602
-8.05036
-8.03069
-8.0068
-7.9785
-7.94559
-7.90787
-7.86517
-7.8173
-7.76407
-7.70532
-7.64088
-7.57059
-7.4943
-7.41186
-7.32315
-7.22803
-7.1264
-7.01815
-6.90319
-6.78146
-6.65288
-6.51741
-6.375
-6.22564
-6.06931
-5.90601
-5.73576
-5.55858
-5.37453
-5.18367
-4.98608
-4.78186
-4.5711
-4.35395
-4.13053
-3.90101
-3.66556
-3.42436
-3.17762
-2.92556
-2.66841
-2.4064
-2.1398
-1.86889
-1.59394
-1.31526
-1.03315
-0.747948
-0.459964
-0.169533
0.122982
0.417223
0.712865
1.00958
1.30703
1.60479
1.90252
2.19987
2.4965
2.79206
3.08623
3.37869
3.66913
3.95725
4.24278
4.52543
4.80495
5.08112
5.3537
5.62248
5.88728
6.14791
6.40421
6.65604
6.90327
7.14578
7.38348
7.61628
7.84411
8.06693
8.28468
8.49734
8.70488
8.9073
9.1046
9.29681
9.48398
9.66614
9.84332
10.0156
10.1829
10.3454
10.5032
10.6562
10.8047
10.9487
11.0884
11.2237
11.3554
11.4793
11.6095
11.6813
-6.9272
-6.93222
-6.94024
-6.94725
-6.95256
-6.95684
-6.96054
-6.96393
-6.96722
-6.97058
-6.97413
-6.97798
-6.98222
-6.9869
-6.99208
-6.99781
-7.00412
-7.01106
-7.01865
-7.02695
-7.03596
-7.04572
-7.05624
-7.06756
-7.07967
-7.09258
-7.10631
-7.12083
-7.13616
-7.15227
-7.16917
-7.18684
-7.20527
-7.22446
-7.2444
-7.26507
-7.28646
-7.30856
-7.33133
-7.35476
-7.37879
-7.4034
-7.42855
-7.45418
-7.48026
-7.50674
-7.53358
-7.56074
-7.58815
-7.61578
-7.64356
-7.67144
-7.69933
-7.72717
-7.75489
-7.78239
-7.80959
-7.83638
-7.86266
-7.88833
-7.91325
-7.93732
-7.96038
-7.98231
-8.00296
-8.02218
-8.03981
-8.05568
-8.06963
-8.08148
-8.09105
-8.09816
-8.10263
-8.10425
-8.10283
-8.09819
-8.09012
-8.07841
-8.06289
-8.04333
-8.01955
-7.99135
-7.95853
-7.92091
-7.87829
-7.83049
-7.77733
-7.71865
-7.65427
-7.58403
-7.5078
-7.42542
-7.33676
-7.2417
-7.14013
-7.03195
-6.91706
-6.7954
-6.66689
-6.5315
-6.38917
-6.23989
-6.08364
-5.92042
-5.75026
-5.57318
-5.38923
-5.19847
-5.00099
-4.79688
-4.58624
-4.36921
-4.14593
-3.91654
-3.68123
-3.44017
-3.19357
-2.94165
-2.68463
-2.42276
-2.1563
-1.88552
-1.6107
-1.33215
-1.05016
-0.765071
-0.477195
-0.186877
0.105519
0.399657
0.695203
0.991839
1.2892
1.58689
1.88455
2.18183
2.47839
2.77389
3.068
3.36041
3.6508
3.93888
4.22436
4.50698
4.78648
5.06263
5.33519
5.60397
5.86876
6.1294
6.38571
6.63755
6.88479
7.12733
7.36505
7.59788
7.82574
8.04858
8.26636
8.47904
8.68661
8.88904
9.08635
9.27857
9.46574
9.64789
9.82506
9.99727
10.1646
10.3271
10.4847
10.6377
10.786
10.9297
11.0688
11.2032
11.3334
11.455
11.5825
11.647
-6.92994
-6.9351
-6.94329
-6.95057
-6.95624
-6.9609
-6.96501
-6.9688
-6.97247
-6.9762
-6.98011
-6.98431
-6.98888
-6.99388
-6.99939
-7.00543
-7.01205
-7.01928
-7.02716
-7.03572
-7.04498
-7.05498
-7.06572
-7.07722
-7.0895
-7.10256
-7.11641
-7.13103
-7.14644
-7.16262
-7.17957
-7.19728
-7.21573
-7.23493
-7.25486
-7.2755
-7.29686
-7.31889
-7.34159
-7.36493
-7.38888
-7.41341
-7.43847
-7.46404
-7.49007
-7.51651
-7.54332
-7.57047
-7.5979
-7.62555
-7.65338
-7.68132
-7.7093
-7.73724
-7.76508
-7.79271
-7.82005
-7.847
-7.87345
-7.89928
-7.92439
-7.94863
-7.97188
-7.994
-8.01483
-8.03423
-8.05202
-8.06806
-8.08217
-8.09417
-8.10387
-8.11111
-8.11568
-8.1174
-8.11607
-8.1115
-8.10348
-8.09183
-8.07633
-8.05679
-8.03301
-8.0048
-7.97196
-7.93431
-7.89164
-7.8438
-7.79058
-7.73183
-7.66738
-7.59707
-7.52076
-7.4383
-7.34956
-7.25443
-7.15278
-7.04452
-6.92957
-6.80784
-6.67927
-6.54381
-6.40143
-6.2521
-6.0958
-5.93254
-5.76235
-5.58524
-5.40127
-5.2105
-5.01302
-4.80891
-4.59829
-4.38128
-4.15803
-3.92868
-3.6934
-3.45239
-3.20585
-2.95398
-2.69703
-2.43522
-2.16883
-1.89811
-1.62336
-1.34487
-1.06295
-0.777924
-0.490115
-0.199877
0.0924427
0.386509
0.681984
0.97855
1.27584
1.57346
1.87105
2.16826
2.46474
2.76017
3.05421
3.34655
3.63687
3.92488
4.21029
4.49284
4.77227
5.04834
5.32084
5.58955
5.85428
6.11485
6.37111
6.6229
6.87009
7.11258
7.35026
7.58305
7.81087
8.03367
8.2514
8.46404
8.67156
8.87395
9.07122
9.2634
9.45052
9.63261
9.80971
9.98186
10.1491
10.3115
10.469
10.6218
10.7698
10.9131
11.0516
11.185
11.3137
11.433
11.5582
11.6163
-6.93516
-6.94028
-6.94836
-6.95568
-6.9615
-6.9664
-6.97076
-6.97483
-6.97878
-6.98278
-6.98695
-6.99141
-6.99623
-7.00148
-7.0072
-7.01346
-7.02029
-7.02772
-7.03578
-7.04451
-7.05393
-7.06406
-7.07492
-7.08653
-7.0989
-7.11203
-7.12593
-7.14061
-7.15605
-7.17227
-7.18924
-7.20696
-7.22543
-7.24464
-7.26457
-7.28522
-7.30656
-7.32859
-7.35127
-7.3746
-7.39853
-7.42305
-7.44813
-7.47371
-7.49976
-7.52625
-7.55312
-7.58035
-7.60786
-7.63563
-7.66358
-7.69165
-7.71977
-7.74787
-7.77587
-7.80368
-7.8312
-7.85834
-7.88497
-7.911
-7.93629
-7.96072
-7.98414
-8.00642
-8.02741
-8.04695
-8.06488
-8.08103
-8.09524
-8.10732
-8.11709
-8.12438
-8.12898
-8.13071
-8.12937
-8.12477
-8.11671
-8.10499
-8.08941
-8.06978
-8.04589
-8.01756
-7.98458
-7.94678
-7.90396
-7.85594
-7.80255
-7.74362
-7.67898
-7.60848
-7.53198
-7.44933
-7.3604
-7.26508
-7.16325
-7.05481
-6.93967
-6.81777
-6.68904
-6.55343
-6.41089
-6.26141
-6.10498
-5.9416
-5.77128
-5.59407
-5.41
-5.21915
-5.0216
-4.81743
-4.60676
-4.38971
-4.16642
-3.93705
-3.70177
-3.46076
-3.21423
-2.96238
-2.70544
-2.44367
-2.1773
-1.90663
-1.63192
-1.35348
-1.07161
-0.786645
-0.498906
-0.208748
0.0835007
0.377492
0.67289
0.96938
1.2666
1.56413
1.86162
2.15874
2.45513
2.75046
3.0444
3.33662
3.62683
3.91471
4.2
4.48242
4.76173
5.03767
5.31004
5.57862
5.84323
6.10368
6.35981
6.61148
6.85857
7.10094
7.33851
7.57118
7.7989
8.02159
8.23922
8.45176
8.65918
8.86147
9.05865
9.25074
9.43776
9.61975
9.79675
9.96879
10.1359
10.2981
10.4555
10.608
10.7557
10.8985
11.0363
11.1686
11.2959
11.413
11.536
11.5888
-6.94249
-6.94742
-6.95518
-6.96231
-6.96812
-6.97309
-6.97757
-6.98177
-6.98588
-6.99003
-6.99436
-6.99896
-7.00391
-7.00928
-7.01512
-7.02147
-7.02839
-7.0359
-7.04403
-7.05282
-7.06229
-7.07247
-7.08337
-7.095
-7.10739
-7.12054
-7.13445
-7.14914
-7.16459
-7.1808
-7.19778
-7.21552
-7.234
-7.25322
-7.27318
-7.29385
-7.31522
-7.33728
-7.36001
-7.38338
-7.40737
-7.43195
-7.45708
-7.48273
-7.50887
-7.53547
-7.56248
-7.58984
-7.61751
-7.64544
-7.67356
-7.7018
-7.73011
-7.75839
-7.78658
-7.81458
-7.84228
-7.8696
-7.89641
-7.9226
-7.94804
-7.97261
-7.99616
-8.01855
-8.03963
-8.05924
-8.07722
-8.09341
-8.10762
-8.11969
-8.12943
-8.13665
-8.14118
-8.14281
-8.14135
-8.13661
-8.12838
-8.11649
-8.10071
-8.08087
-8.05675
-8.02818
-7.99496
-7.95689
-7.9138
-7.86551
-7.81184
-7.75262
-7.6877
-7.61691
-7.54013
-7.4572
-7.36799
-7.2724
-7.1703
-7.0616
-6.94622
-6.82408
-6.69512
-6.55928
-6.41654
-6.26686
-6.11024
-5.94668
-5.7762
-5.59884
-5.41465
-5.22368
-5.02602
-4.82176
-4.61102
-4.39391
-4.17058
-3.94118
-3.70588
-3.46487
-3.21835
-2.96652
-2.70961
-2.44787
-2.18156
-1.91093
-1.63629
-1.35791
-1.07612
-0.791233
-0.503592
-0.213526
0.0786294
0.372517
0.667809
0.964196
1.26129
1.55869
1.85605
2.15302
2.44927
2.74444
3.03823
3.33028
3.62032
3.90802
4.19313
4.47536
4.75447
5.03023
5.3024
5.57079
5.8352
6.09546
6.35141
6.60289
6.84979
7.09199
7.32938
7.56189
7.78943
8.01196
8.22943
8.44181
8.64908
8.85123
9.04828
9.24023
9.42712
9.60898
9.78585
9.95775
10.1247
10.2868
10.4439
10.5962
10.7435
10.8857
11.0228
11.154
11.2798
11.3949
11.5157
11.5643
-6.9515
-6.95615
-6.96341
-6.97019
-6.97581
-6.9807
-6.98515
-6.98935
-6.99346
-6.99763
-7.00198
-7.00658
-7.01153
-7.01688
-7.0227
-7.02903
-7.03592
-7.0434
-7.0515
-7.06026
-7.0697
-7.07984
-7.0907
-7.1023
-7.11465
-7.12777
-7.14165
-7.1563
-7.17173
-7.18793
-7.2049
-7.22264
-7.24114
-7.26039
-7.28038
-7.3011
-7.32254
-7.34466
-7.36746
-7.3909
-7.41497
-7.43964
-7.46488
-7.49067
-7.51696
-7.54371
-7.57089
-7.59843
-7.62628
-7.65439
-7.68269
-7.71111
-7.73958
-7.76804
-7.79638
-7.82453
-7.85238
-7.87982
-7.90674
-7.93302
-7.95854
-7.98315
-8.00673
-8.02912
-8.05018
-8.06975
-8.08766
-8.10375
-8.11784
-8.12977
-8.13934
-8.14637
-8.15069
-8.15208
-8.15037
-8.14536
-8.13685
-8.12465
-8.10856
-8.08839
-8.06393
-8.03501
-8.00143
-7.96301
-7.91956
-7.8709
-7.81686
-7.75728
-7.692
-7.62086
-7.54373
-7.46046
-7.37093
-7.27501
-7.1726
-7.0636
-6.94794
-6.82552
-6.6963
-6.56022
-6.41725
-6.26736
-6.11055
-5.94681
-5.77618
-5.59868
-5.41436
-5.22329
-5.02554
-4.82122
-4.61043
-4.39329
-4.16994
-3.94054
-3.70526
-3.46428
-3.21779
-2.96602
-2.70918
-2.44752
-2.18129
-1.91076
-1.63623
-1.35796
-1.0763
-0.791557
-0.504062
-0.214134
0.077866
0.371588
0.666717
0.962942
1.25984
1.55703
1.85418
2.15095
2.44698
2.74194
3.03548
3.3273
3.61709
3.90454
4.18939
4.47136
4.7502
5.02569
5.2976
5.56572
5.82986
6.08986
6.34554
6.59678
6.84342
7.08538
7.32253
7.55481
7.78212
8.00444
8.22169
8.43387
8.64094
8.8429
9.03977
9.23155
9.41828
9.59998
9.77669
9.94842
10.1152
10.2771
10.434
10.5859
10.7328
10.8745
11.0107
11.1409
11.2652
11.3784
11.4973
11.5423
-6.9618
-6.96607
-6.97272
-6.97902
-6.98432
-6.98896
-6.99321
-6.99725
-7.00121
-7.00524
-7.00943
-7.01389
-7.01869
-7.0239
-7.02957
-7.03576
-7.04251
-7.04986
-7.05784
-7.06648
-7.0758
-7.08583
-7.09659
-7.1081
-7.12037
-7.13341
-7.14722
-7.16183
-7.17722
-7.1934
-7.21036
-7.22811
-7.24662
-7.26589
-7.28592
-7.30668
-7.32817
-7.35036
-7.37323
-7.39677
-7.42095
-7.44575
-7.47113
-7.49707
-7.52352
-7.55044
-7.57777
-7.60547
-7.63347
-7.66171
-7.69013
-7.71866
-7.74723
-7.77577
-7.80418
-7.83237
-7.86024
-7.88769
-7.91459
-7.94082
-7.96626
-7.99078
-8.01423
-8.03647
-8.05735
-8.0767
-8.09438
-8.11021
-8.12403
-8.13565
-8.1449
-8.15159
-8.15555
-8.15657
-8.15447
-8.14906
-8.14014
-8.12752
-8.11101
-8.09041
-8.06553
-8.03618
-8.00217
-7.96332
-7.91944
-7.87036
-7.81592
-7.75593
-7.69025
-7.61874
-7.54124
-7.45762
-7.36775
-7.2715
-7.16878
-7.05949
-6.94355
-6.82088
-6.69142
-6.55512
-6.41194
-6.26187
-6.1049
-5.94103
-5.77028
-5.59268
-5.40829
-5.21716
-5.01938
-4.81505
-4.60426
-4.38715
-4.16385
-3.93452
-3.69932
-3.45844
-3.21207
-2.96042
-2.70373
-2.44222
-2.17616
-1.90581
-1.63146
-1.3534
-1.07195
-0.78744
-0.50016
-0.21046
0.0812904
0.374755
0.669649
0.965617
1.26222
1.55911
1.85596
2.15243
2.44816
2.7428
3.03602
3.32752
3.61696
3.90408
4.18858
4.4702
4.7487
5.02384
5.29539
5.56316
5.82696
6.08662
6.34197
6.59288
6.83921
7.08085
7.31771
7.54969
7.77673
7.99876
8.21576
8.42768
8.63452
8.83626
9.03292
9.22451
9.41104
9.59257
9.76909
9.94065
10.1072
10.2689
10.4255
10.5771
10.7236
10.8647
11.0001
11.1292
11.2522
11.3636
11.4805
11.5229
-6.973
-6.97686
-6.98284
-6.98854
-6.99338
-6.99761
-7.0015
-7.00518
-7.0088
-7.0125
-7.01638
-7.02054
-7.02505
-7.02998
-7.0354
-7.04134
-7.04785
-7.05498
-7.06274
-7.07118
-7.08033
-7.09019
-7.1008
-7.11218
-7.12432
-7.13725
-7.15097
-7.16549
-7.18081
-7.19693
-7.21385
-7.23156
-7.25006
-7.26934
-7.28937
-7.31016
-7.33168
-7.35393
-7.37688
-7.40052
-7.42481
-7.44972
-7.47521
-7.50124
-7.52777
-7.55476
-7.58215
-7.60988
-7.6379
-7.66614
-7.69453
-7.72301
-7.75151
-7.77996
-7.80827
-7.83632
-7.86404
-7.89129
-7.91797
-7.94396
-7.96913
-7.99335
-8.01647
-8.03836
-8.05887
-8.07784
-8.0951
-8.11051
-8.12388
-8.13505
-8.14383
-8.15005
-8.15352
-8.15405
-8.15146
-8.14555
-8.13613
-8.12302
-8.10601
-8.08492
-8.05955
-8.02973
-7.99525
-7.95594
-7.91161
-7.8621
-7.80724
-7.74685
-7.68079
-7.60891
-7.53107
-7.44712
-7.35693
-7.2604
-7.15741
-7.04788
-6.93171
-6.80884
-6.6792
-6.54274
-6.39944
-6.24926
-6.09221
-5.92828
-5.7575
-5.57989
-5.39552
-5.20443
-5.00672
-4.80247
-4.5918
-4.37482
-4.15167
-3.92251
-3.6875
-3.44682
-3.20068
-2.94927
-2.69283
-2.4316
-2.16582
-1.89576
-1.62171
-1.34398
-1.06287
-0.778679
-0.491731
-0.202393
0.0889876
0.382088
0.676638
0.972219
1.2684
1.56487
1.86132
2.15738
2.45268
2.7469
3.0397
3.33076
3.61977
3.90644
4.1905
4.47168
4.74973
5.02442
5.29554
5.56288
5.82625
6.08549
6.34043
6.59093
6.83688
7.07815
7.31464
7.54627
7.77298
7.99469
8.21138
8.42302
8.62959
8.83108
9.0275
9.21887
9.4052
9.58653
9.76287
9.93424
10.1006
10.2621
10.4184
10.5697
10.7157
10.8562
10.9909
11.1189
11.2406
11.3503
11.4653
11.5057
-6.9853
-6.98875
-6.99405
-6.99908
-7.00328
-7.00691
-7.01018
-7.01328
-7.01634
-7.0195
-7.02287
-7.02654
-7.03059
-7.0351
-7.04012
-7.04569
-7.05186
-7.05867
-7.06613
-7.07429
-7.08317
-7.09279
-7.10317
-7.11432
-7.12626
-7.139
-7.15255
-7.16691
-7.18208
-7.19806
-7.21484
-7.23243
-7.25083
-7.27003
-7.29001
-7.31076
-7.33225
-7.35448
-7.37741
-7.40102
-7.42526
-7.45012
-7.47553
-7.50146
-7.52787
-7.55471
-7.58192
-7.60946
-7.63725
-7.66524
-7.69338
-7.72158
-7.7498
-7.77793
-7.80589
-7.83357
-7.86088
-7.8877
-7.91392
-7.93942
-7.96409
-7.98778
-8.01036
-8.0317
-8.05164
-8.07004
-8.08672
-8.10154
-8.11432
-8.1249
-8.13309
-8.13872
-8.14161
-8.14157
-8.13841
-8.13194
-8.12198
-8.10833
-8.09081
-8.06921
-8.04335
-8.01305
-7.97812
-7.93837
-7.89363
-7.84373
-7.78851
-7.72779
-7.66141
-7.58924
-7.51111
-7.42691
-7.3365
-7.23976
-7.1366
-7.02692
-6.91063
-6.78767
-6.65796
-6.52147
-6.37815
-6.228
-6.07099
-5.90714
-5.73646
-5.55898
-5.37476
-5.18386
-4.98635
-4.78233
-4.57191
-4.35522
-4.13238
-3.90354
-3.66888
-3.42856
-3.1828
-2.93179
-2.67576
-2.41496
-2.14962
-1.88002
-1.60645
-1.3292
-1.04856
-0.764851
-0.478415
-0.189601
0.101251
0.393856
0.687902
0.982917
1.27852
1.57444
1.87034
2.16583