/*--------------------------------*- C++ -*----------------------------------*\
  =========                 |
  \\      /  F ield         | OpenFOAM: The Open Source CFD Toolbox
   \\    /   O peration     | Website:  https://openfoam.org
    \\  /    A nd           | Version:  8
     \\/     M anipulation  |
\*---------------------------------------------------------------------------*/
FoamFile
{
    version     2.0;
    format      ascii;
    class       surfaceScalarField;
    location    "270";
    object      phi;
}
// * * * * * * * * * * * * * * * * * * * * * * * * * * * * * * * * * * * * * //

dimensions      [0 3 -1 0 0 0 0];

internalField   nonuniform List<scalar> 
24170
(
3.12901e-06
5.94002e-08
3.04663e-06
8.2377e-08
2.97354e-06
7.30889e-08
2.90491e-06
6.86275e-08
2.84059e-06
6.43203e-08
2.78328e-06
5.73101e-08
2.73397e-06
4.93091e-08
2.69204e-06
4.1933e-08
2.65639e-06
3.56488e-08
2.62598e-06
3.04127e-08
2.59982e-06
2.6154e-08
2.57709e-06
2.27312e-08
2.55713e-06
1.99631e-08
2.53936e-06
1.7768e-08
2.52345e-06
1.5909e-08
2.50835e-06
1.50976e-08
2.49478e-06
1.35775e-08
1.78123e-08
2.47696e-06
3.45306e-06
2.35848e-08
3.45701e-06
7.84351e-08
3.45055e-06
7.95479e-08
3.43909e-06
8.0081e-08
3.42432e-06
7.90938e-08
3.40707e-06
7.45561e-08
3.38786e-06
6.85184e-08
3.36735e-06
6.24472e-08
3.34622e-06
5.67812e-08
3.32505e-06
5.15762e-08
3.30434e-06
4.6863e-08
3.28437e-06
4.27075e-08
3.26532e-06
3.90098e-08
3.24725e-06
3.58391e-08
3.23023e-06
3.29273e-08
3.21426e-06
3.10675e-08
3.19964e-06
2.81995e-08
2.93481e-08
3.1881e-06
3.66816e-06
1.7941e-08
3.6792e-06
6.73924e-08
3.68543e-06
7.33178e-08
3.68947e-06
7.60431e-08
3.69107e-06
7.74908e-08
3.69011e-06
7.55155e-08
3.68699e-06
7.16461e-08
3.68216e-06
6.72766e-08
3.67602e-06
6.29174e-08
3.6689e-06
5.86957e-08
3.66108e-06
5.46852e-08
3.6528e-06
5.09828e-08
3.64426e-06
4.75533e-08
3.63562e-06
4.44815e-08
3.62694e-06
4.16086e-08
3.61862e-06
3.93793e-08
3.61006e-06
3.67589e-08
3.57764e-08
3.60364e-06
3.92585e-06
1.74798e-08
3.93592e-06
5.73202e-08
3.94258e-06
6.66635e-08
3.94812e-06
7.04979e-08
3.95254e-06
7.30704e-08
3.9555e-06
7.25596e-08
3.95718e-06
6.99669e-08
3.95782e-06
6.66306e-08
3.95762e-06
6.31154e-08
3.95673e-06
5.95897e-08
3.95527e-06
5.61402e-08
3.95338e-06
5.28748e-08
3.95115e-06
4.97905e-08
3.94867e-06
4.69583e-08
3.94599e-06
4.42914e-08
3.94337e-06
4.19989e-08
3.94049e-06
3.96327e-08
3.78019e-08
3.93847e-06
4.2082e-06
1.64067e-08
4.21599e-06
4.9533e-08
4.22169e-06
6.09622e-08
4.2268e-06
6.53878e-08
4.23155e-06
6.83157e-08
4.23553e-06
6.85798e-08
4.23871e-06
6.67887e-08
4.2412e-06
6.41412e-08
4.24311e-06
6.12086e-08
4.24452e-06
5.81767e-08
4.24552e-06
5.51404e-08
4.24619e-06
5.22051e-08
4.24659e-06
4.93932e-08
4.24679e-06
4.67577e-08
4.24682e-06
4.4256e-08
4.24685e-06
4.19751e-08
4.24676e-06
3.97155e-08
3.76007e-08
4.24696e-06
4.51071e-06
1.47831e-08
4.51689e-06
4.33576e-08
4.52214e-06
5.57099e-08
4.52696e-06
6.05658e-08
4.53168e-06
6.35964e-08
4.53594e-06
6.43224e-08
4.53962e-06
6.31045e-08
4.54279e-06
6.09671e-08
4.54553e-06
5.84705e-08
4.5479e-06
5.58123e-08
4.54994e-06
5.30974e-08
4.55172e-06
5.04238e-08
4.55328e-06
4.78314e-08
4.55468e-06
4.53584e-08
4.55595e-06
4.29875e-08
4.55718e-06
4.07457e-08
4.55836e-06
3.8537e-08
3.6341e-08
4.55962e-06
4.83433e-06
1.31722e-08
4.83963e-06
3.80575e-08
4.84476e-06
5.05814e-08
4.84947e-06
5.58567e-08
4.85411e-06
5.89563e-08
4.85843e-06
5.9996e-08
4.86232e-06
5.92214e-08
4.86579e-06
5.74891e-08
4.86893e-06
5.53399e-08
4.87175e-06
5.29828e-08
4.87432e-06
5.05306e-08
4.87667e-06
4.80752e-08
4.87883e-06
4.56665e-08
4.88086e-06
4.3334e-08
4.88277e-06
4.10735e-08
4.88463e-06
3.88862e-08
4.88645e-06
3.67204e-08
3.45281e-08
4.88826e-06
5.18105e-06
1.17049e-08
5.18576e-06
3.33491e-08
5.19076e-06
4.55756e-08
5.19542e-06
5.12e-08
5.20001e-06
5.43635e-08
5.20438e-06
5.5628e-08
5.20839e-06
5.52148e-08
5.21205e-06
5.38259e-08
5.21542e-06
5.19725e-08
5.21852e-06
4.9874e-08
5.22141e-06
4.76487e-08
5.2241e-06
4.53849e-08
5.22663e-06
4.31371e-08
5.22903e-06
4.09321e-08
5.23133e-06
3.87724e-08
5.23356e-06
3.66515e-08
5.23575e-06
3.45384e-08
3.23947e-08
5.23788e-06
5.55269e-06
1.03487e-08
5.55689e-06
2.91506e-08
5.5617e-06
4.0765e-08
5.56632e-06
4.65863e-08
5.57089e-06
4.97923e-08
5.5753e-06
5.12145e-08
5.57941e-06
5.10999e-08
5.58323e-06
5.00137e-08
5.58677e-06
4.84244e-08
5.59009e-06
4.65592e-08
5.5932e-06
4.45395e-08
5.59613e-06
4.24521e-08
5.59892e-06
4.03532e-08
5.60158e-06
3.82703e-08
5.60414e-06
3.62103e-08
5.60662e-06
3.4168e-08
5.60904e-06
3.21239e-08
3.00585e-08
5.61137e-06
5.95104e-06
9.08484e-09
5.95479e-06
2.54012e-08
5.95937e-06
3.61887e-08
5.96392e-06
4.20263e-08
5.96848e-06
4.5239e-08
5.97293e-06
4.67623e-08
5.97714e-06
4.68876e-08
5.98109e-06
4.60676e-08
5.98479e-06
4.47182e-08
5.98829e-06
4.30683e-08
5.99158e-06
4.12414e-08
5.99471e-06
3.93224e-08
5.9977e-06
3.73679e-08
6.00056e-06
3.54078e-08
6.00332e-06
3.3453e-08
6.00598e-06
3.15028e-08
6.00856e-06
2.95466e-08
2.75815e-08
6.01104e-06
6.37798e-06
7.91297e-09
6.38135e-06
2.20361e-08
6.38568e-06
3.18574e-08
6.39017e-06
3.75365e-08
6.3947e-06
4.07093e-08
6.39918e-06
4.22836e-08
6.40347e-06
4.25904e-08
6.40754e-06
4.19983e-08
6.4114e-06
4.08664e-08
6.41505e-06
3.94167e-08
6.41852e-06
3.77733e-08
6.42182e-06
3.60186e-08
6.42498e-06
3.42089e-08
6.42801e-06
3.23764e-08
6.43093e-06
3.05362e-08
6.43374e-06
2.86927e-08
6.43644e-06
2.68429e-08
2.49962e-08
6.43902e-06
5.74176e-06
6.9862e-09
5.74435e-06
1.94517e-08
5.74782e-06
2.83858e-08
5.75155e-06
3.38055e-08
5.75535e-06
3.69028e-08
5.75915e-06
3.84867e-08
5.76284e-06
3.89027e-08
5.76637e-06
3.84714e-08
5.76973e-06
3.75057e-08
5.77293e-06
3.62145e-08
5.77598e-06
3.472e-08
5.7789e-06
3.31024e-08
5.78169e-06
3.14173e-08
5.78437e-06
2.96983e-08
5.78694e-06
2.79635e-08
5.78941e-06
2.6222e-08
5.79178e-06
2.44751e-08
2.27414e-08
5.79403e-06
6.99914e-06
6.00197e-09
7.00187e-06
1.67168e-08
7.00564e-06
2.4619e-08
7.00981e-06
2.96352e-08
7.01414e-06
3.25785e-08
7.01849e-06
3.41277e-08
7.02277e-06
3.46239e-08
7.0269e-06
3.43413e-08
7.03086e-06
3.35437e-08
7.03466e-06
3.24209e-08
7.03829e-06
3.10902e-08
7.04176e-06
2.96284e-08
7.04509e-06
2.80892e-08
7.04828e-06
2.65073e-08
7.05134e-06
2.49038e-08
7.05427e-06
2.32916e-08
7.05707e-06
2.16766e-08
2.00834e-08
7.05973e-06
8.53188e-06
4.96795e-09
8.53474e-06
1.3859e-08
8.53877e-06
2.05849e-08
8.54337e-06
2.50332e-08
8.54823e-06
2.77183e-08
8.55319e-06
2.91699e-08
8.55812e-06
2.97006e-08
8.56292e-06
2.9541e-08
8.56755e-06
2.89045e-08
8.57202e-06
2.79555e-08
8.57631e-06
2.68018e-08
8.58042e-06
2.55153e-08
8.58436e-06
2.41463e-08
8.58814e-06
2.27296e-08
8.59176e-06
2.12881e-08
8.59521e-06
1.98379e-08
8.5985e-06
1.8388e-08
1.69665e-08
8.60162e-06
1.04003e-05
3.89341e-09
1.04033e-05
1.08978e-08
1.04075e-05
1.63057e-08
1.04126e-05
2.00086e-08
1.0418e-05
2.23068e-08
1.04236e-05
2.35773e-08
1.04292e-05
2.40802e-08
1.04347e-05
2.40028e-08
1.04401e-05
2.35095e-08
1.04453e-05
2.27332e-08
1.04504e-05
2.17675e-08
1.04552e-05
2.06758e-08
1.04599e-05
1.95036e-08
1.04643e-05
1.82837e-08
1.04685e-05
1.70391e-08
1.04726e-05
1.57874e-08
1.04764e-05
1.45392e-08
1.33233e-08
1.04801e-05
1.26779e-05
2.78333e-09
1.2681e-05
7.8282e-09
1.26855e-05
1.17802e-08
1.26909e-05
1.45564e-08
1.26969e-05
1.63174e-08
1.27032e-05
1.73022e-08
1.27096e-05
1.77004e-08
1.27159e-05
1.76513e-08
1.27222e-05
1.72724e-08
1.27283e-05
1.66614e-08
1.27341e-05
1.58913e-08
1.27398e-05
1.50136e-08
1.27452e-05
1.40662e-08
1.27504e-05
1.3077e-08
1.27554e-05
1.20671e-08
1.27601e-05
1.10531e-08
1.27646e-05
1.00453e-08
9.07068e-09
1.27689e-05
1.54543e-05
1.62718e-09
1.54576e-05
4.60429e-09
1.54624e-05
6.9516e-09
1.54683e-05
8.61795e-09
1.5475e-05
9.6778e-09
1.5482e-05
1.02563e-08
1.54892e-05
1.04626e-08
1.54965e-05
1.03809e-08
1.55037e-05
1.00816e-08
1.55107e-05
9.62459e-09
1.55176e-05
9.05683e-09
1.55242e-05
8.41324e-09
1.55305e-05
7.72012e-09
1.55366e-05
6.99792e-09
1.55424e-05
6.2626e-09
1.55479e-05
5.52728e-09
1.55532e-05
4.8002e-09
4.10429e-09
1.55581e-05
1.88389e-05
3.85058e-10
1.88424e-05
1.10217e-09
1.88477e-05
1.64696e-09
1.88543e-05
2.00324e-09
1.88618e-05
2.19156e-09
1.88698e-05
2.23969e-09
1.88781e-05
2.16942e-09
1.88865e-05
2.00059e-09
1.88948e-05
1.75343e-09
1.8903e-05
1.44648e-09
1.89109e-05
1.09524e-09
1.89186e-05
7.12667e-10
1.89261e-05
3.09844e-10
1.89332e-05
-1.03688e-10
1.89399e-05
-5.19811e-10
1.89464e-05
-9.31162e-10
1.89525e-05
-1.3334e-09
-1.70922e-09
1.89583e-05
2.29648e-05
-1.04399e-09
2.29688e-05
-2.96697e-09
2.2975e-05
-4.55265e-09
2.29828e-05
-5.76326e-09
2.29916e-05
-6.61851e-09
2.30011e-05
-7.20465e-09
2.30108e-05
-7.60906e-09
2.30207e-05
-7.88628e-09
2.30305e-05
-8.07291e-09
2.30402e-05
-8.20003e-09
2.30496e-05
-8.29128e-09
2.30587e-05
-8.36098e-09
2.30674e-05
-8.41697e-09
2.30757e-05
-8.46346e-09
2.30837e-05
-8.50249e-09
2.30913e-05
-8.53412e-09
2.30985e-05
-8.55901e-09
-8.56662e-09
2.31054e-05
1.68118e-05
-2.1656e-09
1.6815e-05
-6.13534e-09
1.68198e-05
-9.37822e-09
1.68258e-05
-1.17546e-08
1.68325e-05
-1.33224e-08
1.68396e-05
-1.43096e-08
1.68469e-05
-1.49037e-08
1.68542e-05
-1.52084e-08
1.68615e-05
-1.53027e-08
1.68685e-05
-1.52583e-08
1.68754e-05
-1.51281e-08
1.68819e-05
-1.49447e-08
1.68883e-05
-1.47291e-08
1.68943e-05
-1.44948e-08
1.69e-05
-1.42507e-08
1.69055e-05
-1.40014e-08
1.69107e-05
-1.37502e-08
-1.34907e-08
1.69156e-05
1.46356e-05
-3.24282e-09
1.46387e-05
-9.21992e-09
1.46434e-05
-1.40885e-08
1.46492e-05
-1.74925e-08
1.46555e-05
-1.9602e-08
1.4662e-05
-2.08667e-08
1.46687e-05
-2.15567e-08
1.46753e-05
-2.1808e-08
1.46817e-05
-2.17515e-08
1.4688e-05
-2.15036e-08
1.4694e-05
-2.114e-08
1.46997e-05
-2.07052e-08
1.47052e-05
-2.02296e-08
1.47105e-05
-1.9734e-08
1.47155e-05
-1.92321e-08
1.47202e-05
-1.87311e-08
1.47247e-05
-1.82361e-08
-1.77432e-08
1.47289e-05
1.27411e-05
-4.25161e-09
1.27443e-05
-1.23455e-08
1.27491e-05
-1.89155e-08
1.27547e-05
-2.31335e-08
1.27607e-05
-2.55763e-08
1.27669e-05
-2.70177e-08
1.2773e-05
-2.77204e-08
1.2779e-05
-2.78338e-08
1.27849e-05
-2.75649e-08
1.27904e-05
-2.7079e-08
1.27958e-05
-2.64658e-08
1.28008e-05
-2.57767e-08
1.28057e-05
-2.50487e-08
1.28102e-05
-2.43076e-08
1.28146e-05
-2.35687e-08
1.28187e-05
-2.28405e-08
1.28226e-05
-2.21279e-08
-2.1428e-08
1.28262e-05
1.10918e-05
-5.09444e-09
1.1095e-05
-1.55655e-08
1.11001e-05
-2.40382e-08
1.11057e-05
-2.87534e-08
1.11115e-05
-3.13059e-08
1.11173e-05
-3.28245e-08
1.1123e-05
-3.34406e-08
1.11285e-05
-3.33364e-08
1.11337e-05
-3.28143e-08
1.11387e-05
-3.20718e-08
1.11435e-05
-3.12004e-08
1.11479e-05
-3.02569e-08
1.11522e-05
-2.92844e-08
1.11562e-05
-2.83115e-08
1.116e-05
-2.73534e-08
1.11636e-05
-2.64183e-08
1.11669e-05
-2.55103e-08
-2.4627e-08
1.11701e-05
9.65582e-06
-5.70067e-09
9.65924e-06
-1.89877e-08
9.66458e-06
-2.93804e-08
9.67008e-06
-3.42457e-08
9.67563e-06
-3.68584e-08
9.68118e-06
-3.83768e-08
9.68651e-06
-3.87654e-08
9.69152e-06
-3.83553e-08
9.69626e-06
-3.75495e-08
9.70073e-06
-3.65419e-08
9.70494e-06
-3.54116e-08
9.7089e-06
-3.42179e-08
9.71263e-06
-3.30085e-08
9.71613e-06
-3.18129e-08
9.71942e-06
-3.06462e-08
9.72252e-06
-2.95155e-08
9.72543e-06
-2.8423e-08
-2.73649e-08
9.72817e-06
8.40532e-06
-5.67035e-09
8.40963e-06
-2.33007e-08
8.41487e-06
-3.46123e-08
8.41989e-06
-3.92691e-08
8.42525e-06
-4.22188e-08
8.43065e-06
-4.37781e-08
8.43573e-06
-4.38434e-08
8.44043e-06
-4.30531e-08
8.44479e-06
-4.19097e-08
8.44883e-06
-4.05895e-08
8.45259e-06
-3.91621e-08
8.45606e-06
-3.76898e-08
8.45927e-06
-3.62222e-08
8.46224e-06
-3.47872e-08
8.465e-06
-3.33998e-08
8.46755e-06
-3.20663e-08
8.46991e-06
-3.07885e-08
-2.95631e-08
8.47211e-06
7.31455e-06
-2.93168e-09
7.32119e-06
-2.99422e-08
7.32674e-06
-4.01606e-08
7.33168e-06
-4.42166e-08
7.33708e-06
-4.76114e-08
7.34239e-06
-4.9093e-08
7.34726e-06
-4.87145e-08
7.35167e-06
-4.74585e-08
7.35564e-06
-4.58797e-08
7.35918e-06
-4.41368e-08
7.36233e-06
-4.23101e-08
7.36511e-06
-4.04723e-08
7.36757e-06
-3.8676e-08
7.36973e-06
-3.69454e-08
7.37162e-06
-3.52958e-08
7.37328e-06
-3.37299e-08
7.37474e-06
-3.22481e-08
-3.0841e-08
7.37602e-06
6.36245e-06
4.68504e-09
6.37189e-06
-3.93824e-08
6.37931e-06
-4.75852e-08
6.38595e-06
-5.0854e-08
6.39223e-06
-5.38892e-08
6.39754e-06
-5.44008e-08
6.40183e-06
-5.30034e-08
6.4053e-06
-5.09327e-08
6.40809e-06
-4.86727e-08
6.41027e-06
-4.63146e-08
6.4119e-06
-4.39353e-08
6.41304e-06
-4.16121e-08
6.41375e-06
-3.93957e-08
6.41411e-06
-3.73044e-08
6.41417e-06
-3.53519e-08
6.41397e-06
-3.35343e-08
6.41358e-06
-3.18527e-08
-3.02869e-08
6.41302e-06
5.5412e-06
8.94797e-09
5.55032e-06
-4.85042e-08
5.55834e-06
-5.56015e-08
5.56604e-06
-5.85532e-08
5.5725e-06
-6.03472e-08
5.57682e-06
-5.87213e-08
5.57905e-06
-5.52401e-08
5.57961e-06
-5.14869e-08
5.57885e-06
-4.79136e-08
5.57706e-06
-4.45237e-08
5.57446e-06
-4.13357e-08
5.57124e-06
-3.83925e-08
5.56754e-06
-3.57023e-08
5.5635e-06
-3.32568e-08
5.5592e-06
-3.10531e-08
5.55474e-06
-2.90742e-08
5.55021e-06
-2.73217e-08
-2.57467e-08
5.54567e-06
4.86004e-06
-2.3488e-08
4.86538e-06
-5.38456e-08
4.86524e-06
-5.54547e-08
4.86217e-06
-5.54816e-08
4.85699e-06
-5.51741e-08
4.84949e-06
-5.12175e-08
4.83979e-06
-4.55399e-08
4.82839e-06
-4.0089e-08
4.81581e-06
-3.53351e-08
4.80253e-06
-3.12397e-08
4.78892e-06
-2.77317e-08
4.77528e-06
-2.47487e-08
4.76179e-06
-2.22124e-08
4.74859e-06
-2.00519e-08
4.73575e-06
-1.8221e-08
4.72337e-06
-1.66866e-08
4.71153e-06
-1.54863e-08
-1.51399e-08
4.70092e-06
4.17919e-06
4.12534e-06
4.06989e-06
4.01441e-06
3.95923e-06
3.90801e-06
3.86247e-06
3.82239e-06
3.78705e-06
3.75581e-06
3.72808e-06
3.70333e-06
3.68112e-06
3.66107e-06
3.64284e-06
3.62616e-06
3.61067e-06
3.59553e-06
1.11966e-08
-1.12079e-08
2.43848e-08
-1.32057e-08
3.3703e-08
-9.33211e-09
3.77298e-08
-4.041e-09
3.64246e-08
1.29418e-09
3.04576e-08
5.95343e-09
2.08207e-08
9.62857e-09
8.44701e-09
1.23604e-08
-5.92484e-09
1.43657e-08
-2.18477e-08
1.5911e-08
-3.90271e-08
1.71756e-08
-5.73108e-08
1.82744e-08
-7.66068e-08
1.92936e-08
-9.68881e-08
2.02755e-08
-1.18127e-07
2.12375e-08
-1.40311e-07
2.21817e-08
-1.63415e-07
2.31029e-08
-1.87406e-07
2.39909e-08
-2.12241e-07
2.4834e-08
-2.37861e-07
2.5621e-08
-2.64207e-07
2.63442e-08
-2.91209e-07
2.70026e-08
-3.18815e-07
2.76031e-08
-3.46948e-07
2.8132e-08
-3.75568e-07
2.86164e-08
-4.04751e-07
2.91818e-08
-4.34558e-07
2.98033e-08
-4.64951e-07
3.03925e-08
-4.95985e-07
3.10306e-08
-5.27969e-07
3.19827e-08
-5.6087e-07
3.28973e-08
-5.94362e-07
3.34887e-08
-6.28427e-07
3.40613e-08
-6.63159e-07
3.47279e-08
-6.98529e-07
3.53656e-08
-7.34822e-07
3.62893e-08
-7.7469e-07
3.9863e-08
-8.22967e-07
4.82731e-08
-8.67924e-07
4.49513e-08
-9.05399e-07
3.74687e-08
-9.46399e-07
4.09951e-08
-9.8529e-07
3.88853e-08
-1.02515e-06
3.98533e-08
-1.06802e-06
4.28696e-08
-1.11132e-06
4.32907e-08
-1.15496e-06
4.36389e-08
-1.1988e-06
4.38342e-08
-1.24271e-06
4.39118e-08
-1.2866e-06
4.38869e-08
-1.3304e-06
4.37905e-08
-1.37404e-06
4.36402e-08
-1.4175e-06
4.34516e-08
-1.46074e-06
4.32337e-08
-1.50374e-06
4.2993e-08
-1.54647e-06
4.27328e-08
-1.58893e-06
4.24543e-08
-1.6311e-06
4.21582e-08
-1.67295e-06
4.18436e-08
-1.71446e-06
4.15096e-08
-1.75562e-06
4.11543e-08
-1.79641e-06
4.07763e-08
-1.83679e-06
4.03733e-08
-1.87673e-06
3.99438e-08
-1.91622e-06
3.94853e-08
-1.95522e-06
3.89962e-08
-1.9937e-06
3.84743e-08
-2.03162e-06
3.79183e-08
-2.06896e-06
3.73262e-08
-2.10565e-06
3.66971e-08
-2.14169e-06
3.60291e-08
-2.17701e-06
3.53219e-08
-2.21159e-06
3.45738e-08
-2.24538e-06
3.37846e-08
-2.27833e-06
3.29531e-08
-2.31042e-06
3.20794e-08
-2.34158e-06
3.11625e-08
-2.37179e-06
3.02032e-08
-2.401e-06
2.92008e-08
-2.42915e-06
2.81561e-08
-2.45623e-06
2.70686e-08
-2.48217e-06
2.59392e-08
-2.50694e-06
2.47676e-08
-2.5305e-06
2.35549e-08
-2.5528e-06
2.23003e-08
-2.57381e-06
2.10052e-08
-2.59348e-06
1.96686e-08
-2.61177e-06
1.82917e-08
-2.62864e-06
1.6873e-08
-2.64405e-06
1.54111e-08
-2.65794e-06
1.39031e-08
-2.67028e-06
1.23434e-08
-2.681e-06
1.07269e-08
-2.69004e-06
9.04698e-09
-2.69733e-06
7.29446e-09
-2.70278e-06
5.45308e-09
-2.70629e-06
3.50854e-09
-2.70777e-06
1.48521e-09
-2.70727e-06
-5.00371e-10
-2.70497e-06
-2.2963e-09
-2.70103e-06
-3.94132e-09
-2.69548e-06
-5.5559e-09
-2.68832e-06
-7.16512e-09
-2.67955e-06
-8.77937e-09
-2.66915e-06
-1.04005e-08
-2.65714e-06
-1.20269e-08
-2.64349e-06
-1.36578e-08
-2.6282e-06
-1.52904e-08
-2.61129e-06
-1.69241e-08
-2.59274e-06
-1.85558e-08
-2.57256e-06
-2.01851e-08
-2.55075e-06
-2.18089e-08
-2.52732e-06
-2.34265e-08
-2.50229e-06
-2.50346e-08
-2.47565e-06
-2.66325e-08
-2.44743e-06
-2.82169e-08
-2.41764e-06
-2.97868e-08
-2.38629e-06
-3.13389e-08
-2.35341e-06
-3.28721e-08
-2.31901e-06
-3.4383e-08
-2.28313e-06
-3.58701e-08
-2.24579e-06
-3.73302e-08
-2.20702e-06
-3.87612e-08
-2.16685e-06
-4.01602e-08
-2.12531e-06
-4.15248e-08
-2.08244e-06
-4.28529e-08
-2.03828e-06
-4.41425e-08
-1.99287e-06
-4.53923e-08
-1.94625e-06
-4.66005e-08
-1.89847e-06
-4.77657e-08
-1.84956e-06
-4.8887e-08
-1.79958e-06
-4.99606e-08
-1.74858e-06
-5.09758e-08
-1.69663e-06
-5.19386e-08
-1.64377e-06
-5.28518e-08
-1.59005e-06
-5.37121e-08
-1.53553e-06
-5.45133e-08
-1.48027e-06
-5.52577e-08
-1.42433e-06
-5.59437e-08
-1.36778e-06
-5.65733e-08
-1.31066e-06
-5.71439e-08
-1.25303e-06
-5.76556e-08
-1.19496e-06
-5.81076e-08
-1.13649e-06
-5.85001e-08
-1.07769e-06
-5.88343e-08
-1.01861e-06
-5.91113e-08
-9.59308e-07
-5.93328e-08
-8.9984e-07
-5.94998e-08
-8.40259e-07
-5.9614e-08
-7.80614e-07
-5.96765e-08
-7.20955e-07
-5.96895e-08
-6.6133e-07
-5.96543e-08
-6.01787e-07
-5.95732e-08
-5.42366e-07
-5.9448e-08
-4.83112e-07
-5.92811e-08
-4.24063e-07
-5.9074e-08
-3.65257e-07
-5.88296e-08
-3.0673e-07
-5.85479e-08
-2.48519e-07
-5.82316e-08
-1.90657e-07
-5.78792e-08
-1.33177e-07
-5.74949e-08
-7.61083e-08
-5.70809e-08
-1.95409e-08
-5.6577e-08
3.65121e-08
-5.60592e-08
9.20578e-08
-5.55491e-08
1.47022e-07
-5.49645e-08
2.01401e-07
-5.43757e-08
2.55234e-07
-5.38275e-08
3.08555e-07
-5.33129e-08
3.61387e-07
-5.28207e-08
4.13743e-07
-5.23418e-08
4.65618e-07
-5.18597e-08
5.1699e-07
-5.13528e-08
5.67789e-07
-5.07789e-08
6.17879e-07
-5.00663e-08
6.66976e-07
-4.90722e-08
7.14506e-07
-4.75016e-08
7.59213e-07
-4.46764e-08
7.98008e-07
-3.87648e-08
8.23232e-07
-2.51957e-08
1.86911e-08
8.04561e-07
8.8789e-09
-2.00964e-08
1.16539e-08
-1.59929e-08
9.77344e-09
-7.4596e-09
4.70937e-09
1.01574e-09
-2.88962e-09
8.88758e-09
-1.284e-08
1.58974e-08
-2.51011e-08
2.18852e-08
-3.95777e-08
2.6831e-08
-5.60691e-08
3.08537e-08
-7.43162e-08
3.41526e-08
-9.40809e-08
3.69376e-08
-1.15196e-07
3.93848e-08
-1.37528e-07
4.16238e-08
-1.60994e-07
4.37382e-08
-1.85534e-07
4.57765e-08
-2.11115e-07
4.77617e-08
-2.37714e-07
4.97014e-08
-2.65317e-07
5.1593e-08
-2.93913e-07
5.34296e-08
-3.23495e-07
5.52035e-08
-3.54063e-07
5.69108e-08
-3.85615e-07
5.85535e-08
-4.18156e-07
6.01428e-08
-4.51724e-07
6.16987e-08
-4.86366e-07
6.32561e-08
-5.22055e-07
6.48692e-08
-5.58821e-07
6.65666e-08
-5.96779e-07
6.83503e-08
-6.36004e-07
7.02527e-08
-6.76316e-07
7.22931e-08
-7.17764e-07
7.43433e-08
-7.60541e-07
7.62632e-08
-8.04588e-07
7.81057e-08
-8.49828e-07
7.99651e-08
-8.96406e-07
8.19402e-08
-9.44313e-07
8.41929e-08
-9.91365e-07
8.69112e-08
-1.03235e-06
8.92577e-08
-1.07555e-06
8.81493e-08
-1.12373e-06
8.56391e-08
-1.16785e-06
8.51115e-08
-1.21315e-06
8.41812e-08
-1.25744e-06
8.41417e-08
-1.29921e-06
8.46425e-08
-1.34052e-06
8.45959e-08
-1.38124e-06
8.43541e-08
-1.42143e-06
8.40269e-08
-1.46116e-06
8.36353e-08
-1.50047e-06
8.31895e-08
-1.53938e-06
8.26979e-08
-1.57791e-06
8.21675e-08
-1.61606e-06
8.1604e-08
-1.65384e-06
8.10112e-08
-1.69124e-06
8.03909e-08
-1.72826e-06
7.97432e-08
-1.76487e-06
7.90672e-08
-1.80108e-06
7.83606e-08
-1.83686e-06
7.76208e-08
-1.8722e-06
7.68443e-08
-1.90708e-06
7.60277e-08
-1.94147e-06
7.51674e-08
-1.97536e-06
7.42595e-08
-2.00872e-06
7.33007e-08
-2.04153e-06
7.22873e-08
-2.07375e-06
7.1216e-08
-2.10536e-06
7.00837e-08
-2.13633e-06
6.88877e-08
-2.16664e-06
6.76254e-08
-2.19623e-06
6.62945e-08
-2.2251e-06
6.48931e-08
-2.2532e-06
6.34195e-08
-2.2805e-06
6.18722e-08
-2.30697e-06
6.02502e-08
-2.33257e-06
5.85523e-08
-2.35727e-06
5.67782e-08
-2.38104e-06
5.49274e-08
-2.40384e-06
5.30001e-08
-2.42564e-06
5.09962e-08
-2.4464e-06
4.89164e-08
-2.46609e-06
4.67607e-08
-2.48469e-06
4.453e-08
-2.50215e-06
4.2225e-08
-2.51844e-06
3.98465e-08
-2.53354e-06
3.73951e-08
-2.5474e-06
3.4872e-08
-2.56001e-06
3.22781e-08
-2.57134e-06
2.96145e-08
-2.58134e-06
2.68814e-08
-2.59001e-06
2.40798e-08
-2.59731e-06
2.12085e-08
-2.60323e-06
1.82678e-08
-2.60776e-06
1.52584e-08
-2.61089e-06
1.21824e-08
-2.61264e-06
9.04411e-09
-2.61304e-06
5.85295e-09
-2.61216e-06
2.63573e-09
-2.61011e-06
-5.62181e-10
-2.6069e-06
-3.71371e-09
-2.60235e-06
-6.8472e-09
-2.5963e-06
-9.99463e-09
-2.5887e-06
-1.31588e-08
-2.57953e-06
-1.63395e-08
-2.56878e-06
-1.95375e-08
-2.55643e-06
-2.27507e-08
-2.54249e-06
-2.5976e-08
-2.52694e-06
-2.92098e-08
-2.50979e-06
-3.24483e-08
-2.49103e-06
-3.56879e-08
-2.47067e-06
-3.89248e-08
-2.4487e-06
-4.21557e-08
-2.42513e-06
-4.53765e-08
-2.39997e-06
-4.85838e-08
-2.37323e-06
-5.17731e-08
-2.34492e-06
-5.49409e-08
-2.31506e-06
-5.80826e-08
-2.28364e-06
-6.11945e-08
-2.25071e-06
-6.42717e-08
-2.21626e-06
-6.73102e-08
-2.18033e-06
-7.03051e-08
-2.14294e-06
-7.32518e-08
-2.10412e-06
-7.61453e-08
-2.0639e-06
-7.89805e-08
-2.0223e-06
-8.17522e-08
-1.97936e-06
-8.44554e-08
-1.93512e-06
-8.70853e-08
-1.88961e-06
-8.9638e-08
-1.84288e-06
-9.21099e-08
-1.79497e-06
-9.44984e-08
-1.74593e-06
-9.68011e-08
-1.69579e-06
-9.90156e-08
-1.6446e-06
-1.01132e-07
-1.59243e-06
-1.03138e-07
-1.53932e-06
-1.05036e-07
-1.48533e-06
-1.06834e-07
-1.43052e-06
-1.08525e-07
-1.37493e-06
-1.10099e-07
-1.31863e-06
-1.11557e-07
-1.26168e-06
-1.12899e-07
-1.20414e-06
-1.14126e-07
-1.14606e-06
-1.15236e-07
-1.08751e-06
-1.16227e-07
-1.02853e-06
-1.17101e-07
-9.69191e-07
-1.17856e-07
-9.09547e-07
-1.18496e-07
-8.49654e-07
-1.19021e-07
-7.89569e-07
-1.19436e-07
-7.29344e-07
-1.19742e-07
-6.69032e-07
-1.19943e-07
-6.08686e-07
-1.20039e-07
-5.48354e-07
-1.20037e-07
-4.88085e-07
-1.19939e-07
-4.27925e-07
-1.19749e-07
-3.67918e-07
-1.1947e-07
-3.08105e-07
-1.19108e-07
-2.48525e-07
-1.18666e-07
-1.89217e-07
-1.1815e-07
-1.30216e-07
-1.1756e-07
-7.15523e-08
-1.16904e-07
-1.32577e-08
-1.16182e-07
4.46427e-08
-1.15402e-07
1.02126e-07
-1.1457e-07
1.59211e-07
-1.13666e-07
2.15859e-07
-1.12709e-07
2.71999e-07
-1.11689e-07
3.27653e-07
-1.10618e-07
3.82846e-07
-1.09566e-07
4.37589e-07
-1.08566e-07
4.91899e-07
-1.07616e-07
5.4579e-07
-1.06705e-07
5.99272e-07
-1.05813e-07
6.52337e-07
-1.04914e-07
7.04956e-07
-1.03958e-07
7.57059e-07
-1.02868e-07
8.08508e-07
-1.01497e-07
8.59029e-07
-9.95753e-08
9.08124e-07
-9.65741e-08
9.5477e-07
-9.13004e-08
9.9738e-07
-8.13506e-08
1.03262e-06
-6.04137e-08
-9.71844e-09
1.06105e-06
2.95378e-11
-2.01327e-08
-6.14148e-09
-9.82985e-09
-1.49239e-08
1.31802e-09
-2.53751e-08
1.14628e-08
-3.71727e-08
2.06821e-08
-5.02747e-08
2.89957e-08
-6.47652e-08
3.63731e-08
-8.07487e-08
4.2811e-08
-9.82725e-08
4.83753e-08
-1.17317e-07
5.31935e-08
-1.37805e-07
5.74237e-08
-1.59644e-07
6.12211e-08
-1.82739e-07
6.47173e-08
-2.07014e-07
6.80117e-08
-2.32412e-07
7.11729e-08
-2.58895e-07
7.4244e-08
-2.86443e-07
7.72492e-08
-3.1505e-07
8.01995e-08
-3.4472e-07
8.30981e-08
-3.75461e-07
8.59443e-08
-4.07289e-07
8.87372e-08
-4.40214e-07
9.14778e-08
-4.74244e-07
9.41708e-08
-5.0937e-07
9.68243e-08
-5.45565e-07
9.94487e-08
-5.82752e-07
1.02055e-07
-6.20834e-07
1.04646e-07
-6.59699e-07
1.07214e-07
-6.99201e-07
1.09753e-07
-7.39161e-07
1.12252e-07
-7.79479e-07
1.14659e-07
-8.20132e-07
1.16915e-07
-8.61048e-07
1.1902e-07
-9.02065e-07
1.2098e-07
-9.42917e-07
1.2279e-07
-9.83127e-07
1.244e-07
-1.02192e-06
1.257e-07
-1.05897e-06
1.26302e-07
-1.09648e-06
1.25665e-07
-1.13516e-06
1.24309e-07
-1.17324e-06
1.23187e-07
-1.21128e-06
1.22224e-07
-1.24877e-06
1.21632e-07
-1.2853e-06
1.21166e-07
-1.32128e-06
1.2058e-07
-1.35686e-06
1.19927e-07
-1.39207e-06
1.19236e-07
-1.42695e-06
1.18516e-07
-1.46153e-06
1.17769e-07
-1.49583e-06
1.16994e-07
-1.52986e-06
1.16191e-07
-1.56361e-06
1.15359e-07
-1.5971e-06
1.14496e-07
-1.63031e-06
1.136e-07
-1.66324e-06
1.12667e-07
-1.69587e-06
1.11694e-07
-1.72818e-06
1.10676e-07
-1.76017e-06
1.09608e-07
-1.79182e-06
1.08484e-07
-1.82309e-06
1.07301e-07
-1.85398e-06
1.06052e-07
-1.88445e-06
1.04731e-07
-1.91449e-06
1.03335e-07
-1.94407e-06
1.01859e-07
-1.97315e-06
1.00297e-07
-2.00171e-06
9.8645e-08
-2.02973e-06
9.69001e-08
-2.05716e-06
9.50584e-08
-2.08399e-06
9.31168e-08
-2.11017e-06
9.10726e-08
-2.13567e-06
8.89236e-08
-2.16047e-06
8.66677e-08
-2.18452e-06
8.43033e-08
-2.2078e-06
8.18294e-08
-2.23027e-06
7.9245e-08
-2.25189e-06
7.65498e-08
-2.27264e-06
7.37438e-08
-2.29247e-06
7.08271e-08
-2.31136e-06
6.78004e-08
-2.32926e-06
6.46643e-08
-2.34615e-06
6.142e-08
-2.362e-06
5.80687e-08
-2.37676e-06
5.46118e-08
-2.39042e-06
5.1051e-08
-2.40294e-06
4.73882e-08
-2.41429e-06
4.36256e-08
-2.42444e-06
3.97655e-08
-2.43337e-06
3.58106e-08
-2.44105e-06
3.17633e-08
-2.44746e-06
2.76267e-08
-2.4526e-06
2.34042e-08
-2.45644e-06
1.91011e-08
-2.45898e-06
1.4725e-08
-2.46022e-06
1.02855e-08
-2.46016e-06
5.79685e-09
-2.45881e-06
1.27912e-09
-2.45612e-06
-3.24853e-09
-2.45205e-06
-7.78793e-09
-2.44653e-06
-1.23624e-08
-2.43955e-06
-1.69844e-08
-2.43106e-06
-2.16477e-08
-2.42106e-06
-2.63462e-08
-2.40952e-06
-3.10752e-08
-2.39645e-06
-3.58287e-08
-2.38183e-06
-4.06015e-08
-2.36566e-06
-4.53875e-08
-2.34793e-06
-5.01813e-08
-2.32864e-06
-5.4977e-08
-2.3078e-06
-5.97694e-08
-2.28541e-06
-6.45526e-08
-2.26146e-06
-6.93215e-08
-2.23598e-06
-7.40698e-08
-2.20896e-06
-7.87921e-08
-2.18041e-06
-8.34821e-08
-2.15036e-06
-8.81339e-08
-2.11881e-06
-9.2741e-08
-2.08578e-06
-9.72971e-08
-2.05129e-06
-1.01795e-07
-2.01536e-06
-1.06229e-07
-1.97802e-06
-1.10592e-07
-1.93929e-06
-1.14875e-07
-1.89919e-06
-1.19072e-07
-1.85776e-06
-1.23175e-07
-1.81503e-06
-1.27177e-07
-1.77104e-06
-1.31069e-07
-1.72583e-06
-1.34846e-07
-1.67943e-06
-1.38502e-07
-1.63189e-06
-1.42032e-07
-1.58325e-06
-1.45435e-07
-1.53355e-06
-1.48704e-07
-1.48284e-06
-1.51828e-07
-1.43118e-06
-1.54792e-07
-1.37862e-06
-1.57596e-07
-1.3252e-06
-1.60245e-07
-1.27099e-06
-1.62733e-07
-1.21604e-06
-1.65049e-07
-1.1604e-06
-1.67192e-07
-1.10415e-06
-1.69161e-07
-1.04732e-06
-1.70957e-07
-9.89987e-07
-1.72578e-07
-9.322e-07
-1.74024e-07
-8.74015e-07
-1.75294e-07
-8.15489e-07
-1.7639e-07
-7.56679e-07
-1.77314e-07
-6.97639e-07
-1.78069e-07
-6.38424e-07
-1.78659e-07
-5.79086e-07
-1.79087e-07
-5.19677e-07
-1.79358e-07
-4.60246e-07
-1.79476e-07
-4.00843e-07
-1.79446e-07
-3.41513e-07
-1.79274e-07
-2.82302e-07
-1.78964e-07
-2.23251e-07
-1.78525e-07
-1.64401e-07
-1.77962e-07
-1.05789e-07
-1.77281e-07
-4.7449e-08
-1.76492e-07
1.05887e-08
-1.75601e-07
6.8293e-08
-1.74611e-07
1.25638e-07
-1.73529e-07
1.82601e-07
-1.72366e-07
2.39166e-07
-1.71134e-07
2.95337e-07
-1.69838e-07
3.51114e-07
-1.68486e-07
4.06493e-07
-1.67067e-07
4.61479e-07
-1.65603e-07
5.16071e-07
-1.64157e-07
5.70271e-07
-1.62764e-07
6.24085e-07
-1.61429e-07
6.77524e-07
-1.60142e-07
7.30592e-07
-1.58878e-07
7.8328e-07
-1.576e-07
8.3556e-07
-1.56236e-07
8.87367e-07
-1.54672e-07
9.38573e-07
-1.52701e-07
9.88949e-07
-1.49948e-07
1.0381e-06
-1.45717e-07
1.08538e-06
-1.38581e-07
1.12994e-06
-1.2591e-07
1.17132e-06
-1.01788e-07
-5.25335e-08
1.21413e-06
-7.9911e-09
-1.2147e-08
-2.00918e-08
2.2652e-09
-3.3485e-08
1.47079e-08
-4.76655e-08
2.56403e-08
-6.25469e-08
3.55613e-08
-7.81838e-08
4.463e-08
-9.46957e-08
5.28831e-08
-1.12222e-07
6.03348e-08
-1.30874e-07
6.70262e-08
-1.50721e-07
7.30373e-08
-1.71775e-07
7.84769e-08
-1.94019e-07
8.34633e-08
-2.17411e-07
8.81082e-08
-2.41907e-07
9.25057e-08
-2.67463e-07
9.67284e-08
-2.94048e-07
1.00828e-07
-3.21637e-07
1.04837e-07
-3.50214e-07
1.08776e-07
-3.79769e-07
1.12652e-07
-4.1029e-07
1.16464e-07
-4.41762e-07
1.20207e-07
-4.74155e-07
1.2387e-07
-5.07424e-07
1.27438e-07
-5.41496e-07
1.30895e-07
-5.7627e-07
1.34221e-07
-6.11616e-07
1.37399e-07
-6.47384e-07
1.40412e-07
-6.83421e-07
1.43249e-07
-7.19571e-07
1.45902e-07
-7.55684e-07
1.48364e-07
-7.91651e-07
1.50624e-07
-8.27399e-07
1.52662e-07
-8.62845e-07
1.54465e-07
-8.97884e-07
1.56017e-07
-9.32388e-07
1.57293e-07
-9.66228e-07
1.58238e-07
-9.9931e-07
1.58779e-07
-1.03182e-06
1.58813e-07
-1.06443e-06
1.58269e-07
-1.09743e-06
1.57308e-07
-1.13048e-06
1.56232e-07
-1.16342e-06
1.5517e-07
-1.19603e-06
1.54236e-07
-1.22825e-06
1.53383e-07
-1.26019e-06
1.52524e-07
-1.29192e-06
1.51647e-07
-1.32343e-06
1.50752e-07
-1.35475e-06
1.49838e-07
-1.38589e-06
1.48903e-07
-1.41684e-06
1.47944e-07
-1.44761e-06
1.46958e-07
-1.47819e-06
1.4594e-07
-1.50858e-06
1.44884e-07
-1.53877e-06
1.43786e-07
-1.56874e-06
1.42639e-07
-1.59849e-06
1.41438e-07
-1.62799e-06
1.40175e-07
-1.65723e-06
1.38843e-07
-1.68618e-06
1.37437e-07
-1.71483e-06
1.35948e-07
-1.74315e-06
1.34371e-07
-1.77112e-06
1.32699e-07
-1.79871e-06
1.30925e-07
-1.8259e-06
1.29043e-07
-1.85265e-06
1.27048e-07
-1.87894e-06
1.24934e-07
-1.90474e-06
1.22697e-07
-1.93002e-06
1.20332e-07
-1.95474e-06
1.17836e-07
-1.97887e-06
1.15205e-07
-2.00239e-06
1.12436e-07
-2.02525e-06
1.09526e-07
-2.04742e-06
1.06475e-07
-2.06887e-06
1.0328e-07
-2.08957e-06
9.99397e-08
-2.10947e-06
9.64549e-08
-2.12855e-06
9.2825e-08
-2.14678e-06
8.90504e-08
-2.16411e-06
8.51319e-08
-2.18052e-06
8.10706e-08
-2.19597e-06
7.68681e-08
-2.21042e-06
7.25261e-08
-2.22386e-06
6.80471e-08
-2.23624e-06
6.34334e-08
-2.24754e-06
5.86881e-08
-2.25773e-06
5.38144e-08
-2.26679e-06
4.88162e-08
-2.27467e-06
4.36975e-08
-2.28137e-06
3.84631e-08
-2.28686e-06
3.31177e-08
-2.29112e-06
2.76674e-08
-2.29414e-06
2.21195e-08
-2.2959e-06
1.64828e-08
-2.29638e-06
1.07678e-08
-2.29557e-06
4.98653e-09
-2.29344e-06
-8.48407e-10
-2.28996e-06
-6.72939e-09
-2.28509e-06
-1.26605e-08
-2.2788e-06
-1.86527e-08
-2.27108e-06
-2.4709e-08
-2.26191e-06
-3.08228e-08
-2.25127e-06
-3.69863e-08
-2.23916e-06
-4.31917e-08
-2.22556e-06
-4.94308e-08
-2.21047e-06
-5.56961e-08
-2.19389e-06
-6.19795e-08
-2.1758e-06
-6.82738e-08
-2.15621e-06
-7.4571e-08
-2.13511e-06
-8.08644e-08
-2.11252e-06
-8.7146e-08
-2.08844e-06
-9.34088e-08
-2.06286e-06
-9.96448e-08
-2.0358e-06
-1.05847e-07
-2.00728e-06
-1.12006e-07
-1.9773e-06
-1.18115e-07
-1.94587e-06