/*--------------------------------*- C++ -*----------------------------------*\
  =========                 |
  \\      /  F ield         | OpenFOAM: The Open Source CFD Toolbox
   \\    /   O peration     | Website:  https://openfoam.org
    \\  /    A nd           | Version:  8
     \\/     M anipulation  |
\*---------------------------------------------------------------------------*/
FoamFile
{
    version     2.0;
    format      ascii;
    class       volVectorField;
    location    "270";
    object      U;
}
// * * * * * * * * * * * * * * * * * * * * * * * * * * * * * * * * * * * * * //

dimensions      [0 1 -1 0 0 0 0];

internalField   nonuniform List<vector> 
12225
(
(9.85697 -0.88645 0)
(9.66665 -0.740746 0)
(9.45573 -0.429483 0)
(9.22456 -0.222215 0)
(9.00654 -0.106461 0)
(8.81445 -0.0458749 0)
(8.6476 -0.0151792 0)
(8.50544 0.000441262 0)
(8.38384 0.00837893 0)
(8.28112 0.012262 0)
(8.1928 0.0139789 0)
(8.11672 0.0149778 0)
(8.05011 0.0153198 0)
(7.99127 0.0155114 0)
(7.93832 0.0154453 0)
(7.89213 0.0157506 0)
(7.83959 0.0151892 0)
(7.82962 0.00863874 0)
(10.0545 0.227569 0)
(10.121 0.326909 0)
(10.1196 0.26157 0)
(10.0856 0.186537 0)
(10.0435 0.134663 0)
(9.99676 0.101107 0)
(9.94405 0.0792735 0)
(9.88534 0.0645517 0)
(9.824 0.0542399 0)
(9.76152 0.0466474 0)
(9.70011 0.0408704 0)
(9.64034 0.0363085 0)
(9.58312 0.0326396 0)
(9.52884 0.0297493 0)
(9.47713 0.0272228 0)
(9.42978 0.0262177 0)
(9.38234 0.0235281 0)
(9.34834 0.0315824 0)
(10.0035 0.0579182 0)
(10.0303 0.0560061 0)
(10.0561 0.0337772 0)
(10.0703 0.0328921 0)
(10.077 0.0406387 0)
(10.0779 0.0465328 0)
(10.0726 0.0493437 0)
(10.0615 0.0502841 0)
(10.0463 0.0501755 0)
(10.0279 0.0494537 0)
(10.0074 0.0483994 0)
(9.98525 0.0472205 0)
(9.96219 0.0460119 0)
(9.93865 0.044907 0)
(9.91487 0.0437952 0)
(9.89169 0.0433031 0)
(9.8686 0.042171 0)
(9.84682 0.0437462 0)
(9.99779 0.0110531 0)
(10.011 0.0266067 0)
(10.035 0.0371476 0)
(10.0525 0.0480802 0)
(10.0644 0.0554434 0)
(10.0735 0.0581718 0)
(10.0796 0.0583362 0)
(10.0825 0.0575882 0)
(10.0829 0.0565315 0)
(10.0814 0.0553255 0)
(10.0783 0.0540405 0)
(10.074 0.0527923 0)
(10.0687 0.0515738 0)
(10.0627 0.0504846 0)
(10.056 0.0494206 0)
(10.0493 0.048749 0)
(10.0423 0.0477448 0)
(10.0353 0.047646 0)
(9.99935 0.00719735 0)
(10.009 0.0316524 0)
(10.0275 0.043918 0)
(10.0418 0.0499155 0)
(10.0528 0.0536002 0)
(10.0629 0.0552199 0)
(10.0716 0.0554935 0)
(10.0784 0.0551964 0)
(10.0836 0.0546436 0)
(10.0874 0.0539276 0)
(10.0903 0.0531026 0)
(10.0922 0.0522615 0)
(10.0934 0.0514176 0)
(10.0942 0.0506404 0)
(10.0944 0.0498805 0)
(10.0944 0.0493047 0)
(10.0944 0.0485747 0)
(10.0942 0.0480667 0)
(10.0003 0.00917735 0)
(10.0083 0.0311671 0)
(10.0227 0.0409379 0)
(10.035 0.0453832 0)
(10.0451 0.0490229 0)
(10.0548 0.0513519 0)
(10.0638 0.0523252 0)
(10.0715 0.0525492 0)
(10.078 0.0524035 0)
(10.0836 0.0520254 0)
(10.0885 0.0514903 0)
(10.0927 0.0508836 0)
(10.0964 0.0502386 0)
(10.0996 0.0496039 0)
(10.1026 0.0489603 0)
(10.1053 0.0483701 0)
(10.108 0.0476799 0)
(10.1106 0.0469283 0)
(10.0005 0.00894348 0)
(10.0071 0.0270817 0)
(10.0191 0.0364054 0)
(10.0302 0.0413779 0)
(10.0396 0.045395 0)
(10.0487 0.0480527 0)
(10.0573 0.0493122 0)
(10.065 0.0497702 0)
(10.0718 0.0498286 0)
(10.0779 0.0496327 0)
(10.0835 0.0492596 0)
(10.0886 0.0487843 0)
(10.0932 0.0482479 0)
(10.0975 0.0476838 0)
(10.1016 0.0470856 0)
(10.1055 0.0464669 0)
(10.1093 0.0457464 0)
(10.113 0.0448676 0)
(10.0004 0.00791436 0)
(10.006 0.0233746 0)
(10.0161 0.0327259 0)
(10.0263 0.0380857 0)
(10.0352 0.0420731 0)
(10.0436 0.0447468 0)
(10.0518 0.0461462 0)
(10.0593 0.0467655 0)
(10.066 0.0469696 0)
(10.0722 0.0469024 0)
(10.078 0.0466418 0)
(10.0834 0.0462557 0)
(10.0884 0.0457877 0)
(10.0932 0.0452627 0)
(10.0977 0.044679 0)
(10.1021 0.0440299 0)
(10.1063 0.0432643 0)
(10.1105 0.0423179 0)
(10.0004 0.00695837 0)
(10.0051 0.0204216 0)
(10.0137 0.0294424 0)
(10.0229 0.0348428 0)
(10.0312 0.0386847 0)
(10.0392 0.0413354 0)
(10.0469 0.0428538 0)
(10.0541 0.0436107 0)
(10.0607 0.0439294 0)
(10.0669 0.043959 0)
(10.0726 0.0437796 0)
(10.0781 0.043455 0)
(10.0832 0.0430284 0)
(10.0881 0.0425211 0)
(10.0928 0.0419335 0)
(10.0973 0.0412539 0)
(10.1017 0.0404457 0)
(10.1061 0.0394638 0)
(10.0004 0.00612719 0)
(10.0043 0.0178553 0)
(10.0116 0.026263 0)
(10.0199 0.0315603 0)
(10.0277 0.0352749 0)
(10.0352 0.0378884 0)
(10.0424 0.0394848 0)
(10.0494 0.0403429 0)
(10.0558 0.0407464 0)
(10.0618 0.0408473 0)
(10.0675 0.0407267 0)
(10.0729 0.0404448 0)
(10.078 0.0400429 0)
(10.083 0.0395417 0)
(10.0877 0.0389435 0)
(10.0922 0.038238 0)
(10.0966 0.0373994 0)
(10.1009 0.036405 0)
(10.0003 0.00536689 0)
(10.0037 0.0155451 0)
(10.0099 0.0232232 0)
(10.0173 0.028322 0)
(10.0245 0.0318933 0)
(10.0315 0.0344289 0)
(10.0384 0.0360489 0)
(10.045 0.0369694 0)
(10.0512 0.0374319 0)
(10.0571 0.0375838 0)
(10.0627 0.0375057 0)
(10.068 0.0372538 0)
(10.0731 0.0368676 0)
(10.0779 0.0363679 0)
(10.0826 0.03576 0)
(10.0871 0.0350377 0)
(10.0914 0.0341844 0)
(10.0956 0.0331954 0)
(10.0003 0.00470132 0)
(10.0032 0.0136029 0)
(10.0086 0.020575 0)
(10.0152 0.0254076 0)
(10.0219 0.0288119 0)
(10.0286 0.0312409 0)
(10.0351 0.0328406 0)
(10.0414 0.0337863 0)
(10.0474 0.0342813 0)
(10.0531 0.0344633 0)
(10.0586 0.0344112 0)
(10.0638 0.0341779 0)
(10.0687 0.0338013 0)
(10.0735 0.0333026 0)
(10.0781 0.0326898 0)
(10.0825 0.0319616 0)
(10.0867 0.0311083 0)
(10.0907 0.0301392 0)
(10.0003 0.00408614 0)
(10.0028 0.0118329 0)
(10.0075 0.0180742 0)
(10.0134 0.0225646 0)
(10.0197 0.0257676 0)
(10.0259 0.0280646 0)
(10.0321 0.0296115 0)
(10.0381 0.0305556 0)
(10.0439 0.0310649 0)
(10.0495 0.031264 0)
(10.0548 0.0312284 0)
(10.0598 0.0310084 0)
(10.0647 0.0306398 0)
(10.0693 0.0301443 0)
(10.0738 0.0295324 0)
(10.0781 0.0288076 0)
(10.0822 0.0279658 0)
(10.0861 0.0270268 0)
(10.0002 0.00345067 0)
(10.0024 0.00999323 0)
(10.0064 0.0153919 0)
(10.0117 0.019415 0)
(10.0174 0.022333 0)
(10.0232 0.0244383 0)
(10.029 0.025882 0)
(10.0348 0.0267868 0)
(10.0403 0.0272858 0)
(10.0456 0.0274857 0)
(10.0508 0.0274563 0)
(10.0557 0.0272443 0)
(10.0604 0.0268827 0)
(10.0649 0.0263937 0)
(10.0693 0.0257901 0)
(10.0734 0.0250796 0)
(10.0774 0.0242634 0)
(10.0812 0.0233682 0)
(10.0002 0.00279088 0)
(10.002 0.00808248 0)
(10.0055 0.0125382 0)
(10.0101 0.0159643 0)
(10.0153 0.0184955 0)
(10.0206 0.0203338 0)
(10.026 0.0216102 0)
(10.0314 0.0224245 0)
(10.0367 0.022877 0)
(10.0418 0.0230535 0)
(10.0468 0.0230147 0)
(10.0515 0.0228022 0)
(10.0561 0.0224461 0)
(10.0604 0.0219677 0)
(10.0646 0.0213815 0)
(10.0686 0.0206983 0)
(10.0724 0.0199235 0)
(10.076 0.0190874 0)
(10.0002 0.00210614 0)
(10.0017 0.00610284 0)
(10.0047 0.00952198 0)
(10.0088 0.0122176 0)
(10.0134 0.014243 0)
(10.0183 0.015722 0)
(10.0233 0.0167528 0)
(10.0283 0.0174109 0)
(10.0333 0.0177678 0)
(10.0382 0.0178867 0)
(10.0429 0.0178161 0)
(10.0475 0.0175906 0)
(10.0518 0.0172358 0)
(10.056 0.0167712 0)
(10.0601 0.0162114 0)
(10.0639 0.0155687 0)
(10.0675 0.0148504 0)
(10.071 0.0140874 0)
(10.0002 0.00139353 0)
(10.0015 0.00404038 0)
(10.0041 0.00632719 0)
(10.0076 0.00815842 0)
(10.0118 0.0095478 0)
(10.0163 0.0105595 0)
(10.0209 0.0112539 0)
(10.0256 0.0116797 0)
(10.0303 0.0118817 0)
(10.035 0.0119007 0)
(10.0395 0.01177 0)
(10.0438 0.0115148 0)
(10.048 0.0111545 0)
(10.052 0.0107048 0)
(10.0559 0.0101784 0)
(10.0595 0.00958673 0)
(10.063 0.00893704 0)
(10.0663 0.00825787 0)
(10.0001 0.000636738 0)
(10.0013 0.00184343 0)
(10.0036 0.002882 0)
(10.0069 0.00370705 0)
(10.0107 0.00431967 0)
(10.0148 0.00474223 0)
(10.0192 0.00499747 0)
(10.0236 0.00510525 0)
(10.0281 0.00508496 0)
(10.0325 0.00495495 0)
(10.0368 0.00473094 0)
(10.041 0.00442581 0)
(10.045 0.00405039 0)
(10.0488 0.00361419 0)
(10.0525 0.00312568 0)
(10.056 0.00259318 0)
(10.0594 0.00202191 0)
(10.0625 0.00143575 0)
(10.0001 -0.000207276 0)
(10.0012 -0.000609815 0)
(10.0034 -0.000986521 0)
(10.0065 -0.00132843 0)
(10.0102 -0.00163411 0)
(10.0143 -0.00191753 0)
(10.0185 -0.00219656 0)
(10.0228 -0.00248326 0)
(10.0271 -0.0027848 0)
(10.0313 -0.00310665 0)
(10.0355 -0.00345285 0)
(10.0395 -0.00382553 0)
(10.0434 -0.00422499 0)
(10.0471 -0.00465027 0)
(10.0507 -0.00509946 0)
(10.0541 -0.00556952 0)
(10.0573 -0.00605891 0)
(10.0604 -0.00655059 0)
(10.0001 -0.00101446 0)
(10.0013 -0.00296332 0)
(10.0037 -0.00470433 0)
(10.007 -0.00615836 0)
(10.0108 -0.00732127 0)
(10.015 -0.0082528 0)
(10.0193 -0.0090143 0)
(10.0237 -0.00964763 0)
(10.028 -0.0101869 0)
(10.0323 -0.0106635 0)
(10.0364 -0.011102 0)
(10.0404 -0.0115187 0)
(10.0443 -0.0119244 0)
(10.0479 -0.0123265 0)
(10.0514 -0.0127295 0)
(10.0548 -0.0131355 0)
(10.0579 -0.0135466 0)
(10.0609 -0.0139519 0)
(10.0002 -0.0017105 0)
(10.0015 -0.00501869 0)
(10.0041 -0.00795329 0)
(10.0078 -0.0103139 0)
(10.012 -0.0121207 0)
(10.0164 -0.0135236 0)
(10.021 -0.0146286 0)
(10.0255 -0.0154927 0)
(10.03 -0.0161726 0)
(10.0343 -0.0167265 0)
(10.0385 -0.0171987 0)
(10.0426 -0.0176177 0)
(10.0464 -0.0180023 0)
(10.0501 -0.0183661 0)
(10.0536 -0.0187183 0)
(10.0569 -0.0190641 0)
(10.06 -0.0194075 0)
(10.063 -0.0197416 0)
(10.0002 -0.00237154 0)
(10.0016 -0.0070499 0)
(10.0047 -0.0112 0)
(10.009 -0.0143777 0)
(10.0137 -0.0166822 0)
(10.0185 -0.0184237 0)
(10.0233 -0.0197623 0)
(10.0281 -0.0207686 0)
(10.0328 -0.0215239 0)
(10.0373 -0.022109 0)
(10.0416 -0.0225805 0)
(10.0457 -0.0229748 0)
(10.0495 -0.023318 0)
(10.0532 -0.0236296 0)
(10.0567 -0.0239224 0)
(10.06 -0.0242042 0)
(10.0632 -0.0244802 0)
(10.0662 -0.0247459 0)
(10.0002 -0.00299029 0)
(10.0018 -0.00910708 0)
(10.0054 -0.0144692 0)
(10.0105 -0.0183656 0)
(10.0159 -0.0211167 0)
(10.0211 -0.0231457 0)
(10.0263 -0.0246078 0)
(10.0314 -0.025628 0)
(10.0362 -0.0263604 0)
(10.0409 -0.0269149 0)
(10.0453 -0.0273477 0)
(10.0494 -0.0276943 0)
(10.0533 -0.0279841 0)
(10.057 -0.0282391 0)
(10.0606 -0.0284735 0)
(10.0639 -0.0286956 0)
(10.067 -0.0289109 0)
(10.07 -0.0291168 0)
(10.0001 -0.00353572 0)
(10.0018 -0.0115596 0)
(10.0062 -0.0179019 0)
(10.0123 -0.0220059 0)
(10.0183 -0.025079 0)
(10.024 -0.0274943 0)
(10.0296 -0.029138 0)
(10.035 -0.0301532 0)
(10.0401 -0.0308103 0)
(10.0449 -0.0312741 0)
(10.0493 -0.0316121 0)
(10.0536 -0.0318646 0)
(10.0576 -0.0320655 0)
(10.0613 -0.0322386 0)
(10.0648 -0.0323973 0)
(10.0681 -0.0325488 0)
(10.0712 -0.0326967 0)
(10.0741 -0.0328374 0)
(9.99991 -0.00338382 0)
(10.0016 -0.0149749 0)
(10.0073 -0.0227378 0)
(10.0142 -0.0262547 0)
(10.0206 -0.0288468 0)
(10.0268 -0.0312169 0)
(10.0331 -0.0329428 0)
(10.039 -0.034035 0)
(10.0444 -0.0347385 0)
(10.0494 -0.0352056 0)
(10.054 -0.0355066 0)
(10.0583 -0.0356955 0)
(10.0623 -0.0358185 0)
(10.066 -0.0359065 0)
(10.0694 -0.0359773 0)
(10.0725 -0.036041 0)
(10.0754 -0.0361021 0)
(10.0781 -0.0361593 0)
(9.9986 -0.000400377 0)
(9.99909 -0.0157616 0)
(10.0075 -0.0274386 0)
(10.0166 -0.0325036 0)
(10.0238 -0.0348839 0)
(10.0306 -0.0362433 0)
(10.0376 -0.0369986 0)
(10.0441 -0.0374685 0)
(10.0498 -0.0378199 0)
(10.0549 -0.0380697 0)
(10.0595 -0.0382168 0)
(10.0635 -0.0382864 0)
(10.0671 -0.0383083 0)
(10.0703 -0.038304 0)
(10.073 -0.0382886 0)
(10.0754 -0.0382702 0)
(10.0776 -0.0382527 0)
(10.0794 -0.0382342 0)
(9.99488 0.00133398 0)
(9.99288 -0.00809633 0)
(10.006 -0.0203578 0)
(10.0202 -0.0322855 0)
(10.0306 -0.0404902 0)
(10.0392 -0.0441641 0)
(10.0467 -0.0450788 0)
(10.0529 -0.0449363 0)
(10.0578 -0.0444714 0)
(10.0616 -0.0438775 0)
(10.0646 -0.0432344 0)
(10.0667 -0.0425988 0)
(10.0682 -0.042005 0)
(10.069 -0.0414614 0)
(10.0693 -0.0409774 0)
(10.0692 -0.0405496 0)
(10.0687 -0.040175 0)
(10.0679 -0.0398282 0)
(9.99473 -0.0305624 0)
(9.99925 -0.0228745 0)
(10.0147 -0.00263996 0)
(10.0304 -0.00191593 0)
(10.0434 -0.0116672 0)
(10.0533 -0.0209325 0)
(10.0594 -0.027291 0)
(10.0618 -0.0315202 0)
(10.0615 -0.0342964 0)
(10.059 -0.0359938 0)
(10.055 -0.0369265 0)
(10.0497 -0.0373607 0)
(10.0434 -0.0374868 0)
(10.0364 -0.0374244 0)
(10.0288 -0.0372641 0)
(10.0209 -0.0370609 0)
(10.0127 -0.0368798 0)
(10.0045 -0.0366893 0)
(10.0273 -0.182759 0)
(10.0763 -0.288315 0)
(10.0871 -0.247758 0)
(10.0777 -0.186523 0)
(10.0663 -0.140302 0)
(10.0537 -0.108228 0)
(10.0365 -0.0858889 0)
(10.0145 -0.0704297 0)
(9.98934 -0.0596615 0)
(9.9623 -0.0518881 0)
(9.93432 -0.0460663 0)
(9.90599 -0.041569 0)
(9.8778 -0.0380131 0)
(9.85009 -0.035138 0)
(9.82309 -0.0327714 0)
(9.79691 -0.0308501 0)
(9.77181 -0.0293329 0)
(9.7478 -0.0285126 0)
(9.93574 0.689319 0)
(9.8686 0.609604 0)
(9.76453 0.380622 0)
(9.62662 0.21744 0)
(9.48587 0.119264 0)
(9.35717 0.0631831 0)
(9.24263 0.0315712 0)
(9.14107 0.0136111 0)
(9.05137 0.00325773 0)
(8.97238 -0.00280372 0)
(8.90247 -0.00635933 0)
(8.84028 -0.00847867 0)
(8.78456 -0.00972943 0)
(8.73444 -0.0104755 0)
(8.68901 -0.0109784 0)
(8.64766 -0.0112474 0)
(8.60945 -0.0114539 0)
(8.57411 -0.0121139 0)
(0.00479389 -0.0112298 -8.5051e-19)
(0.0165232 -0.0175093 7.40508e-19)
(0.0264809 -0.0148583 0)
(0.0326534 -0.00843805 0)
(0.034044 -0.00117948 0)
(0.0306158 0.00522809 -3.84882e-19)
(0.0234759 0.0100462 0)
(0.0135164 0.0132755 0)
(0.00147465 0.0152721 0)
(-0.0121017 0.0164736 0)
(-0.0268871 0.0172677 2.26102e-19)
(-0.042711 0.0179103 0)
(-0.0594775 0.0185235 0)
(-0.0771421 0.0191444 0)
(-0.0956854 0.0197655 0)
(-0.115093 0.0203547 1.26082e-19)
(-0.135351 0.0208695 0)
(-0.156438 0.0212636 0)
(-0.178324 0.0214959 0)
(-0.200966 0.0215409 0)
(-0.224315 0.0213994 0)
(-0.248314 0.021111 0)
(-0.272904 0.0207576 0)
(-0.298043 0.0203827 7.35483e-20)
(-0.323689 0.0202158 -6.94013e-20)
(-0.349812 0.0207948 6.56604e-20)
(-0.376486 0.0220963 6.2486e-20)
(-0.40376 0.0239133 0)
(-0.431541 0.0264649 0)
(-0.459914 0.0303137 -5.57579e-20)
(-0.489212 0.0340341 -5.45383e-20)
(-0.519475 0.0369552 0)
(-0.550233 0.0404673 0)
(-0.581626 0.0451854 -5.1746e-20)
(-0.613752 0.0509667 0)
(-0.646562 0.0585162 0)
(-0.680733 0.0730473 5.00627e-20)
(-0.717614 0.0970201 0)
(-0.760607 0.0755209 6.72804e-20)
(-0.804258 0.0350652 1.43772e-19)
(-0.837644 0.0345985 0)
(-0.87508 0.0233157 0)
(-0.91046 0.0251686 0)
(-0.947019 0.0339227 0)
(-0.987525 0.0344081 0)
(-1.02758 0.0347276 1.17111e-19)
(-1.06801 0.0347569 1.13746e-19)
(-1.10856 0.0346799 1.10573e-19)
(-1.14917 0.0345008 0)
(-1.18978 0.0342645 -1.04792e-19)
(-1.23033 0.0339819 0)
(-1.27078 0.0336706 9.96835e-20)
(-1.31111 0.0333382 9.73494e-20)
(-1.35128 0.0329917 0)
(-1.39129 0.032634 0)
(-1.43111 0.0322672 0)
(-1.47073 0.0318917 8.92153e-20)
(-1.51013 0.0315076 0)
(-1.5493 0.0311141 0)
(-1.58822 0.0307101 0)
(-1.62687 0.0302946 0)
(-1.66522 0.0298663 0)
(-1.70325 0.0294239 0)
(-1.74094 0.028966 0)
(-1.77825 0.0284915 0)
(-1.81517 0.0279991 -7.57439e-20)
(-1.85166 0.027488 0)
(-1.88768 0.0269573 0)
(-1.9232 0.0264064 7.22089e-20)
(-1.95819 0.0258346 7.11033e-20)
(-1.99262 0.0252415 0)
(-2.02643 0.0246267 -6.89833e-20)
(-2.0596 0.0239901 6.79635e-20)
(-2.09208 0.0233316 0)
(-2.12384 0.0226513 -6.59919e-20)
(-2.15483 0.0219493 0)
(-2.18502 0.0212263 0)
(-2.21436 0.0204823 6.31703e-20)
(-2.2428 0.019718 0)
(-2.27032 0.0189336 -6.13553e-20)
(-2.29687 0.0181298 0)
(-2.32241 0.0173068 5.95749e-20)
(-2.34689 0.0164651 5.86932e-20)
(-2.37028 0.0156047 5.78148e-20)
(-2.39253 0.0147259 1.13876e-19)
(-2.41361 0.0138283 -1.12123e-19)
(-2.43348 0.012911 0)
(-2.45208 0.0119718 0)
(-2.46938 0.0110073 0)
(-2.48534 0.0100118 -1.05053e-19)
(-2.49991 0.00897786 -1.03257e-19)
(-2.51303 0.00789715 1.01446e-19)
(-2.52464 0.00676011 0)
(-2.53468 0.00555906 -9.77661e-20)
(-2.54306 0.00429696 -9.58965e-20)
(-2.54973 0.00300614 -9.4008e-20)
(-2.55456 0.00175662 0)
(-2.55744 0.000622361 0)
(-2.55848 -0.000364897 0)
(-2.55804 -0.00126497 -8.60891e-20)
(-2.55607 -0.0021453 0)
(-2.55259 -0.00301647 0)
(-2.54759 -0.00388404 7.96345e-20)
(-2.54107 -0.00474855 0)
(-2.53301 -0.00560959 0)
(-2.52341 -0.00646689 7.26775e-20)
(-2.51225 -0.00731944 0)
(-2.49952 -0.00816716 0)
(-2.48523 -0.00900901 -6.5146e-20)
(-2.46937 -0.00984499 -6.24949e-20)
(-2.45194 -0.010674 0)
(-2.43293 -0.011496 5.69641e-20)
(-2.41236 -0.0123098 0)
(-2.39021 -0.0131154 -5.1108e-20)
(-2.36651 -0.0139117 0)
(-2.34126 -0.0146987 -4.49002e-20)
(-2.31446 -0.0154752 -4.16555e-20)
(-2.28613 -0.0162409 0)
(-2.25629 -0.0169948 0)
(-2.22494 -0.0177365 0)
(-2.19212 -0.018465 0)
(-2.15783 -0.0191798 0)
(-2.12211 -0.0198799 0)
(-2.08498 -0.0205648 0)
(-2.04647 -0.021234 -1.17801e-20)
(-2.00661 -0.0218871 7.48463e-21)
(-1.96543 -0.0225243 0)
(-1.92296 -0.0231456 0)
(-1.87924 -0.0237481 0)
(-1.83431 -0.0243308 0)
(-1.7882 -0.0248938 -3.25398e-20)
(-1.74098 -0.0254362 0)
(-1.69267 -0.0259613 5.39439e-20)
(-1.64333 -0.0264649 -6.5223e-20)
(-1.59301 -0.026946 0)
(-1.54176 -0.0274056 0)
(-1.48962 -0.0278434 0)
(-1.43666 -0.0282594 1.14694e-19)
(-1.38292 -0.0286544 1.28264e-19)
(-1.32846 -0.0290274 0)
(-1.27333 -0.0293787 1.57038e-19)
(-1.21758 -0.0297083 1.72307e-19)
(-1.16126 -0.0300167 -1.88211e-19)
(-1.10444 -0.0303047 0)
(-1.04715 -0.0305734 0)
(-0.989462 -0.0308235 -2.4015e-19)
(-0.931418 -0.0310559 0)
(-0.87307 -0.0312714 0)
(-0.814466 -0.0314709 0)
(-0.755655 -0.0316554 0)
(-0.696682 -0.0318258 3.43987e-19)
(-0.637592 -0.0319833 3.67957e-19)
(-0.578428 -0.0321292 0)
(-0.519231 -0.0322646 4.19817e-19)
(-0.460039 -0.0323908 0)
(-0.400891 -0.0325092 0)
(-0.341821 -0.0326203 5.09239e-19)
(-0.282864 -0.0327248 0)
(-0.224055 -0.0328238 5.78423e-19)
(-0.165425 -0.0329322 0)
(-0.107009 -0.0330551 0)
(-0.0488696 -0.033139 7.00961e-19)
(0.0089569 -0.0328771 0)
(0.0664091 -0.0320746 7.20255e-19)
(0.12352 -0.0310705 0)
(0.18025 -0.0301067 0)
(0.236609 -0.0292101 0)
(0.292625 -0.028371 -6.58421e-19)
(0.34833 -0.0275788 0)
(0.403744 -0.0268252 6.33293e-19)
(0.458876 -0.0261004 0)
(0.513712 -0.0253924 0)
(0.568211 -0.0246823 0)
(0.622265 -0.0239399 0)
(0.675705 -0.0231073 0)
(0.727941 -0.0220752 0)
(0.778726 -0.0205755 0)
(0.823223 -0.0179647 -1.12208e-18)
(0.867469 -0.0128077 0)
(0.859149 0.00410574 0)
(0.00470067 -0.0335366 1.97221e-18)
(0.0103215 -0.0326401 -1.10733e-18)
(0.0100978 -0.0197975 0)
(0.00694613 -0.00596053 3.47443e-19)
(0.00135232 0.00704241 0)
(-0.0064093 0.0183253 1.34652e-19)
(-0.0163193 0.027474 -2.46231e-19)
(-0.0282765 0.0345304 -2.27191e-19)
(-0.0421309 0.0398349 0)
(-0.0576664 0.0438498 -1.94261e-19)
(-0.0746574 0.047015 -8.99738e-20)
(-0.0929256 0.0496624 0)
(-0.112342 0.052007 0)
(-0.132814 0.0541699 0)
(-0.154285 0.0562118 0)
(-0.176716 0.0581554 -6.43205e-20)
(-0.200087 0.0600046 0)
(-0.224384 0.0617531 1.15677e-19)
(-0.2496 0.0633919 0)
(-0.27573 0.0649142 0)
(-0.302774 0.0663194 -1.01005e-19)
(-0.330733 0.0676169 0)
(-0.359609 0.0688283 9.3102e-20)
(-0.389422 0.0699826 -4.47607e-20)
(-0.420206 0.0711102 4.30804e-20)
(-0.451961 0.0722632 -4.15387e-20)
(-0.484695 0.0734672 -4.01716e-20)
(-0.518433 0.0746844 0)
(-0.553299 0.0759291 0)
(-0.589316 0.0772353 3.71317e-20)
(-0.626456 0.0785246 -3.618e-20)
(-0.664716 0.0795532 0)
(-0.7042 0.080266 0)
(-0.744808 0.0807095 3.5666e-20)
(-0.78644 0.0808629 0)
(-0.829256 0.0808132 0)
(-0.872464 0.0809973 -3.65135e-20)
(-0.912986 0.0819778 0)
(-0.953635 0.0830381 3.83942e-20)
(-0.994178 0.0847315 -7.52119e-20)
(-1.03602 0.0871539 0)
(-1.07722 0.0880561 0)
(-1.11815 0.0887408 -1.35421e-19)
(-1.15813 0.0894634 -1.31998e-19)
(-1.19651 0.0895041 -1.28929e-19)
(-1.23439 0.0891155 6.28838e-20)
(-1.27184 0.0885102 -6.18262e-20)
(-1.30891 0.0877406 -1.8136e-19)
(-1.34563 0.0868562 1.18391e-19)
(-1.38204 0.0858914 5.81907e-20)
(-1.41815 0.0848712 0)
(-1.45398 0.0838124 -5.60523e-20)
(-1.48952 0.0827262 5.47682e-20)
(-1.52477 0.0816192 0)
(-1.55973 0.0804947 0)
(-1.59438 0.0793537 0)
(-1.62872 0.078196 -5.14687e-20)
(-1.66274 0.0770199 0)
(-1.69641 0.0758234 9.94692e-20)
(-1.72973 0.0746039 0)
(-1.76267 0.0733589 9.64975e-20)
(-1.79521 0.0720858 0)
(-1.82734 0.0707819 -9.37071e-20)
(-1.85902 0.0694447 0)
(-1.89024 0.0680722 9.10694e-20)
(-1.92097 0.0666623 -4.47727e-20)
(-1.95118 0.0652134 0)
(-1.98084 0.063724 -8.73448e-20)
(-2.00992 0.0621935 -4.31964e-20)
(-2.0384 0.0606207 -4.26087e-20)
(-2.06624 0.0590054 0)
(-2.09342 0.0573472 -4.12394e-20)
(-2.11989 0.0556463 -4.08961e-20)
(-2.14563 0.0539029 0)
(-2.17061 0.0521175 3.97856e-20)
(-2.19479 0.0502909 -7.82824e-20)
(-2.21815 0.0484244 0)
(-2.24064 0.046519 -3.81465e-20)
(-2.26223 0.0445761 0)
(-2.2829 0.0425969 1.11026e-19)
(-2.30261 0.0405831 0)
(-2.32132 0.038536 -1.0778e-19)
(-2.33901 0.0364573 -3.5425e-20)
(-2.35565 0.0343481 3.47582e-20)
(-2.37119 0.0322103 6.84293e-20)
(-2.38562 0.0300451 -6.73338e-20)
(-2.3989 0.0278543 0)
(-2.411 0.0256385 0)
(-2.42189 0.0233983 0)
(-2.43155 0.0211327 1.88709e-19)
(-2.43995 0.0188401 6.17516e-20)
(-2.44709 0.0165192 -6.05513e-20)
(-2.45294 0.0141675 0)
(-2.45751 0.0117799 -5.81035e-20)
(-2.46081 0.00934981 5.68413e-20)
(-2.46289 0.00688447 5.55689e-20)
(-2.46382 0.00442678 0)
(-2.46372 0.00205232 0)
(-2.46252 -0.0001872 0)
(-2.45993 -0.00233293 5.01819e-20)
(-2.45589 -0.00444237 0)
(-2.45039 -0.00652709 -9.48564e-20)
(-2.4434 -0.0085931 -1.37812e-19)
(-2.4349 -0.0106406 8.89929e-20)
(-2.42489 -0.0126679 0)
(-2.41336 -0.0146734 4.16128e-20)
(-2.40029 -0.0166546 0)
(-2.38568 -0.01861 7.6598e-20)
(-2.36952 -0.0205373 -3.68772e-20)
(-2.35181 -0.0224352 -3.52389e-20)
(-2.33256 -0.0243013 0)
(-2.31175 -0.0261342 -9.46357e-20)
(-2.2894 -0.0279318 5.97606e-20)
(-2.2655 -0.0296925 2.78309e-20)
(-2.24006 -0.0314141 0)
(-2.21309 -0.0330953 2.41499e-20)
(-2.1846 -0.0347337 6.74076e-20)
(-2.1546 -0.0363279 0)
(-2.12311 -0.0378757 3.74447e-20)
(-2.09014 -0.0393755 3.34928e-20)
(-2.05571 -0.0408251 2.94733e-20)
(-2.01985 -0.0422228 0)
(-1.98257 -0.0435665 0)
(-1.94389 -0.0448545 0)
(-1.90386 -0.0460852 -6.77515e-21)
(-1.8625 -0.0472578 -3.74419e-21)
(-1.81984 -0.0483716 0)
(-1.77591 -0.0494263 5.79096e-22)
(-1.73076 -0.0504224 5.1471e-21)
(-1.68442 -0.0513601 0)
(-1.63693 -0.0522338 1.54653e-20)
(-1.58834 -0.0530357 3.85279e-20)
(-1.53869 -0.0537719 -2.51232e-20)
(-1.48803 -0.0544493 -2.79775e-20)
(-1.43641 -0.0550641 0)
(-1.38387 -0.0556116 0)
(-1.33048 -0.0560943 0)
(-1.27628 -0.0565135 -5.04061e-20)
(-1.22133 -0.0568708 5.34213e-20)
(-1.16568 -0.0571668 1.19664e-19)
(-1.10938 -0.057402 -6.63281e-20)
(-1.05249 -0.0575776 6.94519e-20)
(-0.995054 -0.0576948 7.72375e-20)
(-0.937133 -0.0577563 0)
(-0.878777 -0.0577639 0)
(-0.820039 -0.0577206 -9.16536e-20)
(-0.760969 -0.0576283 0)
(-0.701618 -0.05749 0)
(-0.642035 -0.0573075 2.20151e-19)
(-0.582268 -0.0570841 0)
(-0.522363 -0.0568218 1.20616e-19)
(-0.462365 -0.0565239 -1.28953e-19)
(-0.402316 -0.0561928 0)
(-0.342259 -0.0558315 1.38566e-19)
(-0.282231 -0.0554425 0)
(-0.22227 -0.0550287 0)
(-0.162411 -0.0545908 -1.59246e-19)
(-0.102686 -0.0541293 3.28469e-19)
(-0.043129 -0.0536454 -1.71606e-19)
(0.0162371 -0.0531409 0)
(0.0753887 -0.0526151 0)
(0.134328 -0.0520576 1.78051e-19)
(0.193045 -0.051379 0)
(0.25147 -0.0505107 1.81616e-19)
(0.309594 -0.0495591 0)
(0.367438 -0.0486304 0)
(0.425022 -0.0477506 0)
(0.482362 -0.046917 1.90112e-19)
(0.539477 -0.0461218 0)
(0.596382 -0.0453546 -1.92688e-19)
(0.65308 -0.0446026 0)
(0.709557 -0.0438453 0)
(0.765769 -0.0430499 3.89995e-19)
(0.821609 -0.0421584 -3.91785e-19)
(0.876901 -0.0410599 0)
(0.93117 -0.0395458 0)
(0.984057 -0.0370922 0)
(1.03266 -0.0327366 1.20085e-18)
(1.08027 -0.0232719 0)
(1.10503 -2.19947e-05 -8.31909e-19)
(-4.834e-05 -0.0413219 -8.11303e-22)
(-0.00264777 -0.0267845 1.07226e-18)
(-0.00909618 -0.00778214 0)
(-0.0175141 0.00984887 -4.3662e-19)
(-0.0274131 0.0257125 0)
(-0.0384948 0.039695 0)
(-0.050766 0.0517003 3.47536e-23)
(-0.0643303 0.0617442 1.35417e-19)
(-0.0792667 0.0700103 1.27407e-19)
(-0.095588 0.0768085 1.2046e-19)
(-0.113248 0.0824897 0)
(-0.132168 0.0873745 0)
(-0.152263 0.0917176 -1.02979e-19)
(-0.173458 0.0956989 -1.96245e-19)
(-0.195695 0.0994341 1.87429e-19)
(-0.218935 0.10299 0)
(-0.243156 0.106402 1.72253e-19)
(-0.268348 0.109683 -8.28671e-20)
(-0.294513 0.112835 0)
(-0.321662 0.115859 1.54388e-19)
(-0.349807 0.118754 7.46727e-20)
(-0.378964 0.121531 -1.44682e-19)
(-0.409141 0.124203 -7.01167e-20)
(-0.440341 0.126797 0)
(-0.472545 0.129345 1.32018e-19)
(-0.505707 0.131881 1.28201e-19)
(-0.539747 0.134423 0)
(-0.574564 0.136959 1.21264e-19)
(-0.610067 0.139501 0)
(-0.646134 0.14208 1.15472e-19)
(-0.682628 0.144586 5.66341e-20)
(-0.719444 0.146888 0)
(-0.756549 0.149 0)
(-0.793849 0.150951 0)
(-0.831143 0.152771 0)
(-0.868153 0.154518 0)
(-0.90443 0.156336 0)
(-0.939481 0.157561 1.03849e-19)
(-0.973963 0.156089 -1.53559e-19)
(-1.00862 0.152841 0)
(-1.04352 0.150086 0)
(-1.0785 0.147282 0)
(-1.11349 0.145362 1.00848e-22)
(-1.14785 0.143915 9.02989e-20)
(-1.18141 0.142289 1.76673e-19)
(-1.21457 0.140609 -1.73057e-19)
(-1.24742 0.138898 -8.47471e-20)
(-1.28001 0.137155 8.32531e-20)
(-1.31237 0.135382 -1.452e-22)
(-1.34451 0.133583 8.00665e-20)
(-1.37646 0.131762 0)
(-1.4082 0.129922 7.72771e-20)
(-1.43975 0.128066 -1.56044e-22)
(-1.47111 0.126194 0)
(-1.50225 0.124304 0)
(-1.53318 0.122394 -7.23202e-20)
(-1.56389 0.120461 0)
(-1.59435 0.118501 0)
(-1.62455 0.11651 6.88723e-20)
(-1.65448 0.114483 1.36006e-19)
(-1.68411 0.112416 -6.71609e-20)
(-1.71343 0.110305 0)
(-1.7424 0.108146 6.52337e-20)
(-1.77102 0.105936 0)
(-1.79925 0.103671 6.30889e-20)
(-1.82707 0.101349 6.25032e-20)
(-1.85444 0.0989682 -1.2296e-19)
(-1.88135 0.0965263 -6.04778e-20)
(-1.90776 0.0940222 0)
(-1.93364 0.091455 1.17894e-19)
(-1.95897 0.0888245 0)
(-1.98371 0.0861304 1.72071e-19)
(-2.00783 0.0833732 1.13018e-19)
(-2.03129 0.0805535 1.11421e-19)
(-2.05407 0.0776726 -1.09835e-19)
(-2.07613 0.0747316 1.62498e-19)
(-2.09745 0.0717326 0)
(-2.11797 0.0686772 0)
(-2.13769 0.0655679 -1.03545e-19)
(-2.15655 0.0624066 -1.53054e-19)
(-2.17453 0.059196 0)
(-2.19159 0.0559386 4.94906e-20)
(-2.20771 0.0526371 0)
(-2.22285 0.049294 -1.4353e-19)
(-2.23698 0.0459122 -1.18185e-22)
(-2.25007 0.0424945 1.04339e-22)
(-2.26209 0.0390439 9.07853e-20)
(-2.27302 0.0355631 0)
(-2.28282 0.0320551 -8.74704e-20)
(-2.29148 0.0285224 -4.59827e-23)
(-2.29897 0.0249685 0)
(-2.30529 0.0213986 0)
(-2.31041 0.0178205 0)
(-2.31433 0.014245 7.88222e-20)
(-2.31706 0.0106873 0)
(-2.31859 0.007168 0)
(-2.31889 0.00370529 0)
(-2.31794 0.000296441 0)
(-2.31567 -0.00308624 0)
(-2.31203 -0.00645486 6.75239e-20)
(-2.30699 -0.00980096 0)
(-2.30052 -0.0131213 6.33453e-20)
(-2.29262 -0.0164137 6.12714e-20)
(-2.28325 -0.0196748 -5.91678e-20)
(-2.27242 -0.0229012 0)
(-2.26011 -0.0260892 -5.48699e-20)
(-2.2463 -0.0292353 0)
(-2.23101 -0.0323362 -5.04493e-20)
(-2.21421 -0.0353888 4.81924e-20)
(-2.1959 -0.0383898 1.38299e-19)
(-2.17609 -0.0413363 0)
(-2.15478 -0.0442252 1.24359e-19)
(-2.13196 -0.0470535 3.95423e-20)
(-2.10764 -0.0498182 0)
(-2.08182 -0.0525162 6.8753e-20)
(-2.05452 -0.0551447 6.38395e-20)
(-2.02574 -0.0577006 -8.78869e-20)
(-1.9955 -0.0601809 0)
(-1.9638 -0.0625825 -2.39256e-20)
(-1.93067 -0.0649026 -2.13343e-20)
(-1.89612 -0.067138 -5.70941e-20)
(-1.86016 -0.0692855 0)
(-1.82284 -0.0713421 0)
(-1.78416 -0.0733049 0)
(-1.74416 -0.0751713 -9.03418e-21)
(-1.70286 -0.0769395 0)
(-1.6603 -0.0786081 0)
(-1.61652 -0.0801769 -3.59035e-22)
(-1.57155 -0.0816459 -3.17948e-21)
(-1.52542 -0.0830144 0)
(-1.47817 -0.0842773 0)
(-1.42986 -0.0854269 -2.35297e-20)
(-1.38052 -0.0864662 0)
(-1.3302 -0.087402 3.51587e-20)
(-1.27895 -0.0882322 3.97133e-20)
(-1.22681 -0.0889525 0)
(-1.17385 -0.0895646 0)
(-1.1201 -0.090071 -5.74063e-20)
(-1.06563 -0.0904737 -1.37075e-21)
(-1.01049 -0.0907744 -1.38344e-21)
(-0.954726 -0.0909744 0)
(-0.898389 -0.0910759 -1.63946e-19)
(-0.841533 -0.0910814 0)
(-0.784211 -0.0909947 0)
(-0.726474 -0.0908191 0)
(-0.668372 -0.0905588 1.06698e-19)
(-0.609957 -0.0902174 0)
(-0.551277 -0.089799 -2.34498e-19)
(-0.492379 -0.0893072 -1.24669e-19)
(-0.433311 -0.0887467 0)
(-0.374117 -0.0881212 -1.3658e-19)
(-0.31484 -0.0874352 0)
(-0.255523 -0.0866931 0)
(-0.196204 -0.0858993 -4.59965e-19)
(-0.136921 -0.0850571 3.1738e-19)
(-0.0777084 -0.0841706 0)
(-0.0185977 -0.0832447 3.40179e-19)
(0.0403838 -0.0822855 -1.75888e-19)
(0.0992071 -0.0812953 0)
(0.157849 -0.0802695 0)
(0.216289 -0.0792106 0)
(0.274523 -0.0781262 -5.62384e-19)
(0.332556 -0.0770246 0)
(0.390392 -0.0759003 -1.94047e-19)
(0.448026 -0.0747654 0)
(0.505462 -0.073657 0)
(0.562704 -0.0725915 0)
(0.619758 -0.0715682 0)
(0.676633 -0.0705807 0)
(0.733341 -0.0696173 0)
(0.789884 -0.0686606 -4.20788e-19)
(0.846246 -0.0676806 0)
(0.902384 -0.0666287 -2.15364e-19)
(0.958203 -0.0654181 6.49678e-19)
(1.01354 -0.0638906 0)
(1.06802 -0.0617472 0)
(1.12138 -0.0583544 -4.4337e-19)
(1.1717 -0.0524972 -4.49312e-19)
(1.22212 -0.0413042 4.54054e-19)
(1.26016 -0.017313 4.67109e-19)
(-0.00515634 -0.0322635 -3.02726e-18)
(-0.0134175 -0.00890647 -1.28671e-18)
(-0.0237603 0.0133476 -4.66149e-19)
(-0.0357368 0.0329911 -1.6637e-19)
(-0.0486871 0.0505372 0)
(-0.0622804 0.066194 2.4103e-19)
(-0.0765752 0.0800191 -1.10186e-19)
(-0.0917173 0.0920655 0)
(-0.107832 0.102462 -9.71742e-20)
(-0.125004 0.11142 0)
(-0.143268 0.1192 1.76198e-19)
(-0.162622 0.126066 0)
(-0.183036 0.132251 8.072e-20)
(-0.204473 0.137943 1.54972e-19)
(-0.226894 0.143277 -1.4905e-19)
(-0.250267 0.148348 0)
(-0.274569 0.153211 -1.38697e-19)
(-0.299785 0.1579 0)
(-0.325906 0.162428 0)
(-0.352925 0.166802 -1.2619e-19)
(-0.380833 0.171017 0)
(-0.409614 0.175069 -3.54316e-23)
(-0.439235 0.17895 0)
(-0.469645 0.182652 0)
(-0.500765 0.186162 1.40627e-23)
(-0.53249 0.189469 -1.06686e-19)
(-0.564693 0.19256 -1.03774e-19)
(-0.597236 0.195428 -1.00979e-19)
(-0.629991 0.198067 0)
(-0.662826 0.200467 -1.91685e-19)
(-0.695618 0.20259 0)
(-0.728269 0.20439 -9.14235e-20)
(-0.760706 0.205845 0)
(-0.792853 0.206948 0)
(-0.824623 0.207694 8.59932e-20)
(-0.855918 0.208044 0)
(-0.886652 0.207878 -8.28252e-20)
(-0.916843 0.206901 9.67378e-23)
(-0.946805 0.204777 1.58971e-19)
(-0.976908 0.201884 -1.55338e-19)
(-1.00722 0.198924 0)
(-1.03762 0.196001 0)
(-1.06796 0.193361 -7.25457e-20)
(-1.09802 0.190927 0)
(-1.12778 0.1885 -6.96521e-20)
(-1.15735 0.186079 6.82745e-20)
(-1.18676 0.183668 6.6965e-20)
(-1.21603 0.181263 0)
(-1.24518 0.178863 -6.45228e-20)
(-1.27419 0.17646 -6.33796e-20)
(-1.30309 0.174052 1.24447e-19)
(-1.33186 0.171634 -6.12285e-20)
(-1.36051 0.169202 -6.02137e-20)
(-1.38902 0.166752 0)
(-1.41738 0.164279 0)