/*--------------------------------*- C++ -*----------------------------------*\
  =========                 |
  \\      /  F ield         | OpenFOAM: The Open Source CFD Toolbox
   \\    /   O peration     | Website:  https://openfoam.org
    \\  /    A nd           | Version:  8
     \\/     M anipulation  |
\*---------------------------------------------------------------------------*/
FoamFile
{
    version     2.0;
    format      ascii;
    class       volScalarField;
    location    "210";
    object      epsilon;
}
// * * * * * * * * * * * * * * * * * * * * * * * * * * * * * * * * * * * * * //

dimensions      [0 2 -3 0 0 0 0];

internalField   nonuniform List<scalar> 
12225
(
285.523
270.705
257.917
243.81
232.463
223.085
216.811
212.699
212.743
213.947
217.259
220.843
228.17
232.677
241.45
246.062
256.694
253.894
52.4925
91.8828
106.973
114.749
124.841
136.785
152.688
169.905
191.113
210.931
235.24
255.481
281.077
299.349
324.743
339.559
363.651
378.982
20.5285
34.8726
44.6752
50.4695
55.3951
59.6081
64.6634
69.643
76.3183
83.1827
91.4415
99.3168
108.183
116.939
125.559
135.312
142.549
153.989
16.0023
19.4864
24.0815
27.5637
30.4965
32.8695
35.1553
37.2932
39.503
41.9173
44.3378
47.2023
49.6831
53.0421
55.4137
59.2532
61.3893
65.6923
15.0385
15.7124
17.3991
19.0784
20.6393
22.0259
23.2462
24.431
25.4443
26.5945
27.5237
28.7582
29.6326
30.9864
31.813
33.274
34.0479
35.6682
14.7897
14.8256
15.2495
15.8676
16.5677
17.287
17.9238
18.5841
19.1192
19.734
20.1934
20.799
21.2086
21.823
22.1979
22.8298
23.1623
23.8693
14.7658
14.6146
14.6409
14.7257
14.9351
15.2199
15.4916
15.8089
16.0709
16.3826
16.6182
16.9203
17.1309
17.4272
17.6157
17.9145
18.0716
18.4122
14.7687
14.5866
14.466
14.3801
14.3677
14.3896
14.4394
14.5334
14.6185
14.7366
14.8308
14.9565
15.0477
15.1763
15.2608
15.3933
15.4628
15.6237
14.768
14.591
14.4349
14.2963
14.185
14.1044
14.0399
14.0066
13.9814
13.9785
13.9809
13.9917
14.0037
14.0299
14.0462
14.0812
14.0969
14.1516
14.7665
14.594
14.432
14.282
14.143
14.0219
13.9115
13.8194
13.737
13.6698
13.6102
13.5633
13.5181
13.4872
13.4515
13.4344
13.4018
13.4011
14.7659
14.5945
14.4322
14.2803
14.1362
14.0032
13.8782
13.7644
13.6582
13.5629
13.4735
13.3952
13.3198
13.2561
13.1915
13.1408
13.0838
13.0452
14.7657
14.5943
14.4321
14.2798
14.1353
13.9999
13.8715
13.7518
13.6385
13.5337
13.4341
13.343
13.2557
13.1771
13.1003
13.0328
12.9647
12.9074
14.7657
14.5941
14.432
14.2794
14.1349
13.9989
13.8699
13.7485
13.6332
13.525
13.422
13.3257
13.2338
13.1483
13.0663
12.9906
12.9172
12.8502
14.7657
14.5939
14.4318
14.279
14.1346
13.9983
13.8692
13.7472
13.6315
13.5223
13.4184
13.3203
13.227
13.1389
13.055
12.9759
12.9002
12.8291
14.7657
14.5938
14.4317
14.2787
14.1342
13.9977
13.8686
13.7464
13.6307
13.5211
13.4171
13.3185
13.2248
13.136
13.0516
12.9715
12.8952
12.8228
14.7657
14.5937
14.4316
14.2785
14.1339
13.9973
13.8681
13.7458
13.63
13.5202
13.4161
13.3174
13.2236
13.1346
13.05
12.9697
12.8932
12.8204
14.7657
14.5937
14.4315
14.2783
14.1337
13.997
13.8677
13.7453
13.6294
13.5195
13.4154
13.3165
13.2227
13.1336
13.0489
12.9684
12.8919
12.819
14.7657
14.5937
14.4314
14.2782
14.1335
13.9968
13.8674
13.745
13.629
13.5191
13.4148
13.3159
13.222
13.1329
13.0481
12.9675
12.8909
12.818
14.7657
14.5937
14.4314
14.2782
14.1335
13.9967
13.8673
13.7448
13.6288
13.5189
13.4146
13.3157
13.2217
13.1325
13.0477
12.9671
12.8904
12.8174
14.7657
14.5937
14.4314
14.2782
14.1336
13.9968
13.8674
13.745
13.629
13.5191
13.4148
13.3159
13.2219
13.1327
13.048
12.9673
12.8907
12.8177
14.7657
14.5937
14.4315
14.2784
14.1338
13.997
13.8677
13.7453
13.6294
13.5196
13.4154
13.3166
13.2229
13.1338
13.0493
12.969
12.8927
12.82
14.7657
14.5937
14.4316
14.2785
14.1341
13.9974
13.8685
13.7464
13.6312
13.522
13.419
13.3214
13.2293
13.1418
13.0595
12.981
12.9074
12.8368
14.7659
14.5937
14.4318
14.2788
14.1353
14.0002
13.8742
13.756
13.6463
13.5435
13.4485
13.3592
13.277
13.1992
13.1282
13.0601
12.9988
12.9387
14.7661
14.5928
14.4329
14.2844
14.1515
14.0321
13.9289
13.8375
13.7593
13.6894
13.6307
13.5769
13.5328
13.4905
13.4574
13.423
13.3989
13.3693
14.7641
14.5936
14.461
14.3604
14.3029
14.2767
14.2796
14.294
14.3202
14.3529
14.3959
14.4345
14.4824
14.5217
14.572
14.6089
14.6616
14.6939
14.757
14.6921
14.7579
14.9172
15.1828
15.4611
15.7475
16.0121
16.2723
16.5038
16.7361
16.9386
17.1507
17.3309
17.5309
17.6936
17.8888
18.0359
14.9575
15.4344
16.5693
17.6884
18.7053
19.5677
20.3372
20.9969
21.6194
22.1661
22.7189
23.2108
23.7399
24.2043
24.7327
25.1826
25.725
26.166
16.2579
20.9389
25.015
27.7587
29.7844
31.3585
32.7767
34.0583
35.3593
36.6163
37.9754
39.2972
40.7616
42.1458
43.7178
45.1737
46.8837
48.3584
29.9428
47.225
54.8705
58.6735
61.6139
64.4321
67.5796
70.9791
74.7382
78.7142
82.9855
87.3446
91.9055
96.4506
101.1
105.623
110.175
114.577
165.79
160.073
154.899
149.564
144.479
139.678
135.613
132.11
129.27
126.973
125.32
124.044
123.339
122.829
122.825
122.982
123.269
123.826
0.388801
0.426141
0.764483
1.0855
1.42944
1.80222
2.20912
2.64865
3.11464
3.59692
4.08589
4.57139
5.0453
5.49867
5.92351
6.30999
6.64832
6.92687
7.13509
7.26356
7.29804
7.24396
7.07947
6.92038
6.81684
7.13995
7.45239
7.77814
8.06406
8.35635
8.66965
8.84597
8.61476
9.00105
9.20225
39.6333
40.092
40.2099
44.7391
47.1887
50.8609
54.2548
58.0306
61.8787
65.9436
70.1586
74.5579
79.1312
83.8863
88.827
93.9543
99.2759
104.791
110.508
116.425
122.551
128.883
135.431
142.189
149.168
156.36
163.777
171.409
179.268
187.342
195.642
204.156
212.893
221.839
231.005
240.373
249.953
259.727
269.703
279.86
290.207
300.72
311.408
322.245
333.239
344.363
355.621
366.985
378.459
390.009
401.638
413.309
425.022
436.74
448.451
460.123
471.725
483.225
494.599
505.841
516.977
528.105
539.046
549.857
560.494
570.951
581.202
591.228
601.007
610.516
619.739
628.649
637.232
645.462
653.323
660.79
667.847
674.47
680.642
686.344
691.557
696.265
700.452
704.101
707.196
709.727
711.685
713.066
713.845
713.973
713.329
712.178
710.606
708.479
705.561
702.086
697.989
693.321
688.071
682.281
675.942
669.068
661.662
653.812
645.519
636.826
627.764
618.374
608.699
598.775
588.647
578.35
567.928
557.415
546.855
536.279
525.729
515.235
504.838
494.567
484.471
474.623
465.309
458.23
452.894
447.748
442.918
438.175
433.611
429.341
425.344
421.628
418.219
415.134
412.382
409.996
408.026
406.489
405.189
404.066
403.719
403.237
402.486
400.08
382.937
1.72553
1.0315
1.03439
1.17262
1.38377
1.64951
1.96267
2.31567
2.69959
3.10514
3.52373
3.94797
4.37164
4.78947
5.19674
5.58907
5.96208
6.31173
6.6343
6.92694
7.2066
7.51047
7.8632
8.30781
8.85305
9.48462
10.1602
10.8038
11.6366
12.6135
13.8664
15.5193
16.9015
19.5228
21.0035
24.6859
25.5039
26.9596
28.7276
30.3395
32.1149
33.9126
35.7963
37.7354
39.7461
41.823
43.9709
46.1901
48.4824
50.8494
53.2919
55.8117
58.4093
61.0863
63.843
66.6808
69.5997
72.6008
75.6839
78.8499
82.0981
85.4292
88.8422
92.3374
95.9134
99.5704
103.306
107.121
111.012
114.979
119.019
123.13
127.311
131.558
135.869
140.241
144.67
149.155
153.688
158.269
162.891
167.551
172.242
176.961
181.698
186.451
191.209
195.967
200.717
205.451
210.159
214.834
219.472
224.074
228.653
233.234
237.879
242.481
247.025
251.504
255.911
260.238
264.478
268.621
272.66
276.588
280.396
284.077
287.623
291.026
294.277
297.369
300.294
303.044
305.612
307.99
310.171
312.149
313.915
315.465
316.792
317.892
318.757
319.379
319.738
319.832
319.72
319.389
318.818
317.946
316.829
315.459
313.845
311.988
309.897
307.574
305.026
302.26
299.294
296.134
292.794
289.287
285.628
281.833
277.918
273.897
269.787
265.604
261.362
257.078
252.767
248.446
244.127
239.828
235.563
231.35
227.224
223.278
219.834
216.778
213.875
211.099
208.406
205.821
203.37
201.051
198.871
196.839
194.965
193.253
191.712
190.358
189.21
188.236
187.383
186.813
186.394
186.264
186.114
185.891
3.46318
1.75224
1.55779
1.60758
1.75875
1.97894
2.25414
2.57474
2.93166
3.31616
3.72045
4.13827
4.56486
4.99679
5.4325
5.87182
6.31532
6.76532
7.22671
7.70919
8.21797
8.75521
9.33652
9.9706
10.6518
11.375
12.1383
12.9536
13.8574
14.868
15.9942
17.164
18.4446
19.8423
21.1646
22.6034
23.8152
25.1361
26.5221
27.9347
29.4079
30.9315
32.5108
34.1434
35.8314
37.575
39.3754
41.2333
43.1494
45.1248
47.16
49.2558
51.4126
53.6313
55.9122
58.2558
60.6625
63.1324
65.6658
68.2629
70.9233
73.6473
76.4342
79.284
82.1959
85.1694
88.2036
91.2976
94.4504
97.6607
100.927
104.248
107.621
111.046
114.519
118.038
121.601
125.206
128.848
132.526
136.236
139.974
143.737
147.52
151.32
155.132
158.951
162.773
166.594
170.409
174.215
178.009
181.789
185.558
189.319
193.076
196.824
200.535
204.201
207.815
211.373
214.867
218.292
221.64
224.907
228.085
231.169
234.151
237.027
239.788
242.43
244.944
247.326
249.569
251.667
253.613
255.401
257.027
258.484
259.767
260.871
261.791
262.522
263.06
263.378
263.495
263.47
263.23
262.791
262.134
261.274
260.214
258.956
257.504
255.863
254.036
252.03
249.852
247.511
245.014
242.372
239.595
236.695
233.684
230.574
227.377
224.106
220.773
217.391
213.972
210.529
207.073
203.618
200.175
196.757
193.378
190.06
186.851
183.856
181.058
178.387
175.821
173.346
170.968
168.699
166.543
164.504
162.59
160.807
159.159
157.653
156.297
155.1
154.058
153.16
152.464
151.962
151.799
151.887
152.505
5.29635
2.52338
2.12906
2.10462
2.21822
2.41299
2.66763
2.97074
3.31364
3.68876
4.08949
4.51056
4.94841
5.40134
5.86873
6.35108
6.85023
7.36874
7.9098
8.47682
9.07211
9.69744
10.3549
11.0444
11.7642
12.5141
13.299
14.1299
15.0175
15.9665
16.9749
18.0522
19.163
20.3127
21.4861
22.6961
23.9203
25.2022
26.5336
27.9027
29.3186
30.7829
32.2973
33.8624
35.4793
37.1487
38.8715
40.6485
42.4806
44.3685
46.313
48.3146
50.374
52.4916
54.6681
56.904
59.1996
61.5554
63.9716
66.4484
68.9859
71.5841
74.2428
76.962
79.7412
82.58
85.4778
88.4338
91.4471
94.5167
97.6414
100.82
104.05
107.331
110.661
114.037
117.457
120.919
124.419
127.956
131.526
135.126
138.753
142.402
146.07
149.754
153.45
157.153
160.86
164.569
168.274
171.975
175.668
179.351
183.025
186.684
190.318
193.915
197.468
200.972
204.421
207.807
211.126
214.371
217.536
220.614
223.601
226.489
229.272
231.944
234.499
236.931
239.234
241.402
243.428
245.307
247.033
248.601
250.006
251.241
252.302
253.185
253.885
254.399
254.7
254.817
254.785
254.542
254.102
253.462
252.627
251.598
250.379
248.973
247.385
245.62
243.683
241.581
239.322
236.915
234.368
231.692
228.898
225.996
223
219.919
216.767
213.555
210.296
207.001
203.683
200.353
197.022
193.702
190.406
187.145
183.937
180.81
177.812
174.948
172.195
169.542
166.983
164.521
162.162
159.912
157.775
155.757
153.863
152.097
150.466
148.975
147.63
146.436
145.396
144.544
143.901
143.6
143.62
144.103
7.06932
3.28923
2.69639
2.6024
2.67912
2.85106
3.08875
3.37797
3.7096
4.0766
4.47315
4.89467
5.33791
5.80102
6.28337
6.78539
7.30825
7.85362
8.42317
9.01837
9.64008
10.2888
10.965
11.6693
12.4018
13.1637
13.959
14.7936
15.6721
16.5953
17.5607
18.5729
19.6358
20.7424
21.8897
23.0795
24.3116
25.5882
26.9083
28.275
29.6895
31.1525
32.6654
34.2292
35.8449
37.5135
39.236
41.0135
42.8469
44.7372
46.6856
48.6927
50.7591
52.8855
55.0726
57.3211
59.6318
62.0052
64.4418
66.942
69.5062
72.1346
74.8274
77.5847
80.4062
83.2917
86.241
89.2533
92.3282
95.4645
98.6614
101.918
105.232
108.602
112.026
115.503
119.03
122.605
126.224
129.886
133.586
137.322
141.091
144.888
148.71
152.553
156.413
160.286
164.168
168.055
171.943
175.829
179.708
183.575
187.425
191.25
195.045
198.801
202.511
206.169
209.768
213.302
216.764
220.148
223.448
226.656
229.767
232.773
235.669
238.448
241.104
243.63
246.02
248.268
250.368
252.314
254.099
255.719
257.167
258.44
259.531
260.436
261.152
261.674
261.978
262.095
262.042
261.775
261.303
260.627
259.749
258.672
257.399
255.932
254.278
252.441
250.427
248.243
245.897
243.399
240.756
237.981
235.083
232.075
228.968
225.775
222.507
219.178
215.799
212.383
208.942
205.489
202.034
198.59
195.168
191.78
188.44
185.168
181.991
178.919
175.949
173.074
170.296
167.617
165.041
162.574
160.221
157.986
155.874
153.891
152.04
150.328
148.761
147.345
146.091
145.025
144.18
143.657
143.47
143.619
8.72667
4.01894
3.23551
3.07431
3.11482
3.26441
3.48552
3.76087
4.08037
4.43703
4.82541
5.24127
5.68145
6.14394
6.62774
7.13276
7.65954
8.20911
8.78257
9.38104
10.0054
10.6564
11.335
12.0422
12.7793
13.5487
14.3534
15.1965
16.0805
17.0069
17.9762
18.9896
20.0481
21.1511
22.2988
23.4917
24.7304
26.0158
27.3483
28.7292
30.1595
31.6404
33.1732
34.7592
36.3995
38.0953
39.848
41.6586
43.5283
45.4582
47.4493
49.5028
51.6201
53.8024
56.0506
58.3659
60.7493
63.2017
65.7239
68.3166
70.9806
73.7165
76.5246
79.4053
82.3586
85.3848
88.4834
91.6543
94.8969
98.2105
101.594
105.046
108.566
112.151
115.801
119.512
123.282
127.109
130.989
134.921
138.899
142.921
146.983
151.08
155.209
159.365
163.544
167.74
171.95
176.168
180.388
184.607
188.817
193.013
197.187
201.332
205.442
209.509
213.525
217.484
221.378
225.201
228.945
232.603
236.167
239.631
242.988
246.23
249.351
252.343
255.2
257.916
260.483
262.894
265.145
267.228
269.137
270.866
272.411
273.764
274.923
275.882
276.636
277.183
277.499
277.615
277.537
277.234
276.712
275.972
275.018
273.851
272.474
270.891
269.108
267.13
264.964
262.617
260.097
257.414
254.577
251.599
248.49
245.263
241.929
238.504
234.998
231.426
227.8
224.134
220.441
216.732
213.022
209.32
205.639
201.991
198.389
194.847
191.385
188.014
184.736
181.554
178.469
175.485
172.606
169.839
167.187
164.655
162.248
159.972
157.83
155.828
153.973
152.274
150.743
149.405
148.294
147.486
146.992
146.731
10.2274
4.69066
3.72863
3.50243
3.50732
3.6343
3.83825
4.09873
4.40451
4.74833
5.12493
5.53028
5.96139
6.4162
6.8935
7.3929
7.91462
8.45939
9.02818
9.62217
10.2426
10.8907
11.5678
12.2755
13.0154
13.7897
14.6004
15.4499
16.3399
17.2719
18.247
19.266
20.3297
21.4389
22.5944
23.7971
25.048
26.348
27.6982
29.0997
30.5538
32.0618
33.6251
35.2453
36.9238
38.662
40.4616
42.324
44.2507
46.2433
48.3032
50.432
52.6314
54.9028
57.2478
59.6677
62.164
64.7381
67.391
70.1241
72.9383
75.8345
78.8136
81.8761
85.0225
88.2531
91.5678
94.9667
98.4492
102.015
105.663
109.391
113.2
117.086
121.048
125.083
129.189
133.363
137.601
141.901
146.258
150.667
155.126
159.628
164.169
168.744
173.347
177.973
182.615
187.269
191.927
196.582
201.228
205.856
210.46
215.03
219.56
224.041
228.465
232.824
237.11
241.315
245.431
249.45
253.363
257.164
260.843
264.394
267.809
271.079
274.199
277.16
279.956
282.579
285.023
287.282
289.348
291.217
292.882
294.338
295.58
296.603
297.403
297.977
298.301
298.408
298.295
297.941
297.35
296.523
295.463
294.173
292.656
290.917
288.96
286.793
284.422
281.856
279.103
276.173
273.078
269.828
266.437
262.917
259.282
255.546
251.722
247.826
243.871
239.871
235.84
231.791
227.736
223.689
219.661
215.664
211.712
207.816
203.991
200.25
196.598
193.04
189.58
186.224
182.975
179.84
176.822
173.928
171.162
168.528
166.032
163.68
161.479
159.439
157.574
155.907
154.471
153.325
152.467
151.792
11.5415
5.28868
4.16394
3.87324
3.84526
3.94895
4.13485
4.37937
4.67001
4.99912
5.36147
5.75325
6.17166
6.61476
7.08135
7.57096
8.0837
8.62017
9.18131
9.76835
10.3826
11.0257
11.6992
12.4047
13.144
13.919
14.7315
15.5832
16.4759
17.4109
18.3895
19.4129
20.4821
21.5984
22.7628
23.9766
25.2412
26.5578
27.9279
29.3531
30.8348
32.3747
33.9746
35.6361
37.3612
39.1517
41.0095
42.9364
44.9344
47.0056
49.1518
51.3752
53.6777
56.0613
58.528
61.0797
63.7183
66.4456
69.2632
72.1728
75.1759
78.2736
81.4673
84.7579
88.146
91.6324
95.2173
98.9006
102.682
106.561
110.538
114.609
118.775
123.033
127.381
131.816
136.336
140.936
145.613
150.364
155.182
160.065
165.005
169.999
175.039
180.12
185.234
190.377
195.539
200.714
205.894
211.072
216.237
221.382
226.497
231.574
236.604
241.576
246.483
251.315
256.063
260.718
265.271
269.712
274.032
278.224
282.277
286.184
289.936
293.525
296.943
300.183
303.236
306.095
308.754
311.205
313.442
315.46
317.251
318.811
320.135
321.218
322.056
322.645
322.964
323.046
322.879
322.451
321.766
320.824
319.629
318.183
316.49
314.556
312.386
309.988
307.369
304.537
301.503
298.277
294.871
291.298
287.57
283.702
279.709
275.604
271.405
267.124
262.778
258.382
253.949
249.494
245.031
240.573
236.132
231.72
227.351
223.036
218.788
214.619
210.536
206.546
202.656
198.87
195.195
191.635
188.195
184.882
181.7
178.653
175.748
172.992
170.391
167.956
165.703
163.654
161.839
160.306
159.039
157.924
12.6515
5.80216
4.53293
4.18134
4.1217
4.20222
4.36952
4.59731
4.87188
5.18515
5.53188
5.9084
6.31215
6.74136
7.19496
7.67251
8.17414
8.70043
9.25229
9.83083
10.4373
11.0734
11.7407
12.4412
13.1764
13.9483
14.7585
15.6087
16.5006
17.4357
18.4155
19.4416
20.5152
21.638
22.8113
24.0368
25.316
26.6504
28.042
29.493
31.0054
32.5812
34.2226
35.9318
37.7109
39.5623
41.4883
43.4913
45.5738
47.7383
49.9872
52.3232
54.7487
57.2664
59.8786
62.588
65.397
68.3077
71.3225
74.4434
77.6724
81.0112
84.4614
88.0243
91.701
95.4924
99.3988
103.42
107.557
111.809
116.174
120.651
125.239
129.936
134.738
139.643
144.647
149.746
154.936
160.212
165.569
171
176.499
182.06
187.676
193.339
199.041
204.775
210.531
216.301
222.076
227.846
233.6
239.329
245.023
250.67
256.261
261.786
267.232
272.592
277.853
283.005
288.038
292.943
297.708
302.325
306.782
311.072
315.185
319.112
322.844
326.373
329.692
332.792
335.666
338.308
340.711
342.868
344.774
346.424
347.812
348.935
349.788
350.367
350.657
350.684
350.433
349.901
349.088
347.997
346.63
344.992
343.086
340.918
338.494
335.823
332.914
329.774
326.416
322.851
319.091
315.149
311.04
306.778
302.38
297.861
293.238
288.525
283.74
278.898
274.014
269.104
264.181
259.26
254.354
249.476
244.639
239.853
235.132
230.487
225.926
221.459
217.09
212.828
208.678
204.645
200.735
196.954
193.307
189.8
186.437
183.228
180.179
177.302
174.614
172.134
169.891
167.924
166.207
164.626
13.5487
6.22571
4.83258
4.42558
4.33564
4.39336
4.54185
4.75252
5.01059
5.30756
5.63809
5.99863
6.38682
6.80108
7.24038
7.70433
8.19326
8.70795
9.24959
9.81995
10.4188
11.0479
11.7088
12.4033
13.1332
13.9002
14.7061
15.5527
16.4419
17.3753
18.3546
19.3818
20.4584
21.5864
22.7677
24.0042
25.2979
26.651
28.0676
29.5477
31.0948
32.7119
34.4015
36.1662
38.0087
39.9318
41.9385
44.0316
46.2142
48.4894
50.8603
53.3301
55.9019
58.579
61.3644
64.2611
67.2723
70.4009
73.6494
77.0207
80.5171
84.1407
87.8937
91.7775
95.7936
99.943
104.226
108.644
113.196
117.881
122.698
127.646
132.723
137.925
143.251
148.696
154.255
159.925
165.7
171.573
177.539
183.59
189.72
195.919
202.18
208.494
214.851
221.241
227.655
234.083
240.512
246.932
253.331
259.698
266.021
272.287
278.485
284.602
290.628
296.549
302.355
308.033
313.572
318.96
324.188
329.242
334.114
338.792
343.267
347.53
351.571
355.382
358.954
362.279
365.35
368.161
370.704
372.974
374.965
376.672
378.09
379.217
380.047
380.576
380.799
380.727
380.351
379.672
378.689
377.406
375.825
373.951
371.788
369.342
366.623
363.637
360.395
356.907
353.185
349.239
345.085
340.735
336.206
331.512
326.67
321.698
316.611
311.428
306.164
300.837
295.463
290.058
284.637
279.214
273.803
268.418
263.071
257.775
252.541
247.381
242.305
237.321
232.436
227.658
222.994
218.449
214.029
209.739
205.587
201.577
197.717
194.013
190.475
187.115
183.949
180.997
178.283
175.843
173.642
171.568
14.2334
6.55848
5.06372
4.60803
4.48977
4.52552
4.65544
4.84903
5.09064
5.37139
5.68586
6.03015
6.40254
6.80216
7.2291
7.68166
8.15989
8.66427
9.19549
9.7542
10.3417
10.96
11.6109
12.296
13.0174
13.7768
14.5762
15.4176
16.3029
17.2344
18.214
19.2439
20.3263
21.4635
22.6579
23.9119
25.228
26.6082
28.0546
29.5695
31.1588
32.8263
34.5748
36.4077
38.3281
40.3392
42.4447
44.6481
46.9531
49.3635
51.8831
54.5157
57.2653
60.1355
63.1303
66.2533
69.5082
72.8984
76.4273
80.098
83.9133
87.8759
91.988
96.2514
100.668
105.238
109.964
114.844
119.878
125.066
130.407
135.897
141.535
147.317
153.24
159.298
165.486
171.799
178.23
184.772
191.417
198.157
204.983
211.886
218.855
225.879
232.948
240.051
247.175
254.308
261.438
268.552
275.635
282.676
289.659
296.573
303.402
310.134
316.755
323.252
329.611
335.819
341.865
347.735
353.416
358.898
364.169
369.217
374.033
378.606
382.927
386.986
390.776
394.288
397.515
400.451
403.088
405.423
407.448
409.161
410.557
411.633
412.385
412.811
412.909
412.684
412.128
411.247
410.041
408.514
406.667
404.507
402.038
399.269
396.207
392.863
389.246
385.368
381.241
376.878
372.292
367.499
362.514
357.354
352.036
346.578
340.997
335.312
329.54
323.699
317.805
311.875
305.925
299.97
294.025
288.102
282.217
276.38
270.604
264.901
259.279
253.749
248.319
242.996
237.787
232.699
227.737
222.908
218.218
213.674
209.282
205.051
200.991
197.113
193.435
189.976
186.757
183.81
181.097
178.512
14.7161
6.80397
5.23029
4.73339
4.58942
4.6046
4.7166
4.89355
5.11903
5.38409
5.68391
6.01512
6.37485
6.76134
7.17304
7.61023
8.07355
8.56367
9.08142
9.62796
10.2049
10.8137
11.4559
12.1333
12.848
13.6019
14.3973
15.2364
16.1214
17.0549
18.0393
19.0774
20.1715
21.3245
22.5394
23.8194
25.167
26.5845
28.0744
29.6397
31.2877
33.0225
34.8487
36.7711
38.7932
40.9188
43.1521
45.4974
47.9592
50.542
53.2503
56.0887
59.0619
62.1744
65.4305
68.8347
72.3913
76.1041
79.977
84.0135
88.2168
92.5897
97.1346
101.854
106.748
111.819
117.066
122.49
128.09
133.865
139.811
145.927
152.208
158.651
165.25
172
178.894
185.925
193.084
200.364
207.755
215.247
222.829
230.49
238.219
246.002
253.827
261.681
269.55
277.419
285.276
293.103
300.888
308.614
316.265
323.828
331.287
338.626
345.831
352.886
359.779
366.493
373.016
379.333
385.432
391.3
396.925
402.295
407.4
412.229
416.772
421.02
424.965
428.599
431.915
434.907
437.569
439.896
441.884
443.53
444.83
445.782
446.385
446.635
446.537
446.087
445.282
444.133
442.641
440.808
438.638
436.135
433.307
430.162
426.71
422.96
418.925
414.615
410.045
405.227
400.175
394.907
389.437
383.783
377.962
371.993
365.895
359.685
353.383
347.006
340.572
334.098
327.6
321.094
314.594
308.116
301.672
295.275
288.938
282.671
276.486
270.391
264.395
258.507
252.732
247.079
241.553
236.162
230.912
225.809
220.862
216.079
211.471
207.051
202.835
198.841
195.091
191.614
188.368
185.26
15.0147
6.9708
5.33888
4.80846
4.64175
4.63855
4.73347
4.8951
5.10758
5.3599
5.64588
5.96108
6.30451
6.67523
7.07287
7.49744
7.94909
8.4284
8.93629
9.47398
10.0429
10.6447
11.2813
11.9545
12.6667
13.4202
14.2173
15.0606
15.9529
16.897
17.8962
18.954
20.0729
21.2559
22.5062
23.8266
25.2182
26.6878
28.241
29.8835
31.6201
33.4558
35.3957
37.4454
39.61
41.894
44.3026
46.8409
49.5144
52.3283
55.2881
58.399
61.6662
65.0951
68.6905
72.4574
76.4004
80.5239
84.8319
89.3281
94.0156
98.8971
103.975
109.251
114.725
120.399
126.272
132.343
138.61
145.07
151.721
158.558
165.576
172.769
180.132
187.656
195.333
203.155
211.112
219.192
227.386
235.681
244.065
252.524
261.045
269.614
278.215
286.834
295.455
304.062
312.639
321.17
329.637
338.025
346.316
354.493
362.541
370.442
378.18
385.739
393.104
400.26
407.191
413.884
420.324
426.499
432.396
438.003
443.309
448.304
452.978
457.321
461.327
464.987
468.296
471.247
473.836
476.059
477.913
479.396
480.507
481.244
481.605
481.592
481.211
480.443
479.312
477.819
475.967
473.758
471.197
468.29
465.044
461.469
457.575
453.373
448.876
444.095
439.044
433.738
428.191
422.419
416.44
410.27
403.927
397.431
390.8
384.052
377.208
370.284
363.3
356.272
349.217
342.151
335.09
328.047
321.037
314.072
307.165
300.327
293.568
286.899
280.329
273.864
267.514
261.285
255.183
249.217
243.393
237.718
232.2
226.85
221.679
216.699
211.928
207.383
203.085
199.061
195.269
191.635
15.126
7.05937
5.3939
4.8394
4.65341
4.63587
4.71816
4.86705
5.06412
5.3008
5.57194
5.87461
6.20657
6.56666
6.95444
7.36994
7.81357
8.2861
8.7886
9.32243
9.88914
10.4906
11.1289
11.8064
12.5257
13.2901
14.1018
14.9637
15.8789
16.8509
17.8826
18.9764
20.1354
21.3655
22.6715
24.0588
25.5328
27.0986
28.7621
30.5293
32.4059
34.398
36.5122
38.7548
41.1313
43.6478
46.3109
49.1269
52.1022
55.2428
58.5549
62.0442
65.7165
69.5773
73.632
77.8855
82.3425
87.0073
91.8835
96.9745
102.283
107.81
113.559
119.528
125.719
132.129
138.758
145.603
152.661
159.926
167.395
175.06
182.916
190.955
199.167
207.544
216.075
224.75
233.556
242.482
251.513
260.637
269.839
279.103
288.415
297.758
307.116
316.471
325.807
335.107
344.352
353.525
362.608
371.583
380.432
389.136
397.679
406.043
414.21
422.165
429.89
437.371
444.591
451.537
458.193
464.548
470.587
476.301
481.677
486.705
491.377
495.684
499.619
503.175
506.346
509.128
511.517
513.512
515.11
516.311
517.117
517.525
517.534
517.162
516.373
515.202
513.652
511.728
509.433
506.772
503.75
500.372
496.647
492.587
488.201
483.501
478.499
473.21
467.647
461.825
455.759
449.464
442.959
436.26
429.386
422.355
415.186
407.898
400.51
393.04
385.507
377.928
370.32
362.698
355.079
347.476
339.903
332.374
324.9
317.493
310.165
302.923
295.779
288.74
281.814
275.008
268.329
261.785
255.384
249.133
243.04
237.117
231.376
225.83
220.495
215.392
210.537
205.96
201.619
197.461
15.1011
7.07624
5.40123
4.83462
4.63675
4.60705
4.6749
4.80996
4.99575
5.22263
5.48509
5.77994
6.10524
6.46
6.84386
7.25704
7.70019
8.17443
8.68143
9.22261
9.79957
10.4146
11.0701
11.7687
12.5131
13.3054
14.1479
15.046
16.0042
17.027
18.1192
19.2863
20.5332
21.8652
23.2881
24.8083
26.4326
28.1675
30.0199
31.9969
34.1054
36.3528
38.7468
41.2941
44.0022
46.8788
49.9317
53.1689
56.5977
60.2244
64.0552
68.0957
72.3515
76.8277
81.5292
86.4602
91.6246
97.0253
102.665
108.545
114.667
121.03
127.634
134.478
141.559
148.873
156.418
164.187
172.175
180.375
188.779
197.38
206.167
215.131
224.261
233.545
242.971
252.525
262.194
271.964
281.82
291.746
301.726
311.743
321.782
331.823
341.85
351.845
361.789
371.664
381.451
391.132
400.689
410.101
419.352
428.422
437.294
445.949
454.37
462.542
470.446
478.068
485.392
492.404
499.09
505.437
511.434
517.069
522.331
527.212
531.703
535.797
539.488
542.769
545.636
548.087
550.12
551.733
552.928
553.703
554.068
554.013
553.558
552.669
551.381
549.699
547.629
545.179
542.355
539.162
535.605
531.691
527.429
522.83
517.905
512.667
507.128
501.302
495.203
488.846
482.247
475.421
468.384
461.156
453.752
446.192
438.494
430.676
422.756
414.755
406.688
398.574
390.429
382.269
374.108
365.962
357.844
349.767
341.743
333.784
325.899
318.1
310.396
302.794
295.304
287.932
280.685
273.572
266.601
259.78
253.118
246.627
240.319
234.209
228.313
222.652
217.243
212.116
207.23
202.561
14.9987
7.0554
5.38084
4.8045
4.59372
4.55354
4.61359
4.74235
4.92298
5.14628
5.40706
5.7026
6.03113
6.39159
6.78394
7.2087
7.66676
8.15926
8.68721
9.2512
9.85512
10.5023
11.1964
11.9409
12.7402
13.5991
14.5221
15.5143
16.5811
17.7286
18.9633
20.2922
21.7221
23.2603
24.9144
26.6925
28.603
30.6544
32.8553
35.2141
37.7393
40.4391
43.3212
46.3931
49.6643
53.1443
56.8425
60.7693
64.9338
69.3393
73.9898
78.8891
84.0407
89.4479
95.1128
101.037
107.222
113.668
120.373
127.336
134.555
142.025
149.744
157.705
165.903
174.331
182.981
191.845
200.914
210.179
219.628
229.25
239.033
248.966
259.035
269.226
279.526
289.919
300.39
310.924
321.505
332.117
342.742
353.363
363.963
374.525
385.03
395.46
405.797
416.022
426.116
436.063
445.842
455.436
464.827
473.996
482.926
491.599
499.999
508.11
515.916
523.403
530.555
537.359
543.803
549.873
555.561
560.855
565.748
570.229
574.293
577.934
581.147
583.926
586.271
588.177
589.648
590.682
591.284
591.448
591.209
590.526
589.414
587.892
585.965
583.643
580.933
577.846
574.39
570.571
566.396
561.87
557.004
551.809
546.296
540.477
534.365
527.973
521.315
514.406
507.261
499.896
492.328
484.572
476.646
468.567
460.352
452.02
443.588
435.073
426.494
417.867
409.207
400.531
391.853
383.186
374.545
365.942
357.39
348.898
340.479
332.141
323.894
315.748
307.709
299.786
291.986
284.317
276.789
269.409
262.188
255.138
248.272
241.607
235.159
228.948
222.993
217.327
211.906
206.748
14.7769
7.00149
5.33354
4.75305
4.54091
4.50112
4.56356
4.69774
4.88634
5.12024
5.39439
5.70565
6.0511
6.43188
6.84897
7.30377
7.79813
8.33449
8.91606
9.54638
10.229
10.9684
11.7698
12.6387
13.5814
14.6047
15.7159
16.9222
18.2319
19.6534
21.1959
22.869
24.6827
26.6471
28.7726
31.0698
33.5492
36.2216
39.097
42.1855
45.4965
49.0389
52.821
56.8508
61.1365
65.6859
70.507
75.6063
80.9934
86.6655
92.6209
98.8582
105.375
112.169
119.237
126.575
134.178
142.039
150.153
158.513
167.11
175.936
184.983
194.24
203.697
213.345
223.171
233.166
243.316
253.61
264.035
274.579
285.229
295.971
306.791
317.675
328.609
339.579
350.569
361.565
372.551
383.511
394.43
405.291
416.079
426.775
437.364
447.829
458.152
468.318
478.307
488.104
497.691
507.052
516.17
525.028
533.609
541.898
549.88
557.541
564.865
571.84
578.452
584.69
590.54
595.995
601.044
605.681
609.895
613.681
617.034
619.952
622.427
624.457
626.046
627.183
627.886
628.142
627.973
627.374
626.323
624.863
622.989
620.711
618.036
614.976
611.54
607.739
603.586
599.088
594.252
589.082
583.591
577.786
571.681
565.284
558.609
551.668
544.475
537.044
529.389
521.526
513.469
505.235
496.838
488.295
479.622
470.834
461.949
452.983
443.953
434.874
425.761
416.63
407.493
398.365
389.259
380.187
371.16
362.189
353.285
344.457
335.716
327.069
318.526
310.093
301.778
293.591
285.541
277.637
269.888
262.309
254.915
247.722
240.747
234.013
227.539
221.359
215.428
209.811
14.515
6.89987
5.26541
4.70286
4.50537
4.48091
4.56034
4.71163
4.91955
5.17713
5.48056
5.82839
6.2207
6.65826
7.14311
7.67825
8.26748
8.91544
9.62763
10.4101
11.2695
12.2134
13.2503
14.3895
15.6409
17.0153
18.5243
20.18
21.995
23.9824
26.1556
28.5279
31.1129
33.9241
36.9745
40.2764
43.8411
47.6795
51.8016
56.2155
60.9276
65.943
71.2668
76.9025
82.851
89.1135
95.6938
102.591
109.797
117.299
125.085
133.145
141.466
150.038
158.849
167.887
177.141
186.597
196.245
206.072
216.066
226.215
236.508
246.931
257.473
268.124
278.87
289.701
300.605
311.57
322.585
333.639
344.719
355.814
366.913
378.003
389.072
400.108
411.098
422.031
432.893
443.671
454.352
464.921
475.366
485.672
495.824
505.808
515.61
525.215
534.607
543.772
552.694
561.359
569.753
577.86
585.666
593.157
600.319
607.141
613.608
619.712
625.439
630.777
635.718
640.255
644.379
648.085
651.364
654.213
656.627
658.61
660.152
661.246
661.916