/*--------------------------------*- C++ -*----------------------------------*\
  =========                 |
  \\      /  F ield         | OpenFOAM: The Open Source CFD Toolbox
   \\    /   O peration     | Website:  https://openfoam.org
    \\  /    A nd           | Version:  8
     \\/     M anipulation  |
\*---------------------------------------------------------------------------*/
FoamFile
{
    version     2.0;
    format      ascii;
    class       volScalarField;
    location    "210";
    object      k;
}
// * * * * * * * * * * * * * * * * * * * * * * * * * * * * * * * * * * * * * //

dimensions      [0 2 -2 0 0 0 0];

internalField   nonuniform List<scalar> 
12225
(
0.362814
0.343992
0.327745
0.309819
0.2954
0.283483
0.275511
0.270285
0.270339
0.271895
0.276045
0.280754
0.289896
0.2956
0.306979
0.312512
0.326963
0.335085
0.440186
0.468698
0.461605
0.448369
0.450348
0.458313
0.474539
0.498556
0.524389
0.552139
0.580751
0.606191
0.633877
0.653904
0.679846
0.693298
0.717626
0.729374
0.390541
0.417873
0.420231
0.416826
0.411628
0.407803
0.408018
0.410036
0.414555
0.421402
0.430734
0.439716
0.4512
0.461162
0.472887
0.483594
0.493583
0.50623
0.377546
0.386982
0.391406
0.391342
0.390222
0.387896
0.385662
0.384081
0.382882
0.382896
0.383388
0.384324
0.386304
0.388472
0.390923
0.394268
0.396538
0.40105
0.374562
0.37609
0.378412
0.378665
0.378263
0.377205
0.375488
0.373738
0.37201
0.370455
0.369259
0.368106
0.367382
0.366807
0.366446
0.366344
0.366358
0.36672
0.373814
0.37271
0.372645
0.372383
0.371761
0.370817
0.369553
0.368083
0.366571
0.364976
0.363528
0.362063
0.360755
0.359529
0.358397
0.357429
0.356442
0.355789
0.373782
0.371742
0.370386
0.369287
0.368234
0.367114
0.365915
0.364587
0.363238
0.361808
0.360422
0.359024
0.357678
0.356382
0.355121
0.353966
0.352795
0.351804
0.37382
0.37156
0.369634
0.367977
0.366501
0.365108
0.363775
0.362429
0.361107
0.359766
0.35845
0.357144
0.355863
0.354622
0.353401
0.35225
0.351099
0.350052
0.373832
0.371553
0.369449
0.367525
0.365777
0.364154
0.362645
0.361199
0.359817
0.358473
0.35717
0.355903
0.354667
0.353475
0.352307
0.351195
0.350097
0.349072
0.373831
0.37156
0.369418
0.367405
0.365529
0.363773
0.362133
0.360585
0.359122
0.357728
0.356395
0.355118
0.353888
0.35271
0.351569
0.350481
0.349419
0.34842
0.373829
0.37156
0.369413
0.367378
0.365458
0.363645
0.361937
0.360324
0.358799
0.357353
0.355979
0.354672
0.353424
0.352235
0.351094
0.350008
0.348959
0.347969
0.373828
0.371558
0.369409
0.36737
0.365439
0.363609
0.361876
0.360234
0.358677
0.357202
0.3558
0.354468
0.3532
0.351994
0.350842
0.349747
0.348695
0.3477
0.373827
0.371556
0.369405
0.367365
0.36543
0.363593
0.361851
0.360197
0.358626
0.357134
0.355716
0.354368
0.353084
0.351864
0.3507
0.349594
0.348535
0.347532
0.373826
0.371555
0.369401
0.36736
0.365422
0.363583
0.361837
0.360178
0.3586
0.357101
0.355674
0.354317
0.353024
0.351794
0.350622
0.349506
0.34844
0.347427
0.373826
0.371553
0.369398
0.367355
0.365416
0.363575
0.361826
0.360164
0.358584
0.357081
0.355651
0.35429
0.352993
0.351758
0.35058
0.349459
0.348388
0.347368
0.373826
0.371552
0.369396
0.367351
0.36541
0.363567
0.361817
0.360154
0.358572
0.357067
0.355634
0.354271
0.352972
0.351734
0.350554
0.34943
0.348356
0.347333
0.373825
0.371551
0.369394
0.367348
0.365406
0.363562
0.36181
0.360145
0.358562
0.357055
0.355621
0.354256
0.352955
0.351716
0.350535
0.349408
0.348334
0.347309
0.373825
0.371551
0.369393
0.367346
0.365403
0.363558
0.361805
0.360139
0.358555
0.357047
0.355612
0.354246
0.352944
0.351703
0.35052
0.349393
0.348317
0.347291
0.373825
0.37155
0.369393
0.367346
0.365402
0.363557
0.361804
0.360137
0.358552
0.357044
0.355608
0.354241
0.352938
0.351697
0.350513
0.349385
0.348308
0.347281
0.373825
0.371551
0.369393
0.367347
0.365404
0.363559
0.361806
0.36014
0.358555
0.357047
0.355611
0.354244
0.352942
0.351701
0.350517
0.349389
0.348312
0.347285
0.373826
0.371551
0.369395
0.367349
0.365407
0.363563
0.361811
0.360146
0.358562
0.357055
0.355621
0.354256
0.352955
0.351715
0.350534
0.349407
0.348333
0.347308
0.373826
0.371552
0.369397
0.367352
0.365412
0.363571
0.361822
0.360161
0.358583
0.357083
0.355656
0.354299
0.353006
0.351775
0.350602
0.349484
0.348417
0.347398
0.373826
0.371554
0.369399
0.367359
0.365429
0.363603
0.361875
0.36024
0.358691
0.35722
0.355823
0.354494
0.353227
0.352019
0.350866
0.349763
0.348711
0.347701
0.373828
0.371551
0.369412
0.367417
0.365556
0.363819
0.362189
0.360651
0.359189
0.357794
0.356456
0.355172
0.353936
0.352746
0.351601
0.350496
0.349436
0.34841
0.373823
0.371554
0.369605
0.367893
0.366339
0.364892
0.363495
0.362122
0.360761
0.359414
0.358081
0.35677
0.355489
0.354238
0.353029
0.351856
0.350734
0.349645
0.373788
0.371991
0.371113
0.370266
0.36936
0.368311
0.367048
0.36563
0.364121
0.362575
0.36103
0.359522
0.358073
0.356682
0.355382
0.354142
0.35301
0.351924
0.374355
0.375572
0.377775
0.377858
0.377288
0.375886
0.373835
0.371641
0.369505
0.367482
0.365664
0.364084
0.362711
0.361535
0.36061
0.359818
0.359289
0.3588
0.379125
0.394296
0.398249
0.396573
0.392538
0.387603
0.383646
0.380448
0.378268
0.376853
0.376497
0.37674
0.377415
0.37869
0.38044
0.382421
0.384825
0.387136
0.408394
0.42754
0.422416
0.411056
0.402226
0.397924
0.398626
0.400963
0.406069
0.413054
0.420998
0.429827
0.438834
0.448188
0.457304
0.466548
0.475318
0.484176
0.36605
0.353415
0.341988
0.33021
0.318982
0.308381
0.299411
0.291671
0.285404
0.280333
0.276682
0.273866
0.272312
0.271173
0.271211
0.271472
0.272189
0.273389
0.00133576
0.00668456
0.0120066
0.0170344
0.0223975
0.028215
0.0345583
0.0414069
0.0486426
0.0561013
0.0636026
0.0709798
0.0780765
0.0847546
0.0908865
0.0963686
0.101125
0.105141
0.108476
0.110853
0.112683
0.115203
0.117865
0.121299
0.124626
0.131001
0.135448
0.139303
0.142263
0.143746
0.143476
0.142433
0.139628
0.139335
0.138648
0.131726
0.137757
0.147293
0.154855
0.161306
0.169325
0.176789
0.18483
0.192857
0.201146
0.209559
0.218156
0.226909
0.235827
0.244909
0.254151
0.26356
0.273129
0.282864
0.292758
0.302818
0.313034
0.323415
0.333947
0.34464
0.355479
0.366473
0.377606
0.388887
0.400298
0.411847
0.423515
0.43531
0.447211
0.459226
0.471333
0.483538
0.495818
0.508181
0.5206
0.533082
0.545602
0.558164
0.570743
0.583345
0.595939
0.608532
0.621093
0.633627
0.6461
0.658516
0.670841
0.683075
0.695183
0.707159
0.718972
0.730595
0.742003
0.753174
0.764105
0.774819
0.785409
0.795752
0.805869
0.815735
0.825348
0.834688
0.843744
0.852499
0.860937
0.869049
0.876816
0.88423
0.891273
0.897936
0.904202
0.910061
0.915496
0.920499
0.925054
0.929153
0.932782
0.935933
0.938592
0.940751
0.942404
0.943544
0.944169
0.944266
0.943806
0.942698
0.94103
0.938969
0.936526
0.933333
0.929653
0.925411
0.920653
0.915366
0.90958
0.903288
0.896498
0.889189
0.881446
0.873268
0.864683
0.855718
0.846401
0.836769
0.82685
0.816681
0.806291
0.795718
0.784991
0.774148
0.763219
0.752241
0.741243
0.730264
0.719335
0.708512
0.697898
0.688014
0.680837
0.674552
0.668578
0.662675
0.656892
0.651337
0.645996
0.640871
0.635996
0.631401
0.627117
0.62316
0.619535
0.616248
0.613357
0.610935
0.608713
0.606627
0.604896
0.602661
0.599014
0.580207
0.00595104
0.0204508
0.0298557
0.037122
0.0437511
0.0504266
0.057429
0.0648255
0.0725558
0.0804969
0.0885034
0.0964329
0.104153
0.111546
0.118506
0.124946
0.130808
0.136082
0.14082
0.145157
0.149405
0.154019
0.159412
0.165901
0.173224
0.18046
0.187252
0.193939
0.200196
0.205799
0.211343
0.218262
0.227847
0.235671
0.245396
0.256519
0.270902
0.285046
0.297227
0.309366
0.322268
0.335495
0.349086
0.362988
0.377215
0.391753
0.406604
0.421767
0.437243
0.453033
0.469138
0.485561
0.502303
0.519367
0.536754
0.554464
0.572498
0.590858
0.609541
0.628548
0.647876
0.667523
0.687485
0.707761
0.728342
0.749227
0.770405
0.791873
0.81362
0.83564
0.85792
0.880453
0.903224
0.926224
0.949438
0.972853
0.996451
1.02022
1.04415
1.06821
1.09239
1.11667
1.14104
1.16546
1.18993
1.21441
1.23888
1.26332
1.2877
1.31199
1.33616
1.36017
1.38397
1.40752
1.43076
1.45361
1.476
1.49808
1.51986
1.54131
1.56242
1.58316
1.6035
1.62341
1.64287
1.66184
1.68029
1.69821
1.71555
1.7323
1.74841
1.76387
1.77863
1.79268
1.80598
1.81851
1.83022
1.8411
1.85112
1.86024
1.86845
1.87572
1.88202
1.88735
1.89168
1.89488
1.89674
1.89769
1.89811
1.89709
1.89497
1.89173
1.8874
1.88198
1.87549
1.86793
1.85935
1.84974
1.83917
1.82765
1.81522
1.80192
1.78782
1.77297
1.75742
1.74124
1.72448
1.70722
1.68951
1.67143
1.65303
1.63439
1.61557
1.59664
1.57766
1.55871
1.53987
1.52131
1.50338
1.48596
1.46891
1.45223
1.436
1.42029
1.40514
1.39059
1.3767
1.36352
1.35109
1.33945
1.32864
1.31868
1.30959
1.30143
1.29418
1.28768
1.28184
1.27639
1.26894
1.24496
0.0119661
0.0335256
0.0456228
0.0547549
0.0629103
0.0708187
0.078813
0.0870259
0.0954678
0.10408
0.112769
0.121435
0.129982
0.138327
0.146399
0.154152
0.161567
0.168673
0.175563
0.182414
0.189494
0.197112
0.205494
0.214676
0.224427
0.23448
0.244667
0.254963
0.265362
0.276168
0.287731
0.300116
0.313388
0.326969
0.341363
0.356499
0.372428
0.38849
0.404638
0.421039
0.437861
0.455086
0.472711
0.490724
0.509123
0.527907
0.547076
0.566631
0.586571
0.606898
0.627613
0.648719
0.670216
0.692105
0.714386
0.737061
0.760128
0.783587
0.807436
0.831672
0.856291
0.881292
0.906667
0.932411
0.958518
0.98498
1.01179
1.03893
1.0664
1.09419
1.12228
1.15065
1.1793
1.20821
1.23736
1.26673
1.29631
1.32608
1.35601
1.38608
1.41627
1.44657
1.47694
1.50735
1.53779
1.56823
1.59863
1.62897
1.65922
1.68934
1.71931
1.7491
1.77866
1.80796
1.83698
1.86569
1.89406
1.92209
1.94975
1.97699
2.0038
2.03014
2.05596
2.08123
2.10593
2.13001
2.15343
2.17617
2.19818
2.21943
2.23989
2.2595
2.27824
2.29607
2.31295
2.32885
2.34372
2.35753
2.37024
2.38182
2.39224
2.40146
2.40945
2.41619
2.42166
2.42578
2.42836
2.42957
2.42992
2.42868
2.42602
2.42197
2.41652
2.4097
2.40153
2.39203
2.38121
2.36913
2.35581
2.3413
2.32565
2.30892
2.29117
2.27246
2.25288
2.2325
2.21139
2.18963
2.16731
2.14451
2.12132
2.09781
2.07407
2.05018
2.02624
2.00232
1.97853
1.95498
1.93189
1.90933
1.88723
1.86563
1.84459
1.82418
1.80446
1.78551
1.76737
1.75011
1.73378
1.71845
1.70414
1.6909
1.67877
1.66779
1.65801
1.64936
1.64177
1.6351
1.62751
1.61045
0.018317
0.0454719
0.0600636
0.0708126
0.0801746
0.0890325
0.0977964
0.106659
0.115689
0.124879
0.134182
0.143533
0.152868
0.162131
0.17128
0.180297
0.189188
0.197998
0.206817
0.215787
0.225085
0.234896
0.24535
0.256474
0.26818
0.28035
0.292908
0.305845
0.319198
0.333077
0.347587
0.362764
0.37863
0.395087
0.412139
0.429772
0.447931
0.466486
0.485387
0.504646
0.52431
0.544397
0.564912
0.585858
0.607237
0.62905
0.651299
0.673987
0.697115
0.720686
0.744702
0.769165
0.794077
0.819438
0.84525
0.871514
0.898228
0.925392
0.953004
0.981061
1.00956
1.0385
1.06787
1.09766
1.12787
1.15849
1.18952
1.22093
1.25271
1.28486
1.31736
1.3502
1.38335
1.4168
1.45052
1.48451
1.51873
1.55317
1.58779
1.62259
1.65752
1.69256
1.72769
1.76287
1.79808
1.83328
1.86844
1.90354
1.93853
1.97339
2.00808
2.04257
2.07682
2.11081
2.14449
2.17783
2.21081
2.24338
2.27551
2.30716
2.33829
2.36886
2.39882
2.42814
2.45678
2.48469
2.51183
2.53817
2.56365
2.58825
2.61191
2.6346
2.65627
2.67688
2.69638
2.71474
2.73191
2.74786
2.76253
2.77589
2.78791
2.79854
2.80776
2.81553
2.82182
2.82659
2.82967
2.8311
2.83137
2.82994
2.82686
2.82218
2.81589
2.80802
2.79859
2.78761
2.77513
2.76117
2.74579
2.72903
2.71095
2.69161
2.6711
2.64948
2.62683
2.60325
2.57883
2.55364
2.5278
2.50139
2.4745
2.44724
2.41971
2.39199
2.36419
2.33641
2.30874
2.28132
2.25428
2.22775
2.20173
2.17626
2.15143
2.12729
2.10392
2.08141
2.05981
2.03919
2.01963
2.00117
1.98388
1.9678
1.95299
1.93951
1.92742
1.91676
1.90753
1.89971
1.89191
1.87853
0.0244572
0.0564074
0.0732761
0.0855276
0.0959976
0.105705
0.115139
0.124552
0.134065
0.143721
0.153518
0.163428
0.173415
0.183448
0.193507
0.203589
0.21371
0.223915
0.234276
0.244894
0.255887
0.267371
0.279429
0.292097
0.305362
0.319181
0.333521
0.34837
0.363744
0.379682
0.396223
0.413392
0.431191
0.449589
0.468567
0.4881
0.508152
0.528674
0.549637
0.571036
0.592886
0.615197
0.637977
0.661232
0.684965
0.709183
0.733887
0.759082
0.784772
0.81096
0.83765
0.864844
0.892546
0.920757
0.949479
0.978714
1.00846
1.03872
1.06949
1.10077
1.13256
1.16484
1.19762
1.2309
1.26465
1.29887
1.33356
1.3687
1.40427
1.44027
1.47667
1.51346
1.55062
1.58813
1.62597
1.66411
1.70253
1.7412
1.7801
1.81919
1.85845
1.89785
1.93735
1.97692
2.01653
2.05614
2.09572
2.13522
2.17462
2.21387
2.25295
2.2918
2.3304
2.3687
2.40666
2.44423
2.48139
2.51808
2.55426
2.58988
2.62491
2.65929
2.69299
2.72595
2.75812
2.78947
2.81995
2.84951
2.87811
2.9057
2.93224
2.95767
2.98196
3.00505
3.02691
3.04748
3.06672
3.08459
3.10103
3.11602
3.1295
3.14144
3.1518
3.16055
3.16765
3.17308
3.1767
3.17842
3.17874
3.17722
3.1739
3.16877
3.16186
3.15318
3.14275
3.1306
3.11676
3.10127
3.08419
3.06555
3.04544
3.02391
3.00105
2.97694
2.95167
2.92534
2.89805
2.86988
2.84096
2.81138
2.78125
2.75067
2.71977
2.68863
2.65737
2.6261
2.59492
2.56395
2.53333
2.50317
2.47353
2.44448
2.41608
2.38842
2.36158
2.33564
2.31067
2.28677
2.26398
2.24239
2.22206
2.20305
2.18544
2.16929
2.15471
2.14179
2.13062
2.12126
2.11263
2.10071
0.0301935
0.0662045
0.0851105
0.0987423
0.11024
0.120736
0.130788
0.140696
0.150628
0.16067
0.17086
0.181204
0.191696
0.202326
0.213091
0.223999
0.235069
0.246342
0.257874
0.269736
0.282009
0.294772
0.308089
0.321997
0.336508
0.351616
0.36731
0.383587
0.400447
0.4179
0.435958
0.454629
0.473908
0.493783
0.514241
0.535265
0.556833
0.578924
0.601523
0.624624
0.648231
0.672349
0.696984
0.722143
0.747831
0.774055
0.80082
0.828132
0.855996
0.884417
0.913401
0.942951
0.973072
1.00377
1.03504
1.06689
1.09933
1.13234
1.16594
1.20012
1.23487
1.2702
1.3061
1.34256
1.37957
1.41713
1.45523
1.49384
1.53297
1.57258
1.61266
1.65321
1.69418
1.73556
1.77733
1.81945
1.86191
1.90466
1.94769
1.99095
2.03442
2.07805
2.12181
2.16566
2.20956
2.25348
2.29737
2.34119
2.3849
2.42845
2.47181
2.51493
2.55776
2.60025
2.64235
2.68402
2.72521
2.76587
2.80595
2.84541
2.88419
2.92224
2.95951
2.99596
3.03153
3.06617
3.09984
3.13248
3.16405
3.19449
3.22376
3.25182
3.2786
3.30406
3.32816
3.35084
3.37207
3.39178
3.40994
3.42649
3.4414
3.45463
3.46613
3.47587
3.48382
3.48994
3.49415
3.49629
3.49675
3.49528
3.49184
3.48643
3.47906
3.46974
3.45851
3.44539
3.43042
3.41362
3.39507
3.3748
3.3529
3.32943
3.30449
3.27815
3.25051
3.22169
3.19177
3.16087
3.12911
3.09659
3.06343
3.02975
2.99566
2.96128
2.92672
2.89209
2.85752
2.82311
2.789
2.7553
2.7221
2.68948
2.65752
2.62631
2.59594
2.56649
2.53805
2.51071
2.48454
2.45961
2.43601
2.41382
2.39311
2.37399
2.35659
2.34104
2.3275
2.31608
2.3059
2.29383
0.0353841
0.0747771
0.0954541
0.110313
0.12274
0.133959
0.14458
0.154941
0.165247
0.175618
0.186124
0.196805
0.207678
0.218756
0.230049
0.241573
0.253354
0.265425
0.277831
0.290627
0.303869
0.317616
0.331914
0.346799
0.362292
0.378402
0.39513
0.412474
0.430433
0.449007
0.468196
0.488002
0.508419
0.529443
0.551065
0.573277
0.596068
0.61943
0.643354
0.667838
0.692883
0.718492
0.744673
0.771432
0.798775
0.826712
0.855248
0.884391
0.914149
0.944529
0.975537
1.00718
1.03946
1.07239
1.10597
1.14021
1.1751
1.21066
1.24687
1.28375
1.32128
1.35947
1.39831
1.4378
1.47792
1.51868
1.56004
1.60201
1.64457
1.6877
1.73138
1.77558
1.82029
1.86548
1.91112
1.95718
2.00362
2.05043
2.09755
2.14495
2.1926
2.24045
2.28845
2.33658
2.38477
2.43299
2.48119
2.52932
2.57733
2.62517
2.67279
2.72014
2.76717
2.81382
2.86003
2.90575
2.95093
2.99552
3.03945
3.08268
3.12514
3.1668
3.20758
3.24744
3.28633
3.32419
3.36096
3.3966
3.43105
3.46426
3.49619
3.52677
3.55597
3.58372
3.60999
3.63472
3.65786
3.67936
3.69918
3.71727
3.73359
3.74809
3.76073
3.77147
3.78028
3.78713
3.79196
3.7946
3.79532
3.79399
3.79053
3.78495
3.77725
3.76745
3.75557
3.74164
3.72569
3.70777
3.68793
3.66623
3.64273
3.61751
3.59066
3.56228
3.53247
3.50132
3.46896
3.4355
3.40105
3.36575
3.3297
3.29303
3.25586
3.21832
3.18053
3.1426
3.10466
3.06683
3.02923
2.99198
2.95519
2.91894
2.88334
2.84847
2.81443
2.78131
2.74921
2.71822
2.68842
2.6599
2.63275
2.60706
2.58293
2.56049
2.53988
2.52129
2.50489
2.49086
2.47841
2.46505
0.0399266
0.0820738
0.104243
0.120151
0.133387
0.145249
0.156382
0.167154
0.177794
0.188451
0.19922
0.210166
0.221328
0.232737
0.244418
0.256394
0.268693
0.281348
0.294396
0.307879
0.32184
0.336323
0.351363
0.366993
0.383232
0.400094
0.417586
0.435712
0.45447
0.473861
0.493884
0.514537
0.535819
0.557727
0.580259
0.603412
0.627181
0.651566
0.676563
0.702174
0.728402
0.755251
0.782729
0.810844
0.839605
0.86902
0.899099
0.929852
0.961288
0.993416
1.02625
1.05979
1.09404
1.12903
1.16474
1.2012
1.23839
1.27634
1.31503
1.35447
1.39467
1.43561
1.47729
1.51971
1.56286
1.60673
1.65131
1.69658
1.74252
1.78912
1.83635
1.8842
1.93263
1.98161
2.03111
2.0811
2.13155
2.18241
2.23364
2.2852
2.33705
2.38914
2.44141
2.49383
2.54633
2.59887
2.6514
2.70385
2.75617
2.8083
2.86019
2.91177
2.96299
3.01378
3.06408
3.11383
3.16297
3.21144
3.25918
3.30613
3.35223
3.39743
3.44166
3.48486
3.52698
3.56797
3.60776
3.64631
3.68355
3.71944
3.75392
3.78694
3.81845
3.8484
3.87673
3.90341
3.92838
3.95159
3.973
3.99256
4.01022
4.02594
4.03968
4.05141
4.06108
4.06865
4.07411
4.07728
4.07834
4.0772
4.07381
4.06815
4.06022
4.05004
4.03764
4.02303
4.00626
3.98736
3.96639
3.9434
3.91846
3.89166
3.86309
3.83283
3.801
3.7677
3.73305
3.69717
3.66018
3.62221
3.58338
3.54382
3.50366
3.46303
3.42205
3.38085
3.33955
3.29829
3.25718
3.21635
3.1759
3.13596
3.0966
3.05795
3.02009
2.98314
2.94718
2.91231
2.87864
2.84626
2.81526
2.78577
2.75788
2.73176
2.70757
2.68552
2.66581
2.64863
2.63329
2.61777
0.0437614
0.0880878
0.111467
0.128238
0.14215
0.154561
0.166138
0.177272
0.188207
0.199111
0.210101
0.221258
0.23264
0.244293
0.256252
0.268549
0.281214
0.29428
0.30778
0.321748
0.336219
0.351225
0.366796
0.382958
0.399731
0.417129
0.435162
0.453837
0.473157
0.493125
0.513742
0.535009
0.556927
0.579499
0.602724
0.626604
0.651142
0.67634
0.7022
0.728728
0.755928
0.78381
0.812381
0.841653
0.871636
0.902342
0.933782
0.965969
0.998914
1.03263
1.06713
1.10241
1.13851
1.17541
1.21314
1.2517
1.29109
1.33133
1.37241
1.41434
1.45712
1.50075
1.54521
1.59052
1.63666
1.68361
1.73137
1.77992
1.82924
1.87931
1.9301
1.98159
2.03375
2.08653
2.13992
2.19387
2.24833
2.30327
2.35864
2.41438
2.47045
2.5268
2.58337
2.64009
2.69692
2.75379
2.81065
2.86742
2.92404
2.98045
3.03659
3.09237
3.14775
3.20264
3.25698
3.31071
3.36375
3.41604
3.46751
3.5181
3.56775
3.61639
3.66395
3.71039
3.75563
3.79962
3.8423
3.88362
3.92351
3.96193
3.99882
4.03412
4.0678
4.09979
4.13006
4.15855
4.1852
4.20999
4.23286
4.25376
4.27266
4.28951
4.30427
4.3169
4.32737
4.33563
4.34167
4.34537
4.34679
4.34589
4.34262
4.33693
4.32884
4.31837
4.30554
4.29036
4.27288
4.25314
4.23117
4.20705
4.18085
4.15263
4.12249
4.09052
4.05684
4.02155
3.98477
3.94662
3.90722
3.86672
3.82523
3.78289
3.73984
3.69619
3.65209
3.60767
3.56305
3.51836
3.47374
3.4293
3.38517
3.34146
3.29828
3.25573
3.21393
3.17299
3.133
3.09407
3.05631
3.01982
2.98473
2.95114
2.91921
2.88908
2.86095
2.83506
2.81162
2.79084
2.77207
2.75373
0.0468598
0.0928474
0.117168
0.134617
0.14907
0.161927
0.173873
0.18531
0.196496
0.20761
0.218781
0.230104
0.24165
0.253476
0.265626
0.278138
0.291045
0.304381
0.318175
0.332458
0.34726
0.362608
0.378525
0.395035
0.412155
0.429902
0.448286
0.467319
0.487007
0.507356
0.528372
0.55006
0.572425
0.595472
0.619206
0.643634
0.668762
0.694596
0.721144
0.748416
0.776419
0.805165
0.834667
0.864938
0.895991
0.927841
0.960503
0.99399
1.02832
1.0635
1.09956
1.13649
1.17433
1.21307
1.25273
1.29332
1.33485
1.37733
1.42075
1.46513
1.51047
1.55676
1.604
1.65218
1.7013
1.75135
1.8023
1.85414
1.90685
1.9604
2.01477
2.06993
2.12583
2.18246
2.23975
2.29767
2.35617
2.41521
2.47472
2.53466
2.59496
2.65557
2.71641
2.77744
2.83857
2.89974
2.96089
3.02194
3.08281
3.14344
3.20375
3.26367
3.32311
3.38201
3.44029
3.49787
3.55469
3.61066
3.66573
3.71981
3.77284
3.82476
3.87549
3.92498
3.97315
4.01995
4.06532
4.1092
4.15153
4.19226
4.23134
4.26872
4.30435
4.33817
4.37015
4.40023
4.42837
4.45453
4.47867
4.50074
4.5207
4.53852
4.55415
4.56756
4.57871
4.58757
4.59411
4.59827
4.60004
4.59939
4.59625
4.59055
4.58235
4.57164
4.55845
4.54281
4.52474
4.50427
4.48146
4.45636
4.42904
4.39957
4.36805
4.33455
4.2992
4.26209
4.22336
4.18311
4.14149
4.09861
4.05461
4.00964
3.96381
3.91727
3.87015
3.82258
3.77471
3.72665
3.67855
3.63053
3.58271
3.53522
3.48817
3.44168
3.39586
3.35082
3.30667
3.26354
3.22152
3.18075
3.14135
3.10345
3.06721
3.03281
3.00046
2.9704
2.94287
2.91808
2.89547
2.87376
0.0492238
0.0964155
0.121429
0.139384
0.154245
0.167444
0.179678
0.191355
0.20274
0.21402
0.22533
0.236775
0.248435
0.260371
0.272637
0.285276
0.298323
0.311813
0.325773
0.340234
0.355219
0.370755
0.386861
0.403561
0.42087
0.438806
0.457382
0.476613
0.496508
0.517079
0.538335
0.560285
0.58294
0.606308
0.630401
0.655229
0.680803
0.707134
0.734235
0.762118
0.790795
0.820282
0.850596
0.881752
0.91377
0.946666
0.980458
1.01516
1.0508
1.08739
1.12494
1.16348
1.20301
1.24355
1.28512
1.32773
1.37139
1.4161
1.46188
1.50872
1.55663
1.6056
1.65564
1.70673
1.75887
1.81204
1.86621
1.92138
1.97752
2.0346
2.09258
2.15143
2.21111
2.27158
2.3328
2.3947
2.45724
2.52036
2.58401
2.64811
2.7126
2.77742
2.84249
2.90774
2.97309
3.03848
3.10381
3.16901
3.23401
3.29872
3.36305
3.42693
3.49028
3.553
3.61502
3.67625
3.73663
3.79607
3.85449
3.91182
3.96799
4.02292
4.07655
4.1288
4.17963
4.22895
4.27671
4.32286
4.36733
4.41008
4.45105
4.4902
4.52747
4.56283
4.59622
4.62761
4.65696
4.68422
4.70936
4.73235
4.75313
4.77169
4.78798
4.80198
4.81365
4.82297
4.82989
4.8344
4.83645
4.836
4.833
4.82728
4.81897
4.80808
4.79461
4.77859
4.76003
4.73897
4.71546
4.68954
4.66127
4.63074
4.59801
4.56319
4.52637
4.48766
4.44717
4.40504
4.36139
4.31634
4.27003
4.22259
4.17417
4.1249
4.07491
4.02434
3.97334
3.92202
3.87053
3.819
3.76756
3.71633
3.66544
3.615
3.56514
3.51597
3.46761
3.42019
3.37383
3.32865
3.28481
3.24244
3.20172
3.16284
3.12604
3.09156
3.05966
3.03056
3.00376
2.97829
0.0508891
0.0988936
0.12437
0.142673
0.157816
0.171255
0.183693
0.195541
0.207067
0.218462
0.229866
0.241387
0.253112
0.265108
0.277429
0.290122
0.303223
0.316767
0.330785
0.345303
0.360348
0.375942
0.392107
0.408865
0.426232
0.444227
0.462866
0.482166
0.502143
0.522812
0.544187
0.566281
0.58911
0.612688
0.637031
0.662155
0.688077
0.714811
0.742374
0.770784
0.800057
0.830216
0.861278
0.893267
0.926203
0.960108
0.995004
1.03091
1.06785
1.10584
1.1449
1.18505
1.22631
1.2687
1.31222
1.3569
1.40274
1.44975
1.49794
1.54731
1.59787
1.64961
1.70252
1.75659
1.81182
1.86817
1.92564
1.9842
2.04382
2.10446
2.16608
2.22865
2.29212
2.35644
2.42156
2.48742
2.55395
2.6211
2.6888
2.75698
2.82555
2.89446
2.96361
3.03293
3.10233
3.17173
3.24105
3.31019
3.37907
3.4476
3.5157
3.58326
3.65021
3.71644
3.78189
3.84645
3.91005
3.9726
4.03402
4.09423
4.15315
4.21072
4.26686
4.3215
4.37457
4.42602
4.47578
4.52379
4.57
4.61437
4.65683
4.69735
4.73588
4.77238
4.80681
4.83914
4.86933
4.89734
4.92315
4.94672
4.96803
4.98704
5.00373
5.01807
5.03003
5.0396
5.04675
5.05145
5.05369
5.05338
5.05047
5.04471
5.0363
5.02526
5.01157
4.99525
4.97631
4.95479
4.93073
4.90416
4.87514
4.84373
4.81003
4.7741
4.73604
4.69597
4.65399
4.61022
4.56479
4.51781
4.46943
4.41978
4.36899
4.31721
4.26457
4.2112
4.15725
4.10284
4.04813
3.99324
3.9383
3.88345
3.8288
3.77449
3.72064
3.66738
3.61483
3.56312
3.51239
3.46277
3.41442
3.3675
3.3222
3.27873
3.23732
3.19825
3.16178
3.12815
3.09693
3.06743
0.0519187
0.100396
0.126131
0.144636
0.159947
0.173529
0.186087
0.198034
0.209641
0.221099
0.23255
0.244103
0.255844
0.267842
0.280156
0.292831
0.305909
0.319425
0.333409
0.34789
0.362895
0.378449
0.394576
0.4113
0.42863
0.446587
0.465195
0.484477
0.504451
0.525139
0.54656
0.568731
0.591671
0.615396
0.639936
0.665313
0.691542
0.718644
0.746642
0.775561
0.805424
0.836257
0.868085
0.900933
0.934827
0.969792
1.00585
1.04303
1.08135
1.12084
1.16152
1.2034
1.24651
1.29086
1.33647
1.38336
1.43152
1.48098
1.53174
1.58379
1.63714
1.69177
1.74769
1.80487
1.86329
1.92295
1.9838
2.04581
2.10896
2.17321
2.23849
2.30478
2.37202
2.44014
2.50909
2.57881
2.64922
2.72026
2.79184
2.8639
2.93634
3.00909
3.08206
3.15516
3.2283
3.30139
3.37434
3.44705
3.51942
3.59137
3.6628
3.73361
3.8037
3.87299
3.94138
4.00878
4.07511
4.14026
4.20417
4.26674
4.32791
4.38759
4.44571
4.5022
4.55699
4.61004
4.66126
4.71062
4.75805
4.80351
4.84696
4.88836
4.92765
4.96482
4.99982
5.03263
5.06322
5.09156
5.11763
5.1414
5.16286
5.18198
5.19874
5.21313
5.22512
5.2347
5.24186
5.24659
5.24888
5.24862
5.24576
5.23991
5.23141
5.22024
5.20639
5.18987
5.17067
5.14884
5.12438
5.09735
5.06778
5.03575
5.0013
4.96453
4.92553
4.88438
4.8412
4.79609
4.74917
4.70058
4.65043
4.59886
4.54601
4.492
4.43697
4.38107
4.32443
4.26719
4.20949
4.15145
4.09322
4.03493
3.97671
3.91868
3.86099
3.80375
3.74711
3.6912
3.63616
3.58214
3.52931
3.47784
3.42794
3.37983
3.33376
3.29001
3.24886
3.21058
3.17479
3.14112
0.0523008
0.100957
0.126829
0.145428
0.160809
0.174445
0.187047
0.199027
0.210655
0.222118
0.233558
0.245086
0.256788
0.268734
0.280983
0.293583
0.306575
0.319995
0.333877
0.348251
0.363145
0.378589
0.39461
0.41124
0.42848
0.446358
0.464901
0.484134
0.504082
0.524772
0.546226
0.56847
0.591526
0.615416
0.640197
0.665871
0.692449
0.719971
0.748472
0.777984
0.808535
0.840158
0.872882
0.906737
0.941753
0.977957
1.01538
1.05404
1.09396
1.13518
1.17771
1.22157
1.26679
1.31337
1.36133
1.41069
1.46144
1.5136
1.56717
1.62213
1.67849
1.73624
1.79535
1.85581
1.91758
1.98065
2.04497
2.11052
2.17723
2.24508
2.314
2.38393
2.45483
2.52661
2.59922
2.67259
2.74663
2.82127
2.89642
2.972
3.04793
3.12411
3.20045
3.27685
3.35323
3.42948
3.5055
3.5812
3.65648
3.73123
3.80537
3.87878
3.95137
4.02304
4.0937
4.16326
4.23161
4.29868
4.36438
4.42862
4.49133
4.55242
4.61183
4.66949
4.72532
4.77929
4.83131
4.88136
4.92937
4.9753
5.01912
5.06078
5.10026
5.13752
5.17254
5.20529
5.23577
5.26394
5.28981
5.31334
5.33454
5.35338
5.36986
5.38396
5.39568
5.40501
5.41195
5.4165
5.4187
5.4184
5.41551
5.40954
5.40095
5.38969
5.37575
5.35913
5.33982
5.31783
5.29318
5.26591
5.23604
5.20363
5.16874
5.13144
5.0918
5.04991
5.00588
4.95979
4.91176
4.86191
4.81036
4.75724
4.70268
4.6468
4.58975
4.53166
4.47267
4.41291
4.35252
4.29164
4.2304
4.16894
4.10739
4.04589
3.98457
3.92356
3.86301
3.80306
3.74386
3.68558
3.62838
3.57245
3.51802
3.46532
3.41461
3.36619
3.32034
3.27737
3.23696
3.19908
0.0522142
0.100826
0.126669
0.145251
0.160614
0.17423
0.186807
0.198754
0.210341
0.221757
0.233144
0.244609
0.25624
0.268106
0.280266
0.292767
0.305653
0.31896
0.332723
0.346975
0.361746
0.377066
0.392961
0.409456
0.426579
0.444363
0.462842
0.482045
0.502006
0.522758
0.544329
0.566749
0.590049
0.614258
0.63941
0.665525
0.692619
0.720762
0.749988
0.780338
0.811846
0.844547
0.878481
0.913686
0.950185
0.988007
1.02718
1.06773
1.10969
1.15308
1.19791
1.2442
1.29196
1.34122
1.39197
1.44421
1.49796
1.55321
1.60995
1.66817
1.72785
1.78897
1.8515
1.91542
1.98069
2.04727
2.11511
2.18417
2.2544
2.32574
2.39812
2.47149
2.54577
2.6209
2.6968
2.77339
2.85059
2.92831
3.00647
3.08498
3.16375
3.24268
3.32167
3.40064
3.47947
3.55808
3.63636
3.7142
3.79151
3.86819
3.94414
4.01925
4.09342
4.16656
4.23857
4.30936
4.37883
4.4469
4.51347
4.57847
4.64182
4.70345
4.76328
4.82124
4.87727
4.93132
4.98335
5.03329
5.0811
5.12676
5.17022
5.21145
5.25043
5.28713
5.32154
5.35365
5.38344
5.41091
5.43605
5.45887
5.47935
5.4975
5.51331
5.52679
5.53792
5.54672
5.55319
5.55738
5.55933
5.55891
5.55592
5.54982
5.54115
5.52988
5.51596
5.49938
5.48012
5.45818
5.43357
5.40631
5.37643
5.34397
5.30897
5.2715
5.23161
5.18939
5.14491
5.09826
5.04955
4.99888
4.94637
4.89214
4.8363
4.779
4.72035
4.66049
4.59955
4.53768
4.47499
4.41165
4.34776
4.28349
4.21895
4.15429
4.08965
4.02516
3.96097
3.89724
3.83412
3.77178
3.71041
3.6502
3.59139
3.53423
3.479
3.426
3.37553
3.32793
3.28294
3.2409
0.0518423
0.100306
0.125944
0.144392
0.159633
0.173131
0.18559
0.197419
0.208886
0.220181
0.231441
0.242775
0.254268
0.26599
0.277998
0.290342
0.303068
0.316216
0.329824
0.343928
0.358562
0.373762
0.389565
0.406011
0.423132
0.440964
0.459544
0.47891
0.499105
0.520177
0.542154
0.565066
0.588951
0.613843
0.639763
0.666725
0.694817
0.724109
0.754643
0.78646
0.819596
0.854086
0.889963
0.927251
0.965984
1.00619
1.04791
1.09116
1.13597
1.18235
1.2303
1.27983
1.33094
1.38363
1.4379
1.49374
1.55113
1.61007
1.67052
1.73246
1.79586
1.86069
1.92691
1.99447
2.06333
2.13344
2.20475
2.27718
2.3507
2.42522
2.50069
2.57703
2.65418
2.73204
2.81056
2.88963
2.96919
3.04914
3.12941
3.20988
3.29049
3.37112
3.4517
3.53211
3.61227
3.69207
3.77141
3.8502
3.92834
4.00572
4.08225
4.15782
4.23235
4.30572
4.37786
4.44867
4.51804
4.58591
4.65218
4.71679
4.77964
4.84068
4.89983
4.95702
5.0122
5.06533
5.11635
5.16523
5.21192
5.2564
5.29864
5.3386
5.37629
5.41168
5.44475
5.47551
5.50397
5.53012
5.55397
5.57553
5.59481
5.61181
5.62655
5.63902
5.64924
5.65721
5.66297
5.66657
5.66812
5.6675
5.66436
5.65812
5.64943
5.63823
5.62446
5.60809
5.58909
5.56744
5.54314
5.51619
5.48663
5.45446
5.41974
5.38249
5.34278
5.30065
5.25618
5.20945
5.16052
5.10951
5.05652
5.00165
4.94503
4.88676
4.82698
4.7658
4.70338
4.63982
4.57528
4.50988
4.44376
4.37705
4.3099
4.24244
4.17482
4.10718
4.03967
3.97245
3.90568
3.83955
3.77425
3.71
3.64702
3.58559
3.52601
3.46858
3.41353
3.36132
3.31174
3.2656
0.0511062
0.0990884
0.124406
0.14262
0.157648
0.170943
0.18321
0.194862
0.206164
0.217303
0.228417
0.239614
0.250978
0.262579
0.274476
0.286724
0.29937
0.31246
0.32604
0.340154
0.354843
0.370151
0.386124
0.402811
0.420272
0.438536
0.457643
0.477641
0.498575
0.520472
0.543333
0.567253
0.592298
0.618529
0.646013
0.674805
0.704952
0.736506
0.769512
0.80401
0.840033
0.877612
0.91677
0.957528
0.999903
1.04391
1.08957
1.13687
1.18581
1.23639
1.28859
1.34241
1.39783
1.45482
1.51336
1.57344
1.635
1.69802
1.76245
1.82826
1.8954
1.96382
2.03347
2.1043
2.17625
2.24927
2.32329
2.39825
2.47409
2.55075
2.62816
2.70624
2.78493
2.86415
2.94383
3.02389
3.10425
3.18483
3.26555
3.34633
3.42708
3.5077
3.58812
3.66825
3.74798
3.82723
3.90591
3.98391