/*--------------------------------*- C++ -*----------------------------------*\
  =========                 |
  \\      /  F ield         | OpenFOAM: The Open Source CFD Toolbox
   \\    /   O peration     | Website:  https://openfoam.org
    \\  /    A nd           | Version:  8
     \\/     M anipulation  |
\*---------------------------------------------------------------------------*/
FoamFile
{
    version     2.0;
    format      ascii;
    class       volScalarField;
    location    "210";
    object      nut;
}
// * * * * * * * * * * * * * * * * * * * * * * * * * * * * * * * * * * * * * //

dimensions      [0 2 -1 0 0 0 0];

internalField   nonuniform List<scalar> 
12225
(
4.14925e-05
3.93408e-05
3.74831e-05
3.54329e-05
3.3784e-05
3.2421e-05
3.15094e-05
3.09116e-05
3.09176e-05
3.10984e-05
3.15664e-05
3.21226e-05
3.31488e-05
3.37984e-05
3.51263e-05
3.57216e-05
3.74821e-05
3.98016e-05
0.000332214
0.000215176
0.000179271
0.000157675
0.000146211
0.000138206
0.000132734
0.000131663
0.000129497
0.000130076
0.000129036
0.00012945
0.000128655
0.000128556
0.000128092
0.000127399
0.000127454
0.000126335
0.00066868
0.000450658
0.000355756
0.00030983
0.000275284
0.000251096
0.000231709
0.000217275
0.000202665
0.000192133
0.000182607
0.000175212
0.000169364
0.000163678
0.000160292
0.000155549
0.000153815
0.000149779
0.000801681
0.000691661
0.000572551
0.000500053
0.000449382
0.000411984
0.000380773
0.000356006
0.000333997
0.000314782
0.000298362
0.000281627
0.000270329
0.00025606
0.000248203
0.00023611
0.000230526
0.000220356
0.000839623
0.000810187
0.000740704
0.000676412
0.00062393
0.000581385
0.000545864
0.00051456
0.00048951
0.00046443
0.000445859
0.000424058
0.000409929
0.000390793
0.000379889
0.000363007
0.000354783
0.000339337
0.000850344
0.000843277
0.000819554
0.000786525
0.000750772
0.000715885
0.000685753
0.000656131
0.000632543
0.000607516
0.000588992
0.000567241
0.000552275
0.000533086
0.000520787
0.000503639
0.000493673
0.000477295
0.000851579
0.000851019
0.0008433
0.000833476
0.000817111
0.000796951
0.000777869
0.000756735
0.000738897
0.000719144
0.00070353
0.000685616
0.000672117
0.000655913
0.000644312
0.000629451
0.000619854
0.000604977
0.000851581
0.000851815
0.000850038
0.000847462
0.000841401
0.00083375
0.000824823
0.000813433
0.00080281
0.00079047
0.000779713
0.000767537
0.000757423
0.000745775
0.000736549
0.000725455
0.000717485
0.000705869
0.000851673
0.000851531
0.000851015
0.000850343
0.000848875
0.00084617
0.000843027
0.000838305
0.000833402
0.00082736
0.000821217
0.000814767
0.00080843
0.000801501
0.000795293
0.000788319
0.00078252
0.00077494
0.000851754
0.000851386
0.000851043
0.000850633
0.000850247
0.000849368
0.000848404
0.00084678
0.000844956
0.00084253
0.000839923
0.000836798
0.000833795
0.000830149
0.000826974
0.000822915
0.000819923
0.000815284
0.000851784
0.000851358
0.000851012
0.000850613
0.000850329
0.000849905
0.000849526
0.000848929
0.000848303
0.000847393
0.000846465
0.000845176
0.00084399
0.000842351
0.000840996
0.00083903
0.00083764
0.00083536
0.000851788
0.000851359
0.000850996
0.000850605
0.000850292
0.000849938
0.000849646
0.00084928
0.000848955
0.000848504
0.000848098
0.000847507
0.000846997
0.000846244
0.000845641
0.00084472
0.000844057
0.000842975
0.000851786
0.000851363
0.000850985
0.000850604
0.000850269
0.000849926
0.00084963
0.000849313
0.000849042
0.000848729
0.000848462
0.000848126
0.000847843
0.000847465
0.000847156
0.000846725
0.000846386
0.000845902
0.000851783
0.000851364
0.000850978
0.000850602
0.000850256
0.000849916
0.000849607
0.0008493
0.000849022
0.00084874
0.000848488
0.000848224
0.000847988
0.000847735
0.000847508
0.000847258
0.000847033
0.000846783
0.000851781
0.000851364
0.000850973
0.000850598
0.000850246
0.000849908
0.000849592
0.000849286
0.000849
0.000848723
0.000848463
0.000848211
0.000847975
0.000847745
0.000847528
0.000847316
0.000847115
0.000846919
0.00085178
0.000851363
0.000850969
0.000850594
0.000850239
0.000849901
0.00084958
0.000849275
0.000848984
0.000848707
0.000848443
0.000848191
0.000847951
0.000847721
0.000847502
0.000847293
0.000847092
0.000846901
0.000851779
0.000851362
0.000850967
0.000850591
0.000850234
0.000849895
0.000849572
0.000849265
0.000848973
0.000848694
0.000848428
0.000848175
0.000847933
0.000847701
0.00084748
0.000847269
0.000847067
0.000846874
0.000851779
0.000851362
0.000850965
0.000850588
0.000850231
0.00084989
0.000849567
0.000849259
0.000848965
0.000848685
0.000848418
0.000848163
0.00084792
0.000847687
0.000847465
0.000847252
0.000847049
0.000846854
0.000851779
0.000851362
0.000850965
0.000850588
0.00085023
0.000849889
0.000849565
0.000849256
0.000848962
0.000848681
0.000848414
0.000848158
0.000847914
0.00084768
0.000847457
0.000847243
0.000847039
0.000846843
0.000851779
0.000851362
0.000850966
0.000850589
0.000850231
0.000849891
0.000849567
0.000849259
0.000848965
0.000848685
0.000848417
0.000848162
0.000847917
0.000847684
0.00084746
0.000847246
0.000847041
0.000846845
0.000851779
0.000851363
0.000850967
0.000850592
0.000850235
0.000849897
0.000849573
0.000849267
0.000848972
0.000848694
0.000848424
0.000848168
0.000847919
0.000847683
0.000847451
0.000847231
0.000847012
0.000846806
0.000851778
0.000851366
0.000850968
0.000850599
0.00085024
0.000849907
0.00084958
0.000849274
0.000848964
0.000848671
0.000848365
0.000848072
0.000847756
0.000847455
0.000847123
0.000846811
0.000846457
0.000846136
0.000851773
0.000851376
0.000850971
0.000850615
0.000850241
0.000849889
0.000849478
0.000849054
0.000848529
0.000847978
0.000847301
0.000846604
0.000845767
0.000844939
0.000843954
0.000843029
0.000841918
0.000840939
0.000851768
0.000851415
0.000850964
0.000850548
0.000849861
0.000848966
0.00084761
0.000845976
0.000843904
0.000841636
0.000838955
0.000836214
0.000833116
0.000830113
0.000826763
0.000823679
0.000820183
0.000817177
0.000851859
0.00085138
0.000850196
0.000848243
0.00084447
0.000839354
0.000832765
0.000825658
0.000817961
0.000810011
0.000801618
0.000793627
0.000785331
0.000777706
0.000769743
0.000762699
0.000755122
0.000748794
0.000852108
0.000847667
0.000839902
0.000827146
0.000808707
0.000789645
0.000769975
0.000751412
0.000733304
0.000716895
0.000700933
0.000686779
0.000672829
0.00066067
0.000648377
0.00063794
0.000626953
0.000618019
0.000843241
0.000822506
0.000775184
0.000726459
0.000684894
0.000649851
0.000618461
0.000592019
0.000568381
0.000548311
0.000529688
0.00051399
0.000498751
0.000486016
0.000473201
0.000462707
0.000451622
0.000442804
0.000795685
0.000668241
0.000570627
0.000509904
0.000465605
0.000431183
0.000404146
0.00038248
0.000364199
0.000349069
0.000335941
0.000325061
0.000314506
0.000306236
0.000297959
0.000291367
0.000284281
0.000278932
0.000501314
0.000348356
0.000292674
0.00025918
0.000236322
0.000221177
0.00021162
0.000203854
0.000198564
0.000195075
0.000192221
0.000190368
0.000188583
0.000187438
0.000186166
0.000185472
0.000184555
0.000184142
7.27384e-05
7.02255e-05
6.79541e-05
6.56137e-05
6.33828e-05
6.12762e-05
5.94944e-05
5.79551e-05
5.67109e-05
5.57031e-05
5.49777e-05
5.44179e-05
5.41097e-05
5.3881e-05
5.38977e-05
5.39327e-05
5.40914e-05
5.4324e-05
4.13023e-07
9.43704e-06
1.69712e-05
2.40583e-05
3.15846e-05
3.97553e-05
4.86552e-05
5.82591e-05
6.83705e-05
7.8751e-05
8.91059e-05
9.9189e-05
0.000108742
0.000117574
0.000125505
0.00013246
0.000138436
0.000143632
0.000148427
0.000152261
0.000156585
0.00016489
0.000176607
0.000191349
0.000205058
0.00021632
0.000221562
0.000224538
0.000225876
0.000222545
0.000213697
0.000206405
0.00020368
0.000194119
0.000188008
3.94029e-05
4.26001e-05
4.85597e-05
4.82399e-05
4.96254e-05
5.07342e-05
5.18457e-05
5.29821e-05
5.40968e-05
5.52198e-05
5.63347e-05
5.74493e-05
5.85596e-05
5.96676e-05
6.07724e-05
6.18744e-05
6.29737e-05
6.407e-05
6.51637e-05
6.62544e-05
6.73425e-05
6.84275e-05
6.95095e-05
7.05882e-05
7.16636e-05
7.27351e-05
7.3803e-05
7.48664e-05
7.59255e-05
7.69794e-05
7.80284e-05
7.90714e-05
8.01086e-05
8.1139e-05
8.21627e-05
8.31786e-05
8.41869e-05
8.51865e-05
8.61775e-05
8.71586e-05
8.81301e-05
8.90906e-05
9.00404e-05
9.09783e-05
9.19044e-05
9.28174e-05
9.37175e-05
9.46034e-05
9.54751e-05
9.63312e-05
9.71719e-05
9.79956e-05
9.88023e-05
9.95907e-05
0.00010036
0.00010111
0.000101838
0.000102543
0.000103224
0.000103881
0.000104513
0.000105127
0.000105724
0.000106297
0.000106849
0.000107379
0.000107886
0.00010837
0.00010883
0.000109267
0.000109679
0.000110066
0.000110427
0.000110763
0.000111072
0.000111355
0.000111611
0.000111839
0.000112039
0.000112211
0.000112354
0.000112468
0.000112552
0.000112606
0.00011263
0.000112622
0.000112585
0.000112516
0.000112416
0.000112286
0.000112124
0.000111908
0.000111665
0.000111418
0.000111117
0.000110788
0.000110424
0.000110027
0.000109597
0.000109134
0.000108639
0.000108111
0.000107546
0.00010695
0.000106323
0.000105666
0.00010498
0.000104266
0.000103526
0.000102762
0.000101975
0.000101166
0.000100338
9.94931e-05
9.86322e-05
9.77576e-05
9.68712e-05
9.59752e-05
9.50715e-05
9.41628e-05
9.32542e-05
9.23585e-05
9.15579e-05
9.10427e-05
9.04226e-05
8.98489e-05
8.92318e-05
8.86306e-05
8.80549e-05
8.74783e-05
8.69048e-05
8.63419e-05
8.57925e-05
8.52612e-05
8.47504e-05
8.42548e-05
8.37656e-05
8.32954e-05
8.29041e-05
8.25308e-05
8.20366e-05
8.16665e-05
8.12152e-05
8.07178e-05
7.9119e-05
1.84716e-06
3.64915e-05
7.75554e-05
0.000105766
0.000124496
0.000138742
0.000151237
0.000163327
0.000175505
0.00018781
0.00020006
0.000211992
0.000223328
0.00023381
0.000243215
0.00025139
0.000258295
0.000264057
0.000269015
0.000273763
0.000278767
0.000284267
0.00029086
0.000298162
0.000305047
0.000309019
0.000310594
0.000313328
0.000309974
0.000302197
0.000289904
0.000276264
0.000276443
0.000256042
0.000258039
0.000239902
0.000258977
0.000271243
0.000276771
0.000283908
0.000291052
0.000298713
0.000306386
0.000314252
0.000322199
0.000330256
0.000338392
0.000346609
0.000354898
0.000363259
0.000371691
0.000380194
0.00038877
0.000397419
0.000406143
0.000414943
0.000423822
0.00043278
0.00044182
0.00045094
0.000460143
0.000469428
0.000478796
0.000488245
0.000497776
0.000507386
0.000517076
0.000526841
0.000536681
0.000546592
0.000556572
0.000566617
0.000576725
0.00058689
0.000597111
0.00060738
0.000617696
0.000628052
0.000638445
0.00064887
0.000659324
0.000669801
0.000680301
0.000690816
0.000701345
0.000711882
0.000722425
0.000732968
0.000743509
0.000754042
0.000764561
0.000775042
0.00078545
0.000795721
0.000805746
0.000815355
0.000824247
0.000832978
0.0008416
0.000850118
0.000858522
0.000866809
0.000874971
0.000883003
0.000890895
0.000898641
0.000906234
0.000913665
0.000920928
0.000928015
0.000934917
0.000941626
0.000948134
0.00095443
0.000960507
0.000966354
0.000971962
0.000977322
0.000982424
0.000987257
0.000991814
0.000996087
0.00100007
0.00100379
0.00100726
0.00101037
0.00101272
0.00101478
0.00101705
0.00101875
0.00102005
0.00102099
0.00102154
0.00102173
0.00102153
0.00102098
0.00102006
0.00101879
0.00101716
0.00101517
0.00101283
0.00101015
0.00100714
0.00100381
0.00100018
0.000996257
0.000992063
0.000987615
0.000982932
0.000978032
0.000972936
0.000967661
0.000962229
0.000956657
0.000950962
0.000945152
0.000939196
0.000932889
0.000925304
0.000916732
0.000907974
0.000899135
0.000890515
0.000882076
0.00087376
0.000865634
0.000857733
0.00085007
0.000842665
0.000835549
0.000828724
0.000822147
0.000815773
0.000809802
0.000804459
0.000798828
0.000793378
0.000787192
0.000778651
0.000750407
3.72111e-06
5.773e-05
0.000120254
0.000167847
0.000202526
0.000228089
0.000248003
0.000264732
0.000279797
0.000293994
0.000307627
0.000320708
0.000333106
0.000344639
0.000355076
0.000364223
0.000372006
0.000378481
0.000383855
0.000388463
0.000393252
0.000399393
0.000407056
0.000415994
0.000425565
0.000435012
0.000443848
0.000451652
0.000457337
0.000461675
0.00046586
0.000472283
0.000479223
0.000484911
0.000495526
0.00050604
0.000524171
0.000540387
0.000555608
0.000571141
0.000586747
0.000602601
0.000618596
0.00063476
0.000651064
0.000667511
0.000684091
0.000700802
0.000717642
0.000734612
0.000751715
0.000768951
0.000786324
0.000803836
0.00082149
0.000839286
0.000857228
0.000875316
0.00089355
0.000911931
0.000930457
0.000949129
0.000967943
0.000986898
0.00100599
0.00102521
0.00104457
0.00106404
0.00108364
0.00110334
0.00112315
0.00114305
0.00116304
0.00118312
0.00120326
0.00122347
0.00124372
0.00126402
0.00128436
0.00130472
0.00132509
0.00134546
0.00136583
0.00138618
0.00140651
0.00142679
0.00144702
0.00146718
0.00148727
0.00150725
0.0015271
0.00154678
0.00156624
0.00158541
0.0016042
0.00162253
0.00164041
0.00165806
0.00167549
0.00169268
0.00170963
0.00172632
0.00174274
0.00175888
0.00177471
0.00179023
0.00180541
0.00182025
0.00183473
0.00184884
0.00186255
0.00187586
0.00188874
0.00190118
0.00191316
0.00192466
0.00193566
0.00194615
0.00195611
0.00196552
0.00197435
0.00198261
0.00199027
0.00199734
0.00200396
0.00200989
0.00201436
0.0020182
0.00202216
0.00202517
0.00202738
0.00202884
0.00202954
0.00202948
0.00202867
0.00202711
0.00202482
0.0020218
0.00201804
0.00201357
0.0020084
0.00200254
0.00199602
0.00198887
0.00198111
0.00197277
0.00196389
0.00195451
0.00194466
0.00193439
0.00192372
0.00191271
0.00190139
0.0018898
0.00187799
0.00186596
0.00185368
0.00184091
0.00182695
0.00181211
0.00179692
0.00178164
0.00176656
0.00175171
0.00173711
0.00172282
0.00170891
0.00169542
0.00168239
0.00166987
0.00165787
0.00164638
0.00163536
0.00162495
0.00161536
0.00160586
0.00159638
0.00158512
0.00156953
0.00153058
5.70133e-06
7.37471e-05
0.000152502
0.000214432
0.000260802
0.000295655
0.000322673
0.000344647
0.000363513
0.000380487
0.000396242
0.000411072
0.000425022
0.000437998
0.000449897
0.00046065
0.000470245
0.00047882
0.000486689
0.000494378
0.000502605
0.000512077
0.000523198
0.000536027
0.000550213
0.000565254
0.000580612
0.000595808
0.000610611
0.000625349
0.000640561
0.000656085
0.000673302
0.000691609
0.000711496
0.000732431
0.000754913
0.000777107
0.00079914
0.000821427
0.00084387
0.00086649
0.000889279
0.00091224
0.00093537
0.00095867
0.000982137
0.00100577
0.00102958
0.00105356
0.00107772
0.00110206
0.00112658
0.00115129
0.00117619
0.00120129
0.00122658
0.00125207
0.00127775
0.00130362
0.00132968
0.00135593
0.00138236
0.00140897
0.00143575
0.0014627
0.00148981
0.00151706
0.00154446
0.00157199
0.00159963
0.00162739
0.00165524
0.00168318
0.00171119
0.00173925
0.00176736
0.0017955
0.00182366
0.00185181
0.00187995
0.00190806
0.00193612
0.00196412
0.00199204
0.00201986
0.00204756
0.00207511
0.0021025
0.0021297
0.00215668
0.00218338
0.00220978
0.0022358
0.00226141
0.00228657
0.00231136
0.00233582
0.00235996
0.00238377
0.00240722
0.0024303
0.002453
0.00247528
0.00249715
0.00251856
0.00253951
0.00255998
0.00257995
0.00259939
0.00261829
0.00263663
0.00265438
0.00267152
0.00268803
0.00270389
0.00271907
0.00273355
0.0027473
0.00276031
0.00277255
0.00278399
0.00279463
0.00280444
0.00281366
0.00282188
0.00282841
0.00283397
0.00283941
0.00284369
0.00284691
0.00284908
0.00285021
0.0028503
0.00284935
0.00284736
0.00284435
0.00284031
0.00283526
0.00282922
0.00282219
0.00281421
0.00280531
0.00279551
0.00278486
0.0027734
0.00276117
0.00274823
0.00273461
0.00272038
0.0027056
0.0026903
0.00267457
0.00265844
0.00264197
0.0026252
0.00260811
0.00259055
0.00257217
0.0025531
0.00253366
0.00251413
0.00249473
0.00247557
0.00245671
0.00243824
0.00242024
0.00240277
0.00238589
0.00236967
0.00235415
0.00233934
0.00232524
0.00231194
0.00229954
0.00228759
0.00227575
0.00226184
0.002243
0.00220396
7.61516e-06
8.70603e-05
0.000179219
0.000252977
0.000309579
0.000352717
0.000386283
0.000413321
0.000436059
0.000456024
0.000474186
0.000491101
0.000507041
0.000522113
0.000536345
0.000549763
0.000562443
0.000574564
0.000586436
0.000598507
0.000611305
0.000625326
0.000640881
0.00065804
0.000676685
0.000696532
0.000717191
0.000738328
0.000759817
0.000781805
0.000804599
0.000828105
0.000852182
0.000877032
0.000902704
0.000929042
0.000955908
0.000983057
0.00101044
0.00103793
0.00106557
0.0010934
0.00112141
0.00114962
0.00117802
0.00120662
0.00123542
0.00126443
0.00129363
0.00132304
0.00135265
0.00138247
0.0014125
0.00144277
0.00147326
0.00150397
0.00153491
0.00156607
0.00159746
0.00162906
0.00166088
0.0016929
0.00172513
0.00175755
0.00179016
0.00182295
0.0018559
0.00188901
0.00192225
0.00195563
0.00198913
0.00202272
0.0020564
0.00209016
0.00212396
0.0021578
0.00219167
0.00222553
0.00225937
0.00229318
0.00232694
0.00236062
0.0023942
0.00242767
0.00246101
0.00249418
0.00252717
0.00255996
0.00259251
0.0026248
0.0026568
0.00268847
0.00271979
0.00275073
0.00278128
0.00281142
0.00284117
0.00287053
0.0028995
0.00292806
0.00295619
0.00298388
0.00301109
0.00303782
0.00306404
0.00308973
0.00311487
0.00313943
0.00316341
0.00318677
0.00320949
0.00323155
0.00325293
0.0032736
0.00329353
0.00331271
0.0033311
0.00334868
0.00336542
0.0033813
0.00339628
0.00341034
0.00342347
0.00343563
0.00344709
0.00345736
0.00346595
0.00347327
0.00348023
0.00348593
0.00349039
0.00349362
0.00349561
0.00349636
0.00349586
0.00349413
0.00349115
0.00348695
0.00348152
0.00347489
0.00346708
0.0034581
0.003448
0.0034368
0.00342455
0.00341131
0.00339711
0.00338201
0.00336607
0.00334936
0.00333193
0.00331385
0.00329519
0.00327602
0.0032564
0.00323639
0.00321601
0.00319519
0.00317378
0.00315186
0.00312963
0.00310728
0.00308503
0.00306299
0.00304127
0.00301996
0.00299917
0.00297898
0.00295947
0.00294071
0.00292277
0.00290571
0.00288955
0.00287436
0.00286019
0.00284678
0.00283369
0.00281906
0.00279983
0.00276543
9.40199e-06
9.81536e-05
0.000201496
0.000285431
0.000351147
0.000401897
0.000441682
0.000473717
0.000500442
0.000523626
0.000544488
0.000563821
0.000582114
0.000599652
0.000616608
0.000633105
0.000649279
0.00066531
0.00068145
0.000698021
0.000715376
0.000733844
0.000753652
0.000774888
0.000797492
0.000821262
0.00084597
0.000871418
0.0008975
0.000924195
0.000951557
0.00097958
0.00100822
0.00103748
0.00106732
0.00109765
0.00112839
0.00115944
0.00119074
0.00122224
0.00125394
0.00128585
0.00131795
0.00135026
0.00138278
0.00141551
0.00144846
0.00148162
0.001515
0.00154862
0.00158247
0.00161656
0.00165087
0.00168542
0.00172019
0.00175519
0.00179042
0.00182587
0.00186154
0.00189742
0.00193351
0.0019698
0.00200629
0.00204296
0.00207981
0.00211682
0.00215398
0.00219129
0.00222872
0.00226626
0.0023039
0.00234161
0.0023794
0.00241723
0.00245508
0.00249295
0.00253081
0.00256865
0.00260643
0.00264415
0.00268178
0.0027193
0.00275669
0.00279393
0.00283099
0.00286785
0.00290449
0.00294089
0.00297701
0.00301284
0.00304835
0.00308351
0.00311831
0.00315272
0.00318673
0.00322034
0.00325352
0.00328628
0.0033186
0.00335046
0.00338185
0.00341274
0.00344312
0.00347296
0.00350225
0.00353096
0.00355907
0.00358656
0.00361341
0.00363961
0.00366511
0.00368991
0.00371398
0.0037373
0.00375983
0.00378155
0.00380243
0.00382246
0.00384159
0.0038598
0.00387706
0.00389334
0.00390862
0.00392286
0.00393634
0.00394853
0.00395918
0.00396835
0.0039769
0.0039842
0.00399016
0.00399475
0.00399798
0.00399984
0.00400032
0.00399942
0.00399714
0.00399348
0.00398845
0.00398206
0.00397433
0.00396529
0.00395496
0.00394338
0.00393059
0.00391664
0.00390159
0.00388548
0.00386839
0.00385037
0.00383149
0.00381182
0.00379144
0.00377043
0.00374885
0.00372678
0.00370427
0.00368132
0.0036579
0.00363406
0.00360994
0.0035857
0.0035615
0.00353749
0.00351377
0.00349048
0.00346771
0.00344556
0.00342415
0.00340355
0.00338386
0.00336517
0.00334753
0.00333102
0.00331568
0.00330138
0.00328775
0.00327342
0.00325559
0.00322733
1.10178e-05
0.000107287
0.000219929
0.000312697
0.000386578
0.000444392
0.000490145
0.000527142
0.00055797
0.000584572
0.000608362
0.000630329
0.000651145
0.000671251
0.000690945
0.000710438
0.000729906
0.000749525
0.000769492
0.000790025
0.000811348
0.000833665
0.000857121
0.00088178
0.000907618
0.000934537
0.000962403
0.000991085
0.00102048
0.00105053
0.0010812
0.00111248
0.00114434
0.00117673
0.00120961
0.00124293
0.00127662
0.00131063
0.0013449
0.00137942
0.00141415
0.0014491
0.00148426
0.00151962
0.0015552
0.00159098
0.00162698
0.0016632
0.00169964
0.0017363
0.00177318
0.0018103
0.00184763
0.00188519
0.00192297
0.00196098
0.00199919
0.00203763
0.00207627
0.00211511
0.00215415
0.00219339
0.0022328
0.00227239
0.00231213
0.00235203
0.00239207
0.00243223
0.0024725
0.00251287
0.00255331
0.00259382
0.00263438
0.00267497
0.00271557
0.00275616
0.00279672
0.00283724
0.00287769
0.00291805
0.0029583
0.00299842
0.00303839
0.00307818
0.00311778
0.00315716
0.00319629
0.00323516
0.00327374
0.00331201
0.00334995
0.00338753
0.00342473
0.00346155
0.00349796
0.00353395
0.0035695
0.00360461
0.00363926
0.00367342
0.00370709
0.00374023
0.00377285
0.0038049
0.00383638
0.00386726
0.00389753
0.00392716
0.00395614
0.00398444
0.00401205
0.00403893
0.00406508
0.00409046
0.00411504
0.00413881
0.00416174
0.0041838
0.00420495
0.00422518
0.00424444
0.00426272
0.00427997
0.00429616
0.00431158
0.00432565
0.00433835
0.00434954
0.00435986
0.00436894
0.00437662
0.00438287
0.00438769
0.00439105
0.00439295
0.00439337
0.00439231
0.00438977
0.00438575
0.00438026
0.0043733
0.00436491
0.0043551
0.00434391
0.00433138
0.00431756
0.00430249
0.00428623
0.00426883
0.00425037
0.00423092
0.00421054
0.00418931
0.00416733
0.00414465
0.00412138
0.00409757
0.00407327
0.00404851
0.00402336
0.00399792
0.00397234
0.00394675
0.0039213
0.0038961
0.0038713
0.00384701
0.00382334
0.00380041
0.00377834
0.00375724
0.00373721
0.00371836
0.00370079
0.00368456
0.00366963
0.00365574
0.0036419
0.00362586
0.00360282
1.2431e-05
0.000114632
0.000234873
0.000335446
0.00041643
0.000480825
0.0005323
0.000574202
0.000609201
0.000639359
0.000666232
0.000690959
0.000714354
0.000736989
0.000759262
0.000781459
0.000803793
0.000826444
0.000849572
0.000873335
0.000897875
0.000923312
0.000949732
0.000977173
0.00100563
0.00103504
0.00106534
0.00109644
0.00112825
0.00116071
0.00119377
0.0012274
0.00126155
0.00129618
0.00133126
0.00136673
0.00140255
0.00143869
0.0014751
0.00151175
0.00154862
0.0015857
0.00162298
0.00166045
0.00169813
0.001736
0.00177408
0.00181236
0.00185085
0.00188954
0.00192844
0.00196755
0.00200687
0.00204639
0.00208612
0.00212605
0.00216619
0.00220652
0.00224705
0.00228776
0.00232866
0.00236973
0.00241097
0.00245237
0.00249391
0.0025356
0.00257741
0.00261933
0.00266136
0.00270347
0.00274565
0.00278789
0.00283017
0.00287247
0.00291478
0.00295707
0.00299933
0.00304153
0.00308367
0.00312571
0.00316764
0.00320944
0.00325107
0.00329253
0.00333379
0.00337483
0.00341563
0.00345615
0.00349639
0.00353632
0.00357591
0.00361516
0.00365403
0.00369252
0.00373061
0.00376827
0.00380549
0.00384226
0.00387856
0.00391438
0.00394969
0.00398448
0.00401872
0.00405241
0.00408552
0.00411804
0.00414995
0.00418122
0.00421185
0.00424181
0.00427108
0.00429965
0.00432749
0.00435457
0.00438089
0.00440641
0.00443111
0.00445495
0.00447792
0.00449999
0.00452112
0.00454128
0.00456044
0.00457856
0.0045959
0.00461189
0.00462667
0.00464003
0.00465232
0.00466338
0.00467304
0.00468123
0.00468794
0.00469314
0.00469683
0.00469899
0.0046996
0.00469865
0.00469614
0.00469206
0.00468643
0.00467925
0.00467055
0.00466036
0.00464871
0.00463563
0.00462118
0.0046054
0.00458836
0.00457011
0.00455072
0.00453027
0.00450884
0.0044865
0.00446334
0.00443946
0.00441492
0.0043898
0.00436418
0.00433812
0.00431173
0.00428513
0.00425847
0.00423187
0.00420547
0.0041794
0.0041538
0.0041288
0.00410453
0.00408113
0.00405872
0.00403744
0.00401743
0.00399882
0.00398172
0.00396616
0.00395201
0.00393856
0.00392406
0.00390534
1.36234e-05
0.00012036
0.000246695
0.000353966
0.000441226
0.000511636
0.000568524
0.000615201
0.000654361
0.000688134
0.000718169
0.000745708
0.000771675
0.000796741
0.000821388
0.000845963
0.000870713
0.000895827
0.000921455
0.00094773
0.00097476
0.00100261
0.00103133
0.00106092
0.00109139
0.0011227
0.00115479
0.00118762
0.00122111
0.00125521
0.00128988
0.00132505
0.0013607
0.00139679
0.00143327
0.00147012
0.0015073
0.00154479
0.00158254
0.00162052
0.0016587
0.00169706
0.0017356
0.00177431
0.0018132
0.00185227
0.00189151
0.00193093
0.00197053
0.00201032
0.00205029
0.00209044
0.00213079
0.00217132
0.00221204
0.00225294
0.00229403
0.0023353
0.00237675
0.00241838
0.00246017
0.00250214
0.00254426
0.00258654
0.00262896
0.00267152
0.00271421
0.00275701
0.00279991
0.00284291
0.00288599
0.00292913
0.00297232
0.00301554
0.00305878
0.00310202
0.00314524
0.00318843
0.00323155
0.0032746
0.00331755
0.00336039
0.00340308
0.00344561
0.00348795
0.00353009
0.003572
0.00361366
0.00365504
0.00369613
0.0037369
0.00377734
0.00381742
0.00385713
0.00389644
0.00393533
0.0039738
0.00401182
0.00404938
0.00408645
0.00412303
0.00415909
0.00419462
0.00422959
0.00426401
0.00429784
0.00433107
0.0043637
0.00439569
0.00442704
0.00445772
0.00448773
0.00451704
0.00454563
0.00457348
0.00460058
0.0046269
0.00465241
0.00467708
0.0047009
0.00472383
0.00474584
0.0047669
0.00478699
0.00480626
0.00482427
0.00484117
0.00485681
0.0048713
0.00488456
0.00489643
0.0049068
0.00491568
0.00492304
0.00492885
0.00493309
0.00493575
0.00493678
0.0049362
0.00493397
0.00493011
0.00492462
0.00491751
0.0049088
0.00489852
0.00488669
0.00487336
0.00485858
0.00484238
0.00482484
0.00480602
0.00478598
0.00476481
0.00474259
0.0047194
0.00469533
0.00467048
0.00464493
0.00461876
0.00459207
0.00456496
0.00453756
0.00451
0.0044824
0.00445492
0.0044277
0.00440087
0.00437459
0.00434899
0.00432425
0.0043005
0.00427791
0.00425665
0.00423689
0.00421877
0.00420243
0.00418782
0.00417445
0.00416104
0.0041456
1.45864e-05
0.000124622
0.00025567
0.000368531
0.000461286
0.000537135
0.000599067
0.000650305
0.000693524
0.000730877
0.000764063
0.000794397
0.000822872
0.000850234
0.000877045
0.000903707
0.000930481
0.00095755
0.000985036
0.001013
0.00104168
0.00107112
0.00110133
0.00113234
0.00116411
0.00119663
0.00122986
0.00126375
0.00129826
0.00133333
0.00136892
0.00140498
0.00144148
0.00147837
0.00151563
0.00155322
0.00159111
0.00162927
0.00166756
0.0017061
0.0017448
0.00178364
0.0018226
0.0018617
0.00190093
0.00194031
0.00197983
0.00201949
0.00205931
0.00209929
0.00213943
0.00217974
0.00222021
0.00226085
0.00230166
0.00234265
0.00238381
0.00242515
0.00246666
0.00250835
0.00255022
0.00259226
0.00263447
0.00267684
0.00271937
0.00276206
0.0028049
0.00284787
0.00289098
0.0029342
0.00297754
0.00302097
0.00306448
0.00310806
0.00315169
0.00319536
0.00323905
0.00328273
0.0033264
0.00337002
0.00341358
0.00345706
0.00350043
0.00354368
0.00358677
0.00362968
0.0036724
0.0037149
0.00375714
0.00379912
0.00384081
0.00388219
0.00392323
0.00396391
0.00400421
0.00404412
0.00408361
0.00412267
0.00416127
0.0041994
0.00423705
0.00427419
0.00431081
0.0043469
0.00438244
0.00441742
0.00445182
0.00448563
0.00451883
0.00455142
0.00458338
0.00461469
0.00464535
0.00467533
0.00470462
0.0047332
0.00476105
0.00478816
0.00481449
0.00484002
0.00486473
0.00488858
0.00491156
0.00493366
0.00495488
0.00497502
0.00499414
0.00501214
0.00502902
0.00504468
0.00505899
0.00507176
0.00508304
0.00509281
0.00510103
0.00510768
0.0051127
0.00511607
0.00511777
0.00511777
0.00511607
0.00511266
0.00510754
0.00510072
0.00509222
0.00508207
0.00507028
0.0050569
0.00504197
0.00502555
0.00500769
0.00498847
0.00496795
0.00494621
0.00492334
0.00489943
0.00487458
0.00484887
0.00482241
0.0047953
0.00476766
0.00473959
0.00471124
0.00468274
0.00465424
0.00462588
0.00459783
0.00457024
0.00454328
0.00451711
0.00449192
0.00446788
0.0044452
0.00442409
0.00440475
0.00438735
0.00437195
0.00435827
0.00434537
0.00433218
1.53209e-05
0.000127566
0.000262069
0.000379452
0.000476916
0.000557589
0.000624125
0.000679622
0.000726692
0.000767474
0.000803684
0.000836733
0.000867589
0.000896979
0.0009254
0.000953494
0.000981596
0.00100994
0.00103872
0.00106808
0.0010981
0.00112877
0.00116008
0.00119205
0.00122466
0.00125788
0.00129169
0.00132605
0.00136091
0.00139624
0.001432
0.00146814
0.00150463
0.00154145
0.00157854
0.0016159
0.00165349
0.00169134
0.00172945
0.00176784
0.0018063
0.00184479
0.00188334
0.00192195
0.00196065
0.00199944
0.00203834
0.00207736
0.0021165
0.00215578
0.00219521
0.00223478
0.00227451
0.00231441
0.00235448
0.00239473
0.00243516
0.00247579
0.00251661
0.00255763
0.00259885
0.00264028
0.00268191
0.00272375
0.00276579
0.00280803
0.00285047
0.0028931
0.00293592
0.00297891
0.00302207
0.00306539
0.00310884
0.00315243
0.00319613
0.00323992
0.0032838
0.00332773
0.00337169
0.00341568
0.00345965
0.00350359
0.00354748
0.00359129
0.00363499
0.00367856
0.00372197
0.00376519
0.00380821
0.00385099
0.00389351
0.00393574
0.00397766
0.00401924
0.00406046
0.00410131
0.00414175
0.00418178
0.00422136
0.00426049
0.00429914
0.00433729
0.00437495
0.00441208
0.00444867
0.00448473
0.00452022
0.00455515
0.0045895
0.00462326
0.00465642
0.00468898
0.00472092
0.00475223
0.00478289
0.00481291
0.00484225
0.0048709
0.00489885
0.00492608
0.00495255
0.00497826
0.00500317
0.00502728
0.00505054
0.00507287
0.00509431
0.00511476
0.00513415
0.0051524
0.00516935
0.00518468
0.00519857
0.00521099
0.00522188
0.00523119
0.00523886
0.00524487
0.00524917
0.00525173
0.00525253
0.00525155
0.00524877
0.00524421
0.00523787
0.00522975
0.00521987
0.00520827
0.00519497
0.00518003
0.00516349
0.00514542
0.00512587
0.00510494
0.0050827
0.00505924
0.00503466
0.00500905
0.00498253
0.00495519
0.00492715
0.00489854
0.0048695
0.00484016
0.00481068
0.00478121
0.00475193
0.00472299
0.00469459
0.0046669
0.00464013
0.0046145
0.00459021
0.00456753
0.00454669
0.00452793
0.0045114
0.00449695
0.00448396
0.00447205
1.5838e-05
0.000129365
0.000266165
0.000387036
0.000488414
0.000573243
0.000643869
0.000703223
0.000753839
0.000797778
0.000836649
0.000871819
0.000904478
0.000935525
0.000965704
0.000995417
0.00102495
0.00105454
0.00108438
0.00111458
0.00114519
0.00117628
0.00120788
0.00124
0.00127262
0.00130572
0.00133928
0.00137326
0.00140765
0.00144239
0.00147747
0.00151282
0.00154845
0.00158431
0.0016204
0.00165665
0.00169311
0.0017298
0.00176676
0.00180399
0.00184124
0.00187851
0.00191577
0.00195298
0.00199021
0.00202749
0.00206486
0.00210231
0.00213988
0.00217758
0.00221542
0.00225342
0.00229159
0.00232995
0.00236851
0.00240729
0.00244629
0.00248553
0.00252503
0.00256478
0.0026048
0.00264509
0.00268566