/*--------------------------------*- C++ -*----------------------------------*\
  =========                 |
  \\      /  F ield         | OpenFOAM: The Open Source CFD Toolbox
   \\    /   O peration     | Website:  https://openfoam.org
    \\  /    A nd           | Version:  8
     \\/     M anipulation  |
\*---------------------------------------------------------------------------*/
FoamFile
{
    version     2.0;
    format      ascii;
    class       volScalarField;
    location    "210";
    object      p;
}
// * * * * * * * * * * * * * * * * * * * * * * * * * * * * * * * * * * * * * //

dimensions      [0 2 -2 0 0 0 0];

internalField   nonuniform List<scalar> 
12225
(
-2.39549
-4.58407
-5.68406
-6.00471
-6.186
-6.35506
-6.48666
-6.58191
-6.65865
-6.7262
-6.78642
-6.84157
-6.89172
-6.93854
-6.98239
-7.01869
-7.06339
-7.03408
-5.55892
-6.32738
-6.48782
-6.39557
-6.38305
-6.45094
-6.52854
-6.59437
-6.65412
-6.71172
-6.76655
-6.81773
-6.86596
-6.91148
-6.95524
-6.99373
-7.0383
-7.06775
-5.96006
-5.94506
-6.0724
-6.15075
-6.24565
-6.36585
-6.47313
-6.55806
-6.63
-6.69551
-6.75583
-6.81101
-6.8625
-6.91063
-6.95691
-6.99912
-7.04722
-7.08888
-5.83812
-5.78122
-6.0228
-6.1811
-6.28284
-6.38907
-6.48681
-6.56693
-6.63579
-6.69902
-6.75779
-6.81205
-6.86299
-6.91096
-6.95735
-7.00142
-7.04928
-7.09672
-5.82778
-5.85222
-6.08026
-6.2218
-6.30542
-6.39749
-6.48875
-6.56654
-6.63419
-6.69655
-6.75484
-6.80905
-6.86014
-6.90858
-6.95564
-7.00138
-7.04946
-7.09945
-5.88573
-5.93468
-6.10893
-6.23282
-6.31433
-6.40217
-6.49025
-6.56682
-6.63387
-6.6957
-6.75364
-6.80778
-6.85892
-6.90767
-6.95511
-7.00169
-7.04971
-7.09972
-5.94605
-5.9903
-6.12546
-6.24176
-6.3255
-6.40965
-6.49359
-6.56828
-6.63444
-6.69555
-6.75295
-6.80686
-6.85791
-6.90677
-6.95433
-7.0012
-7.0488
-7.09767
-5.99957
-6.03721
-6.14715
-6.25542
-6.3384
-6.418
-6.49744
-6.56995
-6.63506
-6.69536
-6.75214
-6.80571
-6.85659
-6.9054
-6.95289
-6.99963
-7.04649
-7.09377
-6.04927
-6.08241
-6.1733
-6.27123
-6.35129
-6.42665
-6.50182
-6.57196
-6.63581
-6.69517
-6.75122
-6.80432
-6.85488
-6.90345
-6.95064
-6.9969
-7.04277
-7.0883
-6.09629
-6.12554
-6.20103
-6.28821
-6.36439
-6.43592
-6.50702
-6.57453
-6.63686
-6.6951
-6.75027
-6.80273
-6.8528
-6.90093
-6.94758
-6.9931
-7.0378
-7.08155
-6.14056
-6.16605
-6.22922
-6.30635
-6.378
-6.4458
-6.513
-6.57769
-6.63827
-6.69524
-6.74938
-6.80102
-6.85042
-6.8979
-6.94381
-6.98839
-7.03182
-7.07385
-6.17854
-6.20087
-6.25504
-6.32382
-6.39091
-6.45526
-6.51906
-6.58108
-6.63989
-6.69555
-6.74862
-6.79937
-6.848
-6.89473
-6.93982
-6.98341
-7.02561
-7.06616
-6.2136
-6.2333
-6.2801
-6.34144
-6.40389
-6.46484
-6.52541
-6.5848
-6.64174
-6.69601
-6.74792
-6.79768
-6.84542
-6.8913
-6.93547
-6.97802
-7.01901
-7.05817
-6.25032
-6.2675
-6.30748
-6.36145
-6.41873
-6.47585
-6.53293
-6.58937
-6.64409
-6.69666
-6.74715
-6.79566
-6.84228
-6.88707
-6.9301
-6.97142
-7.01104
-7.04874
-6.28745
-6.30222
-6.33619
-6.38324
-6.43507
-6.48801
-6.54141
-6.59468
-6.64688
-6.69744
-6.74623
-6.79324
-6.83846
-6.88191
-6.92359
-6.9635
-7.00164
-7.03784
-6.32302
-6.33564
-6.36454
-6.40546
-6.45198
-6.50064
-6.55033
-6.60034
-6.64981
-6.69812
-6.74496
-6.79023
-6.83384
-6.87574
-6.9159
-6.95427
-6.99087
-7.02556
-6.35413
-6.365
-6.38993
-6.42584
-6.46768
-6.51236
-6.55856
-6.60544
-6.6522
-6.69816
-6.74295
-6.78634
-6.82819
-6.86842
-6.90696
-6.94376
-6.97881
-7.01205
-6.37642
-6.38606
-6.4083
-6.44074
-6.47916
-6.52075
-6.56416
-6.60847
-6.65288
-6.69673
-6.73958
-6.78117
-6.82132
-6.85991
-6.89687
-6.93215
-6.96574
-6.99762
-6.38299
-6.39214
-6.41334
-6.44447
-6.48153
-6.52178
-6.56379
-6.60669
-6.6497
-6.69217
-6.73365
-6.77387
-6.81266
-6.84991
-6.88556
-6.91958
-6.95196
-6.98273
-6.36669
-6.37646
-6.39905
-6.43211
-6.47108
-6.51274
-6.55566
-6.59914
-6.64245
-6.68497
-6.72626
-6.76611
-6.80441
-6.84109
-6.87608
-6.90942
-6.9411
-6.97119
-6.33973
-6.35052
-6.37578
-6.41278
-6.45553
-6.50001
-6.54506
-6.59024
-6.63483
-6.67812
-6.71984
-6.75988
-6.7982
-6.83475
-6.86954
-6.90259
-6.93396
-6.96372
-6.30444
-6.31625
-6.3456
-6.38916
-6.43741
-6.48537
-6.53314
-6.58082
-6.62732
-6.67186
-6.71433
-6.75483
-6.79339
-6.83001
-6.86475
-6.89767
-6.92886
-6.95842
-6.26384
-6.27574
-6.31018
-6.36343
-6.41895
-6.47087
-6.52172
-6.57212
-6.62059
-6.66642
-6.70979
-6.75093
-6.78987
-6.82668
-6.86146
-6.89436
-6.92547
-6.95494
-6.2201
-6.23108
-6.27284
-6.33724
-6.3994
-6.45604
-6.51162
-6.56544
-6.61566
-6.66243
-6.70651
-6.74814
-6.78735
-6.82425
-6.85904
-6.89189
-6.92292
-6.95227
-6.17315
-6.17865
-6.2413
-6.31949
-6.38141
-6.43963
-6.50073
-6.55905
-6.61153
-6.65954
-6.70451
-6.74672
-6.78621
-6.8232
-6.85796
-6.89073
-6.92168
-6.95098
-6.12983
-6.0935
-6.20303
-6.31398
-6.3762
-6.43146
-6.49363
-6.55333
-6.60651
-6.65519
-6.70086
-6.74361
-6.78343
-6.82061
-6.85548
-6.88831
-6.91928
-6.94859
-6.14405
-5.98509
-6.114
-6.26806
-6.35814
-6.42948
-6.49837
-6.55924
-6.612
-6.66024
-6.70547
-6.74768
-6.78692
-6.82354
-6.85786
-6.89019
-6.92075
-6.94978
-6.26723
-6.08685
-6.10101
-6.17312
-6.26147
-6.36066
-6.45131
-6.52505
-6.58671
-6.64181
-6.69207
-6.7378
-6.77955
-6.818
-6.85364
-6.88692
-6.91831
-6.94842
-5.97461
-6.5657
-6.65451
-6.53025
-6.47588
-6.50301
-6.54996
-6.59316
-6.63468
-6.67682
-6.71827
-6.75755
-6.79446
-6.82915
-6.86166
-6.89216
-6.92086
-6.94954
-2.98528
-4.74858
-5.75326
-6.05239
-6.20154
-6.34513
-6.45913
-6.54006
-6.60424
-6.66106
-6.71228
-6.75827
-6.7999
-6.83809
-6.87333
-6.90543
-6.93423
-6.95797
-7.84887
-7.84893
-7.84944
-7.85048
-7.85193
-7.85377
-7.85597
-7.85855
-7.86152
-7.86493
-7.8688
-7.87318
-7.87812
-7.88365
-7.88981
-7.89662
-7.90407
-7.91212
-7.92069
-7.92977
-7.9393
-7.94918
-7.95938
-7.97017
-7.98226
-7.99621
-8.01134
-8.02725
-8.04469
-8.06374
-8.08391
-8.10471
-8.12695
-8.1528
-8.18022
-8.20532
-8.22769
-8.24757
-8.26905
-8.29372
-8.31922
-8.34563
-8.37269
-8.40028
-8.42825
-8.45651
-8.48496
-8.51352
-8.54208
-8.5706
-8.59895
-8.6271
-8.6549
-8.68232
-8.70922
-8.73554
-8.76113
-8.78593
-8.80977
-8.8326
-8.85422
-8.87455
-8.89341
-8.91069
-8.9262
-8.93983
-8.95136
-8.96068
-8.96755
-8.97184
-8.97333
-8.97186
-8.96719
-8.95918
-8.94757
-8.93222
-8.91287
-8.88934
-8.86137
-8.82881
-8.7914
-8.74897
-8.70126
-8.64814
-8.58934
-8.52469
-8.45392
-8.37683
-8.29314
-8.20271
-8.10551
-8.00158
-7.89094
-7.77339
-7.64858
-7.51607
-7.37557
-7.22707
-7.07066
-6.90632
-6.73404
-6.55379
-6.36555
-6.16933
-5.96515
-5.75305
-5.53311
-5.30544
-5.07016
-4.82744
-4.57745
-4.32042
-4.05659
-3.78622
-3.50962
-3.22711
-2.93906
-2.64588
-2.34798
-2.04579
-1.73975
-1.43033
-1.11805
-0.803433
-0.487075
-0.169539
0.148611
0.466861
0.784647
1.10141
1.41657
1.72957
2.03986
2.34693
2.65024
2.94933
3.24373
3.53302
3.81683
4.09483
4.36671
4.63218
4.89102
5.14302
5.38804
5.62597
5.85676
6.08037
6.29683
6.5062
6.70857
6.90406
7.09282
7.27504
7.45093
7.62071
7.78464
7.94301
8.09615
8.24436
8.3878
8.52671
8.66142
8.79228
8.9197
9.04411
9.16589
9.28543
9.40311
9.51935
9.63454
9.74905
9.86329
9.9777
10.0928
10.2091
10.328
10.4501
10.5862
10.7268
-7.84675
-7.84727
-7.84804
-7.84889
-7.84967
-7.85049
-7.85159
-7.85311
-7.85512
-7.85764
-7.86069
-7.86429
-7.86843
-7.87313
-7.87839
-7.88422
-7.89059
-7.89748
-7.90486
-7.91269
-7.9209
-7.92955
-7.93901
-7.9498
-7.96232
-7.97589
-7.99017
-8.00573
-8.02201
-8.03835
-8.0546
-8.07207
-8.09124
-8.11037
-8.12971
-8.15274
-8.17943
-8.21012
-8.24113
-8.26884
-8.29605
-8.3233
-8.35075
-8.37847
-8.40641
-8.43454
-8.4628
-8.49114
-8.51948
-8.54775
-8.57588
-8.60379
-8.63139
-8.65862
-8.68535
-8.71152
-8.737
-8.76171
-8.78551
-8.8083
-8.82994
-8.85032
-8.86928
-8.88669
-8.90238
-8.91622
-8.92802
-8.93764
-8.94487
-8.94956
-8.95151
-8.95054
-8.94644
-8.93904
-8.92811
-8.91348
-8.89491
-8.87221
-8.84515
-8.81355
-8.77717
-8.73583
-8.68929
-8.63739
-8.57989
-8.51663
-8.44737
-8.3719
-8.29
-8.20151
-8.10631
-8.00421
-7.89501
-7.77849
-7.65454
-7.52306
-7.38405
-7.23742
-7.08304
-6.9208
-6.75067
-6.5726
-6.38659
-6.19261
-5.9907
-5.78088
-5.56324
-5.33786
-5.10488
-4.86444
-4.61672
-4.36192
-4.10029
-3.83208
-3.55758
-3.27712
-2.99104
-2.69975
-2.40365
-2.10315
-1.7987
-1.49077
-1.17985
-0.866481
-0.551214
-0.234638
0.0826968
0.400266
0.717528
1.03392
1.34886
1.6618
1.9722
2.27952
2.58325
2.8829
3.17801
3.46816
3.75296
4.03207
4.30516
4.57196
4.83222
5.08572
5.33231
5.57187
5.80433
6.02967
6.24787
6.459
6.66313
6.86038
7.05089
7.23483
7.41241
7.58385
7.74941
7.90935
8.06389
8.21324
8.35769
8.49753
8.63311
8.7648
8.89297
9.01805
9.1404
9.26041
9.37848
9.49502
9.61043
9.72509
9.83942
9.95389
10.0691
10.1856
10.3052
10.428
10.5668
10.7022
-7.84104
-7.84257
-7.84472
-7.84638
-7.84737
-7.84812
-7.84897
-7.85015
-7.85177
-7.85389
-7.85653
-7.85973
-7.86347
-7.86776
-7.87262
-7.87804
-7.88401
-7.89053
-7.89762
-7.90531
-7.91368
-7.92285
-7.93303
-7.94443
-7.95708
-7.97065
-7.98496
-8.0003
-8.01667
-8.03397
-8.05216
-8.07144
-8.09151
-8.1114
-8.13103
-8.15181
-8.17457
-8.19959
-8.22584
-8.25207
-8.27852
-8.30525
-8.33225
-8.35949
-8.38693
-8.41454
-8.44226
-8.47005
-8.49785
-8.52559
-8.5532
-8.58061
-8.60775
-8.63452
-8.66084
-8.68662
-8.71176
-8.73615
-8.75968
-8.78224
-8.8037
-8.82393
-8.84279
-8.86014
-8.87584
-8.88972
-8.90163
-8.9114
-8.91886
-8.92383
-8.92612
-8.92555
-8.92193
-8.91506
-8.90474
-8.89078
-8.87296
-8.85107
-8.82492
-8.79428
-8.75896
-8.71873
-8.6734
-8.62276
-8.56661
-8.50476
-8.43699
-8.36311
-8.28291
-8.19625
-8.103
-8.00298
-7.89593
-7.78161
-7.65985
-7.5306
-7.39384
-7.24952
-7.09753
-6.93777
-6.77018
-6.5947
-6.41132
-6.22002
-6.02081
-5.81373
-5.59885
-5.37625
-5.14605
-4.90839
-4.66345
-4.41142
-4.15251
-3.887
-3.61515
-3.33729
-3.05374
-2.7649
-2.47115
-2.17291
-1.87061
-1.56472
-1.25575
-0.944186
-0.630567
-0.315478
0.000535395
0.316925
0.633169
0.948698
1.26297
1.57541
1.88549
2.19267
2.49644
2.79632
3.09183
3.38254
3.66807
3.94806
4.22219
4.49015
4.75171
5.00662
5.25472
5.49589
5.73003
5.95711
6.17712
6.39009
6.59609
6.79523
6.98764
7.17346
7.3529
7.52614
7.69341
7.85497
8.01106
8.16194
8.30791
8.44923
8.58625
8.71932
8.8488
8.97505
9.09848
9.21943
9.33831
9.45551
9.57142
9.68644
9.80104
9.91573
10.0312
10.148
10.2684
10.3914
10.5322
10.6556
-7.83239
-7.83508
-7.83917
-7.84233
-7.84429
-7.84567
-7.84688
-7.8482
-7.84979
-7.85178
-7.85422
-7.85718
-7.86065
-7.86467
-7.86922
-7.87433
-7.87997
-7.88618
-7.89297
-7.9004
-7.90859
-7.91767
-7.92779
-7.93906
-7.95144
-7.96478
-7.97889
-7.99385
-8.00976
-8.0267
-8.04479
-8.06407
-8.08435
-8.10523
-8.12645
-8.14823
-8.17085
-8.19447
-8.21892
-8.24395
-8.26949
-8.29547
-8.32181
-8.34847
-8.37536
-8.40245
-8.42968
-8.457
-8.48433
-8.51164
-8.53884
-8.56587
-8.59264
-8.61909
-8.64512
-8.67064
-8.69555
-8.71975
-8.74313
-8.76557
-8.78696
-8.80715
-8.82602
-8.84342
-8.85921
-8.87323
-8.88532
-8.89532
-8.90306
-8.90835
-8.91101
-8.91087
-8.90772
-8.90137
-8.89164
-8.8783
-8.86117
-8.84003
-8.81468
-8.7849
-8.75049
-8.71123
-8.66693
-8.61737
-8.56235
-8.50168
-8.43514
-8.36253
-8.28366
-8.19837
-8.10652
-8.00793
-7.90239
-7.78967
-7.66963
-7.54218
-7.40726
-7.26479
-7.11469
-6.95687
-6.79125
-6.61778
-6.43643
-6.24719
-6.05007
-5.84509
-5.63232
-5.41185
-5.18377
-4.94824
-4.7054
-4.45546
-4.19863
-3.93516
-3.66531
-3.3894
-3.10776
-2.82076
-2.52878
-2.23222
-1.93153
-1.62716
-1.31962
-1.00941
-0.697036
-0.383051
-0.0680091
0.247534
0.563044
0.877965
1.19176
1.50386
1.81374
2.12085
2.42471
2.7248
3.02066
3.31186
3.59801
3.87874
4.15373
4.42267
4.68529
4.94136
5.19072
5.43321
5.66877
5.89731
6.11884
6.33338
6.54098
6.74174
6.93578
7.12322
7.30427
7.4791
7.64794
7.81102
7.96858
8.12089
8.26828
8.41099
8.54933
8.68362
8.8142
8.94144
9.06572
9.18741
9.30688
9.42453
9.54075
9.65595
9.77062
9.88525
10.0006
10.1172
10.2371
10.3587
10.4974
10.6068
-7.82304
-7.82692
-7.83311
-7.83799
-7.84119
-7.84348
-7.84538
-7.84718
-7.84909
-7.85126
-7.85382
-7.85682
-7.8603
-7.86431
-7.86885
-7.87394
-7.87959
-7.88581
-7.89264
-7.90015
-7.90841
-7.91754
-7.92768
-7.93891
-7.95125
-7.96464
-7.97896
-7.99418
-8.01027
-8.02728
-8.04524
-8.06419
-8.08407
-8.10475
-8.12613
-8.14817
-8.1709
-8.19428
-8.21825
-8.24275
-8.26773
-8.29315
-8.31895
-8.34509
-8.3715
-8.39814
-8.42494
-8.45185
-8.47881
-8.50576
-8.53262
-8.55935
-8.58585
-8.61205
-8.63785
-8.66318
-8.68793
-8.71201
-8.73529
-8.75767
-8.77902
-8.79922
-8.81813
-8.8356
-8.8515
-8.86566
-8.87793
-8.88814
-8.89612
-8.9017
-8.90469
-8.90491
-8.90216
-8.89625
-8.88699
-8.87417
-8.8576
-8.83705
-8.81234
-8.78323
-8.74954
-8.71105
-8.66754
-8.61883
-8.56469
-8.50493
-8.43935
-8.36773
-8.28989
-8.20566
-8.11489
-8.0174
-7.913
-7.8015
-7.68275
-7.55665
-7.4231
-7.28201
-7.1333
-6.97688
-6.81267
-6.64064
-6.46073
-6.27294
-6.07726
-5.87374
-5.66243
-5.4434
-5.21677
-4.98266
-4.74124
-4.49268
-4.23721
-3.97505
-3.70649
-3.43182
-3.15138
-2.86551
-2.5746
-2.27905
-1.9793
-1.6758
-1.36908
-1.05961
-0.74791
-0.434498
-0.119941
0.195229
0.510432
0.825147
1.13881
1.45088
1.76081
2.06808
2.37217
2.67259
2.96886
3.26057
3.5473
3.8287
4.10441
4.37414
4.63759
4.89456
5.14486
5.38835
5.62492
5.85452
6.07713
6.29278
6.50149
6.70338
6.89853
7.0871
7.26924
7.44515
7.61503
7.77911
7.93762
8.09085
8.23907
8.38259
8.52168
8.65667
8.78787
8.91566
9.04037
9.1624
9.2821
9.39987
9.5161
9.63123
9.7457
9.86004
9.97488
10.0908
10.2096
10.3287
10.4636
10.5601
-7.81486
-7.81984
-7.82786
-7.83433
-7.83877
-7.84208
-7.8448
-7.84726
-7.84968
-7.85227
-7.85515
-7.85842
-7.86214
-7.86636
-7.87111
-7.87641
-7.88229
-7.88879
-7.89592
-7.90375
-7.91235
-7.92179
-7.93217
-7.94357
-7.95601
-7.96948
-7.98394
-7.99935
-8.01566
-8.03285
-8.05089
-8.06977
-8.08944
-8.10986
-8.13098
-8.15279
-8.17523
-8.19828
-8.22187
-8.24598
-8.27054
-8.29554
-8.32092
-8.34664
-8.37266
-8.39892
-8.42536
-8.45195
-8.4786
-8.50528
-8.5319
-8.5584
-8.5847
-8.61073
-8.63639
-8.66161
-8.68627
-8.71029
-8.73355
-8.75593
-8.77731
-8.79756
-8.81655
-8.83414
-8.85018
-8.86451
-8.87697
-8.88741
-8.89564
-8.9015
-8.90479
-8.90534
-8.90295
-8.89743
-8.88859
-8.87621
-8.86011
-8.84006
-8.81587
-8.78732
-8.7542
-8.71632
-8.67345
-8.6254
-8.57195
-8.51291
-8.44808
-8.37724
-8.3002
-8.2168
-8.12688
-8.03025
-7.92673
-7.81615
-7.69837
-7.57327
-7.44074
-7.30067
-7.15298
-6.99758
-6.83441
-6.6634
-6.48452
-6.29775
-6.10309
-5.90059
-5.69028
-5.47225
-5.24659
-5.01344
-4.77294
-4.52529
-4.27068
-4.00936
-3.7416
-3.46768
-3.18794
-2.90272
-2.6124
-2.31739
-2.01812
-1.71506
-1.4087
-1.09955
-0.78812
-0.474918
-0.160484
0.154628
0.469846
0.784633
1.09843
1.4107
1.72089
2.02847
2.33292
2.63376
2.93051
3.22274
3.51004
3.79205
4.0684
4.3388
4.60295
4.86063
5.11164
5.35586
5.59318
5.82354
6.0469
6.2633
6.47276
6.67537
6.87123
7.06048
7.24327
7.41981
7.59026
7.75486
7.91385
8.0675
8.21609
8.35995
8.49933
8.63457
8.76598
8.8939
9.01869
9.14071
9.26032
9.37793
9.49391
9.60871
9.72276
9.83654
9.95065
10.0655
10.1827
10.2991
10.4301
10.5151
-7.80913
-7.81503
-7.82445
-7.83222
-7.83777
-7.84203
-7.84559
-7.84875
-7.85178
-7.85488
-7.85821
-7.86188
-7.86597
-7.87054
-7.87564
-7.88129
-7.88754
-7.89442
-7.90197
-7.91023
-7.91925
-7.9291
-7.93983
-7.95148
-7.9641
-7.97767
-7.9922
-8.00765
-8.02398
-8.04118
-8.05919
-8.078
-8.09754
-8.1178
-8.13873
-8.1603
-8.18248
-8.20524
-8.22853
-8.25232
-8.27656
-8.30124
-8.3263
-8.35172
-8.37743
-8.40342
-8.4296
-8.45595
-8.4824
-8.50888
-8.53534
-8.5617
-8.58789
-8.61384
-8.63944
-8.66463
-8.68928
-8.71332
-8.73661
-8.75906
-8.78053
-8.80089
-8.82001
-8.83776
-8.85397
-8.86849
-8.88117
-8.89184
-8.90033
-8.90645
-8.91003
-8.91089
-8.90883
-8.90365
-8.89516
-8.88316
-8.86745
-8.84781
-8.82404
-8.79594
-8.76329
-8.72588
-8.68351
-8.63597
-8.58305
-8.52456
-8.46029
-8.39003
-8.3136
-8.23082
-8.14153
-8.04555
-7.94269
-7.83279
-7.71572
-7.59134
-7.45954
-7.3202
-7.17325
-7.01858
-6.85613
-6.68584
-6.50767
-6.3216
-6.12765
-5.92582
-5.71618
-5.4988
-5.27378
-5.04124
-4.80133
-4.55423
-4.30014
-4.03931
-3.77198
-3.49847
-3.21909
-2.93419
-2.64413
-2.34934
-2.05024
-1.74731
-1.44102
-1.13189
-0.820445
-0.507201
-0.192655
0.122608
0.438044
0.75308
1.06719
1.37979
1.69037
1.99835
2.30325
2.60456
2.90181
3.19458
3.48245
3.76503
4.04196
4.31292
4.57766
4.83592
5.08752
5.33232
5.57021
5.80111
6.02502
6.24192
6.45188
6.65494
6.85123
7.04087
7.22403
7.40086
7.57159
7.7364
7.89557
8.04934
8.19802
8.3419
8.48128
8.61645
8.74776
8.87552
9.0001
9.12184
9.24112
9.35832
9.47383
9.58806
9.70144
9.81441
9.92754
10.0411
10.1564
10.2699
10.3972
10.4722
-7.80659
-7.81313
-7.82348
-7.83219
-7.83862
-7.84371
-7.84801
-7.85184
-7.85547
-7.85912
-7.86293
-7.86705
-7.87156
-7.87654
-7.88203
-7.88809
-7.89475
-7.90204
-7.91001
-7.91869
-7.92813
-7.93836
-7.94942
-7.96135
-7.97416
-7.98787
-8.00245
-8.01791
-8.03421
-8.05134
-8.06926
-8.08794
-8.10734
-8.12743
-8.14818
-8.16956
-8.19154
-8.21408
-8.23714
-8.2607
-8.28472
-8.30918
-8.33403
-8.35924
-8.38476
-8.41057
-8.4366
-8.46281
-8.48914
-8.51553
-8.54192
-8.56823
-8.5944
-8.62034
-8.64597
-8.6712
-8.69592
-8.72004
-8.74344
-8.766
-8.78761
-8.80813
-8.82742
-8.84535
-8.86175
-8.87649
-8.88939
-8.9003
-8.90903
-8.91541
-8.91925
-8.92038
-8.9186
-8.91371
-8.90553
-8.89383
-8.87843
-8.85912
-8.83569
-8.80792
-8.77562
-8.73857
-8.69657
-8.64941
-8.59688
-8.53878
-8.47492
-8.40508
-8.32908
-8.24674
-8.1579
-8.06237
-7.95998
-7.85056
-7.73398
-7.61009
-7.47879
-7.33995
-7.19349
-7.0393
-6.87733
-6.70751
-6.5298
-6.34418
-6.15065
-5.94925
-5.74001
-5.52302
-5.29836
-5.06616
-4.82656
-4.57974
-4.32591
-4.06529
-3.79815
-3.52477
-3.24549
-2.96064
-2.6706
-2.37578
-2.07662
-1.77359
-1.46715
-1.15784
-0.846189
-0.532707
-0.217901
0.097667
0.413438
0.728851
1.04336
1.35639
1.66741
1.97585
2.28123
2.58303
2.88078
3.17406
3.46245
3.74555
4.02301
4.29448
4.55971
4.81845
5.07051
5.31574
5.55405
5.78534
6.0096
6.22683
6.43709
6.64041
6.83693
7.02676
7.21007
7.38702
7.55782
7.72267
7.88183
8.03554
8.18413
8.32785
8.46704
8.60197
8.73299
8.86042
8.98461
9.1059
9.22468
9.3413
9.45617
9.56966
9.6822
9.79419
9.90611
10.0181
10.1313
10.2419
10.3657
10.4321
-7.80747
-7.81436
-7.82516
-7.83444
-7.8415
-7.84722
-7.85213
-7.85654
-7.8607
-7.86484
-7.86911
-7.87366
-7.87857
-7.88394
-7.88981
-7.89624
-7.90327
-7.91094
-7.91927
-7.92832
-7.93809
-7.94864
-7.95998
-7.97214
-7.98512
-7.99894
-8.01359
-8.02906
-8.04533
-8.06239
-8.08021
-8.09877
-8.11803
-8.13798
-8.15858
-8.1798
-8.20162
-8.224
-8.24691
-8.27032
-8.29421
-8.31853
-8.34326
-8.36836
-8.39379
-8.41951
-8.44548
-8.47165
-8.49795
-8.52434
-8.55074
-8.5771
-8.60332
-8.62934
-8.65506
-8.68039
-8.70524
-8.72949
-8.75304
-8.77577
-8.79755
-8.81826
-8.83774
-8.85587
-8.87248
-8.88743
-8.90055
-8.91167
-8.92063
-8.92723
-8.93131
-8.93266
-8.93111
-8.92646
-8.9185
-8.90704
-8.89188
-8.8728
-8.8496
-8.82208
-8.79002
-8.75322
-8.71146
-8.66455
-8.61228
-8.55444
-8.49084
-8.42128
-8.34555
-8.2635
-8.17495
-8.07971
-7.97761
-7.8685
-7.75222
-7.62865
-7.49765
-7.35912
-7.21295
-7.05906
-6.89737
-6.72782
-6.55036
-6.36498
-6.17168
-5.9705
-5.76146
-5.54464
-5.32013
-5.08806
-4.84856
-4.60182
-4.34802
-4.08741
-3.82024
-3.5468
-3.26742
-2.98242
-2.69221
-2.39718
-2.09779
-1.79448
-1.48775
-1.1781
-0.866101
-0.552245
-0.237072
0.0788997
0.395079
0.710944
1.02591
1.33941
1.65088
1.9598
2.26565
2.56794
2.86618
3.15996
3.44882
3.73239
4.01027
4.28215
4.54775
4.80684
5.05921
5.30472
5.54326
5.77477
5.9992
6.21659
6.42694
6.63035
6.82691
7.01676
7.20003
7.37692
7.54761
7.71234
7.87133
8.02485
8.17318
8.31663
8.45549
8.59007
8.72067
8.84765
8.97134
9.09209
9.21026
9.32622
9.44034
9.55301
9.66459
9.77549
9.88608
9.99643
10.1075
10.2152
10.3357
10.3949
-7.81164
-7.8186
-7.82944
-7.83893
-7.84634
-7.85248
-7.85782
-7.86267
-7.86726
-7.87179
-7.87645
-7.88135
-7.88661
-7.89229
-7.89848
-7.90521
-7.91254
-7.9205
-7.92912
-7.93843
-7.94846
-7.95924
-7.97077
-7.98309
-7.9962
-8.0101
-8.02479
-8.04027
-8.05651
-8.07352
-8.09127
-8.10973
-8.1289
-8.14874
-8.16922
-8.19034
-8.21206
-8.23435
-8.25718
-8.28052
-8.30434
-8.32862
-8.35331
-8.37839
-8.40381
-8.42955
-8.45554
-8.48175
-8.50811
-8.53457
-8.56107
-8.58752
-8.61387
-8.64002
-8.66588
-8.69138
-8.71639
-8.74082
-8.76455
-8.78747
-8.80944
-8.83034
-8.85002
-8.86834
-8.88515
-8.90029
-8.91359
-8.9249
-8.93403
-8.94082
-8.94506
-8.94658
-8.94519
-8.94069
-8.93289
-8.92158
-8.90655
-8.88761
-8.86455
-8.83716
-8.80523
-8.76856
-8.72694
-8.68015
-8.62801
-8.57031
-8.50684
-8.43742
-8.36184
-8.27993
-8.19152
-8.09644
-7.99449
-7.88553
-7.76942
-7.646
-7.51516
-7.37679
-7.23077
-7.07701
-6.91544
-6.746
-6.56864
-6.38336
-6.19013
-5.989
-5.78
-5.5632
-5.33869
-5.10659
-4.86704
-4.6202
-4.36629
-4.10553
-3.83819
-3.56453
-3.2849
-2.99962
-2.7091
-2.41374
-2.11399
-1.81029
-1.50314
-1.19307
-0.880618
-0.566313
-0.250688
0.0657216
0.38236
0.6987
1.01416
1.32816
1.64011
1.94951
2.25583
2.55859
2.85729
3.1515
3.44076
3.72469
4.0029
4.27507
4.54091
4.80019
5.05271
5.29835
5.53696
5.76851
5.99295
6.2103
6.42059
6.6239
6.82033
7.01001
7.19309
7.36976
7.5402
7.70465
7.86332
8.01651
8.16448
8.30753
8.44595
8.58007
8.71018
8.83663
8.95974
9.07987
9.19737
9.31261
9.42593
9.53771
9.6483
9.75802
9.86724
9.97587
10.0848
10.1896
10.3071
10.3602
-7.81873
-7.82553
-7.83605
-7.84542
-7.85292
-7.85925
-7.86484
-7.86996
-7.87483
-7.87964
-7.88457
-7.88973
-7.89523
-7.90115
-7.90756
-7.9145
-7.92203
-7.93018
-7.93898
-7.94847
-7.95865
-7.96957
-7.98122
-7.99363
-8.00681
-8.02075
-8.03546
-8.05093
-8.06715
-8.08413
-8.10182
-8.12023
-8.13934
-8.15912
-8.17955
-8.20062
-8.2223
-8.24457
-8.26738
-8.29073
-8.31456
-8.33886
-8.36359
-8.38873
-8.41423
-8.44005
-8.46614
-8.49246
-8.51895
-8.54554
-8.57218
-8.5988
-8.62531
-8.65163
-8.67768
-8.70335
-8.72855
-8.75317
-8.77708
-8.80018
-8.82233
-8.8434
-8.86325
-8.88173
-8.89868
-8.91396
-8.9274
-8.93883
-8.94807
-8.95495
-8.95929
-8.96089
-8.95957
-8.95513
-8.94738
-8.93611
-8.92112
-8.90221
-8.87917
-8.8518
-8.81989
-8.78323
-8.74162
-8.69485
-8.64272
-8.58503
-8.52158
-8.45217
-8.37661
-8.29473
-8.20636
-8.1113
-8.0094
-7.90048
-7.7844
-7.66102
-7.53023
-7.39188
-7.24589
-7.09215
-6.93059
-6.76114
-6.58378
-6.39846
-6.20521
-6.00402
-5.79495
-5.57805
-5.35343
-5.12119
-4.88147
-4.63445
-4.38032
-4.11931
-3.85168
-3.57772
-3.29774
-3.0121
-2.72118
-2.42542
-2.12523
-1.82109
-1.51347
-1.20293
-0.889979
-0.57518
-0.259044
0.0578441
0.374976
0.691796
1.00776
1.32224
1.63467
1.94451
2.25127
2.55442
2.85351
3.14805
3.43762
3.72179
4.0002
4.27251
4.53845
4.79777
5.0503
5.29588
5.53441
5.76582
5.9901
6.20723
6.41729
6.62032
6.81646
7.0058
7.18854
7.36481
7.53486
7.69887
7.85711
8.00983
8.15732
8.29985
8.43775
8.57131
8.70085
8.82669
8.94918
9.06864
9.18543
9.2999
9.41239
9.52325
9.63281
9.74135
9.84917
9.95609
10.0629
10.1651
10.2796
10.3277
-7.82821
-7.83465
-7.84456
-7.85354
-7.86089
-7.86719
-7.87284
-7.87806
-7.88305
-7.88801
-7.89307
-7.89837
-7.904
-7.91003
-7.91655
-7.92359
-7.93121
-7.93945
-7.94833
-7.95789
-7.96814
-7.97911
-7.99081
-8.00326
-8.01646
-8.03042
-8.04513
-8.0606
-8.07681
-8.09376
-8.11144
-8.12984
-8.14893
-8.1687
-8.18914
-8.21022
-8.23191
-8.2542
-8.27705
-8.30045
-8.32436
-8.34876
-8.3736
-8.39886
-8.42449
-8.45045
-8.4767
-8.50317
-8.52983
-8.55659
-8.58341
-8.6102
-8.63689
-8.66339
-8.68961
-8.71546
-8.74082
-8.7656
-8.78966
-8.8129
-8.83517
-8.85635
-8.8763
-8.89486
-8.91189
-8.92723
-8.9407
-8.95215
-8.96141
-8.96828
-8.9726
-8.97417
-8.9728
-8.96831
-8.96048
-8.94914
-8.93407
-8.91507
-8.89194
-8.86447
-8.83245
-8.79569
-8.75398
-8.70711
-8.65488
-8.5971
-8.53356
-8.46407
-8.38843
-8.30647
-8.21804
-8.12292
-8.02096
-7.91199
-7.79586
-7.67243
-7.54159
-7.40319
-7.25714
-7.10334
-6.94171
-6.77219
-6.59473
-6.40932
-6.21595
-6.01464
-5.80543
-5.58838
-5.36358
-5.13114
-4.8912
-4.64394
-4.38954
-4.12825
-3.8603
-3.58599
-3.30564
-3.01961
-2.72827
-2.43206
-2.1314
-1.82677
-1.51867
-1.20762
-0.89415
-0.57882
-0.262179
0.0551978
0.372792
0.690075
1.0065
1.32141
1.63425
1.94447
2.25157
2.55505
2.85441
3.14918
3.43892
3.7232
4.00167
4.27398
4.53987
4.79908
5.05145
5.29682
5.5351
5.76621
5.99016
6.20693
6.41659
6.61919
6.81487
7.00374
7.18597
7.36173
7.53123
7.69469
7.85237
8.00451
8.15141
8.29335
8.43064
8.56357
8.69246
8.81765
8.93945
9.05821
9.17426
9.28794
9.39959
9.50952
9.61804
9.72539
9.8318
9.93704
10.0419
10.1415
10.2532
10.2973
-7.8395
-7.84544
-7.85451
-7.86289
-7.86987
-7.87595
-7.88146
-7.8866
-7.89156
-7.89649
-7.90154
-7.90683
-7.91245
-7.91848
-7.92498
-7.93201
-7.93962
-7.94784
-7.95671
-7.96626
-7.97651
-7.98748
-7.99918
-8.01163
-8.02482
-8.03877
-8.05348
-8.06895
-8.08516
-8.10211
-8.1198
-8.13821
-8.15732
-8.17712
-8.19758
-8.2187
-8.24044
-8.2628
-8.28574
-8.30925
-8.33328
-8.35782
-8.38282
-8.40824
-8.43404
-8.46017
-8.48658
-8.51322
-8.54004
-8.56697
-8.59394
-8.62089
-8.64772
-8.67436
-8.70071
-8.72666
-8.75212
-8.77698
-8.8011
-8.82438
-8.84668
-8.86787
-8.8878
-8.90633
-8.9233
-8.93857
-8.95195
-8.9633
-8.97242
-8.97916
-8.98332
-8.98472
-8.98318
-8.97849
-8.97048
-8.95893
-8.94365
-8.92444
-8.90109
-8.87341
-8.84118
-8.80421
-8.76229
-8.71522
-8.6628
-8.60483
-8.54111
-8.47145
-8.39566
-8.31356
-8.22498
-8.12974
-8.02766
-7.91857
-7.80233
-7.67881
-7.54786
-7.40937
-7.26322
-7.10933
-6.9476
-6.77799
-6.60043
-6.41491
-6.22142
-6.01998
-5.81062
-5.59341
-5.36842
-5.13578
-4.89562
-4.64811
-4.39344
-4.13185
-3.86358
-3.58892
-3.3082
-3.02176
-2.73001
-2.43334
-2.13223
-1.82711
-1.51853
-1.20698
-0.893013
-0.577171
-0.260073
0.0577506
0.37574
0.69342
1.01021
1.32548
1.63862
1.94912
2.25646
2.56013
2.85964
3.1545
3.44426
3.72851
4.00687
4.27902
4.54468
4.80362
5.05565
5.30064
5.53848
5.76914
5.99257
6.20882
6.4179
6.61994
6.815
7.00325
7.18483
7.35995
7.52879
7.69159
7.84859
8.00006
8.14628
8.28755
8.42415
8.5564
8.6846
8.8091
8.93019
9.04823
9.16353
9.27643
9.38723
9.49625
9.60375
9.70994
9.81499
9.91861
10.0215
10.1188
10.2278
10.2689
-7.85203
-7.85737
-7.86548
-7.87307
-7.87952
-7.88519
-7.89037
-7.89524
-7.89996
-7.9047
-7.90958
-7.9147
-7.92017
-7.92606
-7.93244
-7.93936
-7.94687
-7.955
-7.96379
-7.97327
-7.98346
-7.99437
-8.00603
-8.01843
-8.0316
-8.04553
-8.06022
-8.07568
-8.09188
-8.10884
-8.12654
-8.14496
-8.1641
-8.18393
-8.20445
-8.22563
-8.24746
-8.26993
-8.29299
-8.31663
-8.34082
-8.36551
-8.39065
-8.41623
-8.44217
-8.46843
-8.49497
-8.52173
-8.54865
-8.57568
-8.60273
-8.62974
-8.65663
-8.68329
-8.70965
-8.73559
-8.76101
-8.7858
-8.80984
-8.83301
-8.85518
-8.87621
-8.89596
-8.9143
-8.93105
-8.94608
-8.95921
-8.97028
-8.97912
-8.98556
-8.98942
-8.99051
-8.98864
-8.98363
-8.97529
-8.96341
-8.94781
-8.92828
-8.90461
-8.87662
-8.8441
-8.80684
-8.76464
-8.71731
-8.66463
-8.60642
-8.54248
-8.47261
-8.39662
-8.31436
-8.22562
-8.13023
-8.02801
-7.9188
-7.80246
-7.67883
-7.54779
-7.40921
-7.26298
-7.109
-6.9472
-6.7775
-6.59986
-6.41426
-6.22068
-6.01913
-5.80965
-5.5923
-5.36717
-5.13435
-4.89399
-4.64627
-4.39136
-4.1295
-3.86094
-3.58596
-3.3049
-3.0181
-2.72597
-2.4289
-2.12736
-1.82183
-1.51281
-1.20081
-0.886388
-0.570129
-0.252634
0.0655373
0.383841
0.701797
1.01884
1.33433
1.64765
1.9583
2.26573
2.56945
2.86894
3.16373
3.45334
3.73738
4.01546
4.28726
4.55252
4.811
5.06251
5.30694
5.54418
5.7742
5.99696
6.21251
6.42089
6.62219
6.81651
7.00401
7.18483
7.35918
7.52725
7.68928
7.84552
7.99625
8.14172
8.28225
8.41813
8.54966
8.67715
8.80093
8.92132
9.03863
9.15319
9.26532
9.37531
9.48345
9.58997
9.69504
9.79878
9.90085
10.0019
10.0971
10.2036
10.2423
-7.86529
-7.86999
-7.87707
-7.88377
-7.8895
-7.89457
-7.89923
-7.90363
-7.90793
-7.91228
-7.91681
-7.92162
-7.9268
-7.93244
-7.93858
-7.94529
-7.95261
-7.96058
-7.96923
-7.97858
-7.98864
-7.99946
-8.01102
-8.02335
-8.03645
-8.05032
-8.06497
-8.08039
-8.09657
-8.11352
-8.13122
-8.14965
-8.16882
-8.1887
-8.20928
-8.23054
-8.25246
-8.27503
-8.29819
-8.32192
-8.34619
-8.37096
-8.39618
-8.4218
-8.44778
-8.47406
-8.5006
-8.52734
-8.55422
-8.58119
-8.60817
-8.63508
-8.66183
-8.68834
-8.71451
-8.74025
-8.76543
-8.78996
-8.81372
-8.83658
-8.85841
-8.87909
-8.89847
-8.91641
-8.93277
-8.94738
-8.96009
-8.97073
-8.97913
-8.98513
-8.98854
-8.98919
-8.98688
-8.98144
-8.97267
-8.96037
-8.94436
-8.92443
-8.90039
-8.87203
-8.83915
-8.80156
-8.75905
-8.71142
-8.65847
-8.6
-8.53584
-8.46576
-8.38961
-8.30718
-8.2183
-8.12278
-8.02046
-7.91115
-7.79474
-7.67104
-7.53996
-7.40133
-7.25508
-7.10107
-6.93925
-6.76953
-6.59188
-6.40624
-6.21263
-6.01104
-5.80152
-5.5841
-5.35889
-5.12597
-4.8855
-4.63763
-4.38256
-4.12051
-3.85174
-3.57653
-3.29521
-3.00815
-2.71572
-2.41835
-2.1165
-1.81065
-1.50127
-1.18893
-0.874174
-0.557628
-0.239852
0.0785322
0.39702
0.715087
1.03222
1.34776
1.6611
1.97171
2.27907
2.58264
2.88194
3.17644
3.46571
3.74933
4.02694
4.2982
4.56286
4.82067
5.0715
5.31517
5.55164
5.78083
6.00278
6.21747
6.42499
6.62541
6.81887
7.00548
7.18545
7.35892
7.52615
7.68733
7.84276
7.99266
8.13736
8.27712
8.41225
8.54304
8.66982
8.7929
8.9126
9.02922
9.14308
9.25448
9.36372
9.47103
9.57663
9.68066
9.78317
9.88381
9.98316
10.0764
10.1805
10.2175
-7.87945
-7.8835
-7.88954
-7.89526
-7.90012
-7.90437
-7.90825
-7.91193
-7.91556
-7.9193
-7.92327
-7.92757
-7.93229
-7.93752
-7.94329
-7.94967
-7.95669
-7.96439
-7.97279
-7.98192
-7.99179
-8.00242
-8.01382
-8.026
-8.03896
-8.05272
-8.06725
-8.08258
-8.09868
-8.11555
-8.13318
-8.15158
-8.1707
-8.19056
-8.21113
-8.23238
-8.25427
-8.27679
-8.2999
-8.32356
-8.34774
-8.3724
-8.39748
-8.42295
-8.44875
-8.47484
-8.50115
-8.52765
-8.55426
-8.58094
-8.60759
-8.63415
-8.66052
-8.68663
-8.71236
-8.73763
-8.76233
-8.78635
-8.80958
-8.8319
-8.85317
-8.87329
-8.89209
-8.90946
-8.92523
-8.93926
-8.95138
-8.96144
-8.96927
-8.97471
-8.97757
-8.97768
-8.97484
-8.96889
-8.95963
-8.94686
-8.93041
-8.91004
-8.88561
-8.85686
-8.82364
-8.78571
-8.74291
-8.69501
-8.64183
-8.58317
-8.51882
-8.44861
-8.37232
-8.28979
-8.20083
-8.10525
-8.00289
-7.89358
-7.77716
-7.6535
-7.52244
-7.38388
-7.23768
-7.08376
-6.92201
-6.75238
-6.57482
-6.38927
-6.19574
-5.99423
-5.78477
-5.56742
-5.34225
-5.10936
-4.86889
-4.62102
-4.36593
-4.10383
-3.835
-3.5597
-3.27828
-2.9911
-2.69854
-2.40104
-2.09902
-1.79298
-1.48343
-1.17093
-0.856047
-0.539376
-0.221514
0.0969207
0.415386
0.733366
1.05035
1.36572
1.67886
1.98922
2.29628
2.59949