/*--------------------------------*- C++ -*----------------------------------*\
  =========                 |
  \\      /  F ield         | OpenFOAM: The Open Source CFD Toolbox
   \\    /   O peration     | Website:  https://openfoam.org
    \\  /    A nd           | Version:  8
     \\/     M anipulation  |
\*---------------------------------------------------------------------------*/
FoamFile
{
    version     2.0;
    format      ascii;
    class       surfaceScalarField;
    location    "210";
    object      phi;
}
// * * * * * * * * * * * * * * * * * * * * * * * * * * * * * * * * * * * * * //

dimensions      [0 3 -1 0 0 0 0];

internalField   nonuniform List<scalar> 
24170
(
3.12901e-06
5.94007e-08
3.04662e-06
8.23792e-08
2.97353e-06
7.30925e-08
2.9049e-06
6.86333e-08
2.84056e-06
6.43291e-08
2.78324e-06
5.73242e-08
2.73391e-06
4.93234e-08
2.69196e-06
4.19514e-08
2.65629e-06
3.56729e-08
2.62584e-06
3.04454e-08
2.59964e-06
2.61968e-08
2.57685e-06
2.27893e-08
2.5568e-06
2.00457e-08
2.53891e-06
1.78913e-08
2.52281e-06
1.6095e-08
2.50734e-06
1.54671e-08
2.49319e-06
1.41533e-08
1.95946e-08
2.47359e-06
3.45306e-06
2.35855e-08
3.45701e-06
7.84371e-08
3.45054e-06
7.95526e-08
3.43909e-06
8.00892e-08
3.42431e-06
7.91065e-08
3.40706e-06
7.45734e-08
3.38784e-06
6.8542e-08
3.36731e-06
6.24773e-08
3.34616e-06
5.68199e-08
3.32497e-06
5.16278e-08
3.30424e-06
4.69291e-08
3.28423e-06
4.27979e-08
3.26514e-06
3.9136e-08
3.24701e-06
3.602e-08
3.22991e-06
3.31866e-08
3.21385e-06
3.15324e-08
3.19913e-06
2.88689e-08
3.0924e-08
3.1878e-06
3.66816e-06
1.79424e-08
3.6792e-06
6.73956e-08
3.68543e-06
7.33249e-08
3.68946e-06
7.60547e-08
3.69106e-06
7.75085e-08
3.69009e-06
7.55392e-08
3.68695e-06
7.16786e-08
3.68211e-06
6.73182e-08
3.67596e-06
6.29717e-08
3.66882e-06
5.87668e-08
3.66097e-06
5.47775e-08
3.65266e-06
5.11072e-08
3.64407e-06
4.7724e-08
3.63536e-06
4.47222e-08
3.6266e-06
4.19522e-08
3.6182e-06
3.99301e-08
3.6095e-06
3.75684e-08
3.7181e-08
3.60324e-06
3.92585e-06
1.74819e-08
3.93592e-06
5.73248e-08
3.94257e-06
6.66733e-08
3.94811e-06
7.05137e-08
3.95252e-06
7.30937e-08
3.95547e-06
7.25909e-08
3.95714e-06
7.00087e-08
3.95777e-06
6.66845e-08
3.95756e-06
6.31854e-08
3.95664e-06
5.96805e-08
3.95516e-06
5.62582e-08
3.95323e-06
5.30317e-08
3.95095e-06
5.00022e-08
3.94842e-06
4.72509e-08
3.94567e-06
4.47016e-08
3.94299e-06
4.26063e-08
3.94007e-06
4.04969e-08
3.90796e-08
3.93817e-06
4.2082e-06
1.64096e-08
4.21598e-06
4.95396e-08
4.22168e-06
6.09754e-08
4.22678e-06
6.54085e-08
4.23153e-06
6.83454e-08
4.2355e-06
6.86196e-08
4.23867e-06
6.68411e-08
4.24114e-06
6.42085e-08
4.24303e-06
6.12951e-08
4.24443e-06
5.82879e-08
4.2454e-06
5.52839e-08
4.24604e-06
5.23931e-08
4.2464e-06
4.96425e-08
4.24655e-06
4.70938e-08
4.24654e-06
4.47142e-08
4.24653e-06
4.26138e-08
4.24644e-06
4.05834e-08
3.8767e-08
4.24675e-06
4.51071e-06
1.47869e-08
4.51688e-06
4.33661e-08
4.52213e-06
5.57265e-08
4.52695e-06
6.05916e-08
4.53166e-06
6.36328e-08
4.5359e-06
6.43709e-08
4.53958e-06
6.31677e-08
4.54274e-06
6.10479e-08
4.54546e-06
5.85735e-08
4.5478e-06
5.59436e-08
4.54982e-06
5.32651e-08
4.55157e-06
5.06404e-08
4.5531e-06
4.81134e-08
4.55446e-06
4.57292e-08
4.5557e-06
4.34776e-08
4.55691e-06
4.13963e-08
4.55811e-06
3.93814e-08
3.74028e-08
4.55948e-06
4.83433e-06
1.31769e-08
4.83963e-06
3.80682e-08
4.84475e-06
5.06019e-08
4.84945e-06
5.58881e-08
4.85409e-06
5.90001e-08
4.8584e-06
6.00539e-08
4.86227e-06
5.9296e-08
4.86574e-06
5.75838e-08
4.86885e-06
5.54596e-08
4.87166e-06
5.31338e-08
4.8742e-06
5.07214e-08
4.87652e-06
4.83178e-08
4.87866e-06
4.59762e-08
4.88066e-06
4.3731e-08
4.88255e-06
4.15822e-08
4.88441e-06
3.95342e-08
4.88627e-06
3.75268e-08
3.5494e-08
4.88818e-06
5.18105e-06
1.17106e-08
5.18575e-06
3.33617e-08
5.19075e-06
4.55997e-08
5.1954e-06
5.12368e-08
5.19999e-06
5.44145e-08
5.20435e-06
5.5695e-08
5.20834e-06
5.53006e-08
5.21199e-06
5.39342e-08
5.21534e-06
5.21081e-08
5.21843e-06
5.00434e-08
5.22129e-06
4.78601e-08
5.22396e-06
4.56495e-08
5.22646e-06
4.34683e-08
5.22885e-06
4.13465e-08
5.23114e-06
3.9288e-08
5.23339e-06
3.72855e-08
5.23562e-06
3.52991e-08
3.32727e-08
5.23784e-06
5.55269e-06
1.03554e-08
5.55689e-06
2.91654e-08
5.56169e-06
4.07931e-08
5.5663e-06
4.66288e-08
5.57086e-06
4.98507e-08
5.57527e-06
5.12908e-08
5.57937e-06
5.11968e-08
5.58317e-06
5.01351e-08
5.5867e-06
4.85751e-08
5.59e-06
4.67453e-08
5.59309e-06
4.47689e-08
5.596e-06
4.27345e-08
5.59877e-06
4.06998e-08
5.60142e-06
3.86938e-08
5.60399e-06
3.67232e-08
5.60649e-06
3.47795e-08
5.60895e-06
3.28351e-08
3.08561e-08
5.61137e-06
5.95104e-06
9.09255e-09
5.95479e-06
2.5418e-08
5.95936e-06
3.62204e-08
5.96391e-06
4.20741e-08
5.96846e-06
4.53043e-08
5.9729e-06
4.68472e-08
5.9771e-06
4.69948e-08
5.98103e-06
4.62008e-08
5.98472e-06
4.48821e-08
5.9882e-06
4.32686e-08
5.99148e-06
4.1485e-08
5.9946e-06
3.96175e-08
5.99757e-06
3.77234e-08
6.00043e-06
3.58327e-08
6.0032e-06
3.39549e-08
6.0059e-06
3.20854e-08
6.00852e-06
3.02065e-08
2.83045e-08
6.01107e-06
6.37798e-06
7.92163e-09
6.38134e-06
2.20551e-08
6.38567e-06
3.18926e-08
6.39016e-06
3.75894e-08
6.39468e-06
4.07812e-08
6.39915e-06
4.23765e-08
6.40343e-06
4.27069e-08
6.40749e-06
4.21419e-08
6.41133e-06
4.10414e-08
6.41497e-06
3.96282e-08
6.41843e-06
3.80271e-08
6.42172e-06
3.63212e-08
6.42488e-06
3.45669e-08
6.42792e-06
3.27955e-08
6.43085e-06
3.10202e-08
6.43369e-06
2.92417e-08
6.43645e-06
2.74509e-08
2.56501e-08
6.4391e-06
5.74176e-06
6.99568e-09
5.74434e-06
1.94721e-08
5.74781e-06
2.84236e-08
5.75154e-06
3.38622e-08
5.75534e-06
3.69795e-08
5.75913e-06
3.85854e-08
5.76281e-06
3.90259e-08
5.76633e-06
3.86222e-08
5.76968e-06
3.76881e-08
5.77287e-06
3.64328e-08
5.77592e-06
3.49791e-08
5.77883e-06
3.34074e-08
5.78163e-06
3.17727e-08
5.78431e-06
3.01077e-08
5.7869e-06
2.84282e-08
5.78941e-06
2.67399e-08
5.79182e-06
2.50395e-08
2.334e-08
5.79413e-06
6.99914e-06
6.01235e-09
7.00187e-06
1.67388e-08
7.00563e-06
2.46596e-08
7.0098e-06
2.96959e-08
7.01412e-06
3.26602e-08
7.01847e-06
3.42322e-08
7.02274e-06
3.47534e-08
7.02686e-06
3.44987e-08
7.03082e-06
3.37321e-08
7.03461e-06
3.26439e-08
7.03823e-06
3.13517e-08
7.04171e-06
2.99316e-08
7.04504e-06
2.8437e-08
7.04825e-06
2.6901e-08
7.05133e-06
2.53426e-08
7.0543e-06
2.37721e-08
7.05715e-06
2.21917e-08
2.06224e-08
7.05987e-06
8.53188e-06
4.97935e-09
8.53473e-06
1.38825e-08
8.53877e-06
2.06282e-08
8.54336e-06
2.50976e-08
8.54822e-06
2.78047e-08
8.55317e-06
2.92796e-08
8.55809e-06
2.98354e-08
8.56288e-06
2.97031e-08
8.56752e-06
2.90964e-08
8.57198e-06
2.81798e-08
8.57627e-06
2.7061e-08
8.58039e-06
2.58112e-08
8.58435e-06
2.44798e-08
8.58815e-06
2.31003e-08
8.59179e-06
2.16937e-08
8.59529e-06
2.02741e-08
8.59864e-06
1.88483e-08
1.74416e-08
8.60182e-06
1.04003e-05
3.90574e-09
1.04033e-05
1.09229e-08
1.04075e-05
1.63513e-08
1.04125e-05
2.00761e-08
1.0418e-05
2.23967e-08
1.04235e-05
2.36905e-08
1.04292e-05
2.4218e-08
1.04347e-05
2.41667e-08
1.04401e-05
2.37009e-08
1.04453e-05
2.29537e-08
1.04504e-05
2.20181e-08
1.04552e-05
2.09569e-08
1.04599e-05
1.98147e-08
1.04644e-05
1.8623e-08
1.04686e-05
1.74037e-08
1.04727e-05
1.61727e-08
1.04767e-05
1.49394e-08
1.37309e-08
1.04804e-05
1.26779e-05
2.79644e-09
1.2681e-05
7.85434e-09
1.26855e-05
1.18272e-08
1.26909e-05
1.46256e-08
1.26969e-05
1.64088e-08
1.27032e-05
1.74161e-08
1.27096e-05
1.78374e-08
1.27159e-05
1.78121e-08
1.27222e-05
1.74575e-08
1.27283e-05
1.68711e-08
1.27342e-05
1.61254e-08
1.27398e-05
1.52715e-08
1.27453e-05
1.43462e-08
1.27505e-05
1.33768e-08
1.27556e-05
1.23833e-08
1.27604e-05
1.13815e-08
1.27649e-05
1.03809e-08
9.40791e-09
1.27692e-05
1.54543e-05
1.64059e-09
1.54576e-05
4.63083e-09
1.54624e-05
6.99839e-09
1.54683e-05
8.68622e-09
1.5475e-05
9.76708e-09
1.5482e-05
1.03663e-08
1.54893e-05
1.05932e-08
1.54965e-05
1.0532e-08
1.55037e-05
1.02528e-08
1.55108e-05
9.81522e-09
1.55177e-05
9.26589e-09
1.55243e-05
8.63914e-09
1.55307e-05
7.96081e-09
1.55368e-05
7.25073e-09
1.55427e-05
6.52441e-09
1.55482e-05
5.7945e-09
1.55535e-05
5.06886e-09
4.37009e-09
1.55586e-05
1.88389e-05
3.98078e-10
1.88424e-05
1.12773e-09
1.88477e-05
1.69104e-09
1.88543e-05
2.06688e-09
1.88618e-05
2.2739e-09
1.88698e-05
2.3399e-09
1.88781e-05
2.2868e-09
1.88865e-05
2.13429e-09
1.88949e-05
1.90248e-09
1.89031e-05
1.60959e-09
1.89111e-05
1.27089e-09
1.89188e-05
8.98942e-10
1.89263e-05
5.04588e-10
1.89334e-05
9.70343e-11
1.89403e-05
-3.15776e-10
1.89468e-05
-7.26653e-10
1.8953e-05
-1.13139e-09
-1.51278e-09
1.89589e-05
2.29648e-05
-1.03251e-09
2.29688e-05
-2.94426e-09
2.2975e-05
-4.51441e-09
2.29828e-05
-5.70866e-09
2.29916e-05
-6.54868e-09
2.30011e-05
-7.12066e-09
2.30109e-05
-7.51209e-09
2.30208e-05
-7.7774e-09
2.30307e-05
-7.95357e-09
2.30403e-05
-8.07156e-09
2.30498e-05
-8.15547e-09
2.30589e-05
-8.21951e-09
2.30677e-05
-8.27194e-09
2.30761e-05
-8.31677e-09
2.30841e-05
-8.35636e-09
2.30918e-05
-8.3905e-09
2.30991e-05
-8.42012e-09
-8.4344e-09
2.3106e-05
1.68118e-05
-2.15576e-09
1.6815e-05
-6.11565e-09
1.68198e-05
-9.34556e-09
1.68258e-05
-1.17081e-08
1.68325e-05
-1.32633e-08
1.68397e-05
-1.42391e-08
1.6847e-05
-1.48228e-08
1.68543e-05
-1.51185e-08
1.68616e-05
-1.52049e-08
1.68686e-05
-1.51543e-08
1.68755e-05
-1.50191e-08
1.68821e-05
-1.48327e-08
1.68885e-05
-1.46154e-08
1.68945e-05
-1.43814e-08
1.69003e-05
-1.4139e-08
1.69058e-05
-1.38932e-08
1.6911e-05
-1.36469e-08
-1.33941e-08
1.6916e-05
1.46356e-05
-3.23459e-09
1.46387e-05
-9.20331e-09
1.46434e-05
-1.40611e-08
1.46492e-05
-1.74538e-08
1.46555e-05
-1.9553e-08
1.4662e-05
-2.08084e-08
1.46687e-05
-2.14903e-08
1.46753e-05
-2.17344e-08
1.46818e-05
-2.16721e-08
1.46881e-05
-2.14197e-08
1.46941e-05
-2.10529e-08
1.46999e-05
-2.06162e-08
1.47054e-05
-2.01402e-08
1.47107e-05
-1.96455e-08
1.47157e-05
-1.91459e-08
1.47204e-05
-1.86485e-08
1.47249e-05
-1.81583e-08
-1.76713e-08
1.47292e-05
1.27411e-05
-4.24482e-09
1.27443e-05
-1.23316e-08
1.27491e-05
-1.8893e-08
1.27547e-05
-2.31017e-08
1.27607e-05
-2.55361e-08
1.27669e-05
-2.69701e-08
1.27731e-05
-2.76664e-08
1.27791e-05
-2.77744e-08
1.27849e-05
-2.75011e-08
1.27905e-05
-2.70119e-08
1.27959e-05
-2.63964e-08
1.2801e-05
-2.57062e-08
1.28058e-05
-2.49783e-08
1.28104e-05
-2.42384e-08
1.28147e-05
-2.3502e-08
1.28189e-05
-2.2777e-08
1.28228e-05
-2.20687e-08
-2.1374e-08
1.28265e-05
1.10918e-05
-5.08897e-09
1.1095e-05
-1.55541e-08
1.11001e-05
-2.40197e-08
1.11057e-05
-2.87276e-08
1.11115e-05
-3.12735e-08
1.11173e-05
-3.27863e-08
1.1123e-05
-3.33974e-08
1.11285e-05
-3.3289e-08
1.11338e-05
-3.27636e-08
1.11388e-05
-3.20185e-08
1.11436e-05
-3.11456e-08
1.1148e-05
-3.02015e-08
1.11523e-05
-2.92293e-08
1.11563e-05
-2.82576e-08
1.11601e-05
-2.73016e-08
1.11637e-05
-2.63695e-08
1.11671e-05
-2.54649e-08
-2.45862e-08
1.11703e-05
9.65582e-06
-5.69635e-09
9.65925e-06
-1.89785e-08
9.66459e-06
-2.93657e-08
9.67009e-06
-3.42252e-08
9.67565e-06
-3.68327e-08
9.6812e-06
-3.83466e-08
9.68654e-06
-3.87313e-08
9.69157e-06
-3.8318e-08
9.69631e-06
-3.75096e-08
9.70079e-06
-3.65002e-08
9.70501e-06
-3.53688e-08
9.70899e-06
-3.41748e-08
9.71272e-06
-3.29658e-08
9.71623e-06
-3.17713e-08
9.71954e-06
-3.06064e-08
9.72265e-06
-2.9478e-08
9.72557e-06
-2.83884e-08
-2.7334e-08
9.72832e-06
8.40532e-06
-5.66705e-09
8.40964e-06
-2.32936e-08
8.41487e-06
-3.4601e-08
8.4199e-06
-3.92532e-08
8.42526e-06
-4.2199e-08
8.43067e-06
-4.37549e-08
8.43576e-06
-4.38172e-08
8.44046e-06
-4.30243e-08
8.44483e-06
-4.1879e-08
8.44889e-06
-4.05574e-08
8.45265e-06
-3.91292e-08
8.45613e-06
-3.76567e-08
8.45935e-06
-3.61896e-08
8.46233e-06
-3.47556e-08
8.4651e-06
-3.33696e-08
8.46766e-06
-3.2038e-08
8.47003e-06
-3.07626e-08
-2.954e-08
8.47223e-06
7.31455e-06
-2.92929e-09
7.32119e-06
-2.99369e-08
7.32674e-06
-4.01521e-08
7.33169e-06
-4.42047e-08
7.33709e-06
-4.75966e-08
7.34241e-06
-4.90756e-08
7.34728e-06
-4.86949e-08
7.3517e-06
-4.7437e-08
7.35567e-06
-4.58567e-08
7.35923e-06
-4.41127e-08
7.36238e-06
-4.22854e-08
7.36517e-06
-4.04476e-08
7.36764e-06
-3.86517e-08
7.3698e-06
-3.69218e-08
7.3717e-06
-3.52734e-08
7.37337e-06
-3.3709e-08
7.37484e-06
-3.2229e-08
-3.08241e-08
7.37612e-06
6.36245e-06
4.68665e-09
6.37189e-06
-3.93787e-08
6.37932e-06
-4.75792e-08
6.38596e-06
-5.08456e-08
6.39224e-06
-5.38786e-08
6.39755e-06
-5.43883e-08
6.40185e-06
-5.29893e-08
6.40532e-06
-5.09172e-08
6.40812e-06
-4.86561e-08
6.41031e-06
-4.62971e-08
6.41194e-06
-4.39176e-08
6.41309e-06
-4.15943e-08
6.41381e-06
-3.93783e-08
6.41418e-06
-3.72875e-08
6.41424e-06
-3.53359e-08
6.41405e-06
-3.35194e-08
6.41366e-06
-3.18391e-08
-3.02752e-08
6.41311e-06
5.5412e-06
8.94895e-09
5.55032e-06
-4.85018e-08
5.55834e-06
-5.55975e-08
5.56604e-06
-5.85476e-08
5.5725e-06
-6.03401e-08
5.57683e-06
-5.87129e-08
5.57907e-06
-5.52306e-08
5.57963e-06
-5.14764e-08
5.57887e-06
-4.79024e-08
5.57709e-06
-4.4512e-08
5.57449e-06
-4.13238e-08
5.57128e-06
-3.83807e-08
5.56759e-06
-3.56908e-08
5.56355e-06
-3.32457e-08
5.55925e-06
-3.10427e-08
5.5548e-06
-2.90646e-08
5.55027e-06
-2.73132e-08
-2.57394e-08
5.54574e-06
4.86004e-06
-2.34873e-08
4.86539e-06
-5.38442e-08
4.86524e-06
-5.54523e-08
4.86217e-06
-5.54783e-08
4.857e-06
-5.51698e-08
4.8495e-06
-5.12124e-08
4.8398e-06
-4.55343e-08
4.8284e-06
-4.00829e-08
4.81583e-06
-3.53287e-08
4.80255e-06
-3.12332e-08
4.78895e-06
-2.77254e-08
4.77531e-06
-2.47425e-08
4.76183e-06
-2.22066e-08
4.74863e-06
-2.00465e-08
4.7358e-06
-1.82162e-08
4.72342e-06
-1.66824e-08
4.71159e-06
-1.5483e-08
-1.51375e-08
4.70099e-06
4.17919e-06
4.12534e-06
4.06989e-06
4.01441e-06
3.95924e-06
3.90803e-06
3.8625e-06
3.82241e-06
3.78709e-06
3.75585e-06
3.72813e-06
3.70338e-06
3.68118e-06
3.66113e-06
3.64291e-06
3.62623e-06
3.61075e-06
3.59561e-06
1.43375e-08
-1.43706e-08
2.79262e-08
-1.36429e-08
3.53657e-08
-7.47493e-09
3.59396e-08
-6.15374e-10
3.04275e-08
5.48659e-09
2.01175e-08
1.02731e-08
6.34023e-09
1.3759e-08
-9.90764e-09
1.62149e-08
-2.78806e-08
1.79598e-08
-4.71391e-08
1.92308e-08
-6.73556e-08
2.0207e-08
-8.83917e-08
2.10126e-08
-1.10125e-07
2.1726e-08
-1.32539e-07
2.23923e-08
-1.55584e-07
2.30391e-08
-1.79288e-07
2.36809e-08
-2.03618e-07
2.43262e-08
-2.28621e-07
2.49764e-08
-2.54258e-07
2.56337e-08
-2.8059e-07
2.63052e-08
-3.07589e-07
2.69974e-08
-3.3538e-07
2.7768e-08
-3.64029e-07
2.86507e-08
-3.92535e-07
2.8494e-08
-4.19316e-07
2.67832e-08
-4.4615e-07
2.68315e-08
-4.75239e-07
2.90907e-08
-5.06104e-07
3.08648e-08
-5.3851e-07
3.24038e-08
-5.72713e-07
3.4195e-08
-6.10014e-07
3.72929e-08
-6.53155e-07
4.31213e-08
-6.94287e-07
4.11154e-08
-7.31855e-07
3.7538e-08
-7.74078e-07
4.22108e-08
-8.18694e-07
4.45896e-08
-8.63279e-07
4.45776e-08
-9.03617e-07
4.03168e-08
-9.43289e-07
3.96692e-08
-9.85444e-07
4.21391e-08
-1.02791e-06
4.24683e-08
-1.07063e-06
4.27015e-08
-1.11349e-06
4.28649e-08
-1.15647e-06
4.29655e-08
-1.19946e-06
4.29906e-08
-1.24242e-06
4.29548e-08
-1.2853e-06
4.28724e-08
-1.32806e-06
4.27563e-08
-1.37068e-06
4.26151e-08
-1.41315e-06
4.24543e-08
-1.45543e-06
4.22775e-08
-1.49753e-06
4.20859e-08
-1.53941e-06
4.18806e-08
-1.58109e-06
4.16611e-08
-1.62252e-06
4.14267e-08
-1.66371e-06
4.11753e-08
-1.70463e-06
4.09062e-08
-1.74526e-06
4.06167e-08
-1.78557e-06
4.03059e-08
-1.82556e-06
3.99705e-08
-1.86517e-06
3.96098e-08
-1.90441e-06
3.9221e-08
-1.94322e-06
3.88033e-08
-1.98158e-06
3.83536e-08
-2.01945e-06
3.78712e-08
-2.05682e-06
3.73534e-08
-2.09362e-06
3.67999e-08
-2.12984e-06
3.62083e-08
-2.16542e-06
3.55789e-08
-2.20033e-06
3.49089e-08
-2.23453e-06
3.41992e-08
-2.26798e-06
3.34471e-08
-2.30063e-06
3.26534e-08
-2.33246e-06
3.18156e-08
-2.36339e-06
3.09351e-08
-2.39341e-06
3.00092e-08
-2.42245e-06
2.90402e-08
-2.45049e-06
2.80262e-08
-2.47746e-06
2.69692e-08
-2.50333e-06
2.58659e-08
-2.52804e-06
2.47187e-08
-2.55157e-06
2.35244e-08
-2.57385e-06
2.2285e-08
-2.59484e-06
2.09954e-08
-2.61449e-06
1.96581e-08
-2.63275e-06
1.82683e-08
-2.64956e-06
1.68286e-08
-2.66487e-06
1.53337e-08
-2.67861e-06
1.37822e-08
-2.69073e-06
1.21686e-08
-2.70116e-06
1.04774e-08
-2.70981e-06
8.69627e-09
-2.71658e-06
6.81015e-09
-2.72135e-06
4.80907e-09
-2.72401e-06
2.69431e-09
-2.7245e-06
5.29391e-10
-2.72299e-06
-1.48126e-09
-2.71965e-06
-3.30401e-09
-2.71454e-06
-5.08653e-09
-2.70765e-06
-6.86854e-09
-2.69897e-06
-8.66827e-09
-2.68847e-06
-1.04898e-08
-2.67614e-06
-1.23319e-08
-2.66196e-06
-1.41948e-08
-2.6459e-06
-1.60725e-08
-2.62794e-06
-1.79656e-08
-2.60808e-06
-1.98671e-08
-2.5863e-06
-2.17785e-08
-2.5626e-06
-2.3693e-08
-2.53697e-06
-2.56119e-08
-2.50941e-06
-2.75283e-08
-2.47994e-06
-2.94421e-08
-2.44855e-06
-3.13465e-08
-2.41526e-06
-3.32399e-08
-2.38009e-06
-3.51157e-08
-2.34305e-06
-3.69713e-08
-2.30418e-06
-3.88016e-08
-2.26351e-06
-4.0603e-08
-2.22106e-06
-4.23701e-08
-2.17688e-06
-4.40959e-08
-2.13101e-06
-4.57746e-08
-2.08351e-06
-4.73988e-08
-2.03442e-06
-4.89702e-08
-1.98381e-06
-5.04845e-08
-1.93174e-06
-5.19507e-08
-1.87827e-06
-5.33491e-08
-1.82349e-06
-5.46707e-08
-1.76747e-06
-5.59079e-08
-1.7103e-06
-5.70849e-08
-1.65204e-06
-5.81782e-08
-1.5928e-06
-5.91907e-08
-1.53266e-06
-6.01026e-08
-1.47173e-06
-6.09262e-08
-1.4101e-06
-6.16422e-08
-1.34789e-06
-6.22634e-08
-1.28519e-06
-6.27729e-08
-1.22213e-06
-6.31831e-08
-1.15881e-06
-6.34799e-08
-1.09534e-06
-6.36736e-08
-1.03183e-06
-6.37528e-08
-9.68368e-07
-6.37209e-08
-9.05057e-07
-6.35741e-08
-8.41998e-07
-6.33124e-08
-7.79308e-07
-6.29416e-08
-7.17082e-07
-6.24665e-08
-6.55424e-07
-6.18957e-08
-5.94415e-07
-6.12325e-08
-5.34147e-07
-6.04864e-08
-4.7469e-07
-5.96601e-08
-4.16123e-07
-5.87629e-08
-3.58504e-07
-5.77989e-08
-3.01899e-07
-5.6776e-08
-2.46359e-07
-5.56963e-08
-1.91936e-07
-5.45688e-08
-1.38682e-07
-5.33833e-08
-8.66325e-08
-5.21677e-08
-3.5816e-08
-5.09164e-08
1.36289e-08
-4.95318e-08
6.17186e-08
-4.81553e-08
1.08424e-07
-4.6754e-08
1.53634e-07
-4.52375e-08
1.97364e-07
-4.37407e-08
2.39669e-07
-4.22938e-08
2.80624e-07
-4.09264e-08
3.20303e-07
-3.96308e-08
3.58782e-07
-3.84114e-08
3.96125e-07
-3.72574e-08
4.3241e-07
-3.61803e-08
4.67707e-07
-3.5174e-08
5.02095e-07
-3.4245e-08
5.35629e-07
-3.33739e-08
5.68367e-07
-3.25568e-08
6.00325e-07
-3.17615e-08
6.31501e-07
-3.0956e-08
6.61723e-07
-2.99879e-08
6.90603e-07
-2.86243e-08
7.1716e-07
-2.62946e-08
7.38614e-07
-2.11895e-08
7.49078e-07
-1.02264e-08
2.87911e-08
7.20468e-07
8.01998e-09
-2.24203e-08
8.37198e-09
-1.40324e-08
3.92399e-09
-3.04803e-09
-3.7374e-09
7.02538e-09
-1.41249e-08
1.58603e-08
-2.71683e-08
2.32996e-08
-4.27457e-08
2.93254e-08
-6.06228e-08
3.40766e-08
-8.04617e-08
3.77895e-08
-1.01968e-07
4.07231e-08
-1.24881e-07
4.31112e-08
-1.49022e-07
4.5141e-08
-1.74254e-07
4.69514e-08
-2.00517e-07
4.86419e-08
-2.27766e-07
5.02823e-08
-2.5602e-07
5.19219e-08
-2.85294e-07
5.35948e-08
-3.15654e-07
5.53229e-08
-3.47142e-07
5.71167e-08
-3.79831e-07
5.89795e-08
-4.1374e-07
6.09018e-08
-4.48813e-07
6.28298e-08
-4.84797e-07
6.46326e-08
-5.22326e-07
6.60165e-08
-5.62627e-07
6.70847e-08
-6.04541e-07
6.87456e-08
-6.46536e-07
7.10858e-08
-6.89035e-07
7.33635e-08
-7.32318e-07
7.56855e-08
-7.76521e-07
7.83921e-08
-8.20509e-07
8.12741e-08
-8.611e-07
8.37005e-08
-9.04017e-07
8.40216e-08
-9.50111e-07
8.36164e-08
-9.92598e-07
8.46885e-08
-1.03327e-06
8.52461e-08
-1.07368e-06
8.49862e-08
-1.11716e-06
8.37803e-08
-1.1608e-06
8.33048e-08
-1.20221e-06
8.35494e-08
-1.24322e-06
8.34733e-08
-1.28378e-06
8.32533e-08
-1.32389e-06
8.29773e-08
-1.3636e-06
8.26676e-08
-1.40294e-06
8.23264e-08
-1.44194e-06
8.19539e-08
-1.48062e-06
8.15526e-08
-1.519e-06
8.1126e-08
-1.55706e-06
8.06766e-08
-1.59482e-06
8.02063e-08
-1.63226e-06
7.97149e-08
-1.66938e-06
7.92019e-08
-1.70617e-06
7.86656e-08
-1.74262e-06
7.81036e-08
-1.77871e-06
7.75126e-08
-1.81443e-06
7.68895e-08
-1.84977e-06
7.62307e-08
-1.88469e-06
7.55328e-08
-1.91918e-06
7.47919e-08
-1.95322e-06
7.40044e-08
-1.98679e-06
7.3167e-08
-2.01985e-06
7.22764e-08
-2.05238e-06
7.13293e-08
-2.08436e-06
7.03226e-08
-2.11574e-06
6.92534e-08
-2.14651e-06
6.81191e-08
-2.17663e-06
6.69174e-08
-2.20608e-06
6.56461e-08
-2.2348e-06
6.43035e-08
-2.26279e-06
6.28876e-08
-2.28998e-06
6.13971e-08
-2.31637e-06
5.98303e-08
-2.3419e-06
5.81863e-08
-2.36655e-06
5.64634e-08
-2.39028e-06
5.46611e-08
-2.41305e-06
5.27786e-08
-2.43483e-06
5.08161e-08
-2.45558e-06
4.87728e-08
-2.47526e-06
4.66488e-08
-2.49384e-06
4.44427e-08
-2.51128e-06
4.21549e-08
-2.52753e-06
3.97841e-08
-2.54258e-06
3.73303e-08
-2.55637e-06
3.47916e-08
-2.56888e-06
3.21688e-08
-2.58006e-06
2.94607e-08
-2.58989e-06
2.66683e-08
-2.59833e-06
2.37894e-08
-2.60535e-06
2.08242e-08
-2.61091e-06
1.77649e-08
-2.61501e-06
1.46085e-08
-2.61765e-06
1.13569e-08
-2.61884e-06
8.02498e-09
-2.61864e-06
4.64045e-09
-2.61717e-06
1.23607e-09
-2.61446e-06
-2.15396e-09
-2.61038e-06
-5.54663e-09
-2.60469e-06
-8.97803e-09
-2.59731e-06
-1.24544e-08
-2.58819e-06
-1.5974e-08
-2.57731e-06
-1.95403e-08
-2.56465e-06
-2.31519e-08
-2.55018e-06
-2.68065e-08
-2.53389e-06
-3.04995e-08
-2.51575e-06
-3.4225e-08
-2.49574e-06
-3.79777e-08
-2.47386e-06
-4.17511e-08
-2.4501e-06
-4.55407e-08
-2.42445e-06
-4.93397e-08
-2.39691e-06
-5.31435e-08
-2.36747e-06
-5.69443e-08
-2.33616e-06
-6.07363e-08
-2.30297e-06
-6.45105e-08
-2.26792e-06
-6.826e-08
-2.23102e-06
-7.19747e-08
-2.19231e-06
-7.56469e-08
-2.1518e-06
-7.92667e-08
-2.10953e-06
-8.28263e-08
-2.06554e-06
-8.63138e-08
-2.01987e-06
-8.9718e-08
-1.97256e-06
-9.30258e-08
-1.92367e-06
-9.62275e-08
-1.87325e-06
-9.93168e-08
-1.82137e-06
-1.02291e-07
-1.76809e-06
-1.05152e-07
-1.71349e-06
-1.0788e-07
-1.65764e-06
-1.10448e-07
-1.60064e-06
-1.12854e-07
-1.54255e-06
-1.15118e-07
-1.48346e-06
-1.17221e-07
-1.42347e-06
-1.19148e-07
-1.36267e-06
-1.20883e-07
-1.30117e-06
-1.22425e-07
-1.23906e-06
-1.23761e-07
-1.17646e-06
-1.24892e-07
-1.11347e-06
-1.25807e-07
-1.05021e-06
-1.26509e-07
-9.86785e-07
-1.26992e-07
-9.23315e-07
-1.27257e-07
-8.59898e-07
-1.27301e-07
-7.96635e-07
-1.2712e-07
-7.33629e-07
-1.26715e-07
-6.70985e-07
-1.26084e-07
-6.0881e-07
-1.25241e-07
-5.47203e-07
-1.24193e-07
-4.8626e-07
-1.22955e-07
-4.26068e-07
-1.21535e-07
-3.6671e-07
-1.1995e-07
-3.0826e-07
-1.18208e-07
-2.5079e-07
-1.16325e-07
-1.94363e-07
-1.14312e-07
-1.39039e-07
-1.1218e-07
-8.48676e-08
-1.0994e-07
-3.18913e-08
-1.0761e-07
1.9854e-08
-1.05187e-07
7.03283e-08
-1.02691e-07
1.19493e-07
-1.00124e-07
1.67391e-07
-9.74601e-08
2.13971e-07
-9.47615e-08
2.59221e-07
-9.2017e-08
3.03218e-07
-8.92415e-08
3.45998e-07
-8.65139e-08
3.87598e-07
-8.38822e-08
4.28071e-07
-8.13714e-08
4.67475e-07
-7.90028e-08
5.05888e-07
-7.67736e-08
5.43383e-07
-7.46978e-08
5.80052e-07
-7.27746e-08
6.15977e-07
-7.10208e-08
6.51255e-07
-6.94231e-08
6.85968e-07
-6.79816e-08
7.20197e-07
-6.66586e-08
7.53984e-07
-6.54166e-08
7.87328e-07
-6.41437e-08
8.20112e-07
-6.26129e-08
8.52031e-07
-6.03614e-08
8.8228e-07
-5.63631e-08
9.09735e-07
-4.84526e-08
9.31355e-07
-3.16741e-08
1.23095e-08
9.47982e-07
-3.02984e-09
-1.94128e-08
-1.21031e-08
-4.98355e-09
-2.35344e-08
8.37017e-09
-3.64653e-08
1.99439e-08
-5.07142e-08
3.01005e-08
-6.63708e-08
3.89456e-08
-8.35736e-08
4.65208e-08
-1.02414e-07
5.29072e-08
-1.22882e-07
5.82505e-08
-1.44909e-07
6.27397e-08
-1.68378e-07
6.65738e-08
-1.93183e-07
6.99364e-08
-2.1922e-07
7.29828e-08
-2.46426e-07
7.5838e-08
-2.74748e-07
7.86004e-08
-3.04182e-07
8.13462e-08
-3.34725e-07
8.4133e-08
-3.66411e-07
8.69996e-08
-3.99262e-07
8.99636e-08
-4.33307e-07
9.30148e-08
-4.68514e-07
9.6105e-08
-5.04831e-07
9.91389e-08
-5.42188e-07
1.01988e-07
-5.80703e-07
1.04527e-07
-6.20391e-07
1.06772e-07
-6.60648e-07
1.09003e-07
-7.00842e-07
1.1128e-07
-7.4095e-07
1.13471e-07
-7.80859e-07
1.15594e-07
-8.202e-07
1.17729e-07
-8.58605e-07
1.19674e-07
-8.95959e-07
1.21047e-07
-9.33624e-07
1.2168e-07
-9.71857e-07
1.2184e-07
-1.00911e-06
1.21931e-07
-1.04565e-06
1.21778e-07
-1.08205e-06
1.21382e-07
-1.11902e-06
1.20751e-07
-1.15599e-06
1.20267e-07
-1.19232e-06
1.19876e-07
-1.22824e-06
1.1939e-07
-1.26384e-06
1.18846e-07
-1.29914e-06
1.18275e-07
-1.33416e-06
1.17687e-07
-1.36892e-06
1.17087e-07
-1.40344e-06
1.16471e-07
-1.43773e-06
1.15838e-07
-1.47179e-06
1.15186e-07
-1.50563e-06
1.14512e-07
-1.53924e-06
1.13815e-07
-1.57262e-06
1.13091e-07
-1.60576e-06
1.12337e-07
-1.63864e-06
1.11549e-07
-1.67126e-06
1.10722e-07
-1.70361e-06
1.09851e-07
-1.73565e-06
1.08931e-07
-1.76738e-06
1.07958e-07
-1.79878e-06
1.06925e-07
-1.82982e-06
1.05829e-07
-1.86049e-06
1.04663e-07
-1.89075e-06
1.03423e-07
-1.92058e-06
1.02105e-07
-1.94996e-06
1.00704e-07
-1.97886e-06
9.92155e-08
-2.00724e-06
9.76359e-08
-2.03509e-06
9.59617e-08
-2.06237e-06
9.41894e-08
-2.08904e-06
9.23163e-08
-2.11508e-06
9.03397e-08
-2.14045e-06
8.8257e-08
-2.16512e-06
8.60661e-08
-2.18905e-06
8.3765e-08
-2.21222e-06
8.1352e-08
-2.23458e-06
7.88256e-08
-2.25611e-06
7.61844e-08
-2.27676e-06
7.34277e-08
-2.2965e-06
7.05549e-08
-2.31529e-06
6.75656e-08
-2.3331e-06
6.44591e-08
-2.3499e-06
6.12348e-08
-2.36563e-06
5.78926e-08
-2.38028e-06
5.44321e-08
-2.3938e-06
5.08532e-08
-2.40616e-06
4.71555e-08
-2.41733e-06
4.33399e-08
-2.42727e-06
3.94067e-08
-2.43595e-06
3.53575e-08
-2.44335e-06
3.11935e-08
-2.44942e-06
2.6915e-08
-2.45416e-06
2.25229e-08
-2.45755e-06
1.80172e-08
-2.45959e-06
1.3406e-08
-2.46025e-06
8.7067e-09
-2.45954e-06
3.93926e-09
-2.45742e-06
-8.77745e-10
-2.45382e-06
-5.74436e-09
-2.44867e-06
-1.06843e-08
-2.44193e-06
-1.57163e-08
-2.43354e-06
-2.08344e-08
-2.42348e-06
-2.60327e-08
-2.41172e-06
-3.13064e-08
-2.39822e-06
-3.665e-08
-2.38298e-06
-4.20584e-08
-2.36597e-06
-4.75233e-08
-2.34717e-06
-5.30377e-08
-2.32656e-06
-5.85918e-08
-2.30414e-06
-6.41785e-08
-2.27989e-06
-6.97882e-08
-2.25381e-06
-7.54135e-08
-2.2259e-06
-8.10439e-08
-2.19617e-06
-8.66707e-08
-2.16461e-06
-9.22821e-08
-2.13123e-06
-9.78673e-08
-2.09606e-06
-1.03413e-07
-2.0591e-06
-1.08908e-07
-2.02038e-06
-1.14336e-07
-1.97993e-06
-1.19686e-07
-1.93779e-06
-1.24942e-07
-1.89398e-06
-1.30088e-07
-1.84856e-06
-1.35108e-07
-1.80156e-06
-1.39983e-07
-1.75304e-06
-1.44699e-07
-1.70306e-06
-1.49243e-07
-1.65169e-06
-1.53611e-07
-1.599e-06
-1.57796e-07
-1.54505e-06
-1.61781e-07
-1.48992e-06
-1.65529e-07
-1.4337e-06
-1.69033e-07
-1.37647e-06
-1.72307e-07
-1.31832e-06
-1.75342e-07
-1.25933e-06
-1.78107e-07
-1.19961e-06
-1.80589e-07
-1.13925e-06
-1.82776e-07
-1.07836e-06
-1.84658e-07
-1.01705e-06
-1.86225e-07
-9.5541e-07
-1.87473e-07
-8.93565e-07
-1.88398e-07
-8.3162e-07
-1.88997e-07
-7.69682e-07
-1.89269e-07
-7.07852e-07
-1.89211e-07
-6.46231e-07
-1.88821e-07
-5.84918e-07
-1.88098e-07
-5.24017e-07
-1.87052e-07
-4.63625e-07
-1.85691e-07
-4.0384e-07
-1.84033e-07
-3.44748e-07
-1.82095e-07
-2.86435e-07
-1.79894e-07
-2.28976e-07
-1.7745e-07
-1.72442e-07
-1.7478e-07
-1.16898e-07
-1.71902e-07
-6.24022e-08
-1.68839e-07
-8.99828e-09
-1.65611e-07
4.32689e-08
-1.62232e-07
9.43563e-08
-1.58718e-07
1.44238e-07
-1.55087e-07
1.9289e-07
-1.51358e-07
2.40307e-07
-1.47554e-07
2.86523e-07
-1.43686e-07
3.31552e-07
-1.39798e-07
3.75423e-07
-1.35893e-07
4.18179e-07
-1.32001e-07
4.59856e-07
-1.28191e-07
5.00495e-07
-1.24519e-07
5.40146e-07
-1.21019e-07
5.78873e-07
-1.17722e-07
6.16749e-07
-1.14642e-07
6.53862e-07
-1.11798e-07
6.90302e-07
-1.09201e-07
7.26166e-07
-1.06869e-07
7.61555e-07
-1.04794e-07
7.96566e-07
-1.02971e-07
8.31286e-07
-1.01357e-07
8.65776e-07
-9.98817e-08
9.00048e-07
-9.8389e-08
9.34033e-07
-9.65671e-08
9.67511e-07
-9.38053e-08
1.00005e-06
-8.88617e-08
1.03108e-06
-7.94499e-08
1.06011e-06
-6.06766e-08
-1.92327e-08
1.09167e-06
-1.16003e-08
-7.8306e-09
-2.67338e-08
1.01319e-08
-4.28501e-08
2.44769e-08
-5.95505e-08
3.6635e-08
-7.68415e-08
4.7385e-08
-9.48713e-08
5.69671e-08
-1.13822e-07
6.54659e-08
-1.33866e-07
7.29429e-08
-1.55111e-07
7.9489e-08
-1.77609e-07
8.523e-08
-2.01354e-07
9.03131e-08
-2.26315e-07
9.48889e-08
-2.52435e-07
9.90982e-08
-2.79669e-07
1.03064e-07
-3.07961e-07
1.06888e-07
-3.37273e-07
1.10651e-07
-3.67557e-07
1.14413e-07
-3.98772e-07
1.18207e-07
-4.30855e-07
1.22043e-07
-4.63743e-07
1.25895e-07
-4.97338e-07
1.29698e-07
-5.31558e-07
1.33352e-07
-5.66312e-07
1.3674e-07
-6.01554e-07
1.39766e-07
-6.37197e-07
1.42414e-07
-6.72972e-07
1.44777e-07
-7.08609e-07
1.46917e-07
-7.43983e-07
1.48844e-07
-7.78963e-07
1.50573e-07
-8.13349e-07
1.52112e-07
-8.47056e-07
1.53379e-07
-8.80275e-07
1.5426e-07
-9.13347e-07
1.54747e-07
-9.46414e-07
1.54901e-07
-9.79272e-07
1.54785e-07
-1.01192e-06
1.54424e-07
-1.04443e-06
1.53887e-07
-1.07692e-06
1.53233e-07
-1.10924e-06
1.52583e-07
-1.14131e-06
1.51945e-07
-1.1732e-06
1.51275e-07
-1.20493e-06
1.50574e-07
-1.23651e-06
1.4985e-07
-1.26794e-06
1.49111e-07
-1.29921e-06
1.48358e-07
-1.33033e-06
1.47591e-07
-1.3613e-06
1.46808e-07
-1.39212e-06
1.46004e-07
-1.42279e-06
1.45174e-07
-1.45329e-06
1.44315e-07
-1.48362e-06
1.43421e-07
-1.51377e-06
1.42485e-07
-1.54373e-06
1.41503e-07
-1.57347e-06
1.40467e-07
-1.603e-06
1.39372e-07
-1.63228e-06
1.3821e-07
-1.6613e-06
1.36975e-07
-1.69004e-06
1.35661e-07
-1.71847e-06
1.3426e-07
-1.74658e-06
1.32768e-07
-1.77434e-06
1.31177e-07
-1.80172e-06
1.29481e-07
-1.8287e-06
1.27676e-07
-1.85524e-06
1.25756e-07
-1.88133e-06
1.23717e-07
-1.90692e-06
1.21553e-07
-1.93199e-06
1.19261e-07
-1.95652e-06
1.16836e-07
-1.98046e-06
1.14277e-07
-2.00378e-06
1.11578e-07
-2.02645e-06
1.08738e-07
-2.04844e-06
1.05755e-07
-2.06972e-06
1.02625e-07
-2.09024e-06
9.93476e-08
-2.10998e-06
9.59207e-08
-2.12889e-06
9.23432e-08
-2.14695e-06
8.86145e-08
-2.16412e-06
8.47337e-08
-2.18036e-06
8.07005e-08
-2.19564e-06
7.65143e-08
-2.20992e-06
7.21753e-08
-2.22317e-06
6.76832e-08
-2.23535e-06
6.30386e-08
-2.24644e-06
5.82418e-08
-2.25639e-06
5.32941e-08
-2.26518e-06
4.8197e-08
-2.27277e-06
4.29525e-08
-2.27913e-06
3.7563e-08
-2.28424e-06
3.20319e-08
-2.28806e-06
2.63596e-08
-2.29059e-06
2.05522e-08
-2.29179e-06
1.46159e-08
-2.29164e-06
8.56338e-09
-2.2901e-06
2.40656e-09
-2.28713e-06
-3.8475e-09
-2.28266e-06
-1.02036e-08
-2.27667e-06
-1.66744e-08
-2.26912e-06
-2.32669e-08
-2.25998e-06
-2.9976e-08
-2.24922e-06
-3.67944e-08
-2.23682e-06
-4.37145e-08
-2.22275e-06
-5.07281e-08
-2.20699e-06
-5.78272e-08
-2.18953e-06
-6.50008e-08
-2.17034e-06
-7.22397e-08
-2.1494e-06
-7.95314e-08
-2.12672e-06
-8.68665e-08
-2.10228e-06
-9.42323e-08
-2.07607e-06
-1.01619e-07
-2.04809e-06
-1.09011e-07
-2.01836e-06
-1.16399e-07
-1.98686e-06
-1.23765e-07
-1.95362e-06
-1.31096e-07
-1.91864e-06
-1.38374e-07
-1.88195e-06
-1.45582e-07
-1.84356e-06
-1.52702e-07