/*--------------------------------*- C++ -*----------------------------------*\
  =========                 |
  \\      /  F ield         | OpenFOAM: The Open Source CFD Toolbox
   \\    /   O peration     | Website:  https://openfoam.org
    \\  /    A nd           | Version:  8
     \\/     M anipulation  |
\*---------------------------------------------------------------------------*/
FoamFile
{
    version     2.0;
    format      ascii;
    class       volVectorField;
    location    "210";
    object      U;
}
// * * * * * * * * * * * * * * * * * * * * * * * * * * * * * * * * * * * * * //

dimensions      [0 1 -1 0 0 0 0];

internalField   nonuniform List<vector> 
12225
(
(9.85697 -0.886445 0)
(9.66664 -0.740746 0)
(9.45571 -0.429481 0)
(9.22452 -0.222212 0)
(9.00647 -0.106456 0)
(8.81435 -0.0458666 0)
(8.64744 -0.0151731 0)
(8.50524 0.000453372 0)
(8.38354 0.00838846 0)
(8.28076 0.0122857 0)
(8.1923 0.0139868 0)
(8.11607 0.0150187 0)
(8.04923 0.0154096 0)
(7.9901 0.0156056 0)
(7.93665 0.015549 0)
(7.88976 0.0161198 0)
(7.83549 0.0153312 0)
(7.8251 0.0102158 0)
(10.0545 0.227567 0)
(10.121 0.326911 0)
(10.1196 0.261572 0)
(10.0856 0.186542 0)
(10.0434 0.13467 0)
(9.99671 0.101118 0)
(9.94399 0.0792911 0)
(9.88523 0.0645718 0)
(9.82386 0.0542688 0)
(9.76132 0.0466848 0)
(9.69984 0.0409279 0)
(9.64 0.0363812 0)
(9.58266 0.0327373 0)
(9.52823 0.0299143 0)
(9.4763 0.0274832 0)
(9.42881 0.0266827 0)
(9.38074 0.0243546 0)
(9.34756 0.033658 0)
(10.0035 0.0579188 0)
(10.0303 0.0560078 0)
(10.0561 0.0337816 0)
(10.0703 0.0328994 0)
(10.077 0.0406503 0)
(10.0778 0.0465494 0)
(10.0725 0.0493658 0)
(10.0614 0.0503139 0)
(10.0461 0.0502164 0)
(10.0277 0.0495093 0)
(10.0071 0.0484749 0)
(9.9849 0.0473265 0)
(9.96173 0.0461637 0)
(9.93805 0.0451309 0)
(9.91407 0.0441306 0)
(9.89068 0.0438891 0)
(9.86725 0.0430798 0)
(9.84543 0.0456046 0)
(9.99779 0.0110542 0)
(10.011 0.0266094 0)
(10.035 0.0371532 0)
(10.0525 0.0480898 0)
(10.0644 0.0554585 0)
(10.0734 0.0581929 0)
(10.0795 0.0583659 0)
(10.0824 0.0576284 0)
(10.0827 0.056586 0)
(10.0812 0.0553995 0)
(10.0781 0.0541409 0)
(10.0737 0.0529324 0)
(10.0683 0.0517723 0)
(10.0621 0.0507733 0)
(10.0553 0.0498469 0)
(10.0484 0.049431 0)
(10.0413 0.048781 0)
(10.0343 0.0493749 0)
(9.99935 0.0071989 0)
(10.009 0.0316561 0)
(10.0275 0.0439258 0)
(10.0418 0.0499285 0)
(10.0528 0.05362 0)
(10.0629 0.0552475 0)
(10.0716 0.0555316 0)
(10.0783 0.0552475 0)
(10.0834 0.0547123 0)
(10.0872 0.05402 0)
(10.09 0.0532273 0)
(10.0919 0.052433 0)
(10.093 0.0516567 0)
(10.0937 0.0509803 0)
(10.0938 0.0503705 0)
(10.0937 0.0500375 0)
(10.0936 0.0496393 0)
(10.0935 0.0496225 0)
(10.0003 0.00917946 0)
(10.0083 0.0311721 0)
(10.0227 0.0409481 0)
(10.035 0.0453998 0)
(10.045 0.0490475 0)
(10.0548 0.0513861 0)
(10.0637 0.0523719 0)
(10.0714 0.0526116 0)
(10.0778 0.0524866 0)
(10.0834 0.0521363 0)
(10.0882 0.0516386 0)
(10.0924 0.0510846 0)
(10.096 0.0505138 0)
(10.0992 0.0499857 0)
(10.102 0.0494944 0)
(10.1047 0.0491266 0)
(10.1074 0.048726 0)
(10.1101 0.0483381 0)
(10.0005 0.00894618 0)
(10.0071 0.027088 0)
(10.0191 0.0364181 0)
(10.0302 0.0413983 0)
(10.0396 0.0454249 0)
(10.0487 0.048094 0)
(10.0572 0.0493679 0)
(10.0649 0.0498442 0)
(10.0717 0.0499263 0)
(10.0778 0.0497618 0)
(10.0833 0.0494305 0)
(10.0883 0.0490124 0)
(10.0929 0.0485543 0)
(10.0972 0.0480984 0)
(10.1012 0.0476474 0)
(10.105 0.0472275 0)
(10.1088 0.0467518 0)
(10.1127 0.0461485 0)
(10.0004 0.00791767 0)
(10.006 0.0233823 0)
(10.0161 0.0327413 0)
(10.0263 0.0381102 0)
(10.0351 0.0421084 0)
(10.0436 0.0447953 0)
(10.0517 0.0462111 0)
(10.0592 0.0468511 0)
(10.0659 0.0470816 0)
(10.0721 0.047049 0)
(10.0778 0.0468336 0)
(10.0831 0.0465077 0)
(10.0881 0.0461196 0)
(10.0928 0.0457005 0)
(10.0973 0.0452546 0)
(10.1017 0.0447796 0)
(10.106 0.044217 0)
(10.1103 0.0434814 0)
(10.0004 0.00696231 0)
(10.0051 0.0204306 0)
(10.0137 0.0294604 0)
(10.0229 0.0348713 0)
(10.0312 0.0387255 0)
(10.0391 0.041391 0)
(10.0468 0.0429277 0)
(10.054 0.0437076 0)
(10.0606 0.0440551 0)
(10.0667 0.0441217 0)
(10.0725 0.0439898 0)
(10.0779 0.0437268 0)
(10.083 0.0433793 0)
(10.0878 0.042973 0)
(10.0925 0.042511 0)
(10.0971 0.0419815 0)
(10.1015 0.0413393 0)
(10.106 0.0405203 0)
(10.0004 0.00613175 0)
(10.0043 0.0178658 0)
(10.0116 0.0262835 0)
(10.0199 0.0315927 0)
(10.0276 0.035321 0)
(10.0351 0.037951 0)
(10.0424 0.0395674 0)
(10.0493 0.0404503 0)
(10.0557 0.0408846 0)
(10.0617 0.0410242 0)
(10.0674 0.0409523 0)
(10.0727 0.0407318 0)
(10.0778 0.0404064 0)
(10.0827 0.0399991 0)
(10.0875 0.0395128 0)
(10.092 0.038935 0)
(10.0965 0.0382313 0)
(10.1009 0.0373635 0)
(10.0003 0.00537206 0)
(10.0037 0.0155568 0)
(10.0099 0.0232461 0)
(10.0173 0.028358 0)
(10.0245 0.0319443 0)
(10.0315 0.0344978 0)
(10.0384 0.0361393 0)
(10.0449 0.0370861 0)
(10.0512 0.0375807 0)
(10.057 0.0377722 0)
(10.0626 0.0377428 0)
(10.0679 0.0375505 0)
(10.0729 0.0372366 0)
(10.0778 0.0368224 0)
(10.0824 0.0363126 0)
(10.087 0.0356974 0)
(10.0913 0.0349531 0)
(10.0956 0.0340631 0)
(10.0003 0.00470705 0)
(10.0032 0.013616 0)
(10.0086 0.0206002 0)
(10.0152 0.0254471 0)
(10.0219 0.0288676 0)
(10.0285 0.0313155 0)
(10.035 0.0329378 0)
(10.0413 0.0339107 0)
(10.0473 0.0344385 0)
(10.053 0.0346602 0)
(10.0585 0.0346558 0)
(10.0637 0.0344797 0)
(10.0686 0.0341702 0)
(10.0734 0.0337487 0)
(10.078 0.0332214 0)
(10.0824 0.0325835 0)
(10.0867 0.0318194 0)
(10.0908 0.0309293 0)
(10.0003 0.00409243 0)
(10.0028 0.0118469 0)
(10.0075 0.0181012 0)
(10.0134 0.0226066 0)
(10.0197 0.0258267 0)
(10.0259 0.0281435 0)
(10.032 0.0297138 0)
(10.0381 0.0306856 0)
(10.0439 0.0312278 0)
(10.0494 0.0314659 0)
(10.0547 0.0314765 0)
(10.0598 0.0313103 0)
(10.0646 0.0310031 0)
(10.0693 0.0305762 0)
(10.0738 0.0300381 0)
(10.0781 0.0293889 0)
(10.0823 0.0286196 0)
(10.0863 0.0277433 0)
(10.0002 0.00345756 0)
(10.0024 0.0100082 0)
(10.0064 0.0154207 0)
(10.0117 0.0194597 0)
(10.0174 0.0223958 0)
(10.0232 0.0245216 0)
(10.029 0.025989 0)
(10.0347 0.0269216 0)
(10.0403 0.027453 0)
(10.0456 0.0276906 0)
(10.0507 0.0277047 0)
(10.0557 0.0275418 0)
(10.0604 0.0272349 0)
(10.0649 0.0268049 0)
(10.0693 0.0262628 0)
(10.0735 0.0256132 0)
(10.0775 0.0248538 0)
(10.0814 0.0240066 0)
(10.0002 0.00279838 0)
(10.002 0.00809849 0)
(10.0055 0.0125688 0)
(10.0101 0.0160116 0)
(10.0153 0.0185614 0)
(10.0206 0.0204206 0)
(10.026 0.0217208 0)
(10.0314 0.0225623 0)
(10.0367 0.0230458 0)
(10.0418 0.0232575 0)
(10.0467 0.023258 0)
(10.0515 0.023089 0)
(10.0561 0.0227794 0)
(10.0605 0.0223496 0)
(10.0647 0.0218123 0)
(10.0687 0.0211762 0)
(10.0726 0.0204438 0)
(10.0763 0.0196424 0)
(10.0002 0.00211416 0)
(10.0017 0.00611975 0)
(10.0047 0.00955391 0)
(10.0087 0.0122668 0)
(10.0134 0.014311 0)
(10.0183 0.0158106 0)
(10.0233 0.0168644 0)
(10.0283 0.0175483 0)
(10.0333 0.0179337 0)
(10.0382 0.0180841 0)
(10.0429 0.0180476 0)
(10.0475 0.0178584 0)
(10.0519 0.0175413 0)
(10.0561 0.0171146 0)
(10.0602 0.0165917 0)
(10.064 0.0159831 0)
(10.0677 0.0152945 0)
(10.0712 0.0145547 0)
(10.0002 0.00140189 0)
(10.0015 0.00405782 0)
(10.0041 0.0063596 0)
(10.0076 0.00820793 0)
(10.0118 0.0096156 0)
(10.0163 0.010647 0)
(10.0209 0.0113628 0)
(10.0256 0.0118118 0)
(10.0304 0.0120388 0)
(10.035 0.0120844 0)
(10.0395 0.0119816 0)
(10.0439 0.0117549 0)
(10.0481 0.0114232 0)
(10.0521 0.0110011 0)
(10.056 0.0105005 0)
(10.0597 0.00993157 0)
(10.0632 0.0093006 0)
(10.0666 0.00863486 0)
(10.0001 0.000645057 0)
(10.0013 0.00186071 0)
(10.0036 0.00291345 0)
(10.0069 0.00375464 0)
(10.0107 0.00438415 0)
(10.0148 0.00482446 0)
(10.0192 0.00509843 0)
(10.0237 0.00522588 0)
(10.0281 0.00522605 0)
(10.0325 0.00511702 0)
(10.0368 0.00491412 0)
(10.041 0.00462975 0)
(10.0451 0.00427418 0)
(10.0489 0.00385629 0)
(10.0527 0.00338388 0)
(10.0562 0.00286469 0)
(10.0596 0.00230319 0)
(10.0628 0.00172265 0)
(10.0001 -0.000199541 0)
(10.0012 -0.000593833 0)
(10.0034 -0.000958067 0)
(10.0066 -0.00128583 0)
(10.0102 -0.00157701 0)
(10.0143 -0.00184563 0)
(10.0185 -0.0021095 0)
(10.0228 -0.00238083 0)
(10.0271 -0.00266696 0)
(10.0314 -0.00297363 0)
(10.0356 -0.00330521 0)
(10.0396 -0.0036642 0)
(10.0435 -0.0040513 0)
(10.0473 -0.00446595 0)
(10.0508 -0.00490662 0)
(10.0543 -0.0053706 0)
(10.0575 -0.00585676 0)
(10.0606 -0.00634844 0)
(10.0001 -0.00100772 0)
(10.0013 -0.00294928 0)
(10.0037 -0.00467988 0)
(10.007 -0.00612209 0)
(10.0108 -0.00727311 0)
(10.015 -0.00819273 0)
(10.0193 -0.00894238 0)
(10.0237 -0.009564 0)
(10.0281 -0.010092 0)
(10.0323 -0.0105577 0)
(10.0365 -0.0109862 0)
(10.0405 -0.0113939 0)
(10.0444 -0.0117921 0)
(10.0481 -0.0121882 0)
(10.0516 -0.012587 0)
(10.0549 -0.0129909 0)
(10.0581 -0.0134021 0)
(10.0612 -0.01381 0)
(10.0002 -0.00170478 0)
(10.0015 -0.00500671 0)
(10.0041 -0.00793266 0)
(10.0078 -0.0102834 0)
(10.012 -0.0120804 0)
(10.0165 -0.0134736 0)
(10.021 -0.0145691 0)
(10.0255 -0.015424 0)
(10.03 -0.0160951 0)
(10.0344 -0.0166409 0)
(10.0386 -0.0171059 0)
(10.0426 -0.0175186 0)
(10.0465 -0.0178983 0)
(10.0502 -0.0182585 0)
(10.0537 -0.0186087 0)
(10.057 -0.0189541 0)
(10.0602 -0.019299 0)
(10.0632 -0.0196366 0)
(10.0002 -0.00236679 0)
(10.0017 -0.00703985 0)
(10.0047 -0.0111829 0)
(10.009 -0.0143525 0)
(10.0137 -0.016649 0)
(10.0185 -0.0183827 0)
(10.0234 -0.0197137 0)
(10.0282 -0.0207128 0)
(10.0329 -0.0214612 0)
(10.0374 -0.0220403 0)
(10.0417 -0.0225064 0)
(10.0457 -0.0228962 0)
(10.0496 -0.023236 0)
(10.0533 -0.0235455 0)
(10.0569 -0.0238376 0)
(10.0602 -0.0241199 0)
(10.0633 -0.024398 0)
(10.0663 -0.0246675 0)
(10.0002 -0.0029864 0)
(10.0018 -0.00909876 0)
(10.0054 -0.0144552 0)
(10.0105 -0.018345 0)
(10.0159 -0.0210897 0)
(10.0211 -0.0231125 0)
(10.0263 -0.0245686 0)
(10.0314 -0.0255831 0)
(10.0363 -0.0263103 0)
(10.0409 -0.0268601 0)
(10.0453 -0.0272889 0)
(10.0495 -0.0276323 0)
(10.0534 -0.0279197 0)
(10.0572 -0.0281734 0)
(10.0607 -0.0284076 0)
(10.064 -0.0286307 0)
(10.0672 -0.028848 0)
(10.0701 -0.0290575 0)
(10.0001 -0.00353261 0)
(10.0018 -0.0115528 0)
(10.0063 -0.0178905 0)
(10.0123 -0.0219894 0)
(10.0183 -0.0250575 0)
(10.024 -0.0274678 0)
(10.0297 -0.0291068 0)
(10.0351 -0.0301176 0)
(10.0401 -0.0307707 0)
(10.0449 -0.0312309 0)
(10.0494 -0.0315659 0)
(10.0537 -0.031816 0)
(10.0576 -0.0320154 0)
(10.0614 -0.0321876 0)
(10.0649 -0.0323463 0)
(10.0682 -0.0324988 0)
(10.0714 -0.0326486 0)
(10.0743 -0.0327925 0)
(9.99991 -0.0033814 0)
(10.0016 -0.0149695 0)
(10.0073 -0.0227288 0)
(10.0142 -0.0262417 0)
(10.0206 -0.0288299 0)
(10.0268 -0.0311963 0)
(10.0331 -0.0329185 0)
(10.039 -0.0340072 0)
(10.0444 -0.0347076 0)
(10.0494 -0.0351721 0)
(10.0541 -0.0354708 0)
(10.0584 -0.035658 0)
(10.0624 -0.0357799 0)
(10.0661 -0.0358673 0)
(10.0695 -0.0359384 0)
(10.0726 -0.0360029 0)
(10.0756 -0.0360657 0)
(10.0783 -0.0361254 0)
(9.9986 -0.000398573 0)
(9.99909 -0.0157575 0)
(10.0075 -0.0274318 0)
(10.0166 -0.0324937 0)
(10.0238 -0.034871 0)
(10.0306 -0.0362276 0)
(10.0376 -0.0369801 0)
(10.0441 -0.0374473 0)
(10.0499 -0.0377964 0)
(10.055 -0.0380441 0)
(10.0596 -0.0381895 0)
(10.0636 -0.0382578 0)
(10.0672 -0.0382791 0)
(10.0704 -0.0382745 0)
(10.0731 -0.0382592 0)
(10.0756 -0.0382416 0)
(10.0777 -0.0382255 0)
(10.0796 -0.0382091 0)
(9.99488 0.00133524 0)
(9.99288 -0.00809341 0)
(10.006 -0.0203529 0)
(10.0202 -0.0322784 0)
(10.0307 -0.0404809 0)
(10.0392 -0.0441527 0)
(10.0467 -0.0450653 0)
(10.0529 -0.0449209 0)
(10.0578 -0.0444542 0)
(10.0617 -0.0438587 0)
(10.0646 -0.0432143 0)
(10.0668 -0.0425779 0)
(10.0682 -0.0419836 0)
(10.0691 -0.0414398 0)
(10.0694 -0.040956 0)
(10.0693 -0.0405287 0)
(10.0688 -0.0401553 0)
(10.0681 -0.0398102 0)
(9.99473 -0.0305616 0)
(9.99925 -0.0228725 0)
(10.0147 -0.0026364 0)
(10.0304 -0.00191071 0)
(10.0434 -0.0116604 0)
(10.0533 -0.0209242 0)
(10.0594 -0.0272813 0)
(10.0619 -0.0315092 0)
(10.0615 -0.0342841 0)
(10.0591 -0.0359804 0)
(10.0551 -0.0369123 0)
(10.0498 -0.0373459 0)
(10.0435 -0.0374717 0)
(10.0365 -0.0374092 0)
(10.0289 -0.0372491 0)
(10.021 -0.0370464 0)
(10.0129 -0.0368661 0)
(10.0046 -0.036677 0)
(10.0273 -0.182758 0)
(10.0763 -0.288313 0)
(10.0871 -0.247756 0)
(10.0777 -0.18652 0)
(10.0664 -0.140298 0)
(10.0537 -0.108223 0)
(10.0365 -0.085883 0)
(10.0145 -0.0704229 0)
(9.98938 -0.0596539 0)
(9.96234 -0.05188 0)
(9.93437 -0.0460578 0)
(9.90605 -0.0415602 0)
(9.87788 -0.0380043 0)
(9.85017 -0.0351293 0)
(9.82318 -0.0327631 0)
(9.79702 -0.0308423 0)
(9.77193 -0.029326 0)
(9.74793 -0.028507 0)
(9.93574 0.689319 0)
(9.86861 0.609604 0)
(9.76453 0.380623 0)
(9.62664 0.217441 0)
(9.48589 0.119267 0)
(9.35721 0.063186 0)
(9.24268 0.0315746 0)
(9.14113 0.0136149 0)
(9.05145 0.00326193 0)
(8.97247 -0.00279929 0)
(8.90257 -0.00635487 0)
(8.8404 -0.00847412 0)
(8.7847 -0.00972497 0)
(8.73459 -0.010471 0)
(8.68917 -0.0109743 0)
(8.64783 -0.0112438 0)
(8.60963 -0.0114509 0)
(8.57429 -0.0121117 0)
(0.00673111 -0.0156391 -8.82534e-19)
(0.0200031 -0.0198269 6.80705e-19)
(0.0292567 -0.0134145 0)
(0.0329896 -0.00408463 0)
(0.0305993 0.00449004 0)
(0.023299 0.0109096 -3.10091e-19)
(0.0123565 0.0151242 0)
(-0.001176 0.0176259 0)
(-0.0165112 0.0190183 0)
(-0.0331512 0.0198066 0)
(-0.0507757 0.0203272 1.65501e-19)
(-0.0691895 0.0207724 0)
(-0.0882857 0.0212501 0)
(-0.10801 0.0218132 0)
(-0.128338 0.0224852 0)
(-0.149269 0.0232619 1.07542e-19)
(-0.170803 0.0241115 0)
(-0.192941 0.0249598 0)
(-0.215684 0.0256877 0)
(-0.239038 0.0261521 0)
(-0.263011 0.026154 0)
(-0.287571 0.0256133 0)
(-0.312676 0.0242885 0)
(-0.338386 0.0184692 8.8934e-20)
(-0.364344 0.00809636 -8.50547e-20)
(-0.388476 0.00563396 8.115e-20)
(-0.412686 0.0118738 7.76176e-20)
(-0.440168 0.0176419 0)
(-0.469172 0.0239801 0)
(-0.499588 0.0327442 -6.77256e-20)
(-0.531445 0.0464199 -6.55895e-20)
(-0.565343 0.0650159 0)
(-0.603551 0.0511002 0)
(-0.643076 0.0276048 -9.60633e-20)
(-0.678308 0.03461 0)
(-0.719617 0.0403158 0)
(-0.758904 0.0400891 8.1761e-20)
(-0.798567 0.0265519 0)
(-0.834734 0.0255786 7.5989e-20)
(-0.870414 0.034116 1.47494e-19)
(-0.909986 0.0348629 0)
(-0.949185 0.0349831 0)
(-0.988584 0.0349128 0)
(-1.0281 0.0348218 0)
(-1.06771 0.034668 0)
(-1.10736 0.0344669 1.23158e-19)
(-1.147 0.0342256 1.19873e-19)
(-1.18661 0.0339587 1.16784e-19)
(-1.22616 0.0336732 0)
(-1.26562 0.0333757 -1.11131e-19)
(-1.30499 0.0330689 0)
(-1.34425 0.0327555 1.06084e-19)
(-1.38338 0.0324359 1.03758e-19)
(-1.42239 0.0321107 0)
(-1.46124 0.0317787 0)
(-1.49994 0.0314394 0)
(-1.53845 0.0310914 9.55394e-20)
(-1.57678 0.030734 0)
(-1.61489 0.0303653 0)
(-1.65276 0.0299842 0)
(-1.69038 0.0295895 0)
(-1.72772 0.02918 0)
(-1.76475 0.0287545 0)
(-1.80144 0.0283117 0)
(-1.83777 0.0278506 0)
(-1.8737 0.0273704 -8.15386e-20)
(-1.9092 0.0268704 0)
(-1.94424 0.02635 0)
(-1.97877 0.025809 7.77953e-20)
(-2.01278 0.0252467 7.66201e-20)
(-2.0462 0.0246631 0)
(-2.07902 0.0240576 -7.43623e-20)
(-2.11119 0.0234304 7.32748e-20)
(-2.14266 0.0227809 0)
(-2.1734 0.0221099 -7.11703e-20)
(-2.20337 0.021417 0)
(-2.23253 0.0207037 0)
(-2.26082 0.0199698 6.81583e-20)
(-2.28821 0.0192161 0)
(-2.31466 0.0184417 -6.62235e-20)
(-2.34011 0.017648 0)
(-2.36453 0.0168336 6.43298e-20)
(-2.38788 0.0159987 6.3394e-20)
(-2.4101 0.0151402 6.24633e-20)
(-2.43114 0.014257 1.23073e-19)
(-2.45097 0.0133432 -1.21224e-19)
(-2.46952 0.0123934 0)
(-2.48674 0.0113958 0)
(-2.50256 0.0103392 0)
(-2.51693 0.00921026 -1.1381e-19)
(-2.52979 0.00800156 -1.11936e-19)
(-2.54107 0.0067278 1.1005e-19)
(-2.55069 0.00542058 0)
(-2.55854 0.00411369 -1.06254e-19)
(-2.56448 0.00282797 -1.04343e-19)
(-2.56841 0.00159449 -1.02419e-19)
(-2.57021 0.0004879 0)
(-2.5704 -0.000512683 0)
(-2.5689 -0.00149203 0)
(-2.56574 -0.00246654 -9.4168e-20)
(-2.56091 -0.00344585 0)
(-2.55437 -0.00443152 0)
(-2.54611 -0.00542371 8.7457e-20)
(-2.53609 -0.00642254 0)
(-2.52431 -0.00742585 0)
(-2.51072 -0.00843437 8.01803e-20)
(-2.49531 -0.00944547 0)
(-2.47807 -0.0104606 0)
(-2.45897 -0.0114773 -7.2221e-20)
(-2.43802 -0.0124968 -6.93942e-20)
(-2.41519 -0.0135163 0)
(-2.3905 -0.0145368 6.34495e-20)
(-2.36393 -0.0155552 0)
(-2.33548 -0.0165718 -5.70802e-20)
(-2.30518 -0.0175839 0)
(-2.27302 -0.0185911 -5.02396e-20)
(-2.23903 -0.019591 -4.6627e-20)
(-2.20322 -0.0205823 0)
(-2.16563 -0.0215618 0)
(-2.12627 -0.0225269 0)
(-2.08518 -0.0234753 0)
(-2.0424 -0.0244056 0)
(-1.99797 -0.0253186 0)
(-1.95194 -0.0262103 0)
(-1.90437 -0.02708 -1.22186e-20)
(-1.85531 -0.0279229 7.11734e-21)
(-1.80482 -0.0287431 0)
(-1.75298 -0.0295356 0)
(-1.69985 -0.0303 0)
(-1.64551 -0.0310258 0)
(-1.59003 -0.0317205 -4.32341e-20)
(-1.5335 -0.0323704 0)
(-1.476 -0.0329814 6.95875e-20)
(-1.41764 -0.0335435 -8.35654e-20)
(-1.3585 -0.0340618 0)
(-1.2987 -0.0345272 0)
(-1.23832 -0.0349444 0)
(-1.17749 -0.0353056 1.45332e-19)
(-1.1163 -0.0356146 1.62358e-19)
(-1.05486 -0.0358637 0)
(-0.993264 -0.036054 1.98515e-19)
(-0.931599 -0.0361814 2.17714e-19)
(-0.86997 -0.036246 -2.37707e-19)
(-0.808484 -0.0362489 0)
(-0.747246 -0.0361927 0)
(-0.686354 -0.0360802 -3.02828e-19)
(-0.625901 -0.0359133 0)
(-0.565972 -0.035695 0)
(-0.506651 -0.035427 0)
(-0.448012 -0.0351119 0)
(-0.390125 -0.0347523 4.31276e-19)
(-0.333056 -0.0343501 4.60453e-19)
(-0.276864 -0.0339071 0)
(-0.221603 -0.0334258 5.22839e-19)
(-0.167329 -0.0329017 0)
(-0.114089 -0.0323421 0)
(-0.0619279 -0.0317473 6.27714e-19)
(-0.0109101 -0.0310675 0)
(0.0388927 -0.0300489 6.79627e-19)
(0.0873674 -0.028688 0)
(0.134609 -0.0272826 0)
(0.180484 -0.0259154 6.44137e-19)
(0.225021 -0.0246085 0)
(0.268294 -0.0233727 6.2413e-19)
(0.310365 -0.0222056 0)
(0.351302 -0.0211007 0)
(0.391178 -0.0200465 0)
(0.430066 -0.0190405 -5.89617e-19)
(0.468039 -0.0180795 0)
(0.505169 -0.017161 5.73964e-19)
(0.541522 -0.0162705 0)
(0.577155 -0.0153985 0)
(0.61212 -0.0145469 0)
(0.646435 -0.0137228 0)
(0.680008 -0.0128184 0)
(0.712414 -0.0117632 0)
(0.743722 -0.0103717 0)
(0.769225 -0.0079893 -1.04089e-18)
(0.796235 -0.00376987 0)
(0.774535 0.011682 0)
(0.00457681 -0.0401963 1.97974e-18)
(0.00829087 -0.0315769 -1.02151e-18)
(0.00611262 -0.0140457 0)
(0.000695979 0.00276802 3.1115e-19)
(-0.00726214 0.0173545 0)
(-0.0177181 0.0290964 1.15675e-19)
(-0.0305207 0.0379946 -2.09716e-19)
(-0.0454868 0.0444567 -1.92353e-19)
(-0.0623547 0.0490577 0)
(-0.0808386 0.0523581 -1.6474e-19)
(-0.10069 0.0548076 -7.68516e-20)
(-0.121716 0.0567248 0)
(-0.143783 0.0583196 0)
(-0.166806 0.0597229 0)
(-0.190742 0.0610136 0)
(-0.215587 0.0622374 -5.90449e-20)
(-0.241358 0.0634213 0)
(-0.268095 0.0645807 1.11266e-19)
(-0.295856 0.0657313 0)
(-0.324687 0.0669021 0)
(-0.354626 0.0681393 -1.07662e-19)
(-0.38568 0.0694824 0)
(-0.41766 0.0709554 1.07963e-19)
(-0.450996 0.0723487 -5.35767e-20)
(-0.486174 0.0736189 5.25576e-20)
(-0.522978 0.0754382 -5.17487e-20)
(-0.561044 0.0779197 -5.08906e-20)
(-0.599504 0.0801046 0)
(-0.638149 0.0820632 0)
(-0.677163 0.0837661 4.63309e-20)
(-0.716982 0.0846134 -4.61438e-20)
(-0.755482 0.085465 0)
(-0.795758 0.086411 0)
(-0.835476 0.0876891 4.80835e-20)
(-0.875686 0.0900464 0)
(-0.913121 0.0908736 0)
(-0.950275 0.0910099 -4.1569e-20)
(-0.988855 0.0906086 0)
(-1.02847 0.0904461 3.85889e-20)
(-1.06778 0.0906625 -7.53061e-20)
(-1.10574 0.090585 0)
(-1.14327 0.0901984 0)
(-1.18044 0.0896269 -1.40214e-19)
(-1.21729 0.0889235 -1.372e-19)
(-1.25385 0.0881279 -1.34341e-19)
(-1.29014 0.0872647 6.56557e-20)
(-1.32619 0.0863537 -6.46731e-20)
(-1.362 0.0854094 -1.90009e-19)
(-1.39759 0.0844414 1.24215e-19)
(-1.43295 0.0834563 6.11376e-20)
(-1.46808 0.082457 0)
(-1.50298 0.0814452 -5.90276e-20)
(-1.53763 0.0804207 5.77291e-20)
(-1.57203 0.0793825 0)
(-1.60616 0.0783282 0)
(-1.64002 0.0772557 0)
(-1.67359 0.076162 -5.44243e-20)
(-1.70684 0.0750447 0)
(-1.73977 0.0739007 1.05301e-19)
(-1.77234 0.0727274 0)
(-1.80455 0.0715224 1.02248e-19)
(-1.83637 0.0702835 0)
(-1.86776 0.0690085 -9.93635e-20)
(-1.89872 0.0676952 0)
(-1.9292 0.0663419 9.66224e-20)
(-1.95918 0.0649471 -4.7517e-20)
(-1.98864 0.0635098 0)
(-2.01754 0.0620291 -9.27324e-20)
(-2.04586 0.0605047 -4.58664e-20)
(-2.07355 0.0589357 -4.52501e-20)
(-2.1006 0.0573223 0)
(-2.12696 0.0556639 -4.38153e-20)
(-2.15261 0.0539608 -4.34516e-20)
(-2.1775 0.0522127 0)
(-2.20162 0.0504204 4.22849e-20)
(-2.22491 0.0485839 -8.32189e-20)
(-2.24736 0.0467051 0)
(-2.26891 0.0447844 -4.05646e-20)
(-2.28954 0.0428231 0)
(-2.30921 0.0408207 1.18119e-19)
(-2.32788 0.038779 0)
(-2.34552 0.0366974 -1.14725e-19)
(-2.36209 0.0345777 -3.77183e-20)
(-2.37756 0.0324187 3.70222e-20)
(-2.39188 0.0302232 7.29123e-20)
(-2.40502 0.0279912 -7.17729e-20)
(-2.41696 0.0257258 0)
(-2.42765 0.0234257 0)
(-2.43705 0.0210896 0)
(-2.44513 0.0187081 2.01556e-19)
(-2.45188 0.0162669 6.59951e-20)
(-2.45728 0.0137557 -6.4754e-20)
(-2.46133 0.0111753 0)
(-2.46407 0.0085424 -6.22459e-20)
(-2.46556 0.00588906 6.09464e-20)
(-2.46589 0.00327444 5.96243e-20)
(-2.46515 0.000779287 0)
(-2.46292 -0.0016128 0)
(-2.45914 -0.00397554 0)
(-2.45375 -0.00632521 5.40417e-20)
(-2.44671 -0.00867187 0)
(-2.43799 -0.0110166 -1.02408e-19)
(-2.42757 -0.013358 -1.48977e-19)
(-2.41542 -0.0156938 9.63382e-20)
(-2.40152 -0.0180194 0)
(-2.38584 -0.020332 4.51863e-20)
(-2.36837 -0.0226268 0)
(-2.34908 -0.0249021 8.34118e-20)
(-2.32797 -0.0271532 -4.02341e-20)
(-2.30503 -0.0293785 -3.85089e-20)
(-2.28025 -0.0315728 0)
(-2.25362 -0.0337341 -1.03656e-19)
(-2.22516 -0.0358568 6.55654e-20)
(-2.19485 -0.0379379 3.05441e-20)
(-2.16271 -0.0399718 0)
(-2.12876 -0.0419553 2.65525e-20)
(-2.09301 -0.0438835 7.42419e-20)
(-2.05548 -0.0457533 0)
(-2.0162 -0.0475587 4.12935e-20)
(-1.97519 -0.049294 3.69196e-20)
(-1.93251 -0.0509529 3.24482e-20)
(-1.88817 -0.052531 0)
(-1.84224 -0.0540287 0)
(-1.79476 -0.0554469 0)
(-1.74579 -0.0567897 -7.33376e-21)
(-1.6954 -0.0580404 -3.73683e-21)
(-1.64365 -0.0591859 0)
(-1.5906 -0.06023 1.61151e-21)
(-1.53634 -0.0611926 6.86237e-21)
(-1.48094 -0.0620592 0)
(-1.42448 -0.0628223 1.89369e-20)
(-1.36704 -0.0634746 4.63123e-20)
(-1.30872 -0.0640204 -3.01128e-20)
(-1.24962 -0.0644517 -3.30598e-20)
(-1.18983 -0.0647739 0)
(-1.12946 -0.0649808 0)
(-1.06861 -0.0650783 0)
(-1.0074 -0.0650631 -5.93132e-20)
(-0.945923 -0.0649394 6.23986e-20)
(-0.884289 -0.0647058 1.39826e-19)
(-0.822594 -0.0643631 -7.74843e-20)
(-0.760937 -0.0639128 8.0652e-20)
(-0.699421 -0.0633555 8.97727e-20)
(-0.638151 -0.062699 0)
(-0.577228 -0.0619483 0)
(-0.516751 -0.0611135 -1.05398e-19)
(-0.456811 -0.060199 0)
(-0.397492 -0.0592148 0)
(-0.338876 -0.0581654 2.50826e-19)
(-0.281037 -0.0570589 0)
(-0.224044 -0.0559019 1.36287e-19)
(-0.167962 -0.0547 -1.45071e-19)
(-0.112846 -0.0534532 0)
(-0.058751 -0.0521659 1.54391e-19)
(-0.00571946 -0.0508431 0)
(0.046221 -0.0495116 0)
(0.097009 -0.0481676 -1.684e-19)
(0.146658 -0.0467699 3.38389e-19)
(0.195142 -0.045218 -1.72104e-19)
(0.24242 -0.0435078 0)
(0.288552 -0.0417838 0)
(0.333575 -0.0401115 1.75442e-19)
(0.377526 -0.0385138 0)
(0.420446 -0.0370059 1.78307e-19)
(0.462386 -0.0355934 0)
(0.503411 -0.0342715 0)
(0.5436 -0.0330397 0)
(0.583038 -0.0318961 1.83209e-19)
(0.62181 -0.0308421 0)
(0.660008 -0.0298709 -1.83822e-19)
(0.697727 -0.0289773 0)
(0.735052 -0.0281455 0)
(0.772056 -0.027355 3.66089e-19)
(0.808761 -0.0265669 -3.65239e-19)
(0.845144 -0.0256882 0)
(0.880897 -0.0245302 0)
(0.915937 -0.0226297 0)
(0.947484 -0.0191337 1.0857e-18)
(0.979831 -0.0114673 0)
(0.991263 0.00882965 -7.37935e-19)
(-0.00217988 -0.0427535 -1.00364e-21)
(-0.00708196 -0.0202838 9.72323e-19)
(-0.0155533 0.00293461 0)
(-0.0262092 0.0232644 -3.88734e-19)
(-0.0383152 0.0408154 0)
(-0.051628 0.0556413 0)
(-0.0662473 0.0678177 3.60781e-23)
(-0.0823012 0.0775652 1.20758e-19)
(-0.0998335 0.0852497 1.13653e-19)
(-0.118806 0.0913052 1.07691e-19)
(-0.139133 0.0961554 0)
(-0.160713 0.100164 0)
(-0.183451 0.103619 -9.3686e-20)
(-0.207275 0.106738 -1.80194e-19)
(-0.232136 0.109684 1.73997e-19)
(-0.258012 0.112579 0)
(-0.284902 0.115516 1.64508e-19)
(-0.312825 0.118568 -8.06187e-20)
(-0.34181 0.121782 0)
(-0.37189 0.125177 1.56981e-19)
(-0.403072 0.128726 7.78561e-20)
(-0.435322 0.132312 -1.54225e-19)
(-0.468559 0.135707 -7.62547e-20)
(-0.502823 0.138555 0)
(-0.53815 0.140809 1.46442e-19)
(-0.574291 0.143214 1.42901e-19)
(-0.610738 0.145859 0)
(-0.647083 0.14826 1.35038e-19)
(-0.683224 0.150441 0)
(-0.719075 0.152817 1.28156e-19)
(-0.754503 0.155291 6.32359e-20)
(-0.789237 0.157117 0)
(-0.823865 0.157386 0)
(-0.858537 0.156686 0)
(-0.892837 0.156045 0)
(-0.926262 0.154715 0)
(-0.9595 0.152647 0)
(-0.993145 0.149933 1.05299e-19)
(-1.02724 0.147863 -1.54208e-19)
(-1.06113 0.146354 0)
(-1.09444 0.144768 0)
(-1.12744 0.143159 0)
(-1.16018 0.141542 1.30735e-22)
(-1.19272 0.139916 9.25762e-20)
(-1.22506 0.138277 1.81489e-19)
(-1.25723 0.136623 -1.78124e-19)
(-1.28923 0.134956 -8.73726e-20)
(-1.32107 0.133277 8.59901e-20)
(-1.35275 0.131588 -1.65029e-22)
(-1.38428 0.129889 8.29205e-20)
(-1.41564 0.128178 0)
(-1.44684 0.126454 8.02277e-20)
(-1.47787 0.124714 -1.71337e-22)
(-1.5087 0.122953 0)
(-1.53934 0.121168 0)
(-1.56976 0.119353 -7.53704e-20)
(-1.59996 0.117506 0)
(-1.62991 0.115621 0)
(-1.65959 0.113693 7.19283e-20)
(-1.68899 0.11172 1.42132e-19)
(-1.71808 0.109697 -7.02266e-20)
(-1.74684 0.107622 0)
(-1.77524 0.105491 6.82771e-20)
(-1.80327 0.103301 0)
(-1.83089 0.10105 6.60876e-20)
(-1.85808 0.0987363 6.54971e-20)
(-1.88481 0.0963587 -1.28897e-19)
(-1.91105 0.0939158 -6.34203e-20)
(-1.93677 0.0914072 0)
(-1.96194 0.088832 1.23703e-19)
(-1.98653 0.0861903 0)
(-2.01051 0.0834819 1.8065e-19)
(-2.03384 0.0807074 1.18687e-19)
(-2.05649 0.0778667 1.17042e-19)
(-2.07843 0.0749611 -1.15408e-19)
(-2.09962 0.0719914 1.70789e-19)
(-2.12004 0.0689593 0)
(-2.13964 0.0658659 0)
(-2.15838 0.0627127 -1.08929e-19)
(-2.17625 0.0595005 -1.61063e-19)
(-2.19319 0.0562312 0)
(-2.20917 0.0529054 5.21168e-20)
(-2.22417 0.0495248 0)
(-2.23814 0.0460901 -1.51272e-19)
(-2.25105 0.0426038 -1.22684e-22)
(-2.26286 0.0390673 1.08717e-22)
(-2.27356 0.035484 9.58206e-20)
(-2.28309 0.0318557 0)
(-2.29143 0.0281855 -9.2427e-20)
(-2.29856 0.0244746 -4.96418e-23)
(-2.30445 0.0207257 0)
(-2.30911 0.0169471 0)
(-2.31251 0.0131547 0)
(-2.31464 0.00936865 8.36041e-20)
(-2.31547 0.0056077 0)
(-2.31497 0.00187784 0)
(-2.31308 -0.00184816 0)
(-2.3097 -0.00558879 0)
(-2.30479 -0.00933409 0)
(-2.29833 -0.01308 7.19748e-20)
(-2.29027 -0.0168247 0)
(-2.28058 -0.0205646 6.76724e-20)
(-2.26924 -0.0242959 6.55372e-20)
(-2.25622 -0.028013 -6.33671e-20)
(-2.2415 -0.0317102 0)
(-2.22505 -0.0353809 -5.89175e-20)
(-2.20687 -0.0390198 0)
(-2.18692 -0.042621 -5.43149e-20)
(-2.16521 -0.0461794 5.19539e-20)
(-2.14171 -0.0496889 1.49347e-19)
(-2.11643 -0.0531439 0)
(-2.08937 -0.0565378 1.3465e-19)
(-2.06051 -0.0598639 4.29238e-20)
(-2.02988 -0.0631153 0)
(-1.99747 -0.0662843 7.47336e-20)
(-1.9633 -0.0693641 6.94604e-20)
(-1.92739 -0.0723473 -9.56386e-20)
(-1.88975 -0.0752271 0)
(-1.85043 -0.0779949 -2.59991e-20)
(-1.80944 -0.0806422 -2.31637e-20)
(-1.76683 -0.0831595 -6.20621e-20)
(-1.72263 -0.0855403 0)
(-1.6769 -0.0877806 0)
(-1.62969 -0.0898807 0)
(-1.58105 -0.0918432 -9.7399e-21)
(-1.53105 -0.0936565 0)
(-1.47976 -0.0952988 0)
(-1.42724 -0.0967706 -9.80335e-22)
(-1.37357 -0.0980889 -4.15725e-21)
(-1.31884 -0.0992482 0)
(-1.26312 -0.100234 0)
(-1.2065 -0.101041 -2.76946e-20)
(-1.14907 -0.101667 0)
(-1.09092 -0.102109 4.0821e-20)
(-1.03215 -0.102368 4.5716e-20)
(-0.97287 -0.102443 0)
(-0.913177 -0.102336 0)
(-0.85318 -0.10205 -6.55575e-20)
(-0.79298 -0.101587 -1.76986e-21)
(-0.732679 -0.10095 -1.7768e-21)
(-0.672374 -0.10014 0)
(-0.612163 -0.0991621 -1.85665e-19)
(-0.552145 -0.0980208 0)
(-0.49242 -0.0967272 0)
(-0.433085 -0.0952919 0)
(-0.374233 -0.0937282 1.19527e-19)
(-0.315949 -0.0920464 0)
(-0.258315 -0.0902602 -2.60636e-19)
(-0.201406 -0.08838 -1.3816e-19)
(-0.14529 -0.0864165 0)
(-0.0900312 -0.0843788 -1.50118e-19)
(-0.0356877 -0.0822781 0)
(0.0177012 -0.0801317 0)
(0.0700845 -0.0779531 -4.92244e-19)
(0.121423 -0.07574 3.34201e-19)
(0.171689 -0.0734845 0)
(0.220861 -0.0711982 3.47168e-19)
(0.268955 -0.0688987 -1.77881e-19)
(0.315985 -0.0666108 0)
(0.361982 -0.0643337 0)
(0.406973 -0.062077 0)
(0.450996 -0.0598838 -5.63048e-19)
(0.494088 -0.0577815 0)
(0.536291 -0.0557858 -1.92673e-19)
(0.57766 -0.0539081 0)
(0.618262 -0.0521497 0)
(0.658182 -0.0505157 0)
(0.697508 -0.0490067 0)
(0.736338 -0.0476277 0)
(0.774773 -0.0463717 0)
(0.812919 -0.0452335 -4.01553e-19)
(0.850875 -0.0441913 0)
(0.888724 -0.0432157 -2.02029e-19)
(0.926505 -0.0422395 6.0526e-19)
(0.964224 -0.0411308 0)
(1.00166 -0.0396253 0)
(1.03881 -0.0371714 -4.02684e-19)
(1.07383 -0.0327012 -4.03441e-19)
(1.11059 -0.0238997 4.04791e-19)
(1.13593 -0.00347144 4.11286e-19)
(-0.00808831 -0.0273918 -2.99694e-18)
(-0.0184844 0.00305633 -1.1618e-18)
(-0.0308707 0.029041 -4.19147e-19)
(-0.0451493 0.0510311 -1.50305e-19)
(-0.0603072 0.070085 0)
(-0.0760323 0.0865843 2.17731e-19)
(-0.0924723 0.100701 -9.94608e-20)
(-0.109822 0.112608 0)
(-0.128219 0.12255 -8.78066e-20)
(-0.147735 0.130841 0)
(-0.16839 0.137819 1.6014e-19)
(-0.190164 0.143808 0)
(-0.213018 0.149096 7.41698e-20)
(-0.236907 0.15392 1.43419e-19)
(-0.261787 0.158471 -1.39088e-19)
(-0.287621 0.162898 0)
(-0.314372 0.167312 -1.32092e-19)
(-0.342003 0.171782 0)
(-0.370469 0.176333 0)
(-0.399717 0.180933 -1.25087e-19)
(-0.429675 0.185476 0)
(-0.460259 0.189784 8.92801e-23)
(-0.491391 0.193636 0)
(-0.523015 0.196856 0)
(-0.555065 0.199436 -2.11759e-22)
(-0.5874 0.201618 -1.10869e-19)
(-0.619758 0.203534 -1.07451e-19)
(-0.651941 0.205151 -1.04498e-19)
(-0.683845 0.206523 0)
(-0.715365 0.207716 -1.97489e-19)
(-0.746411 0.208571 0)
(-0.777026 0.208819 -9.42818e-20)
(-0.807407 0.208337 0)
(-0.837679 0.207317 0)
(-0.867774 0.205936 8.78952e-20)
(-0.897657 0.204097 0)
(-0.927454 0.201868 -8.36042e-20)
(-0.957285 0.19937 -4.61613e-23)
(-0.987145 0.196946 1.59817e-19)
(-1.01687 0.194654 -1.56391e-19)
(-1.04642 0.192364 0)
(-1.07583 0.190076 0)
(-1.10513 0.1878 -7.35534e-20)
(-1.13433 0.185541 0)
(-1.16344 0.183296 -7.09281e-20)
(-1.19244 0.181059 6.9665e-20)
(-1.22136 0.178827 6.84535e-20)
(-1.25018 0.176595 0)
(-1.2789 0.174358 -6.61693e-20)
(-1.30753 0.172113 -6.509e-20)
(-1.33604 0.169854 1.27952e-19)
(-1.36444 0.167575 -6.30422e-20)
(-1.39272 0.165272 -6.20684e-20)
(-1.42085 0.162939 0)
(-1.44884 0.160568 0)
(-1.47665 0.158155 5.93201e-20)
(-1.50428 0.155693 0)