# vtk DataFile Version 2.0
track0
ASCII
DATASET POLYDATA
POINTS 12040 float
-0.0205 0.001 1e-05
-0.02052 0.000999985 1e-05
-0.02054 0.000999974 1e-05
-0.02056 0.000999965 1e-05
-0.02058 0.000999959 1e-05
-0.0206 0.000999956 1e-05
-0.0205 0.00367778 1e-05
-0.02052 0.00367778 1e-05
-0.02054 0.00367777 1e-05
-0.02056 0.00367777 1e-05
-0.02058 0.00367777 1e-05
-0.0206 0.00367777 1e-05
-0.0205 0.00635556 1e-05
-0.02052 0.00635555 1e-05
-0.02054 0.00635555 1e-05
-0.02056 0.00635555 1e-05
-0.02058 0.00635555 1e-05
-0.0206 0.00635555 1e-05
-0.0205 0.00903333 1e-05
-0.02052 0.00903333 1e-05
-0.02054 0.00903333 1e-05
-0.02056 0.00903333 1e-05
-0.02058 0.00903333 1e-05
-0.0206 0.00903333 1e-05
-0.0205 0.0117111 1e-05
-0.02052 0.0117111 1e-05
-0.02054 0.0117111 1e-05
-0.02056 0.0117111 1e-05
-0.02058 0.0117111 1e-05
-0.0206 0.0117111 1e-05
-0.0205 0.0143889 1e-05
-0.02052 0.0143889 1e-05
-0.02054 0.0143889 1e-05
-0.02056 0.0143889 1e-05
-0.02058 0.0143889 1e-05
-0.0206 0.0143889 1e-05
-0.0205 0.0170667 1e-05
-0.02052 0.0170667 1e-05
-0.02054 0.0170667 1e-05
-0.02056 0.0170667 1e-05
-0.02058 0.0170667 1e-05
-0.0206 0.0170667 1e-05
-0.0205 0.0197444 1e-05
-0.02052 0.0197444 1e-05
-0.02054 0.0197444 1e-05
-0.02056 0.0197444 1e-05
-0.02058 0.0197444 1e-05
-0.0206 0.0197444 1e-05
-0.0205 0.0224222 1e-05
-0.02052 0.0224222 1e-05
-0.02054 0.0224222 1e-05
-0.02056 0.0224222 1e-05
-0.02058 0.0224222 1e-05
-0.0206 0.0224222 1e-05
-0.0205 0.0251 1e-05
-0.02052 0.0250998 1e-05
-0.02054 0.0250997 1e-05
-0.02056 0.0250995 1e-05
-0.02058 0.0250995 1e-05
-0.0206 0.0250994 1e-05
-0.0205 0.001 1e-05
-0.0202034 0.00100022 1e-05
-0.0199069 0.00100067 1e-05
-0.0196103 0.00100133 1e-05
-0.0193137 0.00100219 1e-05
-0.0190172 0.00100326 1e-05
-0.0187132 0.00100467 1e-05
-0.0184093 0.00100589 1e-05
-0.0181054 0.00100711 1e-05
-0.0178015 0.00100832 1e-05
-0.0174976 0.00100954 1e-05
-0.0172058 0.00101083 1e-05
-0.016914 0.00101193 1e-05
-0.0166222 0.00101303 1e-05
-0.0163305 0.00101413 1e-05
-0.0160387 0.00101523 1e-05
-0.0157586 0.00101636 1e-05
-0.0154784 0.00101744 1e-05
-0.0151983 0.00101856 1e-05
-0.0149182 0.00101971 1e-05
-0.0146381 0.0010209 1e-05
-0.0143744 0.00102209 1e-05
-0.0141108 0.00102327 1e-05
-0.0138471 0.00102449 1e-05
-0.0135835 0.00102574 1e-05
-0.0133608 0.00102682 1e-05
-0.0133473 0.00102688 1e-05
-0.0133339 0.00102695 1e-05
-0.0133204 0.00102702 1e-05
-0.0133069 0.00102708 1e-05
-0.0132934 0.00102715 1e-05
-0.0130353 0.00102844 1e-05
-0.0127771 0.00102974 1e-05
-0.0125189 0.00103106 1e-05
-0.0122607 0.00103239 1e-05
-0.0120025 0.00103374 1e-05
-0.0117547 0.00103505 1e-05
-0.0115068 0.00103637 1e-05
-0.0112589 0.00103769 1e-05
-0.0110111 0.00103901 1e-05
-0.0107632 0.00104034 1e-05
-0.0105252 0.00104161 1e-05
-0.0102873 0.00104289 1e-05
-0.0100493 0.00104417 1e-05
-0.00981133 0.00104545 1e-05
-0.00957337 0.00104672 1e-05
-0.00934491 0.00104794 1e-05
-0.00911645 0.00104917 1e-05
-0.00888799 0.00105038 1e-05
-0.00865954 0.0010516 1e-05
-0.00843108 0.00105281 1e-05
-0.00821175 0.00105397 1e-05
-0.00799242 0.00105512 1e-05
-0.00777309 0.00105628 1e-05
-0.00755376 0.00105742 1e-05
-0.00733443 0.00105857 1e-05
-0.00712387 0.00105966 1e-05
-0.0069133 0.00106075 1e-05
-0.00670273 0.00106183 1e-05
-0.00649216 0.00106291 1e-05
-0.0062816 0.00106399 1e-05
-0.00607944 0.00106501 1e-05
-0.00587729 0.00106604 1e-05
-0.00567514 0.00106706 1e-05
-0.00547298 0.00106807 1e-05
-0.00527083 0.00106908 1e-05
-0.00507675 0.00107004 1e-05
-0.00488267 0.00107101 1e-05
-0.0046886 0.00107197 1e-05
-0.00449452 0.00107292 1e-05
-0.00430044 0.00107387 1e-05
-0.00411412 0.00107477 1e-05
-0.0039278 0.00107568 1e-05
-0.00374147 0.00107658 1e-05
-0.00355515 0.00107748 1e-05
-0.00336883 0.00107837 1e-05
-0.00318995 0.00107922 1e-05
-0.00301107 0.00108007 1e-05
-0.00283219 0.00108092 1e-05
-0.00265331 0.00108177 1e-05
-0.00247443 0.00108261 1e-05
-0.0023027 0.00108341 1e-05
-0.00213097 0.00108422 1e-05
-0.00195924 0.00108502 1e-05
-0.0017875 0.00108582 1e-05
-0.00161577 0.00108662 1e-05
-0.0014509 0.00108737 1e-05
-0.00128603 0.00108813 1e-05
-0.00112116 0.00108889 1e-05
-0.000956289 0.00108965 1e-05
-0.000791418 0.00109041 1e-05
-0.000633135 0.00109114 1e-05
-0.000474851 0.00109187 1e-05
-0.000316567 0.00109259 1e-05
-0.000158284 0.00109332 1e-05
0 0.00109404 1e-05
0.000105677 0.00109452 1e-05
0.000211355 0.00109499 1e-05
0.000317032 0.00109546 1e-05
0.00042271 0.00109593 1e-05
0.000528387 0.0010964 1e-05
0.000634886 0.00109686 1e-05
0.000741385 0.00109733 1e-05
0.000847885 0.00109779 1e-05
0.000954384 0.00109824 1e-05
0.00106088 0.0010987 1e-05
0.00116821 0.00109915 1e-05
0.00127554 0.00109959 1e-05
0.00138286 0.00110004 1e-05
0.00149019 0.00110047 1e-05
0.00159752 0.0011009 1e-05
0.00170568 0.00110133 1e-05
0.00181384 0.00110175 1e-05
0.001922 0.00110216 1e-05
0.00203016 0.00110257 1e-05
0.00213833 0.00110296 1e-05
0.00224733 0.00110335 1e-05
0.00235633 0.00110374 1e-05
0.00246533 0.00110411 1e-05
0.00257434 0.00110448 1e-05
0.00268334 0.00110484 1e-05
0.00279319 0.00110518 1e-05
0.00290304 0.00110553 1e-05
0.00301289 0.00110587 1e-05
0.00312274 0.0011062 1e-05
0.00323259 0.00110652 1e-05
0.00334329 0.00110683 1e-05
0.003454 0.00110714 1e-05
0.0035647 0.00110744 1e-05
0.0036754 0.00110773 1e-05
0.00378611 0.00110802 1e-05
0.00389767 0.0011083 1e-05
0.00400924 0.00110857 1e-05
0.0041208 0.00110884 1e-05
0.00423237 0.00110909 1e-05
0.00434393 0.00110934 1e-05
0.00445636 0.00110958 1e-05
0.00456879 0.00110982 1e-05
0.00468123 0.00111005 1e-05
0.00479366 0.00111027 1e-05
0.00490609 0.00111049 1e-05
0.0050194 0.00111069 1e-05
0.0051327 0.00111089 1e-05
0.00524601 0.00111108 1e-05
0.00535932 0.00111127 1e-05
0.00547262 0.00111144 1e-05
0.00558681 0.00111161 1e-05
0.005701 0.00111177 1e-05
0.00581518 0.00111193 1e-05
0.00592937 0.00111208 1e-05
0.00604356 0.00111222 1e-05
0.00615863 0.00111235 1e-05
0.00627371 0.00111248 1e-05
0.00638878 0.0011126 1e-05
0.00650386 0.00111271 1e-05
0.00661893 0.00111281 1e-05
0.0067349 0.00111291 1e-05
0.00685087 0.001113 1e-05
0.00696684 0.00111308 1e-05
0.00708281 0.00111315 1e-05
0.00719878 0.00111322 1e-05
0.00727073 0.00111326 1e-05
0.00734268 0.00111329 1e-05
0.00741463 0.00111332 1e-05
0.00748658 0.00111335 1e-05
0.00755612 0.00111338 1e-05
0.00760153 0.00111339 1e-05
0.00764693 0.0011134 1e-05
0.00769233 0.00111342 1e-05
0.00773773 0.00111343 1e-05
0.00778313 0.00111344 1e-05
0.00790091 0.00111346 1e-05
0.00801869 0.00111347 1e-05
0.00813647 0.00111348 1e-05
0.00825425 0.00111348 1e-05
0.00837203 0.00111347 1e-05
0.00849073 0.00111345 1e-05
0.00860942 0.00111342 1e-05
0.00872812 0.00111339 1e-05
0.00884682 0.00111335 1e-05
0.00896551 0.0011133 1e-05
0.00908513 0.00111324 1e-05
0.00920475 0.00111318 1e-05
0.00932437 0.0011131 1e-05
0.00944398 0.00111302 1e-05
0.0095636 0.00111294 1e-05
0.00968415 0.00111283 1e-05
0.0098047 0.00111272 1e-05
0.00992525 0.00111261 1e-05
0.0100458 0.00111249 1e-05
0.0101663 0.00111236 1e-05
0.0102878 0.00111221 1e-05
0.0104093 0.00111206 1e-05
0.0105308 0.00111191 1e-05
0.0106523 0.00111174 1e-05
0.0107738 0.00111157 1e-05
0.0108962 0.00111138 1e-05
0.0110186 0.00111119 1e-05
0.0111411 0.00111099 1e-05
0.0112635 0.00111078 1e-05
0.0113859 0.00111057 1e-05
0.0115093 0.00111033 1e-05
0.0116327 0.00111009 1e-05
0.0117561 0.00110985 1e-05
0.0118795 0.0011096 1e-05
0.0120028 0.00110934 1e-05
0.0121272 0.00110905 1e-05
0.0122515 0.00110877 1e-05
0.0123759 0.00110849 1e-05
0.0125002 0.00110819 1e-05
0.0126245 0.00110789 1e-05
0.0127498 0.00110756 1e-05
0.0128752 0.00110723 1e-05
0.0130005 0.0011069 1e-05
0.0131258 0.00110655 1e-05
0.0132511 0.0011062 1e-05
0.0133774 0.00110583 1e-05
0.0135036 0.00110545 1e-05
0.0136299 0.00110507 1e-05
0.0137562 0.00110468 1e-05
0.0138825 0.00110428 1e-05
0.0140098 0.00110386 1e-05
0.014137 0.00110344 1e-05
0.0142643 0.00110301 1e-05
0.0143915 0.00110257 1e-05
0.0145188 0.00110212 1e-05
0.0146471 0.00110165 1e-05
0.0147753 0.00110118 1e-05
0.0149036 0.0011007 1e-05
0.0150318 0.00110022 1e-05
0.0151601 0.00109972 1e-05
0.0152893 0.0010992 1e-05
0.0154186 0.00109868 1e-05
0.0155478 0.00109815 1e-05
0.0156771 0.00109761 1e-05
0.0158063 0.00109707 1e-05
0.0159366 0.0010965 1e-05
0.0160668 0.00109593 1e-05
0.0161971 0.00109535 1e-05
0.0163274 0.00109476 1e-05
0.0164576 0.00109417 1e-05
0.0165889 0.00109356 1e-05
0.0167201 0.00109294 1e-05
0.0168514 0.0010923 1e-05
0.0169827 0.00109166 1e-05
0.0171139 0.00109102 1e-05
0.0172462 0.00109036 1e-05
0.0173785 0.00108969 1e-05
0.0175108 0.00108901 1e-05
0.0176431 0.00108832 1e-05
0.0177754 0.00108762 1e-05
0.0179087 0.00108691 1e-05
0.018042 0.00108619 1e-05
0.0181753 0.00108546 1e-05
0.0183087 0.00108471 1e-05
0.018442 0.00108397 1e-05
0.0185763 0.00108321 1e-05
0.0187107 0.00108244 1e-05
0.018845 0.00108166 1e-05
0.0189794 0.00108086 1e-05
0.0191137 0.00108006 1e-05
0.0192491 0.00107926 1e-05
0.0193845 0.00107844 1e-05
0.0195199 0.0010776 1e-05
0.0196553 0.00107675 1e-05
0.0197907 0.00107591 1e-05
0.0199272 0.00107506 1e-05
0.0200636 0.00107419 1e-05
0.0202001 0.0010733 1e-05
0.0203365 0.0010724 1e-05
0.020473 0.0010715 1e-05
0.0206105 0.0010706 1e-05
0.020748 0.00106968 1e-05
0.0208855 0.00106874 1e-05
0.021023 0.00106779 1e-05
0.0211606 0.00106684 1e-05
0.0212991 0.0010659 1e-05
0.0214377 0.00106493 1e-05
0.0215763 0.00106393 1e-05
0.0217149 0.00106293 1e-05
0.0218535 0.00106193 1e-05
0.0219931 0.00106094 1e-05
0.0221328 0.00105992 1e-05
0.0222724 0.00105887 1e-05
0.0224121 0.00105782 1e-05
0.0225517 0.00105677 1e-05
0.0226925 0.00105573 1e-05
0.0228332 0.00105465 1e-05
0.022974 0.00105356 1e-05
0.0231147 0.00105245 1e-05
0.0232555 0.00105135 1e-05
0.0233973 0.00105026 1e-05
0.0235391 0.00104914 1e-05
0.023681 0.00104799 1e-05
0.0238228 0.00104683 1e-05
0.0239647 0.00104568 1e-05
0.0241076 0.00104454 1e-05
0.0242505 0.00104336 1e-05
0.0243935 0.00104216 1e-05
0.0245364 0.00104095 1e-05
0.0246794 0.00103975 1e-05
0.0248234 0.00103855 1e-05
0.0249675 0.00103733 1e-05
0.0251115 0.00103607 1e-05
0.0252556 0.00103481 1e-05
[...]
POINT_DATA 12040
 FIELD attributes 1
U 3 12040 float
10.0004 	0.00734816 	0 10.0004 	0.00587852 	0 10.0003 	0.00440889 	0 10.0002 	0.00293926 	0 10.0001 	0.00146963 	0 10 	0 	0
10.0001 	0.000878064 	0 10 	0.000702451 	0 10 	0.000526838 	0 10 	0.000351226 	0 10 	0.000175613 	0 10 	0 	0
10.0001 	0.000465903 	0 10.0001 	0.000372532 	0 10.0001 	0.00027916 	0 10 	0.000185789 	0 10 	9.24176e-05 	0 10 	0 	0
10 	0.000265928 	0 10 	0.000212742 	0 10 	0.000159557 	0 10 	0.000106371 	0 10 	5.31855e-05 	0 10 	0 	0
10 	8.03023e-05 	0 10 	6.42419e-05 	0 10 	4.81814e-05 	0 10 	3.21209e-05 	0 10 	1.60605e-05 	0 10 	0 	0
10 	-2.63126e-05 	0 10 	-2.10501e-05 	0 10 	-1.57876e-05 	0 10 	-1.0525e-05 	0 10 	-5.26252e-06 	0 10 	0 	0
10 	-0.000216172 	0 10 	-0.000172938 	0 10 	-0.000129703 	0 10 	-8.64689e-05 	0 10 	-4.32344e-05 	0 10 	0 	0
10 	-0.000377702 	0 10 	-0.000302161 	0 10 	-0.000226621 	0 10 	-0.000151081 	0 10 	-7.55404e-05 	0 10 	0 	0
9.99999 	-0.00042652 	0 9.99999 	-0.000341216 	0 9.99999 	-0.000255912 	0 10 	-0.000170608 	0 10 	-8.5304e-05 	0 10 	0 	0
9.17387 	0.0871272 	0 9.1308 	0.0697018 	0 9.08741 	0.0522761 	0 9.04368 	0.0348501 	0 8.99963 	0.017424 	0 8.95524 	0 	0
10.0004 	0.00734816 	0 10.0024 	0.0152062 	0 10.0045 	0.0222279 	0 10.0065 	0.0292051 	0 10.0086 	0.0361381 	0 10.0136 	0.04633 	0 10.0164 	0.0402106 	0 10.0208 	0.040161 	0 10.0253 	0.0401115 	0 10.0297 	0.0400623 	0 10.0356 	0.0445207 	0 10.0385 	0.0378822 	0 10.0425 	0.0378386 	0 10.0464 	0.037795 	0 10.0504 	0.0377513 	0 10.0545 	0.040853 	0 10.0567 	0.0387747 	0 10.0592 	0.0400838 	0 10.0616 	0.0413945 	0 10.064 	0.0427068 	0 10.0662 	0.0451652 	0 10.0677 	0.0452761 	0 10.0691 	0.0464786 	0 10.0704 	0.0476822 	0 10.0717 	0.048887 	0 10.0729 	0.0499054 	0 10.0729 	0.0499675 	0 10.073 	0.0500295 	0 10.0731 	0.0500916 	0 10.0731 	0.0501536 	0 10.0732 	0.0502063 	0 10.0737 	0.0508325 	0 10.0743 	0.0514527 	0 10.0748 	0.0520735 	0 10.0753 	0.0526947 	0 10.0758 	0.0531521 	0 10.0757 	0.053447 	0 10.0754 	0.0536366 	0 10.075 	0.0538262 	0 10.0747 	0.054016 	0 10.0741 	0.0539675 	0 10.0737 	0.0541114 	0 10.0726 	0.054087 	0 10.0715 	0.0540626 	0 10.0705 	0.0540382 	0 10.0689 	0.0537447 	0 10.0685 	0.0538236 	0 10.0669 	0.0536889 	0 10.0653 	0.0535541 	0 10.0637 	0.0534192 	0 10.0611 	0.052998 	0 10.0611 	0.0530503 	0 10.0591 	0.0528539 	0 10.0571 	0.0526576 	0 10.0551 	0.0524611 	0 10.0515 	0.0519657 	0 10.0522 	0.0520159 	0 10.0499 	0.0517925 	0 10.0476 	0.0515691 	0 10.0453 	0.0513455 	0 10.0406 	0.0508149 	0 10.0421 	0.0508841 	0 10.0396 	0.0506551 	0 10.0371 	0.0504259 	0 10.0346 	0.0501968 	0 10.0288 	0.0496471 	0 10.0313 	0.0497412 	0 10.0287 	0.0495222 	0 10.026 	0.049303 	0 10.0234 	0.0490839 	0 10.0165 	0.0485363 	0 10.0202 	0.0486636 	0 10.0174 	0.048455 	0 10.0147 	0.0482463 	0 10.012 	0.0480376 	0 10.0039 	0.0474827 	0 10.0088 	0.047641 	0 10.0061 	0.0474768 	0 10.0033 	0.0473125 	0 10.0006 	0.0471481 	0 9.9914 	0.0466462 	0 9.99758 	0.0468657 	0 9.9949 	0.0467079 	0 9.99222 	0.04655 	0 9.98953 	0.0463922 	0 9.97911 	0.0458428 	0 9.98666 	0.0460654 	0 9.98406 	0.0460385 	0 9.98147 	0.0460116 	0 9.97887 	0.0459847 	0 9.96729 	0.0456236 	0 9.97631 	0.0459121 	9.02403e-22 9.97431 	0.0457621 	5.85002e-21 9.97231 	0.0456121 	1.07978e-20 9.97032 	0.0454621 	1.57457e-20 9.95825 	0.0448549 	1.33713e-20 9.96849 	0.044954 	9.19471e-20 9.96669 	0.0446318 	8.53389e-20 9.96488 	0.0443096 	7.8727e-20 9.96308 	0.0439873 	7.21115e-20 9.9508 	0.043298 	-1.46313e-20 9.96088 	0.0432524 	-3.96525e-20 9.95912 	0.04295 	-4.41132e-20 9.95735 	0.0426477 	-4.85723e-20 9.95559 	0.0423452 	-5.30299e-20 9.9435 	0.0417669 	-2.09006e-20 9.95313 	0.0415645 	-1.83882e-20 9.95122 	0.0410018 	-1.28009e-20 9.9493 	0.0404391 	-7.21403e-21 9.94738 	0.0398763 	-1.62758e-21 9.93551 	0.0390887 	6.86365e-21 9.94473 	0.0387763 	-5.5903e-21 9.94262 	0.0379697 	-2.37529e-20 9.94051 	0.0371629 	-4.19175e-20 9.93839 	0.036356 	-6.0084e-20 9.92663 	0.0352825 	-8.56861e-20 9.93527 	0.0350371 	-1.20896e-19 9.93281 	0.0342198 	-1.08824e-19 9.93035 	0.0334022 	-9.67457e-20 9.92788 	0.0325844 	-8.46597e-20 9.91612 	0.0313789 	-2.92025e-20 9.92403 	0.0312558 	3.33537e-20 9.92118 	0.030516 	4.651e-20 9.91832 	0.0297761 	5.96573e-20 9.91546 	0.0290358 	7.27954e-20 9.90376 	0.0278062 	3.59188e-20 9.91085 	0.0277245 	-4.49764e-20 9.90761 	0.0270214 	-5.08949e-20 9.90437 	0.0263181 	-5.67994e-20 9.90112 	0.0256145 	-6.269e-20 9.88958 	0.0243957 	-3.28819e-22 9.89573 	0.0242759 	5.84434e-20 9.89208 	0.0235799 	4.92654e-20 9.88843 	0.0228837 	4.00733e-20 9.88478 	0.0221872 	3.08674e-20 9.87348 	0.0210165 	-2.80158e-20 9.87849 	0.0208317 	-8.1157e-20 9.87439 	0.0201428 	-1.02794e-19 9.87029 	0.0194536 	-1.24425e-19 9.86617 	0.0187641 	-1.46051e-19 9.85521 	0.0176736 	-1.33461e-19 9.85887 	0.0174192 	-1.51925e-19 9.85429 	0.0167414 	-1.39798e-19 9.84971 	0.0160633 	-1.27666e-19 9.84512 	0.0153849 	-1.15531e-19 9.83466 	0.0143905 	-8.16316e-20 9.83669 	0.0140735 	-6.85255e-20 9.83164 	0.0134122 	-5.0498e-20 9.82658 	0.0127506 	-3.24722e-20 9.82151 	0.0120887 	-1.4448e-20 9.81179 	0.0111939 	1.964e-21 9.8119 	0.010809 	0 9.80638 	0.0101597 	0 9.80086 	0.00951016 	0 9.79532 	0.00886031 	0 9.78663 	0.00806041 	0 9.78447 	0.00759363 	-1.62584e-20 9.77849 	0.00695059 	-3.47394e-20 9.7725 	0.00630724 	-5.32221e-20 9.76651 	0.00566358 	-7.17064e-20 9.75919 	0.00495896 	-9.0747e-20 9.75682 	0.00463996 	-9.41058e-20 9.75287 	0.00424796 	-9.45521e-20 9.74891 	0.00385583 	-9.49965e-20 9.74495 	0.00346357 	-9.54389e-20 9.74111 	0.00308429 	-9.58648e-20 9.73858 	0.00283525 	-9.65701e-20 9.73605 	0.00258615 	-9.72756e-20 9.73351 	0.002337 	-9.79813e-20 9.73098 	0.0020878 	-9.86873e-20 9.72597 	0.00172772 	-9.86785e-20 9.72131 	0.00119621 	-7.35938e-20 9.71436 	0.000562967 	-4.52252e-20 9.7074 	-7.0665e-05 	-1.68658e-20 9.70043 	-0.000704683 	1.14843e-20 9.68462 	-0.00172705 	4.86455e-20 9.68538 	-0.00200291 	4.9505e-20 9.678 	-0.00263031 	5.06198e-20 9.67061 	-0.00325813 	5.17325e-20 9.66321 	-0.00388636 	5.28431e-20 9.64074 	-0.00515288 	5.60381e-20 9.64679 	-0.00520326 	4.41511e-20 9.639 	-0.0058247 	3.22614e-20 9.6312 	-0.0064466 	2.03707e-20 9.62339 	-0.00706895 	8.47875e-21 9.59459 	-0.00853551 	-1.0583e-21 9.60564 	-0.00840315 	-7.98304e-21 9.59746 	-0.00901896 	-1.93343e-20 9.58927 	-0.00963524 	-3.06845e-20 9.58107 	-0.010252 	-4.20336e-20 9.54641 	-0.011867 	-5.33979e-20 9.56206 	-0.0116022 	-5.32173e-20 9.55352 	-0.0122146 	-6.04143e-20 9.54497 	-0.0128275 	-6.76083e-20 9.5364 	-0.013441 	-7.47992e-20 9.4965 	-0.01515 	-9.32769e-20 9.51624 	-0.0148036 	-1.47567e-19 9.50736 	-0.0154128 	-1.38306e-19 9.49848 	-0.0160226 	-1.29057e-19 9.48958 	-0.016633 	-1.19821e-19 9.4451 	-0.0183764 	-4.0665e-20 9.46837 	-0.0179995 	-2.59647e-20 9.45918 	-0.0186052 	-1.81983e-20 9.44998 	-0.0192115 	-1.04312e-20 9.44076 	-0.0198184 	-2.66331e-21 9.39245 	-0.0215387 	0 9.41865 	-0.0211797 	0 9.40917 	-0.0217828 	0 9.39968 	-0.0223866 	0 9.39018 	-0.022991 	0 9.33878 	-0.0246378 	0 9.36731 	-0.0243434 	1.55619e-21 9.35758 	-0.024946 	8.78571e-21 9.34783 	-0.0255492 	1.60145e-20 9.33807 	-0.0261531 	2.32425e-20 9.28433 	-0.0276786 	4.08496e-20 9.3146 	-0.0274984 	1.57454e-19 9.30463 	-0.0281007 	1.60315e-19 9.29465 	-0.0287037 	1.6319e-19 9.28465 	-0.0293075 	1.66079e-19 9.22928 	-0.0306595 	4.10362e-20 9.26075 	-0.0306362 	2.19121e-20 9.25058 	-0.0312369 	1.54491e-20 9.24038 	-0.0318383 	8.98515e-21 9.22751 	-0.0324711 	3.74707e-21 9.17383 	-0.0335729 	1.72556e-20 9.2019 	-0.0337839 	1.02767e-19 9.19564 	-0.0343409 	1.12973e-19 9.18527 	-0.0349399 	1.14167e-19 9.16822 	-0.0355791 	9.9181e-20 9.11816 	-0.036415 	3.93155e-21 9.14287 	-0.0368437 	-9.72962e-20 9.14007 	-0.0374027 	-1.27325e-19 9.12953 	-0.0379989 	-1.37353e-19 9.10902 	-0.0385939 	-1.26396e-19 9.06243 	-0.0391846 	-6.04925e-20 9.08397 	-0.0398106 	-1.75094e-19 9.08407 	-0.0404145 	-2.14868e-19 9.07339 	-0.0410077 	-2.17082e-19 9.05009 	-0.0415139 	-1.70395e-19 9.00679 	-0.0418821 	-4.62659e-20 9.02538 	-0.0426847 	-2.4466e-20 9.02786 	-0.0433707 	-1.07076e-20 9.01706 	-0.0439607 	-3.57021e-21 8.99157 	-0.0443401 	0 8.95137 	-0.0445085 	0 8.96723 	-0.0454671 	0 8.97162 	-0.0462666 	0 8.96073 	-0.0468533 	0 8.9336 	-0.0470744 	1.99762e-21 8.89629 	-0.0470662 	5.2481e-21 8.90965 	-0.0481609 	2.14891e-21 8.91553 	-0.0490994 	0 8.90458 	-0.049683 	0 8.8763 	-0.0497208 	2.3801e-21 8.84168 	-0.049558 	5.63466e-21 8.85274 	-0.0507694 	2.53498e-21 8.85976 	-0.0518668 	1.17963e-21 8.84875 	-0.0524472 	7.65949e-21 8.81977 	-0.0522831 	2.40437e-20 8.78761 	-0.0519875 	4.21757e-20 8.7966 	-0.0532977 	1.65346e-19 8.80445 	-0.0545686 	2.81902e-19 8.7934 	-0.0551461 	2.85293e-19 8.76407 	-0.0547669 	1.65846e-19 8.7342 	-0.0543585 	4.26778e-20 8.74131 	-0.0557503 	2.48066e-20 8.74838 	-0.0571435 	6.93654e-21 8.73709 	-0.0576785 	2.91433e-22 8.70929 	-0.0571771 	3.42319e-21 8.6815 	-0.0566753 	6.5548e-21 8.68693 	-0.0581332 	3.58182e-21 8.69231 	-0.0595926 	6.09618e-22 8.68139 	-0.0600974 	2.0567e-21 8.65549 	-0.0595204 	-1.79799e-21 8.6296 	-0.0589431 	-5.65175e-21 8.63352 	-0.060453 	-4.8278e-20 8.63738 	-0.0619645 	-9.09079e-20 8.62687 	-0.0624393 	-9.22366e-20 8.60271 	-0.0618024 	-5.32353e-20 8.57856 	-0.061165 	-1.42322e-20 8.58113 	-0.0627164 	8.32146e-20 8.58364 	-0.0642694 	1.80656e-19 8.57358 	-0.0647156 	1.89047e-19 8.55099 	-0.0640324 	1.07886e-19 8.52843 	-0.0633487 	2.67259e-20 8.5298 	-0.0649355 	1.5546e-20 8.53112 	-0.0665238 	4.36277e-21 8.52153 	-0.066943 	4.87981e-22 8.50038 	-0.0662225 	5.02438e-21 8.47925 	-0.0655015 	9.56252e-21 8.47958 	-0.0671122 	4.12655e-21 8.47985 	-0.0687245 	-1.31438e-21 8.47076 	-0.0691176 	-2.04954e-20 8.45089 	-0.0683727 	-6.96923e-20 8.43105 	-0.0676272 	-1.18891e-19 8.43046 	-0.0692479 	-2.47662e-19 8.42981 	-0.0708702 	-3.76428e-19 8.42123 	-0.0712386 	-3.61549e-19 8.40253 	-0.0704853 	-2.13949e-19 8.38385 	-0.0697314 	-6.63499e-20 8.38245 	-0.0713499 	5.5541e-20 8.38098 	-0.0729667 	1.77144e-19 8.37263 	-0.0732814 	1.74788e-19 8.35529 	-0.0725707 	8.89906e-20 8.33767 	-0.0718246 	3.45812e-22 8.33555 	-0.0734369 	-8.76368e-20 8.33255 	-0.0748704 	-1.6463e-19 8.32435 	-0.0751917 	-1.7376e-19 8.30917 	-0.0746487 	-1.12568e-19 8.2925 	-0.0739186 	-3.61872e-20 8.28976 	-0.075521 	-2.51358e-20 8.28551 	-0.0767705 	-1.41811e-20 8.27745 	-0.0771 	-3.47152e-21 8.26415 	-0.0767284 	1.36851e-20 8.24836 	-0.0760203 	3.39358e-20 8.24506 	-0.0776106 	1.2486e-20 8.23981 	-0.0786784 	-2.38473e-21 8.23188 	-0.0790176 	-8.09009e-21 8.22022 	-0.0788191 	-3.04593e-21 8.20521 	-0.0781382 	1.16353e-20 8.20142 	-0.0797156 	-4.62464e-21 8.19538 	-0.0806066 	-1.53072e-20 8.18758 	-0.0809574 	-2.15998e-20 8.17734 	-0.0809311 	-3.35483e-20 8.16305 	-0.080281 	-5.48483e-20 8.15882 	-0.0818453 	5.19169e-20 8.15217 	-0.0825655 	8.53189e-20 8.1445 	-0.0829291 	8.77195e-20 8.13548 	-0.0830731 	6.90729e-20 8.12186 	-0.0824567 	-2.23389e-20 8.11723 	-0.084008 	6.78149e-20 8.11013 	-0.0845642 	8.42316e-20 8.10257 	-0.084942 	8.74183e-20 8.09462 	-0.0852533 	8.51483e-20 8.0816 	-0.084673 	1.01283e-20 8.07663 	-0.0862122 	-6.34609e-22 8.06921 	-0.0866116 	-4.69351e-22 8.06176 	-0.087005 	-2.44455e-22 8.05429 	-0.0873987 	-1.95803e-23 8.04225 	-0.0869378 	1.78853e-20 8.03669 	-0.088306 	0 8.02935 	-0.0887161 	0 8.022 	-0.0891264 	0 8.01463 	-0.089537 	0 8.00379 	-0.0892588 	1.48906e-20 7.99776 	-0.0904575 	0 7.99051 	-0.0908858 	0 7.98325 	-0.0913143 	0 7.97597 	-0.091743 	0 7.96618 	-0.0916435 	0 7.9598 	-0.0926808 	0 7.95263 	-0.0931284 	0 7.94546 	-0.0935762 	0 7.93826 	-0.0940243 	0 7.92938 	-0.0940994 	-8.23284e-21 7.92275 	-0.0949831 	0 7.91566 	-0.0954512 	0 7.90856 	-0.0959195 	0 7.90144 	-0.0963882 	0 7.89336 	-0.0966338 	-1.01049e-20 7.88656 	-0.0973714 	0 7.87955 	-0.097861 	0 7.87251 	-0.0983508 	0 7.86546 	-0.098841 	0 7.85807 	-0.0992529 	-3.61243e-21 7.85426 	-0.0996252 	-4.77204e-21 7.85039 	-0.0999104 	-1.04456e-20 7.84651 	-0.100196 	-1.61195e-20 7.84262 	-0.100481 	-2.17937e-20 7.83882 	-0.10076 	-2.73387e-20 7.83562 	-0.100989 	-3.15767e-20 7.83241 	-0.101219 	-3.58144e-20 7.8292 	-0.101448 	-4.00518e-20 7.82599 	-0.101677 	-4.4289e-20 7.82312 	-0.101837 	-4.85292e-20 7.8159 	-0.102437 	-4.71529e-20 7.8088 	-0.102975 	-4.65329e-20 7.80167 	-0.103513 	-4.59103e-20 7.79452 	-0.104051 	-4.52849e-20 7.7885 	-0.104367 	-4.71538e-20 7.78102 	-0.10513 	-3.68811e-20 7.77396 	-0.105692 	-2.65958e-20 7.76687 	-0.106255 	-1.63092e-20 7.75976 	-0.106818 	-6.02108e-21 7.75456 	-0.107011 	0 7.74681 	-0.107934 	-2.62923e-21 7.73978 	-0.108522 	-7.35804e-21 7.73273 	-0.109111 	-1.20861e-20 7.72565 	-0.1097 	-1.68134e-20 7.72125 	-0.109778 	-2.15068e-20 7.71322 	-0.110856 	-5.02192e-20 7.70622 	-0.111472 	-6.9648e-20 7.69919 	-0.112088 	-8.90783e-20 7.69214 	-0.112704 	-1.0851e-19 7.6885 	-0.112673 	-1.00759e-19 7.6802 	-0.113903 	-7.8525e-20 7.67322 	-0.114547 	-6.75797e-20 7.66621 	-0.115192 	-5.66282e-20 7.65917 	-0.115836 	-4.56703e-20 7.65628 	-0.115703 	-6.75629e-20 7.64772 	-0.117073 	-8.13752e-20 7.64072 	-0.117757 	-6.36802e-20 7.63372 	-0.118432 	-4.55377e-20 7.62724 	-0.119007 	-2.55925e-20 7.62454 	-0.118878 	7.13651e-21 7.616 	-0.120261 	1.14319e-20 7.6087 	-0.121109 	8.41568e-21 7.6017 	-0.121815 	3.443e-21 7.59599 	-0.12228 	0 7.59322 	-0.122203 	0 7.58471 	-0.123599 	0 7.57708 	-0.124608 	0 7.57008 	-0.125346 	0 7.56513 	-0.125707 	0 7.56228 	-0.125682 	0 7.55378 	-0.127094 	0 7.54583 	-0.128261 	-6.67321e-21 7.53882 	-0.129032 	-2.40689e-20 7.5346 	-0.129295 	-4.15168e-20 7.53166 	-0.129323 	-5.89895e-20 7.52317 	-0.130752 	-4.01378e-20 7.5149 	-0.132073 	-2.05594e-20 7.50786 	-0.132878 	2.42798e-21 7.50435 	-0.133048 	8.79849e-21 7.50132 	-0.133129 	1.28413e-20 7.49283 	-0.134578 	4.48204e-20 7.48428 	-0.136026 	7.67979e-20 7.47744 	-0.136838 	9.37135e-20 7.47433 	-0.136973 	7.90524e-20 7.4712 	-0.137107 	6.439e-20 7.4627 	-0.138576 	4.08013e-20 7.45414 	-0.140046 	1.72043e-20 7.44772 	-0.140887 	2.51585e-21 7.44449 	-0.141074 	1.17045e-20 7.44126 	-0.141262 	2.08939e-20 7.43274 	-0.142753 	8.31415e-20 7.42416 	-0.144245 	1.45392e-19 7.41813 	-0.145116 	1.46039e-19 7.41479 	-0.145357 	8.44097e-20 7.41144 	-0.145598 	2.27786e-20 7.40289 	-0.147113 	1.4372e-20 7.39428 	-0.148628 	5.96889e-21 7.38863 	-0.14953 	6.1327e-21 7.38516 	-0.149825 	1.51001e-20 7.38168 	-0.150119 	2.40686e-20 7.3731 	-0.151659 	8.4856e-20 7.36446 	-0.153199 	1.45647e-19 7.35916 	-0.154135 	1.46328e-19 7.35556 	-0.154482 	8.61869e-20 7.35194 	-0.15483 	2.60447e-20 7.34331 	-0.156396 	1.78846e-20 7.33505 	-0.157891 	9.71534e-21 7.32993 	-0.158836 	1.45175e-21 7.32593 	-0.159332 	0 7.32216 	-0.159733 	0 7.31349 	-0.161326 	0 7.30595 	-0.162715 	0 7.30071 	-0.163701 	0 7.29623 	-0.164378 	0 7.2923 	-0.164832 	0 7.28357 	-0.166453 	0 7.27673 	-0.16774 	0 7.27136 	-0.168767 	0 7.2664 	-0.169622 	5.15411e-21 7.26231 	-0.170129 	2.07437e-20 7.2535 	-0.171779 	3.54606e-21 7.24733 	-0.172967 	6.70099e-21 7.24183 	-0.174036 	1.51442e-20 7.23639 	-0.175067 	2.38979e-20 7.23211 	-0.175626 	3.65261e-20 7.22333 	-0.177288 	1.18843e-19 7.21772 	-0.178398 	1.2329e-19 7.21207 	-0.179508 	1.27715e-19 7.20638 	-0.180618 	1.32118e-19 7.20168 	-0.181324 	4.93219e-20 7.19359 	-0.182882 	1.23455e-19 7.18783 	-0.184034 	1.11782e-19 7.18202 	-0.185185 	1.00086e-19 7.17618 	-0.186337 	8.83689e-20 7.17096 	-0.187224 	3.77873e-20 7.16354 	-0.188681 	3.2575e-20 7.15761 	-0.189874 	3.30457e-20 7.15165 	-0.191067 	3.35215e-20 7.14564 	-0.192259 	3.40024e-20 7.1399 	-0.193328 	4.4111e-20 7.13366 	-0.194576 	4.73699e-20 7.12811 	-0.1957 	4.50959e-20 7.12252 	-0.196823 	4.28088e-20 7.1169 	-0.197947 	4.05088e-20 7.11157 	-0.199005 	3.83317e-20 7.11093 	-0.199128 	3.82448e-20 7.11029 	-0.199251 	3.81578e-20 7.10965 	-0.199374 	3.80708e-20 7.10901 	-0.199497 	3.79837e-20 7.10848 	-0.199607 	3.83288e-20 7.102 	-0.200892 	3.24999e-20 7.09554 	-0.202164 	2.60478e-20 7.08903 	-0.203437 	1.96038e-20 7.08248 	-0.20471 	1.31681e-20 7.07717 	-0.205847 	8.63851e-22 7.06981 	-0.207296 	-2.45832e-22 7.06316 	-0.208609 	-1.74041e-22 7.05646 	-0.209922 	-1.02224e-22 7.04971 	-0.211234 	-3.03825e-23 7.04539 	-0.21229 	0 7.03713 	-0.213903 	-4.72569e-21 7.03027 	-0.215255 	-1.81719e-20 7.02337 	-0.216607 	-3.16123e-20 7.01641 	-0.21796 	-4.50469e-20 7.01309 	-0.218935 	-5.52877e-20 7.0039 	-0.22071 	-4.33866e-20 6.99682 	-0.222101 	-2.84984e-20 6.9897 	-0.223492 	-1.36043e-20 6.98318 	-0.224817 	1.12678e-22 6.98022 	-0.225777 	7.27062e-21 6.97075 	-0.227595 	1.03666e-21 6.96277 	-0.229143 	8.58207e-21 6.95542 	-0.230572 	2.21989e-20 6.94993 	-0.231809 	3.89812e-20 6.94673 	-0.232812 	5.96326e-20 6.93704 	-0.234662 	3.81154e-20 6.92806 	-0.236378 	1.88834e-20 6.92048 	-0.237843 	3.90442e-21 6.91603 	-0.238992 	-2.2212e-21 6.91258 	-0.240038 	-5.47091e-21 6.90266 	-0.241918 	-5.58409e-20 6.89267 	-0.243799 	-1.06212e-19 6.8851 	-0.245275 	-1.07213e-19 6.88143 	-0.246361 	-6.76106e-20 6.87773 	-0.247448 	-2.80083e-20 6.86756 	-0.249358 	-6.819e-20 6.85733 	-0.251268 	-1.08379e-19 6.85003 	-0.252786 	-1.08066e-19 6.8461 	-0.253912 	-6.59041e-20 6.84212 	-0.255038 	-2.37416e-20 6.83171 	-0.256976 	-6.60424e-20 6.82122 	-0.258915 	-1.08349e-19 6.81419 	-0.260474 	-1.04335e-19 6.80998 	-0.261637 	-5.65487e-20 6.80573 	-0.262801 	-8.75839e-21 6.79506 	-0.264767 	-6.04922e-21 6.78451 	-0.266713 	-3.33116e-21 6.77784 	-0.268281 	-4.0279e-22 6.77304 	-0.269531 	0 6.76851 	-0.270731 	0 6.75757 	-0.272723 	0 6.74818 	-0.27456 	0 6.74123 	-0.276158 	0 6.73525 	-0.277587 	0 6.73043 	-0.278821 	0 6.71921 	-0.280838 	0 6.71098 	-0.282563 	-2.27938e-21 6.70375 	-0.284189 	-5.33623e-21 6.69656 	-0.285798 	-7.87354e-21 6.69144 	-0.287064 	1.15826e-22 6.68037 	-0.289063 	-5.00183e-20 6.6729 	-0.290716 	-4.68891e-20 6.66538 	-0.292368 	-4.37384e-20 6.65779 	-0.29402 	-4.05661e-20 6.65152 	-0.295452 	-5.77914e-21 6.64167 	-0.297332 	-7.25907e-21 6.6339 	-0.299009 	1.2347e-21 6.62608 	-0.300686 	9.72976e-21 6.61819 	-0.302363 	1.82261e-20 6.61064 	-0.303977 	2.44339e-20 6.60693 	-0.304693 	3.20501e-20 6.60382 	-0.305351 	3.21214e-20 6.6007 	-0.30601 	3.21901e-20 6.59757 	-0.306668 	3.22562e-20 6.59451 	-0.307308 	3.23181e-20 6.58921 	-0.308351 	3.32264e-20 6.58388 	-0.309394 	3.41315e-20 6.57853 	-0.310437 	3.50336e-20 6.57316 	-0.31148 	3.59324e-20 6.56843 	-0.312441 	3.98315e-20 6.55925 	-0.314249 	4.05977e-20 6.55034 	-0.315966 	3.84564e-20 6.54136 	-0.317683 	3.63201e-20 6.53232 	-0.3194 	3.41888e-20 6.52501 	-0.320903 	1.89431e-20 6.5149 	-0.322878 	3.33339e-20 6.50564 	-0.324613 	2.74037e-20 6.49631 	-0.326348 	2.1485e-20 6.4872 	-0.32805 	1.32201e-20 6.48042 	-0.329471 	-1.48447e-20 6.46973 	-0.331513 	-7.87835e-21 6.45971 	-0.333364 	-6.74307e-21 6.45002 	-0.335115 	-8.63009e-21 6.44175 	-0.336695 	-9.1683e-21 6.43463 	-0.338135 	-8.59703e-21 6.42355 	-0.340187 	-7.27373e-21 6.41252 	-0.342208 	-5.49264e-21 6.40247 	-0.343973 	1.28877e-23 6.39506 	-0.345428 	5.13895e-21 6.38759 	-0.346883 	1.02686e-20 6.37613 	-0.348944 	6.09889e-21 6.36459 	-0.351004 	1.93312e-21 6.35488 	-0.352768 	0 6.34712 	-0.354236 	0 6.3393 	-0.355704 	0 6.32744 	-0.357771 	0 6.31551 	-0.359838 	0 6.30609 	-0.361615 	0 6.2979 	-0.363109 	0 6.28971 	-0.364587 	0 6.27745 	-0.366658 	0 6.26632 	-0.368596 	1.93598e-21 6.25668 	-0.370361 	6.37419e-21 6.24737 	-0.372034 	1.08195e-20 6.23881 	-0.373519 	1.52773e-20 6.22614 	-0.375592 	1.17375e-20 6.21601 	-0.377378 	1.2274e-20 6.20598 	-0.379146 	1.30834e-20 6.19588 	-0.380913 	1.38986e-20 6.18656 	-0.382488 	1.59452e-20 6.17476 	-0.384422 	3.82644e-21 6.16441 	-0.38619 	-1.99989e-21 6.15399 	-0.387957 	-7.81365e-21 6.1435 	-0.389723 	-1.36148e-20 6.13296 	-0.391482 	-1.89528e-20 6.13245 	-0.391562 	-1.87666e-20 6.13201 	-0.391636 	-1.86354e-20 6.13156 	-0.391709 	-1.85043e-20 6.13112 	-0.391783 	-1.83731e-20 6.13067 	-0.391856 	-1.82424e-20 6.12083 	-0.393551 	-1.76082e-20 6.11093 	-0.395246 	-1.69916e-20 6.10096 	-0.39694 	-1.63927e-20 6.09092 	-0.398634 	-1.58117e-20 6.08097 	-0.400173 	-4.63577e-21 6.07076 	-0.402115 	1.75