# vtk DataFile Version 2.0
track0
ASCII
DATASET POLYDATA
POINTS 12040 float
-0.0205 0.001 1e-05
-0.02052 0.000999985 1e-05
-0.02054 0.000999974 1e-05
-0.02056 0.000999965 1e-05
-0.02058 0.000999959 1e-05
-0.0206 0.000999956 1e-05
-0.0205 0.00367778 1e-05
-0.02052 0.00367778 1e-05
-0.02054 0.00367777 1e-05
-0.02056 0.00367777 1e-05
-0.02058 0.00367777 1e-05
-0.0206 0.00367777 1e-05
-0.0205 0.00635556 1e-05
-0.02052 0.00635555 1e-05
-0.02054 0.00635555 1e-05
-0.02056 0.00635555 1e-05
-0.02058 0.00635555 1e-05
-0.0206 0.00635555 1e-05
-0.0205 0.00903333 1e-05
-0.02052 0.00903333 1e-05
-0.02054 0.00903333 1e-05
-0.02056 0.00903333 1e-05
-0.02058 0.00903333 1e-05
-0.0206 0.00903333 1e-05
-0.0205 0.0117111 1e-05
-0.02052 0.0117111 1e-05
-0.02054 0.0117111 1e-05
-0.02056 0.0117111 1e-05
-0.02058 0.0117111 1e-05
-0.0206 0.0117111 1e-05
-0.0205 0.0143889 1e-05
-0.02052 0.0143889 1e-05
-0.02054 0.0143889 1e-05
-0.02056 0.0143889 1e-05
-0.02058 0.0143889 1e-05
-0.0206 0.0143889 1e-05
-0.0205 0.0170667 1e-05
-0.02052 0.0170667 1e-05
-0.02054 0.0170667 1e-05
-0.02056 0.0170667 1e-05
-0.02058 0.0170667 1e-05
-0.0206 0.0170667 1e-05
-0.0205 0.0197444 1e-05
-0.02052 0.0197444 1e-05
-0.02054 0.0197444 1e-05
-0.02056 0.0197444 1e-05
-0.02058 0.0197444 1e-05
-0.0206 0.0197444 1e-05
-0.0205 0.0224222 1e-05
-0.02052 0.0224222 1e-05
-0.02054 0.0224222 1e-05
-0.02056 0.0224222 1e-05
-0.02058 0.0224222 1e-05
-0.0206 0.0224222 1e-05
-0.0205 0.0251 1e-05
-0.02052 0.0250998 1e-05
-0.02054 0.0250997 1e-05
-0.02056 0.0250995 1e-05
-0.02058 0.0250995 1e-05
-0.0206 0.0250994 1e-05
-0.0205 0.001 1e-05
-0.0202034 0.00100022 1e-05
-0.0199069 0.00100067 1e-05
-0.0196103 0.00100133 1e-05
-0.0193137 0.00100219 1e-05
-0.0190172 0.00100326 1e-05
-0.0187132 0.00100467 1e-05
-0.0184093 0.00100589 1e-05
-0.0181054 0.00100711 1e-05
-0.0178015 0.00100832 1e-05
-0.0174976 0.00100954 1e-05
-0.0172058 0.00101083 1e-05
-0.016914 0.00101193 1e-05
-0.0166222 0.00101303 1e-05
-0.0163305 0.00101413 1e-05
-0.0160387 0.00101523 1e-05
-0.0157586 0.00101636 1e-05
-0.0154784 0.00101744 1e-05
-0.0151983 0.00101856 1e-05
-0.0149182 0.00101971 1e-05
-0.0146381 0.0010209 1e-05
-0.0143744 0.00102209 1e-05
-0.0141108 0.00102327 1e-05
-0.0138471 0.00102449 1e-05
-0.0135835 0.00102574 1e-05
-0.0133608 0.00102682 1e-05
-0.0133473 0.00102688 1e-05
-0.0133339 0.00102695 1e-05
-0.0133204 0.00102702 1e-05
-0.0133069 0.00102708 1e-05
-0.0132934 0.00102715 1e-05
-0.0130353 0.00102844 1e-05
-0.0127771 0.00102974 1e-05
-0.0125189 0.00103106 1e-05
-0.0122607 0.00103239 1e-05
-0.0120025 0.00103374 1e-05
-0.0117547 0.00103505 1e-05
-0.0115068 0.00103637 1e-05
-0.0112589 0.00103769 1e-05
-0.0110111 0.00103901 1e-05
-0.0107632 0.00104034 1e-05
-0.0105252 0.00104161 1e-05
-0.0102873 0.00104289 1e-05
-0.0100493 0.00104417 1e-05
-0.00981133 0.00104545 1e-05
-0.00957337 0.00104672 1e-05
-0.00934491 0.00104794 1e-05
-0.00911645 0.00104917 1e-05
-0.00888799 0.00105038 1e-05
-0.00865954 0.0010516 1e-05
-0.00843108 0.00105281 1e-05
-0.00821175 0.00105397 1e-05
-0.00799242 0.00105512 1e-05
-0.00777309 0.00105628 1e-05
-0.00755376 0.00105742 1e-05
-0.00733443 0.00105857 1e-05
-0.00712387 0.00105966 1e-05
-0.0069133 0.00106075 1e-05
-0.00670273 0.00106183 1e-05
-0.00649216 0.00106291 1e-05
-0.0062816 0.00106399 1e-05
-0.00607944 0.00106501 1e-05
-0.00587729 0.00106604 1e-05
-0.00567514 0.00106706 1e-05
-0.00547298 0.00106807 1e-05
-0.00527083 0.00106908 1e-05
-0.00507675 0.00107004 1e-05
-0.00488267 0.00107101 1e-05
-0.0046886 0.00107197 1e-05
-0.00449452 0.00107292 1e-05
-0.00430044 0.00107387 1e-05
-0.00411412 0.00107477 1e-05
-0.0039278 0.00107568 1e-05
-0.00374147 0.00107658 1e-05
-0.00355515 0.00107748 1e-05
-0.00336883 0.00107837 1e-05
-0.00318995 0.00107922 1e-05
-0.00301107 0.00108007 1e-05
-0.00283219 0.00108092 1e-05
-0.00265331 0.00108177 1e-05
-0.00247443 0.00108261 1e-05
-0.0023027 0.00108341 1e-05
-0.00213097 0.00108422 1e-05
-0.00195924 0.00108502 1e-05
-0.0017875 0.00108582 1e-05
-0.00161577 0.00108662 1e-05
-0.0014509 0.00108737 1e-05
-0.00128603 0.00108813 1e-05
-0.00112116 0.00108889 1e-05
-0.000956289 0.00108965 1e-05
-0.000791418 0.00109041 1e-05
-0.000633135 0.00109114 1e-05
-0.000474851 0.00109187 1e-05
-0.000316567 0.00109259 1e-05
-0.000158284 0.00109332 1e-05
0 0.00109404 1e-05
0.000105677 0.00109452 1e-05
0.000211355 0.00109499 1e-05
0.000317032 0.00109546 1e-05
0.00042271 0.00109593 1e-05
0.000528387 0.0010964 1e-05
0.000634886 0.00109686 1e-05
0.000741385 0.00109733 1e-05
0.000847885 0.00109779 1e-05
0.000954384 0.00109824 1e-05
0.00106088 0.0010987 1e-05
0.00116821 0.00109915 1e-05
0.00127554 0.00109959 1e-05
0.00138286 0.00110004 1e-05
0.00149019 0.00110047 1e-05
0.00159752 0.0011009 1e-05
0.00170568 0.00110133 1e-05
0.00181384 0.00110175 1e-05
0.001922 0.00110216 1e-05
0.00203016 0.00110257 1e-05
0.00213833 0.00110296 1e-05
0.00224733 0.00110335 1e-05
0.00235633 0.00110374 1e-05
0.00246533 0.00110411 1e-05
0.00257434 0.00110448 1e-05
0.00268334 0.00110484 1e-05
0.00279319 0.00110518 1e-05
0.00290304 0.00110553 1e-05
0.00301289 0.00110587 1e-05
0.00312274 0.0011062 1e-05
0.00323259 0.00110652 1e-05
0.00334329 0.00110683 1e-05
0.003454 0.00110714 1e-05
0.0035647 0.00110744 1e-05
0.0036754 0.00110773 1e-05
0.00378611 0.00110802 1e-05
0.00389767 0.0011083 1e-05
0.00400924 0.00110857 1e-05
0.0041208 0.00110884 1e-05
0.00423237 0.00110909 1e-05
0.00434393 0.00110934 1e-05
0.00445636 0.00110958 1e-05
0.00456879 0.00110982 1e-05
0.00468123 0.00111005 1e-05
0.00479366 0.00111027 1e-05
0.00490609 0.00111049 1e-05
0.0050194 0.00111069 1e-05
0.0051327 0.00111089 1e-05
0.00524601 0.00111108 1e-05
0.00535932 0.00111127 1e-05
0.00547262 0.00111144 1e-05
0.00558681 0.00111161 1e-05
0.005701 0.00111177 1e-05
0.00581518 0.00111193 1e-05
0.00592937 0.00111208 1e-05
0.00604356 0.00111222 1e-05
0.00615863 0.00111235 1e-05
0.00627371 0.00111248 1e-05
0.00638878 0.0011126 1e-05
0.00650386 0.00111271 1e-05
0.00661893 0.00111281 1e-05
0.0067349 0.00111291 1e-05
0.00685087 0.001113 1e-05
0.00696684 0.00111308 1e-05
0.00708281 0.00111315 1e-05
0.00719878 0.00111322 1e-05
0.00727073 0.00111326 1e-05
0.00734268 0.00111329 1e-05
0.00741463 0.00111332 1e-05
0.00748658 0.00111335 1e-05
0.00755612 0.00111338 1e-05
0.00760153 0.00111339 1e-05
0.00764693 0.0011134 1e-05
0.00769233 0.00111342 1e-05
0.00773773 0.00111343 1e-05
0.00778313 0.00111344 1e-05
0.00790091 0.00111346 1e-05
0.00801869 0.00111347 1e-05
0.00813647 0.00111348 1e-05
0.00825425 0.00111348 1e-05
0.00837203 0.00111347 1e-05
0.00849073 0.00111345 1e-05
0.00860942 0.00111342 1e-05
0.00872812 0.00111339 1e-05
0.00884682 0.00111335 1e-05
0.00896551 0.0011133 1e-05
0.00908513 0.00111324 1e-05
0.00920475 0.00111318 1e-05
0.00932437 0.0011131 1e-05
0.00944398 0.00111302 1e-05
0.0095636 0.00111294 1e-05
0.00968415 0.00111283 1e-05
0.0098047 0.00111272 1e-05
0.00992525 0.00111261 1e-05
0.0100458 0.00111249 1e-05
0.0101663 0.00111236 1e-05
0.0102878 0.00111221 1e-05
0.0104093 0.00111206 1e-05
0.0105308 0.00111191 1e-05
0.0106523 0.00111174 1e-05
0.0107738 0.00111157 1e-05
0.0108962 0.00111138 1e-05
0.0110186 0.00111119 1e-05
0.0111411 0.00111099 1e-05
0.0112635 0.00111078 1e-05
0.0113859 0.00111057 1e-05
0.0115093 0.00111033 1e-05
0.0116327 0.00111009 1e-05
0.0117561 0.00110985 1e-05
0.0118795 0.0011096 1e-05
0.0120028 0.00110934 1e-05
0.0121272 0.00110905 1e-05
0.0122515 0.00110877 1e-05
0.0123759 0.00110849 1e-05
0.0125002 0.00110819 1e-05
0.0126245 0.00110789 1e-05
0.0127498 0.00110756 1e-05
0.0128752 0.00110723 1e-05
0.0130005 0.0011069 1e-05
0.0131258 0.00110655 1e-05
0.0132511 0.0011062 1e-05
0.0133774 0.00110583 1e-05
0.0135036 0.00110545 1e-05
0.0136299 0.00110507 1e-05
0.0137562 0.00110468 1e-05
0.0138825 0.00110428 1e-05
0.0140098 0.00110386 1e-05
0.014137 0.00110344 1e-05
0.0142643 0.00110301 1e-05
0.0143915 0.00110257 1e-05
0.0145188 0.00110212 1e-05
0.0146471 0.00110165 1e-05
0.0147753 0.00110118 1e-05
0.0149036 0.0011007 1e-05
0.0150318 0.00110022 1e-05
0.0151601 0.00109972 1e-05
0.0152893 0.0010992 1e-05
0.0154186 0.00109868 1e-05
0.0155478 0.00109815 1e-05
0.0156771 0.00109761 1e-05
0.0158063 0.00109707 1e-05
0.0159366 0.0010965 1e-05
0.0160668 0.00109593 1e-05
0.0161971 0.00109535 1e-05
0.0163274 0.00109476 1e-05
0.0164576 0.00109417 1e-05
0.0165889 0.00109356 1e-05
0.0167201 0.00109294 1e-05
0.0168514 0.0010923 1e-05
0.0169827 0.00109166 1e-05
0.0171139 0.00109102 1e-05
0.0172462 0.00109036 1e-05
0.0173785 0.00108969 1e-05
0.0175108 0.00108901 1e-05
0.0176431 0.00108832 1e-05
0.0177754 0.00108762 1e-05
0.0179087 0.00108691 1e-05
0.018042 0.00108619 1e-05
0.0181753 0.00108546 1e-05
0.0183087 0.00108471 1e-05
0.018442 0.00108397 1e-05
0.0185763 0.00108321 1e-05
0.0187107 0.00108244 1e-05
0.018845 0.00108166 1e-05
0.0189794 0.00108086 1e-05
0.0191137 0.00108006 1e-05
0.0192491 0.00107926 1e-05
0.0193845 0.00107844 1e-05
0.0195199 0.0010776 1e-05
0.0196553 0.00107675 1e-05
0.0197907 0.00107591 1e-05
0.0199272 0.00107506 1e-05
0.0200636 0.00107419 1e-05
0.0202001 0.0010733 1e-05
0.0203365 0.0010724 1e-05
0.020473 0.0010715 1e-05
0.0206105 0.0010706 1e-05
0.020748 0.00106968 1e-05
0.0208855 0.00106874 1e-05
0.021023 0.00106779 1e-05
0.0211606 0.00106684 1e-05
0.0212991 0.0010659 1e-05
0.0214377 0.00106493 1e-05
0.0215763 0.00106393 1e-05
0.0217149 0.00106293 1e-05
0.0218535 0.00106193 1e-05
0.0219931 0.00106094 1e-05
0.0221328 0.00105992 1e-05
0.0222724 0.00105887 1e-05
0.0224121 0.00105782 1e-05
0.0225517 0.00105677 1e-05
0.0226925 0.00105573 1e-05
0.0228332 0.00105465 1e-05
0.022974 0.00105356 1e-05
0.0231147 0.00105245 1e-05
0.0232555 0.00105135 1e-05
0.0233973 0.00105026 1e-05
0.0235391 0.00104914 1e-05
0.023681 0.00104799 1e-05
0.0238228 0.00104683 1e-05
0.0239647 0.00104568 1e-05
0.0241076 0.00104454 1e-05
0.0242505 0.00104336 1e-05
0.0243935 0.00104216 1e-05
0.0245364 0.00104095 1e-05
0.0246794 0.00103975 1e-05
0.0248234 0.00103855 1e-05
0.0249675 0.00103733 1e-05
0.0251115 0.00103607 1e-05
0.0252556 0.00103481 1e-05
[...]
POINT_DATA 12040
 FIELD attributes 2
p 1 12040 float
-4.83627 -4.83296 -4.82965 -4.82634 -4.82303 -4.81973
-4.98926 -4.98924 -4.98921 -4.98919 -4.98917 -4.98915
-5.16302 -5.1629 -5.16277 -5.16265 -5.16253 -5.16242
-5.25597 -5.25591 -5.25586 -5.2558 -5.25575 -5.2557
-5.30069 -5.30057 -5.30046 -5.30035 -5.30024 -5.30012
-5.30693 -5.30677 -5.30661 -5.30645 -5.30629 -5.30613
-5.27977 -5.2797 -5.27963 -5.27955 -5.27948 -5.27941
-5.21006 -5.21002 -5.20998 -5.20994 -5.2099 -5.20986
-5.08875 -5.08876 -5.08877 -5.08877 -5.08878 -5.08879
-2.87622 -2.89555 -2.91474 -2.93381 -2.95274 -2.97153
-4.83627 -4.8356 -4.83203 -4.82839 -4.82467 -4.81641 -4.83033 -4.84537 -4.86041 -4.87545 -4.89993 -4.92173 -4.95169 -4.98166 -5.01162 -5.04439 -5.06008 -5.08182 -5.10355 -5.12528 -5.14864 -5.16758 -5.18852 -5.20947 -5.23042 -5.24812 -5.24919 -5.25026 -5.25132 -5.25239 -5.25345 -5.27516 -5.29686 -5.31856 -5.34027 -5.3617 -5.38051 -5.39913 -5.41775 -5.43638 -5.45443 -5.47011 -5.48551 -5.50092 -5.51632 -5.53118 -5.54502 -5.55862 -5.57221 -5.58581 -5.59896 -5.61175 -5.62428 -5.63681 -5.64934 -5.66145 -5.67334 -5.68493 -5.69653 -5.70812 -5.71929 -5.73037 -5.74117 -5.75198 -5.76278 -5.77323 -5.78369 -5.79389 -5.80408 -5.81428 -5.82415 -5.83413 -5.84391 -5.85369 -5.86347 -5.87304 -5.8827 -5.8921 -5.90149 -5.91088 -5.92006 -5.92951 -5.93909 -5.94867 -5.95825 -5.96797 -5.9779 -5.98757 -5.99725 -6.00693 -6.01643 -6.02643 -6.03727 -6.04811 -6.05895 -6.06998 -6.07996 -6.09068 -6.1014 -6.11212 -6.12239 -6.13171 -6.14056 -6.14941 -6.15825 -6.16629 -6.17345 -6.18163 -6.18982 -6.198 -6.20692 -6.21508 -6.22369 -6.2323 -6.24092 -6.24964 -6.25777 -6.26491 -6.27205 -6.27919 -6.28548 -6.29218 -6.2976 -6.30302 -6.30844 -6.31282 -6.31845 -6.32304 -6.32763 -6.33222 -6.33587 -6.34075 -6.34473 -6.34871 -6.3527 -6.35587 -6.35978 -6.36295 -6.36612 -6.36929 -6.37185 -6.37476 -6.37711 -6.37947 -6.38183 -6.38381 -6.38598 -6.3878 -6.38962 -6.39144 -6.39307 -6.39488 -6.39648 -6.39808 -6.39968 -6.40119 -6.4028 -6.4043 -6.4058 -6.40731 -6.40878 -6.40969 -6.41056 -6.41142 -6.41229 -6.41313 -6.41368 -6.41423 -6.41478 -6.41533 -6.41591 -6.41722 -6.41857 -6.41992 -6.42128 -6.42282 -6.42395 -6.4253 -6.42665 -6.428 -6.42977 -6.43069 -6.43208 -6.43348 -6.43487 -6.43697 -6.43769 -6.43918 -6.44067 -6.44217 -6.44473 -6.44527 -6.44689 -6.44851 -6.45013 -6.45317 -6.45349 -6.45521 -6.45692 -6.45864 -6.46212 -6.46223 -6.46405 -6.46587 -6.4677 -6.47165 -6.47161 -6.47357 -6.47553 -6.4775 -6.48188 -6.48176 -6.48387 -6.48597 -6.48808 -6.49283 -6.49265 -6.4949 -6.49714 -6.49939 -6.50446 -6.50427 -6.50665 -6.50904 -6.5116 -6.51677 -6.51689 -6.51916 -6.52169 -6.52466 -6.5298 -6.53026 -6.53245 -6.53512 -6.53846 -6.54354 -6.54435 -6.5465 -6.54933 -6.553 -6.558 -6.55916 -6.56132 -6.56429 -6.56824 -6.57316 -6.57468 -6.57688 -6.58 -6.58418 -6.58903 -6.59088 -6.59316 -6.59642 -6.60079 -6.60558 -6.60775 -6.61015 -6.61354 -6.61807 -6.62279 -6.62527 -6.6278 -6.63134 -6.63598 -6.64066 -6.64342 -6.64618 -6.64987 -6.65452 -6.65917 -6.66218 -6.6652 -6.66902 -6.67366 -6.67829 -6.68156 -6.68482 -6.68877 -6.69341 -6.69805 -6.70156 -6.70508 -6.70915 -6.71378 -6.71842 -6.72216 -6.72591 -6.73008 -6.7347 -6.73931 -6.74325 -6.74719 -6.75146 -6.75605 -6.76065 -6.76474 -6.76883 -6.77318 -6.77778 -6.78238 -6.78659 -6.79081 -6.79524 -6.79987 -6.8045 -6.80881 -6.81315 -6.81765 -6.82229 -6.82696 -6.83135 -6.8358 -6.84036 -6.84503 -6.84974 -6.8542 -6.85873 -6.86336 -6.86805 -6.87281 -6.87733 -6.88194 -6.88661 -6.89133 -6.89612 -6.90069 -6.90536 -6.91007 -6.9148 -6.91963 -6.92422 -6.92894 -6.93368 -6.93842 -6.94327 -6.94788 -6.95264 -6.95739 -6.96215 -6.96699 -6.97164 -6.9764 -6.98116 -6.98592 -6.99075 -6.99541 -7.00016 -7.00491 -7.00967 -7.01447 -7.01913 -7.02386 -7.0286 -7.03333 -7.0381 -7.04274 -7.04744 -7.05214 -7.05684 -7.06156 -7.06618 -7.07083 -7.07548 -7.08012 -7.08478 -7.08732 -7.08987 -7.09243 -7.09498 -7.09747 -7.09952 -7.10156 -7.10361 -7.10565 -7.10771 -7.11221 -7.11672 -7.12123 -7.12574 -7.13027 -7.13468 -7.1391 -7.14351 -7.14793 -7.15237 -7.15668 -7.16099 -7.1653 -7.16961 -7.17393 -7.17814 -7.18232 -7.1865 -7.19069 -7.19489 -7.19897 -7.203 -7.20703 -7.21107 -7.2151 -7.21903 -7.22289 -7.22675 -7.23061 -7.23446 -7.23822 -7.24191 -7.24558 -7.24924 -7.25289 -7.25646 -7.25997 -7.26343 -7.26686 -7.27027 -7.27363 -7.27694 -7.28016 -7.28334 -7.28649 -7.28961 -7.2927 -7.29566 -7.29854 -7.30141 -7.30426 -7.30711 -7.30978 -7.31235 -7.31491 -7.31747 -7.32003 -7.3224 -7.32463 -7.32686 -7.3291 -7.33133 -7.33339 -7.33526 -7.33713 -7.33902 -7.34091 -7.34261 -7.34409 -7.34557 -7.34709 -7.3486 -7.34994 -7.351 -7.35206 -7.35317 -7.35426 -7.35517 -7.35583 -7.35645 -7.35712 -7.35772 -7.35817 -7.35844 -7.35858 -7.35879 -7.35886 -7.35882 -7.35867 -7.35831 -7.35802 -7.35752 -7.35696 -7.35638 -7.35548 -7.35465 -7.35354 -7.35243 -7.35133 -7.34993 -7.34847 -7.34678 -7.34509 -7.3434 -7.34151 -7.33937 -7.33706 -7.33476 -7.33246 -7.33006 -7.32745 -7.32476 -7.32207 -7.31938 -7.31686 -7.31657 -7.31628 -7.316 -7.31571 -7.31541 -7.31184 -7.30826 -7.30469 -7.30112 -7.29742 -7.29329 -7.28901 -7.28473 -7.28045 -7.27591 -7.27121 -7.26618 -7.26116 -7.25615 -7.25071 -7.24542 -7.23963 -7.23384 -7.22797 -7.22167 -7.21561 -7.20918 -7.20259 -7.19576 -7.18863 -7.18175 -7.17468 -7.16726 -7.15941 -7.15143 -7.1437 -7.13598 -7.12766 -7.11879 -7.10992 -7.10131 -7.09271 -7.08352 -7.07373 -7.06394 -7.05443 -7.04492 -7.03481 -7.02408 -7.01335 -7.00291 -6.99243 -6.98133 -6.96971 -6.958 -6.94659 -6.93491 -6.92282 -6.91045 -6.89775 -6.88535 -6.87242 -6.85931 -6.84618 -6.83246 -6.81896 -6.80481 -6.79067 -6.77653 -6.762 -6.74718 -6.73196 -6.71676 -6.70155 -6.68624 -6.68004 -6.67373 -6.66741 -6.6611 -6.65496 -6.64503 -6.63511 -6.62518 -6.61526 -6.60518 -6.58808 -6.57082 -6.55357 -6.53633 -6.51864 -6.5007 -6.48232 -6.46395 -6.44552 -6.42647 -6.4075 -6.38818 -6.36868 -6.34879 -6.32858 -6.30847 -6.2883 -6.26765 -6.24626 -6.22488 -6.20361 -6.18234 -6.16043 -6.13786 -6.1153 -6.09285 -6.0704 -6.04724 -6.02351 -5.99975 -5.97612 -5.95214 -5.92773 -5.90315 -5.87819 -5.85335 -5.82778 -5.80216 -5.77655 -5.75055 -5.72415 -5.6973 -5.67047 -5.64364 -5.6168 -5.61565 -5.61448 -5.61331 -5.61213 -5.61097 -5.58415 -5.55735 -5.53056 -5.50377 -5.4767 -5.44772 -5.41853 -5.38935 -5.36016 -5.33041 -5.30033 -5.27003 -5.23964 -5.20891 -5.17794 -5.14664 -5.11535 -5.08368 -5.05148 -5.01928 -4.98676 -4.95426 -4.92127 -4.88786 -4.85445 -4.82072 -4.78683 -4.75253 -4.71808 -4.68347 -4.64855 -4.6131 -4.5776 -4.5421 -4.50639 -4.47652 -4.44635 -4.41618 -4.38602 -4.35741 -4.35059 -4.34378 -4.33696 -4.33015 -4.32325 -4.28552 -4.24775 -4.21 -4.17225 -4.13401 -4.09538 -4.05646 -4.01755 -3.97841 -3.93885 -3.89908 -3.85927 -3.81923 -3.77855 -3.73785 -3.69696 -3.65607 -3.6147 -3.57292 -3.53113 -3.48914 -3.44694 -3.40434 -3.36166 -3.3188 -3.27572 -3.23205 -3.18839 -3.14474 -3.10098 -3.08355 -3.06596 -3.04836 -3.03077 -3.01359 -2.98646 -2.95933 -2.9322 -2.90508 -2.87767 -2.8322 -2.78659 -2.74099 -2.69532 -2.64908 -2.60272 -2.55627 -2.50971 -2.46263 -2.41545 -2.36814 -2.32084 -2.27313 -2.22505 -2.17696 -2.12874 -2.08034 -2.03157 -1.98276 -1.9338 -1.88465 -1.83503 -1.78541 -1.73581 -1.68616 -1.6789 -1.67159 -1.66428 -1.65697 -1.64972 -1.60664 -1.56356 -1.5205 -1.47744 -1.43399 -1.38299 -1.33186 -1.28075 -1.2294 -1.17773 -1.126 -1.07428 -1.02234 -0.970021 -0.917671 -0.865252 -0.812812 -0.75994 -0.707009 -0.654012 -0.600943 -0.547485 -0.493993 -0.440512 -0.386969 -0.371433 -0.3558 -0.340167 -0.324536 -0.309142 -0.270672 -0.232206 -0.193746 -0.15529 -0.116552 -0.0620228 -0.00746377 0.0470851 0.101801 0.156763 0.211766 0.266758 0.32186 0.377186 0.432549 0.487961 0.543427 0.599127 0.654815 0.710538 0.764861 0.819414 0.873956 0.92849 0.980409 0.982427 0.984445 0.986463 0.988482 0.99051 1.04688 1.10323 1.15957 1.21591 1.27254 1.32918 1.38579 1.44237 1.49913 1.55596 1.61281 1.66964 1.7266 1.78352 1.84049 1.89747 1.95454 2.01164 2.06872 2.12581 2.14105 2.15631 2.17157 2.18683 2.2019 2.24389 2.28588 2.32786 2.36984 2.41193 2.46928 2.52652 2.58374 2.641 2.69834 2.75565 2.81294 2.87022 2.9274 2.98462 3.04183 3.09901 3.15619 3.21335 3.27048 3.28582 3.30114 3.31646 3.33178 3.34693 3.38874 3.43054 3.47234 3.51414 3.55594 3.61301 3.66994 3.72682 3.78363 3.84047 3.89727 3.95406 4.01073 4.06719 4.1237 4.18016 4.23647 4.29275 4.34902 4.40533 4.40688 4.40841 4.40995 4.41149 4.41303 4.46757 4.5221 4.57663 4.63114 4.68552 4.74138 4.79718 4.85276 4.90814 4.96357 5.01893 5.07423 5.12931 5.18433 5.23921 5.27169 5.304 5.33629 5.36858 5.40027 5.42272 5.44516 5.46761 5.49004 5.51239 5.56675 5.62091 5.67506 5.72903 5.78292 5.83669 5.89046 5.94395 5.9971 6.0503 6.1034 6.15617 6.20887 6.26157 6.31431 6.31449 6.31466 6.31483 6.315 6.31517 6.36727 6.41937 6.47146 6.5235 6.57526 6.62702 6.67878 6.73018 6.78128 6.8324 6.88336 6.93413 6.98466 7.03519 7.08555 7.10093 7.11619 7.13143 7.14667 7.16185 7.19654 7.23123 7.26592 7.30054 7.33492 7.38435 7.43368 7.48279 7.53144 7.5801 7.62864 7.67703 7.72504 7.77305 7.82078 7.83985 7.85874 7.87759 7.89643 7.91527 7.94372 7.97218 8.00063 8.02901 8.05715 8.10393 8.15056 8.19705 8.243 8.28894 8.33474 8.38041 8.42565 8.47088 8.5158 8.53454 8.5531 8.57159 8.59009 8.60869 8.63463 8.66057 8.68651 8.71237 8.73797 8.78186 8.82559 8.86919 8.91223 8.95523 8.99808 9.04079 9.08306 9.1253 9.16724 9.18517 9.20291 9.22058 9.23826 9.25616 9.27986 9.30357 9.32727 9.3509 9.37426 9.41508 9.45572 9.49625 9.53624 9.57615 9.61587 9.6555 9.69465 9.73374 9.77255 9.79215 9.81151 9.83082 9.85012 9.86988 9.88872 9.90756 9.9264 9.94518 9.96374 10.0014 10.0387 10.0761 10.113 10.1497 10.1862 10.2227 10.2586 10.2944 10.33 10.3562 10.3822 10.408 10.4339 10.461 10.4698 10.4785 10.4873 10.4961 10.5048 10.539 10.573 10.6071 10.6409 10.6744 10.7076 10.7408 10.7735 10.8059 10.8383 10.8703 10.9021 10.9336 10.9651 10.9965 11.0051 11.0137 11.0222 11.0307 11.0394 11.0615 11.0836 11.1057 11.1278 11.1495 11.1794 11.2091 11.2387 11.268 11.2972 11.326 11.3547 11.3832 11.4112 11.4392 11.4669 11.4943 11.5216 11.549 11.5761 11.5856 11.5949 11.6042 11.6135 11.6233 11.64 11.6568 11.6735 11.6903 11.7067 11.732 11.7576 11.7832 11.8093 11.8359 11.8622 11.8884 11.9087 11.924 11.9392 11.9538 11.9683 11.9935 12.0267 12.0605 12.0937 12.1121 12.1259 12.1398 12.1527 12.1528 12.1532 12.1536 12.154 12.1544 12.1604 12.1664 12.1724 12.1792 12.1903 12.201 12.2116 12.2215 12.2306 12.2397 12.2478 12.2552 12.2612 12.2672 12.2717 12.2735 12.2745 12.2755 12.2765 12.2776 12.2789 12.2802 12.2815 12.2827 12.2834 12.2831 12.2817 12.2803 12.2781 12.2751 12.2703 12.2655 12.259 12.2509 12.2426 12.2326 12.2214 12.2091 12.1967 12.1826 12.1719 12.1597 12.1475 12.1353 12.1211 12.1154 12.1096 12.1039 12.0982 12.0918 12.0682 12.0437 12.0191 11.994 11.9667 11.9364 11.9055 11.8727 11.837 11.8012 11.7621 11.723 11.6809 11.6355 11.59 11.541 11.4897 11.4367 11.3836 11.3273 11.2688 11.2072 11.1455 11.0837 11.007 11.0065 11.006 11.0055 11.005 11.0045 10.929 10.8534 10.7778 10.7021 10.623 10.5363 10.4457 10.3549 10.2626 10.1665 10.0648 9.96142 9.85393 9.74035 9.62598 9.50546 9.38488 9.2588 9.12745 8.99598 8.85786 8.71963 8.56976 8.41156 8.25197 8.08478 7.91658 7.74741 7.57776 7.40667 7.22769 7.0189 6.8095 6.60016 6.37331 6.14086 5.92519 5.70947 5.49371 5.28206 5.19542 5.09082 4.98627 4.88177 4.76333 4.56007 4.3566 4.15293 3.94905 3.71372 3.39717 3.13791 2.87788 2.61713 2.49373 2.37581 1.94088 1.51111 0.943436 0