/*--------------------------------*- C++ -*----------------------------------*\
  =========                 |
  \\      /  F ield         | OpenFOAM: The Open Source CFD Toolbox
   \\    /   O peration     | Website:  https://openfoam.org
    \\  /    A nd           | Version:  8
     \\/     M anipulation  |
\*---------------------------------------------------------------------------*/
FoamFile
{
    version     2.0;
    format      ascii;
    class       volScalarField;
    location    "275";
    object      epsilon;
}
// * * * * * * * * * * * * * * * * * * * * * * * * * * * * * * * * * * * * * //

dimensions      [0 2 -3 0 0 0 0];

internalField   nonuniform List<scalar> 
12225
(
285.515
270.697
257.921
243.802
232.471
223.073
216.825
212.694
212.742
213.942
217.251
220.853
228.107
232.712
241.298
246.683
254.058
264.207
52.4946
91.8786
106.972
114.745
124.842
136.778
152.684
169.897
191.087
210.921
235.18
255.461
280.96
299.283
324.576
339.186
364.253
373.056
20.3234
34.8562
44.6747
50.4695
55.3949
59.6074
64.6612
69.6435
76.3093
83.1828
91.4193
99.3124
108.141
116.916
125.487
135.218
142.469
153.549
15.3483
19.6976
24.1123
27.569
30.4965
32.87
35.1536
37.294
39.4998
41.9175
44.3323
47.1989
49.6739
53.0301
55.399
59.2134
61.4017
65.5961
14.6508
15.8626
17.3669
19.0739
20.6379
22.0261
23.2454
24.4312
25.443
26.5943
27.522
28.7564
29.6296
30.9815
31.8084
33.2566
34.0674
35.6295
14.7068
14.8769
15.2014
15.8668
16.5665
17.2868
17.9233
18.5841
19.1187
19.7336
20.1927
20.798
21.2074
21.8207
22.1961
22.8218
23.1748
23.8514
14.7421
14.6201
14.6248
14.737
14.9297
15.219
15.4912
15.8088
16.0708
16.3824
16.6179
16.9198
17.1304
17.4262
17.6149
17.9105
18.0795
18.4031
14.7626
14.5866
14.4637
14.3812
14.3669
14.39
14.4381
14.5337
14.6185
14.7365
14.8307
14.9562
15.0475
15.1758
15.2605
15.391
15.4689
15.6182
14.7666
14.5908
14.4346
14.2963
14.1849
14.1044
14.0398
14.0066
13.9814
13.9785
13.9808
13.9916
14.004
14.0294
14.0469
14.0791
14.1027
14.145
14.7663
14.5939
14.432
14.282
14.143
14.0219
13.9115
13.8193
13.737
13.6698
13.6102
13.5633
13.5181
13.4871
13.4516
13.4341
13.402
13.4006
14.7658
14.5945
14.4321
14.2803
14.1362
14.0032
13.8782
13.7644
13.6582
13.5629
13.4736
13.3952
13.3198
13.2561
13.1916
13.1408
13.0838
13.0451
14.7657
14.5943
14.4321
14.2798
14.1353
13.9999
13.8715
13.7518
13.6385
13.5337
13.4341
13.343
13.2557
13.1771
13.1003
13.0328
12.9647
12.9074
14.7657
14.5941
14.432
14.2794
14.1349
13.9989
13.8699
13.7485
13.6332
13.525
13.422
13.3257
13.2338
13.1484
13.0663
12.9906
12.9172
12.8502
14.7657
14.5939
14.4318
14.279
14.1346
13.9983
13.8691
13.7472
13.6315
13.5223
13.4184
13.3204
13.227
13.139
13.055
12.9759
12.9002
12.8291
14.7657
14.5938
14.4317
14.2787
14.1342
13.9977
13.8686
13.7464
13.6307
13.5211
13.4171
13.3185
13.2248
13.136
13.0516
12.9714
12.8951
12.8227
14.7657
14.5937
14.4315
14.2785
14.1339
13.9973
13.8681
13.7458
13.63
13.5202
13.4161
13.3174
13.2236
13.1346
13.05
12.9696
12.8931
12.8204
14.7657
14.5937
14.4315
14.2783
14.1337
13.997
13.8677
13.7453
13.6294
13.5195
13.4154
13.3165
13.2227
13.1336
13.0489
12.9684
12.8918
12.819
14.7657
14.5937
14.4314
14.2782
14.1335
13.9968
13.8674
13.7449
13.629
13.5191
13.4148
13.3159
13.222
13.1328
13.0481
12.9675
12.8908
12.8179
14.7657
14.5937
14.4314
14.2782
14.1335
13.9967
13.8673
13.7448
13.6288
13.5189
13.4146
13.3156
13.2217
13.1325
13.0477
12.967
12.8904
12.8174
14.7657
14.5937
14.4314
14.2782
14.1336
13.9968
13.8674
13.745
13.629
13.519
13.4148
13.3158
13.2219
13.1327
13.0479
12.9673
12.8906
12.8177
14.7657
14.5937
14.4315
14.2784
14.1337
13.997
13.8677
13.7453
13.6294
13.5195
13.4154
13.3166
13.2229
13.1338
13.0493
12.9689
12.8926
12.8199
14.7657
14.5937
14.4316
14.2785
14.1341
13.9974
13.8685
13.7464
13.6312
13.522
13.419
13.3213
13.2293
13.1418
13.0594
12.981
12.9073
12.8368
14.7658
14.5937
14.4318
14.2788
14.1353
14.0002
13.8742
13.756
13.6463
13.5435
13.4485
13.3591
13.277
13.1992
13.1282
13.0601
12.9988
12.9386
14.7655
14.5928
14.4328
14.2844
14.1515
14.0321
13.929
13.8375
13.7593
13.6894
13.6306
13.5769
13.5328
13.4905
13.4574
13.423
13.3989
13.3693
14.7592
14.5932
14.4603
14.3602
14.3029
14.2766
14.2805
14.2921
14.3211
14.3531
14.3959
14.4346
14.4825
14.5217
14.572
14.609
14.6617
14.6939
14.7213
14.6911
14.754
14.9176
15.1828
15.4611
15.7476
16.012
16.2724
16.5039
16.7361
16.9387
17.1508
17.3311
17.5311
17.6938
17.889
18.0362
14.7477
15.5124
16.5473
17.6841
18.7044
19.5676
20.3373
20.9969
21.6196
22.1662
22.7191
23.2111
23.7403
24.2047
24.7332
25.1832
25.7256
26.1667
15.9871
20.9921
25.0238
27.7605
29.7847
31.3586
32.7772
34.0582
35.3598
36.6169
37.9761
39.298
40.7627
42.147
43.7194
45.1756
46.8859
48.3609
29.9032
47.2183
54.8697
58.6737
61.6143
64.4325
67.5815
70.9787
74.7403
78.7168
82.9884
87.3483
91.9098
96.4556
101.107
105.629
110.183
114.585
165.798
160.075
154.899
149.565
144.479
139.678
135.614
132.109
129.27
126.974
125.32
124.045
123.341
122.826
122.842
122.961
123.286
123.83
0.167013
0.212191
0.395715
0.558448
0.715831
0.892996
1.09819
1.34102
1.6262
1.9512
2.30928
2.69153
3.08977
3.49677
3.90683
4.31559
4.71953
5.11642
5.50408
5.88138
6.24634
6.59731
6.93108
7.24373
7.52967
7.78242
7.99381
8.15647
8.26496
8.31203
8.30535
8.23808
8.16613
8.11486
8.41511
8.7571
9.17876
40.5669
41.2866
45.4717
43.8197
41.9979
43.2397
46.9036
49.9355
53.6152
57.1999
61.0798
65.0755
69.2604
73.6135
78.1422
82.8507
87.7402
92.8152
98.0785
103.533
109.182
115.027
121.073
127.319
133.77
140.425
147.286
154.353
161.628
169.108
176.794
184.683
192.775
201.065
209.553
218.231
227.099
236.148
245.376
254.771
264.333
274.048
283.913
293.914
304.046
314.293
324.65
335.099
345.632
356.229
366.883
377.571
388.279
398.985
409.666
420.297
430.852
441.307
451.638
461.841
471.946
482.002
491.882
501.635
511.224
520.645
529.877
538.907
547.717
556.293
564.62
572.682
580.467
587.958
595.143
602.007
608.54
614.727
620.559
626.022
631.108
635.806
640.108
644.005
647.491
650.557
653.2
655.414
657.198
658.549
659.465
659.977
660.017
659.596
658.623
657.3
655.674
653.565
651.031
648.093
644.758
641.038
636.941
632.479
627.661
622.502
617.018
611.223
605.134
598.765
592.136
585.26
578.158
570.845
563.34
555.66
547.825
539.851
531.759
523.564
515.29
506.954
498.586
490.227
482.025
475.181
471.286
467.941
464.63
461.314
457.998
454.688
451.394
448.123
444.876
441.653
438.437
435.195
431.848
428.242
423.928
417.959
393.726
0.854028
0.530753
0.53742
0.607285
0.715097
0.855015
1.02871
1.2379
1.48219
1.75867
2.06258
2.38861
2.7317
3.08762
3.45296
3.82526
4.20275
4.58441
4.96962
5.35815
5.74966
6.14378
6.53951
6.93551
7.32961
7.71934
8.10538
8.51017
8.95704
9.46149
10.0609
10.8111
11.7551
12.9751
14.4329
16.074
18.8831
22.9024
23.528
24.6925
25.3324
26.5904
27.8509
29.6693
31.3805
33.1786
35.0053
36.9043
38.8597
40.8829
42.9729
45.1324
47.3626
49.6648
52.0403
54.4899
57.0145
59.615
62.2918
65.0455
67.8763
70.7846
73.77
76.8328
79.9724
83.1884
86.4801
89.8468
93.2872
96.8004
100.385
104.039
107.76
111.548
115.399
119.311
123.281
127.307
131.384
135.511
139.682
143.895
148.144
152.426
156.736
161.068
165.416
169.776
174.14
178.502
182.854
187.188
191.497
195.775
200.019
204.232
208.425
212.631
216.885
221.07
225.205
229.279
233.287
237.223
241.08
244.853
248.535
252.121
255.605
258.981
262.244
265.388
268.408
271.298
274.055
276.672
279.146
281.473
283.648
285.667
287.528
289.227
290.76
292.126
293.322
294.347
295.199
295.878
296.381
296.699
296.825
296.768
296.551
296.188
295.64
294.917
294.026
292.97
291.751
290.373
288.839
287.155
285.324
283.352
281.244
279.006
276.644
274.164
271.573
268.876
266.08
263.193
260.221
257.171
254.05
250.866
247.626
244.339
241.012
237.656
234.289
230.968
227.934
225.477
223.202
220.966
218.743
216.53
214.329
212.145
209.981
207.841
205.728
203.644
201.588
199.563
197.555
195.618
193.677
190.516
1.82366
0.942698
0.849885
0.885125
0.974748
1.1053
1.27372
1.47871
1.71817
1.98862
2.28558
2.60442
2.94099
3.292
3.65511
4.0289
4.41271
4.80661
5.21119
5.6275
6.05676
6.50046
6.96015
7.43796
7.93712
8.46372
9.02615
9.62477
10.2662
10.9722
11.7602
12.6447
13.6292
14.716
15.9112
17.2237
18.655
20.0581
21.0502
22.2
23.2988
24.5155
25.8394
27.2517
28.69
30.1781
31.7149
33.3058
34.9499
36.6489
38.4028
40.2126
42.0789
44.0021
45.9829
48.0219
50.1193
52.2758
54.4915
56.7668
59.1019
61.4968
63.9514
66.4654
69.0387
71.6708
74.3612
77.1092
79.9142
82.7752
85.6911
88.6608
91.6828
94.7557
97.8778
101.047
104.262
107.52
110.818
114.155
117.527
120.931
124.364
127.824
131.306
134.806
138.321
141.846
145.377
148.911
152.442
155.967
159.483
162.988
166.48
169.961
173.434
176.904
180.357
183.769
187.139
190.461
193.729
196.94
200.087
203.166
206.171
209.099
211.944
214.702
217.368
219.937
222.405
224.768
227.023
229.164
231.189
233.094
234.875
236.531
238.056
239.45
240.71
241.833
242.818
243.663
244.368
244.93
245.349
245.616
245.718
245.702
245.54
245.246
244.807
244.228
243.511
242.659
241.674
240.56
239.319
237.955
236.473
234.875
233.167
231.353
229.437
227.426
225.323
223.134
220.865
218.52
216.106
213.629
211.093
208.506
205.872
203.199
200.494
197.764
195.024
192.306
189.702
187.307
185.016
182.765
180.534
178.32
176.124
173.949
171.8
169.679
167.591
165.541
163.537
161.593
159.726
158.021
156.504
155.085
2.93713
1.40701
1.20437
1.20541
1.28587
1.41614
1.58732
1.79555
2.03778
2.3105
2.60978
2.93169
3.27276
3.63035
4.00268
4.38889
4.78891
5.20336
5.63339
6.0806
6.54683
7.0341
7.54436
8.07969
8.64216
9.23415
9.85805
10.5161
11.2127
11.9544
12.7473
13.596
14.5024
15.4661
16.4861
17.5585
18.6758
19.8024
20.9115
22.0641
23.2543
24.5037
25.8097
27.159
28.548
29.981
31.4605
32.9889
34.5676
36.1976
37.8797
39.6145
41.4028
43.2452
45.1422
47.0944
49.1022
51.1661
53.2866
55.4639
57.6985
59.9904
62.3399
64.7468
67.2112
69.7328
72.3115
74.9467
77.6379
80.3844
83.1856
86.0402
88.9473
91.9056
94.9136
97.9696
101.072
104.218
107.407
110.635
113.901
117.201
120.532
123.892
127.277
130.684
134.109
137.548
140.998
144.455
147.915
151.376
154.833
158.285
161.729
165.163
168.587
171.994
175.373
178.714
182.014
185.267
188.467
191.609
194.688
197.699
200.638
203.498
206.275
208.965
211.563
214.065
216.465
218.761
220.947
223.02
224.977
226.814
228.528
230.116
231.575
232.903
234.096
235.155
236.075
236.857
237.499
238
238.358
238.557
238.618
238.55
238.338
237.99
237.503
236.878
236.119
235.227
234.205
233.057
231.786
230.395
228.889
227.272
225.547
223.721
221.796
219.78
217.676
215.489
213.226
210.892
208.491
206.031
203.516
200.952
198.346
195.704
193.031
190.337
187.633
184.941
182.307
179.773
177.307
174.878
172.474
170.092
167.732
165.4
163.097
160.83
158.602
156.422
154.299
152.251
150.305
148.545
147.009
145.727
4.05779
1.88312
1.56606
1.5328
1.60087
1.72804
1.89969
2.10945
2.35329
2.62762
2.92887
3.25365
3.59898
3.96257
4.3429
4.73929
5.15171
5.58083
6.02775
6.494
6.98129
7.49148
8.02633
8.58749
9.17638
9.79427
10.4422
11.1215
11.8337
12.5811
13.3662
14.1924
15.0635
15.9809
16.9461
17.9588
19.0149
20.1077
21.2337
22.397
23.5992
24.8451
26.1371
27.4797
28.868
30.3025
31.7847
33.3161
34.8981
36.532
38.2187
39.9592
41.7545
43.6057
45.5136
47.4787
49.5015
51.5829
53.7235
55.9238
58.1846
60.5061
62.8889
65.3332
67.8392
70.407
73.0366
75.7278
78.4804
81.2939
84.1677
87.101
90.0928
93.1421
96.2474
99.4073
102.62
105.884
109.196
112.555
115.957
119.4
122.882
126.398
129.945
133.521
137.12
140.74
144.376
148.024
151.681
155.342
159.004
162.661
166.311
169.949
173.567
177.161
180.722
184.245
187.723
191.151
194.522
197.831
201.072
204.24
207.329
210.334
213.248
216.068
218.788
221.404
223.909
226.301
228.575
230.727
232.752
234.648
236.411
238.038
239.526
240.872
242.075
243.131
244.041
244.801
245.412
245.872
246.175
246.309
246.314
246.167
245.871
245.428
244.838
244.104
243.227
242.212
241.061
239.778
238.366
236.83
235.174
233.403
231.522
229.535
227.448
225.266
222.995
220.64
218.208
215.704
213.133
210.503
207.819
205.087
202.313
199.505
196.668
193.811
190.944
188.083
185.254
182.482
179.757
177.067
174.404
171.767
169.16
166.584
164.046
161.549
159.101
156.71
154.389
152.162
150.057
148.15
146.47
144.996
5.12795
2.34546
1.91539
1.84737
1.90102
2.02257
2.19202
2.40064
2.64341
2.91654
3.21669
3.54083
3.88637
4.25126
4.63413
5.03429
5.45165
5.8867
6.34036
6.81389
7.30878
7.82667
8.36915
8.9378
9.53397
10.1589
10.8138
11.4997
12.2179
12.9699
13.7576
14.5836
15.4506
16.3605
17.315
18.3148
19.3588
20.4458
21.5748
22.7459
23.9601
25.2199
26.5271
27.8835
29.2889
30.7442
32.2504
33.8088
35.421
37.088
38.8114
40.5922
42.4315
44.3306
46.2902
48.3119
50.397
52.5463
54.7611
57.0422
59.3905
61.807
64.2922
66.8469
69.4716
72.1666
74.9322
77.7686
80.6756
83.653
86.7003
89.8169
93.002
96.2544
99.5728
102.956
106.401
109.907
113.472
117.092
120.765
124.488
128.257
132.069
135.92
139.806
143.722
147.665
151.63
155.612
159.606
163.607
167.611
171.611
175.602
179.577
183.53
187.454
191.342
195.187
198.983
202.721
206.398
210.004
213.535
216.983
220.343
223.607
226.771
229.829
232.774
235.601
238.306
240.882
243.326
245.633
247.799
249.819
251.691
253.411
254.976
256.383
257.63
258.716
259.638
260.395
260.986
261.411
261.655
261.733
261.658
261.416
261.011
260.445
259.719
258.836
257.8
256.612
255.278
253.802
252.187
250.439
248.563
246.563
244.446
242.218
239.884
237.449
234.921
232.306
229.61
226.839
224
221.1
218.145
215.142
212.097
209.019
205.913
202.787
199.651
196.518
193.405
190.329
187.289
184.281
181.304
178.358
175.446
172.573
169.743
166.964
164.241
161.587
159.015
156.55
154.222
152.096
150.185
148.408
6.10879
2.77636
2.23835
2.13547
2.17305
2.28671
2.45137
2.65607
2.8948
3.1635
3.45895
3.77838
4.11948
4.48045
4.86004
5.25758
5.67296
6.10655
6.55911
7.03177
7.52585
8.04287
8.58438
9.15198
9.74714
10.3713
11.0259
11.7122
12.4317
13.186
13.9767
14.8059
15.6755
16.5872
17.5425
18.5423
19.5869
20.6767
21.8119
22.9932
24.2215
25.4985
26.8258
28.2049
29.6368
31.1228
32.6641
34.2623
35.9189
37.6355
39.4136
41.2548
43.1607
45.1327
47.1725
49.2817
51.4618
53.7144
56.0409
58.4426
60.9209
63.4771
66.1122
68.8272
71.623
74.5003
77.4598
80.5017
83.6261
86.8332
90.1225
93.4935
96.9454
100.477
104.087
107.774
111.536
115.371
119.275
123.247
127.282
131.378
135.53
139.735
143.987
148.283
152.616
156.983
161.378
165.794
170.226
174.668
179.113
183.555
187.986
192.399
196.786
201.14
205.453
209.716
213.923
218.066
222.137
226.128
230.033
233.843
237.552
241.153
244.638
248.002
251.237
254.337
257.297
260.112
262.775
265.282
267.629
269.811
271.824
273.665
275.331
276.818
278.125
279.25
280.191
280.948
281.519
281.9
282.079
282.088
281.913
281.555
281.017
280.3
279.406
278.34
277.105
275.705
274.144
272.428
270.562
268.55
266.4
264.118
261.708
259.179
256.536
253.787
250.939
247.998
244.972
241.868
238.693
235.454
232.159
228.816
225.431
222.012
218.566
215.102
211.628
208.155
204.696
201.264
197.864
194.495
191.16
187.861
184.601
181.387
178.224
175.119
172.082
169.122
166.258
163.511
160.913
158.517
156.32
154.195
6.97299
3.16238
2.52461
2.38745
2.40776
2.51153
2.66903
2.86723
3.0992
3.36055
3.64808
3.95924
4.29197
4.64469
5.01632
5.4063
5.81451
6.2413
6.68741
7.15393
7.64214
8.15349
8.68954
9.25187
9.84197
10.4614
11.1118
11.7948
12.5121
13.2652
14.0558
14.8856
15.7564
16.6697
17.6269
18.6293
19.678
20.7739
21.918
23.1116
24.3558
25.6523
27.003
28.4094
29.873
31.3957
32.9791
34.6252
36.3358
38.1129
39.9584
41.8743
43.8627
45.9256
48.065
50.2831
52.5818
54.963
57.4289
59.9812
62.6216
65.352
68.1738
71.0885
74.0973
77.2013
80.4014
83.6982
87.0921
90.5832
94.1714
97.8561
101.637
105.512
109.48
113.54
117.688
121.924
126.242
130.641
135.116
139.664
144.279
148.957
153.692
158.48
163.313
168.186
173.093
178.026
182.978
187.942
192.909
197.872
202.823
207.752
212.651
217.511
222.322
227.077
231.766
236.38
240.912
245.351
249.691
253.921
258.034
262.022
265.878
269.592
273.159
276.572
279.823
282.907
285.818
288.55
291.099
293.459
295.628
297.601
299.374
300.946
302.314
303.475
304.429
305.175
305.713
306.031
306.139
306.048
305.751
305.251
304.55
303.65
302.556
301.271
299.8
298.148
296.319
294.321
292.159
289.839
287.368
284.754
282.003
279.123
276.122
273.007
269.786
266.468
263.059
259.569
256.005
252.376
248.688
244.951
241.172
237.36
233.521
229.665
225.8
221.937
218.085
214.257
210.458
206.692
202.962
199.274
195.632
192.042
188.51
185.046
181.659
178.361
175.168
172.105
169.198
166.493
163.97
161.475
7.70422
3.49497
2.76779
2.59759
2.5999
2.6921
2.8404
3.02991
3.25282
3.50445
3.78156
4.08176
4.40322
4.74457
5.10496
5.48398
5.88158
6.29775
6.73357
7.19024
7.66905
8.17148
8.69915
9.25383
9.83749
10.4511
11.0962
11.7745
12.4875
13.237
14.0246
14.8522
15.7214
16.634
17.5915
18.5954
19.6473
20.7486
21.9011
23.1066
24.3676
25.6861
27.0632
28.5007
30.0003
31.5647
33.1964
34.8978
36.6712
38.5189
40.4436
42.4477
44.5337
46.7043
48.962
51.3095
53.7493
56.284
58.916
61.6478
64.4817
67.4198
70.4643
73.6169
76.8794
80.2531
83.7392
87.3387
91.0521
94.8797
98.8213
102.877
107.044
111.324
115.713
120.21
124.811
129.515
134.316
139.212
144.198
149.269
154.419
159.643
164.935
170.287
175.692
181.144
186.634
192.154
197.695
203.249
208.807
214.357
219.892
225.4
230.872
236.296
241.664
246.965
252.189
257.325
262.364
267.296
272.112
276.8
281.353
285.761
290.015
294.107
298.029
301.773
305.332
308.699
311.867
314.832
317.586
320.127
322.449
324.548
326.422
328.067
329.481
330.663
331.612
332.327
332.807
333.04
333.048
332.826
332.376
331.7
330.802
329.684
328.352
326.81
325.063
323.117
320.979
318.656
316.155
313.483
310.648
307.658
304.521
301.246
297.842
294.316
290.679
286.938
283.104
279.184
275.187
271.122
266.999
262.825
258.61
254.362
250.089
245.8
241.503
237.21
232.928
228.669
224.44
220.246
216.093
211.986
207.932
203.937
200.01
196.158
192.393
188.728
185.178
181.768
178.521
175.475
172.598
169.72
8.29383
3.76975
2.96537
2.76279
2.74792
2.82717
2.96457
3.14359
3.35565
3.59576
3.86063
4.14803
4.45625
4.78397
5.13079
5.49677
5.8824
6.28865
6.71531
7.16315
7.63333
8.12726
8.64642
9.19237
9.76649
10.3705
11.0061
11.6754
12.3801
13.1221
13.9034
14.7259
15.5913
16.5017
17.4588
18.4647
19.5212
20.6304
21.7943
23.015
24.2941
25.6343
27.0381
28.5088
30.0497
31.6624
33.3503
35.1164
36.9636
38.8948
40.9132
43.0217
45.2235
47.522
49.9202
52.4214
55.0288
57.7456
60.5749
63.5197
66.5828
69.7669
73.0746
76.5082
80.0697
83.7609
87.5831
91.5376
95.625
99.8455
104.199
108.685
113.303
118.05
122.924
127.924
133.046
138.285
143.639
149.101
154.666
160.33
166.084
171.922
177.837
183.82
189.863
195.957
202.093
208.262
214.452
220.653
226.855
233.046
239.215
245.35
251.44
257.474
263.438
269.322
275.115
280.804
286.379
291.828
297.141
302.307
307.314
312.154
316.816
321.292
325.571
329.647
333.51
337.154
340.571
343.756
346.703
349.407
351.863
354.067
356.017
357.71
359.143
360.315
361.226
361.876
362.261
362.383
362.248
361.856
361.213
360.321
359.184
357.807
356.193
354.351
352.285
350.004
347.513
344.823
341.94
338.873
335.631
332.223
328.659
324.948
321.1
317.124
313.031
308.83
304.531
300.144
295.678
291.142
286.548
281.903
277.217
272.499
267.758
263.004
258.245
253.49
248.75
244.033
239.349
234.703
230.103
225.556
221.067
216.646
212.3
208.038
203.873
199.818
195.889
192.107
188.496
185.084
181.833
178.565
8.74122
3.9853
3.11675
2.88435
2.8526
2.91817
3.04346
3.21064
3.41055
3.63789
3.88914
4.16266
4.45753
4.77374
5.10956
5.46451
5.83846
6.23126
6.64391
7.07783
7.53433
8.01479
8.52069
9.05358
9.61515
10.2074
10.8322
11.4916
12.1873
12.9214
13.6959
14.513
15.3747
16.2834
17.2413
18.2508
19.3142
20.4341
21.613
22.8535
24.1585
25.5309
26.974
28.4906
30.0817
31.753
33.5095
35.3551
37.2929
39.3266
41.4597
43.6961
46.0395
48.4939
51.0632
53.7512
56.562
59.4992
62.5666
65.7678
69.1062
72.585
76.2073
79.9756
83.8922
87.9593
92.1783
96.5504
101.076
105.756
110.589
115.575
120.712
125.998
131.43
137.004
142.717
148.565
154.54
160.639
166.854
173.177
179.602
186.119
192.72
199.395
206.134
212.926
219.761
226.627
233.512
240.404
247.291
254.16
260.997
267.79
274.526
281.19
287.771
294.255
300.629
306.88
312.996
318.964
324.773
330.41
335.864
341.125
346.18
351.022
355.638
360.022
364.164
368.056
371.692
375.065
378.169
380.999
383.551
385.82
387.804
389.501
390.908
392.025
392.853
393.39
393.637
393.596
393.269
392.659
391.773
390.616
389.193
387.507
385.565
383.375
380.945
378.281
375.394
372.291
368.984
365.48
361.79
357.925
353.895
349.711
345.382
340.921
336.338
331.644
326.848
321.963
316.997
311.963
306.869
301.725
296.543
291.33
286.097
280.854
275.609
270.372
265.152
259.959
254.801
249.687
244.624
239.619
234.681
229.817
225.037
220.35
215.769
211.308
206.982
202.812
198.816
195.022
191.383
187.723
9.05267
4.14348
3.22408
2.96527
2.91716
2.96868
3.08103
3.23533
3.42234
3.63728
3.8775
4.13991
4.42267
4.72405
5.04394
5.38265
5.74047
6.11805
6.51662
6.93701
7.38035
7.84799
8.34146
8.86241
9.41265
9.99413
10.6089
11.2589
11.9465
12.6738
13.4433
14.2573
15.1185
16.0294
16.9929
18.0118
19.089
20.2276
21.4308
22.7017
24.0444
25.462
26.9572
28.5316
30.1914
31.943
33.7907
35.7402
37.7964
39.9631
42.2445
44.645
47.1694
49.8222
52.6081
55.5316
58.5975
61.81
65.1735
68.6921
72.3698
76.21
80.2161
84.3909
88.7368
93.2559
97.9496
102.819
107.864
113.084
118.479
124.047
129.786
135.692
141.762
147.991
154.375
160.906
167.579
174.386
181.319
188.369
195.526
202.781
210.123
217.541
225.022
232.555
240.127
247.724
255.334
262.941
270.533
278.095
285.611
293.067
300.45
307.743
314.932
322.004
328.943
335.736
342.369
348.828
355.102
361.176
367.039
372.679
378.084
383.245
388.15
392.791
397.159
401.245
405.043
408.545
411.747
414.643
417.229
419.502
421.458
423.096
424.415
425.415
426.096
426.459
426.505
426.243
425.66
424.773
423.587
422.109
420.342
418.293
415.97
413.382
410.536
407.443
404.112
400.554
396.778
392.797
388.621
384.261
379.729
375.038
370.197
365.221
360.119
354.904
349.587
344.18
338.693
333.137
327.524
321.864
316.167
310.443
304.702
298.955
293.21
287.477
281.766
276.085
270.445
264.853
259.318
253.848
248.452
243.137
237.914
232.794
227.788
222.911
218.178
213.608
209.218
205.031
200.998
196.947
9.2412
4.24929
3.29139
3.00983
2.9462
2.98361
3.08337
3.22698
3.40353
3.60681
3.83248
4.07912
4.34569
4.63167
4.93705
5.26168
5.60586
5.97023
6.35568
6.76329
7.19428
7.65011
8.13238
8.64291
9.18362
9.75662
10.3641
11.0085
11.6923
12.418
13.1886
14.007
14.8761
15.799
16.7791
17.82
18.9259
20.1001
21.3458
22.6664
24.0643
25.5427
27.1093
28.7715
30.5347
32.404
34.3849
36.4832
38.7051
41.0556
43.5397
46.1629
48.9308
51.8486
54.9218
58.1556
61.555
65.1251
68.8706
72.7958
76.9049
81.2015
85.6889
90.3696
95.246
100.32
105.591
111.061
116.728
122.592
128.651
134.901
141.339
147.96
154.76
161.732
168.87
176.165
183.61
191.195
198.91
206.744
214.687
222.727
230.85
239.044
247.295
255.589
263.912
272.248
280.583
288.901
297.186
305.423
313.595
321.686
329.68
337.562
345.315
352.925
360.375
367.652
374.74
381.625
388.293
394.732
400.929
406.871
412.546
417.944
423.054
427.867
432.375
436.568
440.441
443.986
447.198
450.073
452.607
454.796
456.639
458.135
459.282
460.082
460.537
460.647
460.424
459.855
458.946
457.712
456.159
454.293
452.121
449.649
446.887
443.845
440.533
436.96
433.139
429.081
424.797
420.299
415.6
410.713
405.649
400.421
395.043
389.527
383.885
378.13
372.274
366.329
360.307
354.219
348.076
341.889
335.669
329.427
323.173
316.917
310.668
304.436
298.23
292.061
285.938
279.868
273.861
267.926
262.071
256.306
250.64
245.086
239.654
234.358
229.216
224.242
219.453
214.871
210.444
206.011
9.29979
4.30205
3.32115
3.02187
2.94546
2.9726
3.06182
3.19229
3.3543
3.54264
3.75441
3.98767
4.24117
4.5143
4.8069
5.1191
5.45133
5.80429
6.17893
6.57642
6.99815
7.44573
7.92099
8.42599
8.96298
9.53432
10.1425
10.7904
11.4807
12.2169
13.0025
13.8415
14.7369
15.6922
16.7113
17.7976
18.9532
20.1825
21.4924
22.889
24.3789
25.9687
27.6639
29.4714
31.3977
33.4492
35.6325
37.9551
40.4226
43.0418
45.8191
48.7611
51.8742
55.1644
58.6375
62.299
66.1541
70.208
74.4653
78.9302
83.6063
88.4968
93.6043
98.9305
104.477
110.243
116.229
122.434
128.855
135.49
142.334
149.384
156.633
164.075
171.703
179.509
187.483
195.616
203.898
212.318
220.862
229.52
238.277
247.119
256.033
265.004
274.016
283.054
292.101
301.141
310.158
319.135
328.055
336.901
345.656
354.302
362.824
371.203
379.424
387.471
395.327
402.978
410.408
417.603
424.548
431.232
437.639
443.759
449.58
455.09
460.281
465.141
469.664
473.841
477.665
481.132
484.235
486.971
489.337
491.33
492.95
494.195
495.066
495.564
495.694
495.468
494.87
493.905
492.589
490.928
488.932
486.607
483.96
481
477.74
474.187
470.355
466.255
461.898
457.298
452.468
447.42
442.168
436.725
431.104
425.32
419.385
413.314
407.119
400.815
394.412
387.924
381.363
374.74
368.068
361.356
354.617
347.861
341.098
334.339
327.593
320.87
314.179
307.53
300.932
294.395
287.926
281.536
275.232
269.026
262.926
256.945
251.094
245.388
239.84
234.468
229.285
224.312
219.497
214.697
9.27997
4.31156
3.32056
3.01167
2.92533
2.9393
3.01479
3.13247
3.28246
3.45915
3.65938
3.88132
4.1239
4.38665
4.66951
4.97279
5.29711
5.64337
6.01268
6.40641
6.82618
7.2739
7.75178
8.26242
8.80908
9.39435
10.021
10.6922
11.4116
12.1824
13.0075
13.8884
14.8323
15.845
16.932
18.099
19.353
20.6999
22.1458
23.6978
25.3635
27.1507
29.0668
31.1192
33.3158
35.6642
38.1721
40.8476
43.6981
46.7312
49.955
53.3771
57.0049
60.844
64.8997
69.1768
73.6799
78.4131
83.3799
88.5833
94.0253
99.7075
105.63
111.794
118.197
124.837
131.712
138.818
146.15
153.703
161.47
169.445
177.618
185.981
194.524
203.237
212.108
221.125
230.277
239.548
248.927
258.398
267.946
277.557
287.214
296.901
306.602
316.3
325.977
335.618
345.204
354.717
364.141
373.458
382.651
391.701
400.593
409.308
417.831
426.145
434.234
442.084
449.679
457.005
464.048
470.796
477.236
483.355
489.144
494.591
499.687
504.423
508.792
512.786
516.401
519.63
522.47
524.917
526.969
528.626
529.884
530.749
531.217
531.291
530.998
530.302
529.222
527.769
525.951
523.776
521.255
518.392
515.199
511.687
507.866
503.748
499.346
494.672
489.74
484.563
479.155
473.53
467.702
461.685
455.493
449.141
442.643
436.013
429.264
422.411
415.466
408.442
401.351
394.205
387.016
379.795
372.552
365.299
358.046
350.803
343.58
336.386
329.23
322.122
315.072
308.087
301.178
294.353
287.621
280.993
274.478
268.089
261.836
255.734
249.796
244.039
238.475
233.124
227.937
222.79
9.21755
4.30057
3.30322
2.98154
2.88281
2.8859
2.95108
3.05873
3.19903
3.36665
3.55861
3.77322
4.00961
4.2675
4.5471
4.84903
5.17447
5.52515
5.90207
6.30696
6.74192
7.20932
7.71164
8.25121
8.82941
9.45012
10.1188
10.8403
11.6196
12.462
13.3734
14.361
15.4299
16.5871
17.8398
19.1961
20.6645
22.2533
23.9711
25.8267
27.8295
29.9886
32.3132
34.8123
37.495
40.3697
43.4445
46.7258
50.2218
53.9423
57.8963
62.0939
66.5445
71.2484
76.2077
81.4241
86.8993
92.6344
98.6297
104.885
111.398
118.167
125.189
132.46
139.974
147.727
155.711
163.92
172.344
180.975
189.804
198.82
208.012
217.368
226.876
236.524
246.299
256.185
266.17
276.239
286.376
296.567
306.795
317.045
327.3
337.544
347.761
357.933
368.043
378.074
388.009
397.832
407.524
417.07
426.451
435.652
444.655
453.445
462.005
470.321
478.377
486.159
493.652
500.844
507.722
514.273
520.486
526.351
531.856
536.993
541.753
546.129
550.113
553.7
556.886
559.665
562.036
563.996
565.542
566.678
567.396
567.714
567.616
567.137
566.23
564.934
563.25
561.185
558.75
555.953
552.804
549.312
545.487
541.343
536.89
532.142
527.111
521.812
516.259
510.465
504.446
498.215
491.788
485.179
478.402
471.474
464.407
457.217
449.918
442.523
435.045
427.497
419.891
412.24
404.553
396.842
389.119
381.393
373.674
365.974
358.3
350.662
343.069
335.53
328.054
320.651
313.328
306.096
298.963
291.939
285.034
278.26
271.628
265.152
258.845
252.722
246.795
241.085
235.543
230.077
9.08877
4.26382
3.26463
2.93614
2.83099
2.82803
2.88769
2.99091
3.12816
3.29452
3.48764
3.70613
3.9492
4.21693
4.50986
4.82882
5.17456
5.54667
5.94915
6.38527
6.85837
7.37213
7.93068
8.53875
9.20244
9.92702
10.7182
11.5829
12.5286
13.5635
14.6964
15.9368
17.2939
18.7775
20.3981
22.1666
24.0944
26.1928
28.4731
30.9466
33.6242
36.5166
39.6337
42.9852
46.5803
50.4267
54.5313
58.8999
63.539
68.4545
73.6526
79.1403
84.9179
90.9803
97.3231
103.942
110.833
117.99
125.407
133.078
140.996
149.152
157.538
166.146
174.964
183.985
193.196
202.587
212.147
221.864
231.726
241.721
251.836
262.059
272.377
282.776
293.242
303.762
314.322
324.908
335.504
346.098
356.674
367.217
377.712
388.144
398.498
408.757
418.908
428.933
438.818
448.546
458.104
467.474
476.643
485.593
494.312
502.784
510.994
518.93
526.576
533.921
540.951
547.655
554.022
560.041
565.702
570.995
575.91
580.441
584.58
588.321
591.656
594.584
597.1
599.199
600.882
602.149
602.989
603.428
603.421
603.056
602.236
601.017
599.397
597.385
594.988
592.214
589.073
585.576
581.732
577.551
573.044
568.226
563.108
557.705
552.028
546.094
539.915
533.508
526.886
520.065
513.059
505.883
498.552
491.081
483.484
475.776
467.97
460.081
452.12
444.101
436.035
427.933
419.807
411.665
403.52
395.38
387.256
379.156
371.091
363.068
355.096
347.184
339.34
331.573
323.891
316.305
308.821
301.451
294.204
287.092
280.125
273.317
266.681
260.231
253.977
247.944
242.08
236.335
8.95979
4.20752
3.21761
2.89131
2.78737
2.78657
2.85107
2.96151
3.10849
3.2871
3.49412
3.72831
3.99081
4.28283
4.60603
4.96265
5.35566
5.78934
6.26715
6.79395
7.37545
8.01819
8.7296
9.51807
10.393
11.3638
12.4409
13.6358
14.9611
16.4299
18.056
19.8536
21.837
24.0208
26.4199
29.0487
31.9209
35.0492
38.446
42.1228
46.0892
50.3529
54.9198
59.795
64.9834
70.486
76.3015
82.4281
88.8668
95.6143
102.67
110.03
117.664
125.561
133.71
142.099
150.715
159.547
168.581
177.805
187.206
196.773
206.494
216.356
226.348
236.458
246.675
256.987
267.382
277.85
288.38
298.961
309.581
320.23
330.896
341.568
352.235
362.886
373.509
384.093
394.625
405.095
415.49
425.798
436.007
446.104
456.077
465.913
475.598
485.119
494.464
503.62
512.572
521.309
529.816
538.08
546.09
553.831
561.292
568.46
575.324
581.872
588.093
593.976
599.513
604.695
609.512
613.955
618.017
621.692
624.974
627.856
630.333
632.404
634.07