/*--------------------------------*- C++ -*----------------------------------*\
  =========                 |
  \\      /  F ield         | OpenFOAM: The Open Source CFD Toolbox
   \\    /   O peration     | Website:  https://openfoam.org
    \\  /    A nd           | Version:  8
     \\/     M anipulation  |
\*---------------------------------------------------------------------------*/
FoamFile
{
    version     2.0;
    format      ascii;
    class       volScalarField;
    location    "275";
    object      k;
}
// * * * * * * * * * * * * * * * * * * * * * * * * * * * * * * * * * * * * * //

dimensions      [0 2 -2 0 0 0 0];

internalField   nonuniform List<scalar> 
12225
(
0.362828
0.34399
0.327752
0.30981
0.295411
0.283468
0.275529
0.270279
0.270337
0.271887
0.276045
0.28072
0.289843
0.295632
0.306781
0.312681
0.325698
0.323691
0.44027
0.468738
0.461616
0.44837
0.450343
0.458314
0.474575
0.498485
0.524416
0.552062
0.580736
0.606108
0.633787
0.653797
0.679662
0.692918
0.718049
0.72418
0.390406
0.41786
0.420244
0.41683
0.411634
0.407802
0.40802
0.410036
0.414565
0.42138
0.430719
0.439704
0.45115
0.461138
0.472789
0.483494
0.493457
0.505766
0.377043
0.387169
0.391466
0.391343
0.39026
0.387882
0.385662
0.384078
0.382884
0.382896
0.383354
0.384377
0.386268
0.388459
0.390895
0.394224
0.396516
0.400927
0.374434
0.376094
0.378427
0.378665
0.378275
0.3772
0.375489
0.373737
0.37201
0.370455
0.369255
0.368109
0.367379
0.366802
0.36644
0.366327
0.366344
0.366688
0.373779
0.372704
0.372659
0.372365
0.371773
0.370818
0.369554
0.368083
0.366572
0.364977
0.363528
0.362063
0.360755
0.359529
0.358397
0.357426
0.356437
0.355779
0.373775
0.37174
0.370388
0.369284
0.368235
0.367114
0.365915
0.364587
0.363239
0.361808
0.360423
0.359024
0.357679
0.356383
0.355122
0.353967
0.352795
0.351803
0.373818
0.371559
0.369635
0.367976
0.366501
0.365108
0.363776
0.36243
0.361108
0.359767
0.358451
0.357145
0.355864
0.354624
0.353403
0.352252
0.3511
0.350054
0.373832
0.371553
0.369449
0.367525
0.365777
0.364154
0.362645
0.361199
0.359818
0.358474
0.35717
0.355904
0.354668
0.353477
0.352309
0.351198
0.350099
0.349075
0.373831
0.37156
0.369418
0.367405
0.365529
0.363773
0.362133
0.360585
0.359122
0.357728
0.356395
0.355119
0.353889
0.352711
0.351571
0.350483
0.349421
0.348422
0.373829
0.37156
0.369413
0.367378
0.365458
0.363645
0.361937
0.360324
0.358799
0.357353
0.355979
0.354673
0.353425
0.352236
0.351095
0.35001
0.34896
0.34797
0.373828
0.371558
0.369409
0.36737
0.365439
0.363609
0.361876
0.360234
0.358678
0.357202
0.3558
0.354469
0.353201
0.351995
0.350843
0.349748
0.348696
0.347701
0.373827
0.371556
0.369405
0.367365
0.36543
0.363593
0.361851
0.360197
0.358626
0.357134
0.355716
0.354368
0.353085
0.351865
0.350701
0.349595
0.348536
0.347532
0.373826
0.371555
0.369401
0.367359
0.365422
0.363583
0.361837
0.360178
0.3586
0.357101
0.355674
0.354317
0.353025
0.351795
0.350622
0.349506
0.34844
0.347427
0.373826
0.371553
0.369398
0.367355
0.365416
0.363575
0.361826
0.360164
0.358584
0.357081
0.355651
0.35429
0.352993
0.351758
0.35058
0.349458
0.348388
0.347368
0.373826
0.371552
0.369396
0.367351
0.36541
0.363567
0.361817
0.360153
0.358571
0.357067
0.355634
0.35427
0.352971
0.351734
0.350554
0.349429
0.348356
0.347333
0.373825
0.371551
0.369394
0.367348
0.365406
0.363562
0.36181
0.360145
0.358561
0.357055
0.355621
0.354256
0.352955
0.351716
0.350534
0.349408
0.348333
0.347308
0.373825
0.371551
0.369393
0.367346
0.365403
0.363558
0.361805
0.360139
0.358554
0.357047
0.355612
0.354245
0.352943
0.351703
0.35052
0.349392
0.348316
0.347289
0.373825
0.37155
0.369393
0.367345
0.365402
0.363557
0.361804
0.360137
0.358552
0.357043
0.355608
0.35424
0.352938
0.351696
0.350513
0.349384
0.348307
0.34728
0.373825
0.371551
0.369393
0.367347
0.365404
0.363559
0.361806
0.360139
0.358555
0.357046
0.355611
0.354244
0.352941
0.3517
0.350516
0.349388
0.348311
0.347284
0.373825
0.371551
0.369395
0.367349
0.365407
0.363563
0.361811
0.360145
0.358562
0.357055
0.355621
0.354255
0.352954
0.351715
0.350533
0.349407
0.348332
0.347307
0.373826
0.371552
0.369397
0.367352
0.365412
0.363571
0.361822
0.360161
0.358583
0.357083
0.355656
0.354298
0.353006
0.351774
0.350602
0.349483
0.348416
0.347397
0.373826
0.371554
0.369399
0.367359
0.365428
0.363602
0.361875
0.36024
0.35869
0.35722
0.355823
0.354493
0.353227
0.352018
0.350865
0.349762
0.34871
0.3477
0.373828
0.371551
0.369412
0.367417
0.365556
0.363819
0.362189
0.360651
0.359189
0.357793
0.356456
0.355171
0.353935
0.352745
0.3516
0.350495
0.349435
0.348409
0.373823
0.371554
0.369604
0.367893
0.366339
0.364892
0.363495
0.362122
0.360761
0.359413
0.35808
0.356769
0.355488
0.354237
0.353029
0.351855
0.350734
0.349645
0.373781
0.37199
0.371113
0.370265
0.36936
0.368311
0.367048
0.36563
0.36412
0.362575
0.36103
0.359522
0.358073
0.356682
0.355381
0.354141
0.353009
0.351923
0.374297
0.375564
0.377778
0.377858
0.377291
0.375885
0.373835
0.371641
0.369505
0.367482
0.365664
0.364084
0.36271
0.361535
0.36061
0.359818
0.359289
0.358801
0.378732
0.394393
0.398293
0.396565
0.392558
0.387608
0.383641
0.380455
0.378266
0.376852
0.376497
0.37675
0.3774
0.378699
0.380444
0.382425
0.384829
0.38714
0.408344
0.427539
0.422424
0.411051
0.402227
0.397924
0.398558
0.401119
0.405988
0.413042
0.421001
0.429834
0.438842
0.448199
0.457315
0.466563
0.475332
0.484193
0.366033
0.353412
0.341988
0.33021
0.318982
0.308382
0.299409
0.291674
0.285403
0.280333
0.276682
0.273868
0.272311
0.271185
0.271177
0.271523
0.272158
0.273389
0.000579258
0.00335809
0.00625989
0.00882642
0.0112984
0.0140767
0.0172874
0.0210857
0.0255436
0.0306277
0.03623
0.0422183
0.0484646
0.0548631
0.0613269
0.0677908
0.0741991
0.0805088
0.0866762
0.0926628
0.098422
0.10391
0.109073
0.113866
0.118241
0.122171
0.125641
0.128675
0.13112
0.132967
0.135813
0.137911
0.139914
0.141579
0.14382
0.142927
0.140056
0.134383
0.1395
0.145327
0.148678
0.149546
0.15163
0.161211
0.167574
0.175676
0.183304
0.191439
0.199601
0.207994
0.216525
0.225227
0.234087
0.243108
0.252287
0.261625
0.27112
0.280772
0.290578
0.300538
0.310648
0.320909
0.331313
0.341861
0.352545
0.363366
0.374312
0.385385
0.396572
0.407874
0.419276
0.430779
0.442368
0.454041
0.465782
0.477591
0.489449
0.501354
0.51329
0.525252
0.537223
0.549198
0.561158
0.573099
0.585
0.596856
0.608645
0.62036
0.63198
0.643494
0.654879
0.666115
0.67718
0.688051
0.698707
0.709129
0.719317
0.729307
0.739158
0.74874
0.758111
0.767237
0.776119
0.784742
0.793096
0.801171
0.808956
0.816443
0.823621
0.830482
0.837016
0.843217
0.849074
0.854582
0.859732
0.864519
0.868936
0.872978
0.876639
0.879916
0.882803
0.885297
0.887395
0.889095
0.890395
0.891298
0.891802
0.891911
0.891618
0.890934
0.889818
0.888196
0.886256
0.884036
0.881392
0.878353
0.874947
0.871179
0.867057
0.862589
0.857782
0.852645
0.847189
0.841427
0.835368
0.829027
0.822415
0.815546
0.808433
0.801089
0.793529
0.785766
0.777815
0.769692
0.761409
0.752985
0.744432
0.735769
0.727013
0.718189
0.709337
0.700594
0.693109
0.688497
0.684429
0.680385
0.676325
0.672252
0.668174
0.664099
0.660035
0.655985
0.651944
0.647901
0.643821
0.639629
0.635167
0.629995
0.623176
0.59793
0.00296224
0.0121832
0.0184522
0.023115
0.0272217
0.0312349
0.0355097
0.0402432
0.0455098
0.0512873
0.0574958
0.0640336
0.0707999
0.077708
0.0846878
0.0916854
0.0986583
0.105574
0.112403
0.119121
0.125699
0.13211
0.138322
0.14431
0.150049
0.155531
0.160769
0.165818
0.170767
0.175799
0.181178
0.187009
0.193553
0.200379
0.206352
0.211755
0.21797
0.225723
0.238424
0.246023
0.257148
0.270833
0.287819
0.301022
0.313083
0.325932
0.339149
0.352781
0.366748
0.38105
0.395669
0.410608
0.425862
0.441433
0.457321
0.473527
0.490051
0.506895
0.524058
0.541541
0.559341
0.57746
0.595893
0.614639
0.633693
0.653053
0.672712
0.692665
0.712905
0.733424
0.754212
0.775263
0.796563
0.818103
0.839869
0.86185
0.88403
0.906395
0.928929
0.951617
0.974439
0.997379
1.02042
1.04353
1.06671
1.08992
1.11314
1.13636
1.15954
1.18266
1.2057
1.22862
1.25138
1.27395
1.29629
1.31835
1.34007
1.36138
1.38225
1.40283
1.4231
1.44304
1.46263
1.48185
1.50067
1.51907
1.53704
1.55454
1.57156
1.58809
1.60409
1.61956
1.63446
1.64879
1.66253
1.67566
1.68816
1.70002
1.71123
1.72177
1.73162
1.74079
1.74924
1.75698
1.764
1.77029
1.77585
1.78067
1.78475
1.78809
1.79069
1.79228
1.79312
1.79346
1.79304
1.79182
1.78985
1.78715
1.78372
1.77958
1.77474
1.76921
1.76301
1.75615
1.74865
1.74053
1.73182
1.72252
1.71267
1.70229
1.6914
1.68002
1.66819
1.65592
1.64324
1.63019
1.61679
1.60308
1.58907
1.5748
1.56032
1.5457
1.53121
1.51715
1.50313
1.48904
1.47491
1.46076
1.44663
1.43253
1.41849
1.40453
1.39065
1.37686
1.36313
1.34944
1.33561
1.32161
1.30596
1.27045
0.00632706
0.0210124
0.0293702
0.0355675
0.0410456
0.0463627
0.0518253
0.0576074
0.0637843
0.0703565
0.0772755
0.0844707
0.0918679
0.0994019
0.10702
0.114684
0.122367
0.13005
0.137724
0.145382
0.15302
0.160636
0.168232
0.175816
0.18341
0.191058
0.198835
0.206857
0.215255
0.22417
0.233713
0.243901
0.254581
0.265372
0.276313
0.287757
0.299802
0.312943
0.327147
0.341277
0.356973
0.373761
0.390837
0.407324
0.423851
0.440757
0.458066
0.475791
0.493918
0.512442
0.531356
0.550658
0.570345
0.590419
0.610878
0.631723
0.652953
0.674568
0.696567
0.71895
0.741714
0.764856
0.788374
0.812262
0.836517
0.861132
0.886099
0.911412
0.937061
0.963037
0.989328
1.01592
1.04281
1.06997
1.09739
1.12506
1.15296
1.18107
1.20936
1.23783
1.26645
1.29519
1.32404
1.35297
1.38195
1.41096
1.43997
1.46895
1.49787
1.52671
1.55544
1.58401
1.61241
1.64058
1.66851
1.69616
1.7235
1.75051
1.77717
1.80348
1.82939
1.85488
1.87992
1.90449
1.92854
1.95206
1.97502
1.99738
2.01912
2.04022
2.06065
2.08038
2.09939
2.11766
2.13517
2.15189
2.16781
2.1829
2.19715
2.21053
2.22304
2.23466
2.24537
2.25516
2.26403
2.27195
2.27893
2.28497
2.29005
2.29416
2.29729
2.29931
2.3003
2.30055
2.29983
2.29812
2.29545
2.29184
2.2873
2.28186
2.27552
2.2683
2.26022
2.2513
2.24158
2.23106
2.21978
2.20776
2.19503
2.18163
2.16757
2.1529
2.13764
2.12183
2.10551
2.0887
2.07145
2.05379
2.03577
2.01742
1.9988
1.97998
1.96113
1.94242
1.9237
1.90492
1.88609
1.86724
1.84842
1.82965
1.81097
1.79241
1.77399
1.75573
1.73766
1.7198
1.70208
1.6846
1.66604
1.63545
0.0101956
0.0293824
0.0397017
0.0472193
0.0537596
0.0599983
0.066277
0.072784
0.0796099
0.0867757
0.0942564
0.102003
0.109958
0.118073
0.126305
0.134628
0.143025
0.151492
0.16003
0.16865
0.177366
0.186197
0.195164
0.204302
0.213651
0.223271
0.233236
0.243638
0.254565
0.266095
0.278262
0.291042
0.30434
0.318066
0.332223
0.346902
0.362177
0.378164
0.394841
0.412079
0.430049
0.448603
0.467523
0.486674
0.506127
0.525952
0.546184
0.566843
0.587935
0.609465
0.631434
0.653841
0.676688
0.699976
0.723705
0.747877
0.772491
0.797549
0.823048
0.848989
0.875369
0.902186
0.929436
0.957116
0.985219
1.01374
1.04267
1.072
1.10173
1.13183
1.1623
1.19313
1.2243
1.25579
1.28759
1.31968
1.35204
1.38465
1.41749
1.45052
1.48374
1.51711
1.5506
1.58419
1.61785
1.65155
1.68525
1.71893
1.75255
1.78609
1.8195
1.85275
1.88581
1.91864
1.95121
1.98349
2.01544
2.04704
2.07824
2.10903
2.13935
2.16917
2.19846
2.22719
2.25531
2.28279
2.3096
2.33571
2.36108
2.38568
2.40949
2.43248
2.4546
2.47585
2.49619
2.5156
2.53405
2.55152
2.568
2.58346
2.59787
2.61124
2.62353
2.63474
2.64485
2.65385
2.66174
2.66851
2.67416
2.67867
2.68202
2.68412
2.68501
2.68499
2.68381
2.6815
2.67806
2.67353
2.66791
2.66123
2.65351
2.64476
2.63501
2.62429
2.61262
2.60003
2.58656
2.57223
2.55707
2.54112
2.52443
2.50701
2.48892
2.47019
2.45086
2.43097
2.41057
2.38969
2.3684
2.34673
2.32474
2.30252
2.28018
2.25783
2.23544
2.21298
2.19047
2.16795
2.14546
2.12304
2.10074
2.0786
2.05667
2.03498
2.0136
1.99261
1.97204
1.95205
1.93152
1.90358
0.0140913
0.0372314
0.0493552
0.058088
0.0655722
0.0725856
0.0795169
0.0865816
0.0938937
0.101499
0.109399
0.117565
0.125961
0.13455
0.143302
0.152198
0.161231
0.170404
0.179728
0.189223
0.198914
0.20883
0.219005
0.22948
0.240298
0.251514
0.263186
0.275379
0.288149
0.301538
0.315561
0.330199
0.34541
0.36116
0.377435
0.394255
0.411651
0.429653
0.448249
0.467415
0.487148
0.507407
0.528138
0.549305
0.570907
0.592953
0.615455
0.638426
0.661874
0.685806
0.710227
0.735139
0.760547
0.786454
0.81286
0.839769
0.867181
0.895099
0.923522
0.952449
0.981881
1.01181
1.04225
1.07317
1.10459
1.13649
1.16887
1.20171
1.23501
1.26876
1.30294
1.33753
1.37253
1.40791
1.44366
1.47975
1.51616
1.55287
1.58985
1.62708
1.66452
1.70216
1.73995
1.77787
1.81588
1.85395
1.89204
1.93012
1.96815
2.0061
2.04391
2.08157
2.11902
2.15623
2.19315
2.22976
2.266
2.30184
2.33723
2.37213
2.40651
2.44032
2.47351
2.50605
2.53789
2.569
2.59934
2.62887
2.65754
2.68534
2.71222
2.73814
2.76308
2.78701
2.80989
2.8317
2.85241
2.872
2.89045
2.90772
2.92381
2.93868
2.95234
2.96475
2.9759
2.9858
2.99442
3.00177
3.00784
3.0126
3.01607
3.01812
3.01887
3.01849
3.0168
3.01383
3.00961
3.00414
2.99745
2.98956
2.98049
2.97027
2.95893
2.94649
2.93299
2.91845
2.90292
2.88642
2.86901
2.8507
2.83155
2.8116
2.79089
2.76946
2.74737
2.72465
2.70136
2.67754
2.65325
2.62854
2.60348
2.57813
2.55261
2.52699
2.50128
2.47549
2.44965
2.4238
2.39799
2.37227
2.3467
2.32133
2.29622
2.27145
2.24711
2.22332
2.2002
2.17793
2.15555
2.12831
0.017813
0.0443682
0.0581144
0.0679559
0.0762926
0.0839884
0.0914764
0.0989995
0.106696
0.114638
0.122849
0.131326
0.140052
0.149003
0.158162
0.167518
0.177071
0.186829
0.196809
0.207037
0.217541
0.228356
0.239519
0.251071
0.26305
0.275503
0.288471
0.301998
0.31612
0.330861
0.346232
0.362226
0.378828
0.396021
0.413792
0.43214
0.451066
0.470572
0.490654
0.511303
0.532514
0.554274
0.576569
0.599384
0.622714
0.646558
0.67092
0.695807
0.721227
0.747186
0.77369
0.800746
0.828358
0.85653
0.885268
0.914574
0.944452
0.974904
1.00593
1.03754
1.06972
1.10247
1.1358
1.1697
1.20417
1.23919
1.27477
1.31089
1.34754
1.38472
1.42239
1.46056
1.49921
1.5383
1.57783
1.61776
1.65808
1.69876
1.73976
1.78106
1.82263
1.86444
1.90644
1.9486
1.99088
2.03325
2.07566
2.11808
2.16046
2.20275
2.24492
2.28691
2.32869
2.37021
2.41141
2.45226
2.4927
2.53268
2.57216
2.61109
2.64942
2.68711
2.7241
2.76034
2.79581
2.83044
2.86419
2.89702
2.92889
2.95977
2.9896
3.01835
3.04598
3.07247
3.09778
3.12188
3.14473
3.16632
3.18661
3.20559
3.22323
3.2395
3.25441
3.26791
3.28001
3.2907
3.29996
3.30779
3.31418
3.31913
3.32263
3.32456
3.32511
3.3243
3.32206
3.3184
3.31335
3.30692
3.29914
3.29003
3.27962
3.26794
3.25502
3.24089
3.22558
3.20914
3.1916
3.173
3.15339
3.1328
3.11128
3.08888
3.06565
3.04163
3.01688
2.99144
2.96538
2.93874
2.91157
2.88395
2.85594
2.8276
2.79902
2.77029
2.74143
2.71247
2.68346
2.65443
2.62545
2.59658
2.56789
2.53943
2.5113
2.48359
2.45642
2.42995
2.40435
2.3798
2.35545
2.32764
0.0212252
0.0506698
0.0658298
0.0766513
0.0857433
0.0940394
0.102009
0.109918
0.117928
0.12613
0.134572
0.143273
0.152233
0.161446
0.170905
0.180608
0.19056
0.200775
0.211272
0.222079
0.233227
0.244749
0.256683
0.269064
0.281929
0.295311
0.309244
0.323756
0.338872
0.35461
0.370978
0.387979
0.405607
0.423853
0.442711
0.462173
0.482235
0.502896
0.524151
0.545998
0.568436
0.591462
0.615071
0.639261
0.664029
0.689376
0.715304
0.741821
0.768933
0.796647
0.82497
0.853911
0.883477
0.913672
0.944505
0.975979
1.0081
1.04087
1.0743
1.10839
1.14313
1.17853
1.21459
1.25131
1.28867
1.32668
1.36533
1.40461
1.44451
1.48501
1.5261
1.56776
1.60998
1.65273
1.69598
1.73972
1.78391
1.82852
1.87353
1.91889
1.96457
2.01053
2.05674
2.10315
2.14971
2.19639
2.24314
2.2899
2.33663
2.38329
2.42981
2.47616
2.52227
2.56809
2.61356
2.65864
2.70327
2.74738
2.79093
2.83386
2.87612
2.91766
2.95841
2.99834
3.03738
3.07548
3.11261
3.1487
3.18371
3.2176
3.25032
3.28184
3.3121
3.34108
3.36874
3.39505
3.41997
3.44348
3.46554
3.48614
3.50524
3.52283
3.5389
3.55342
3.56638
3.57777
3.58758
3.59582
3.60247
3.60752
3.61099
3.61274
3.61301
3.61173
3.60889
3.60449
3.59858
3.59115
3.58225
3.5719
3.56014
3.54698
3.53248
3.51666
3.49956
3.48123
3.46171
3.44104
3.41926
3.39643
3.37259
3.3478
3.3221
3.29555
3.26821
3.24012
3.21136
3.18196
3.15201
3.12155
3.09065
3.05939
3.02785
2.9961
2.96419
2.93216
2.90006
2.86795
2.8359
2.80396
2.77222
2.74076
2.70968
2.67909
2.64914
2.62001
2.59191
2.565
2.5385
2.50927
0.0242324
0.056059
0.0724095
0.0840652
0.0938041
0.102615
0.110994
0.119227
0.12749
0.135894
0.144505
0.153361
0.16248
0.171869
0.181535
0.191482
0.201723
0.212274
0.223156
0.234397
0.246027
0.258078
0.270583
0.283576
0.297086
0.311142
0.325769
0.34099
0.356823
0.373283
0.390377
0.408113
0.426489
0.445506
0.465158
0.485444
0.506361
0.527907
0.550082
0.572887
0.596323
0.620392
0.645096
0.670436
0.696414
0.723035
0.750304
0.778229
0.806816
0.836076
0.866017
0.896648
0.927979
0.960018
0.992773
1.02625
1.06046
1.09541
1.1311
1.16753
1.20472
1.24266
1.28134
1.32078
1.36096
1.40189
1.44355
1.48593
1.52902
1.57281
1.61728
1.66241
1.70819
1.75458
1.80156
1.8491
1.89716
1.94573
1.99475
2.04419
2.09401
2.14416
2.1946
2.24528
2.29616
2.34717
2.39828
2.44941
2.50053
2.55157
2.60247
2.65317
2.70362
2.75376
2.80351
2.85281
2.90162
2.94985
2.99746
3.04437
3.09054
3.13589
3.18038
3.22394
3.26651
3.30805
3.34849
3.38778
3.42587
3.46271
3.49826
3.53247
3.56529
3.59668
3.62662
3.65505
3.68195
3.70728
3.73103
3.75315
3.77363
3.79245
3.80959
3.82502
3.83875
3.85076
3.86104
3.8696
3.87641
3.8815
3.88485
3.88638
3.88628
3.88448
3.88097
3.87579
3.86896
3.8605
3.85045
3.83884
3.82569
3.81105
3.79496
3.77745
3.75857
3.73837
3.71688
3.69416
3.67026
3.64522
3.61911
3.59197
3.56386
3.53484
3.50497
3.4743
3.4429
3.41083
3.37814
3.34492
3.31122
3.27711
3.24268
3.20799
3.17311
3.1381
3.103
3.06788
3.03281
2.99788
2.96316
2.92876
2.89477
2.86135
2.82864
2.79686
2.7662
2.73684
2.70801
2.677
0.0267773
0.0605087
0.0778207
0.0901556
0.100424
0.109658
0.118373
0.126868
0.13533
0.143885
0.152614
0.16157
0.170786
0.180282
0.190075
0.200179
0.21061
0.221388
0.232534
0.244076
0.256042
0.26846
0.281362
0.294776
0.308728
0.323244
0.338344
0.354049
0.370372
0.387329
0.404928
0.423178
0.442084
0.461648
0.481872
0.502759
0.52431
0.546527
0.569412
0.59297
0.617206
0.642125
0.667734
0.694037
0.721041
0.748753
0.777183
0.806339
0.836233
0.866875
0.898277
0.930451
0.963407
0.997156
1.03171
1.06708
1.10327
1.14029
1.17815
1.21686
1.25641
1.29682
1.33808
1.38019
1.42315
1.46695
1.51159
1.55706
1.60334
1.65041
1.69826
1.74688
1.79622
1.84627
1.89699
1.94836
2.00033
2.05287
2.10593
2.15948
2.21346
2.26782
2.32252
2.3775
2.43271
2.48807
2.54355
2.59907
2.65456
2.70998
2.76525
2.8203
2.87507
2.92948
2.98348
3.03698
3.08991
3.14222
3.19382
3.24466
3.29466
3.34377
3.39191
3.43902
3.48505
3.52992
3.57358
3.61597
3.65704
3.69673
3.73499
3.77177
3.80703
3.84072
3.8728
3.90324
3.932
3.95904
3.98434
4.00787
4.0296
4.04953
4.06761
4.08386
4.09824
4.11075
4.12139
4.13016
4.13705
4.14207
4.14521
4.14645
4.1459
4.1435
4.13927
4.13324
4.12545
4.11592
4.10468
4.09177
4.07723
4.0611
4.04341
4.02422
4.00358
3.98152
3.9581
3.93337
3.90739
3.8802
3.85187
3.82245
3.79201
3.76059
3.72827
3.6951
3.66115
3.62648
3.59116
3.55525
3.51883
3.48197
3.44474
3.40722
3.36947
3.33156
3.29355
3.25551
3.21752
3.17967
3.14205
3.10477
3.06794
3.03172
2.99628
2.96183
2.92859
2.89669
2.86543
2.83257
0.0288296
0.0640283
0.0820806
0.0949386
0.105616
0.115178
0.124153
0.132846
0.141455
0.150114
0.158915
0.167924
0.177185
0.186729
0.196583
0.206766
0.2173
0.228206
0.239509
0.251234
0.263406
0.276052
0.2892
0.302875
0.3171
0.331898
0.347289
0.36329
0.379918
0.397185
0.415104
0.433686
0.452938
0.472869
0.493486
0.514794
0.536801
0.559513
0.582938
0.607082
0.631956
0.657567
0.683925
0.71104
0.738922
0.767584
0.797037
0.827294
0.858368
0.890274
0.923026
0.956638
0.991124
1.0265
1.06277
1.09996
1.13807
1.17711
1.2171
1.25804
1.29993
1.34279
1.3866
1.43138
1.47712
1.52381
1.57144
1.62001
1.66949
1.71988
1.77114
1.82325
1.87619
1.92993
1.98442
2.03964
2.09554
2.15208
2.2092
2.26687
2.32502
2.3836
2.44256
2.50182
2.56134
2.62103
2.68085
2.7407
2.80054
2.86028
2.91985
2.97917
3.03817
3.09678
3.15492
3.2125
3.26946
3.32572
3.38119
3.43582
3.48953
3.54224
3.59388
3.6444
3.69371
3.74175
3.78847
3.83379
3.87766
3.92002
3.96081
3.99999
4.03751
4.07332
4.10737
4.13964
4.17007
4.19865
4.22533
4.2501
4.27292
4.29378
4.31267
4.32956
4.34444
4.35732
4.36818
4.37703
4.38387
4.38872
4.39155
4.3924
4.39131
4.38823
4.38321
4.37627
4.36746
4.35681
4.34435
4.33013
4.31419
4.29656
4.2773
4.25645
4.23406
4.21019
4.18489
4.15821
4.13022
4.10096
4.07049
4.03889
4.0062
3.97249
3.93782
3.90226
3.86587
3.82873
3.79089
3.75242
3.71341
3.67391
3.634
3.59377
3.55328
3.51259
3.4718
3.43095
3.39016
3.34949
3.30907
3.26899
3.2294
3.19044
3.15232
3.11523
3.07938
3.04491
3.01114
2.97617
0.030387
0.0666598
0.0852445
0.0984772
0.109447
0.119242
0.128397
0.137224
0.145926
0.154641
0.163471
0.172489
0.181748
0.191289
0.201147
0.211347
0.221914
0.23287
0.24424
0.256046
0.268312
0.281065
0.294328
0.308126
0.322479
0.33741
0.352938
0.369082
0.385858
0.403282
0.421369
0.440131
0.459582
0.479735
0.500601
0.522191
0.544517
0.567591
0.591423
0.616025
0.641411
0.667594
0.694588
0.722408
0.751068
0.780583
0.810969
0.842243
0.874423
0.907526
0.941569
0.97657
1.01254
1.04951
1.08748
1.12647
1.16649
1.20756
1.24968
1.29287
1.33712
1.38246
1.42887
1.47635
1.52491
1.57453
1.6252
1.67691
1.72965
1.78339
1.8381
1.89376
1.95033
2.00779
2.06608
2.12517
2.185
2.24554
2.30672
2.36849
2.43078
2.49354
2.5567
2.62019
2.68393
2.74787
2.81192
2.876
2.94005
3.00397
3.06769
3.13112
3.19419
3.25681
3.31889
3.38036
3.44113
3.50112
3.56025
3.61843
3.6756
3.73167
3.78657
3.84023
3.89257
3.94353
3.99303
4.04102
4.08743
4.13219
4.17526
4.21658
4.2561
4.29376
4.32954
4.36338
4.39525
4.42512
4.45296
4.47874
4.50243
4.52402
4.54349
4.56084
4.57604
4.5891
4.60002
4.6088
4.61544
4.61997
4.62238
4.62271
4.621
4.61714
4.61124
4.60333
4.59346
4.58165
4.56795
4.55241
4.53506
4.51595
4.49514
4.47267
4.44859
4.42298
4.39587
4.36733
4.33741
4.30618
4.2737
4.24003
4.20523
4.16936
4.13249
4.09469
4.05602
4.01656
3.97636
3.93549
3.89404
3.85207
3.80965
3.76687
3.7238
3.68051
3.63709
3.5936
3.55014
3.5068
3.4637
3.42096
3.37871
3.33712
3.29638
3.2567
3.21828
3.18124
3.14495
3.10779
0.0314709
0.0684752
0.087399
0.100869
0.112019
0.121954
0.131213
0.140109
0.148847
0.157571
0.166388
0.175377
0.1846
0.194101
0.203917
0.214078
0.224612
0.235542
0.246893
0.258688
0.27095
0.283702
0.296969
0.310772
0.325134
0.340076
0.355619
0.371784
0.38859
0.406052
0.424188
0.443018
0.462558
0.482827
0.503838
0.525613
0.548168
0.571516
0.595675
0.62066
0.646488
0.673177
0.700747
0.729219
0.75861
0.788941
0.820233
0.852507
0.885784
0.920086
0.955432
0.991843
1.02934
1.06793
1.10765
1.1485
1.1905
1.23366
1.27799
1.32351
1.37022
1.41812
1.46721
1.51749
1.56896
1.6216
1.6754
1.73034
1.7864
1.84356
1.90178
1.96103
2.02127
2.08247
2.14457
2.20752
2.27127
2.33576
2.40094
2.46673
2.53308
2.5999
2.66713
2.7347
2.80251
2.8705
2.93859
3.00668
3.07469
3.14255
3.21015
3.27741
3.34425
3.41057
3.47629
3.54131
3.60555
3.66893
3.73135
3.79273
3.85299
3.91205
3.96983
4.02626
4.08125
4.13475
4.18666
4.23694
4.28551
4.33232
4.37729
4.42039
4.46155
4.50074
4.53789
4.57299
4.60598
4.63683
4.66552
4.69201
4.7163
4.73835
4.75816
4.77571
4.79101
4.80404
4.81481
4.82333
4.82961
4.83366
4.83551
4.8352
4.83275
4.82802
4.82116
4.81223
4.80124
4.78825
4.7733
4.75643
4.73769
4.71714
4.69483
4.6708
4.64512
4.61785
4.58904
4.55875
4.52705
4.494
4.45965
4.42407
4.38733
4.34949
4.31061
4.27076
4.23001
4.18842
4.14607
4.10301
4.05933
4.0151
3.97039
3.92528
3.87984
3.83415
3.78829
3.74236
3.69643
3.65061
3.60501
3.55977
3.51502
3.47093
3.42769
3.38552
3.34459
3.30504
3.26628
3.22695
0.0321266
0.0695575
0.0886475
0.102229
0.113457
0.123445
0.132731
0.141633
0.150357
0.159051
0.167821
0.176749
0.185897
0.195313
0.205038
0.215106
0.225546
0.236384
0.247644
0.25935
0.271524
0.284189
0.297369
0.311086
0.325364
0.340225
0.355694
0.371794
0.388549
0.405973
0.424087
0.442915
0.462479
0.482803
0.503914
0.525837
0.548592
0.572197
0.596674
0.62204
0.648313
0.675513
0.703671
0.732816
0.762972
0.794166
0.826424
0.859771
0.894232
0.929832
0.966592
1.00453
1.04368
1.08405
1.12566
1.16852
1.21266
1.25808
1.3048
1.35282
1.40215
1.45278
1.50472
1.55796
1.61248
1.66828
1.72533
1.78362
1.8431
1.90375
1.96554
2.02842
2.09235
2.15727
2.22314
2.28989
2.35747
2.42581
2.49485
2.5645
2.6347
2.70537
2.77642
2.84779
2.91938
2.9911
3.06287
3.1346
3.2062
3.27758
3.34864
3.41929
3.48944
3.559
3.62787
3.69595
3.76317
3.82942
3.89461
3.95867
4.02151
4.08303
4.14317
4.20185
4.25898
4.31449
4.36831
4.42037
4.47061
4.51896
4.56537
4.60978
4.65213
4.69238
4.73049
4.76642
4.80012
4.83157
4.86074
4.8876
4.91213
4.93433
4.95417
4.97165
4.98676
4.99951
5.0099
5.01795
5.02367
5.02708
5.02821
5.02717
5.02382
5.01813
5.01025
5.00023
4.9881
4.97392
4.95771
4.93955
4.91947
4.89753
4.87379
4.84831
4.82113
4.79233
4.76196
4.73009
4.69678
4.66208
4.62607
4.5888
4.55034
4.51075
4.47009
4.42844
4.38585
4.3424
4.29815
4.25317
4.20753
4.1613
4.11456
4.06738
4.01983
3.97201
3.92399
3.87585
3.82769
3.77963
3.73176
3.68423
3.63718
3.59077
3.5452
3.50068
3.45737
3.41543
3.37431
3.3329
0.0323298
0.06993
0.0890617
0.102656
0.113878
0.123846
0.1331
0.141955
0.150618
0.159235
0.167918
0.176754
0.185814
0.195138
0.204766
0.214732
0.225066
0.235794
0.246941
0.258531
0.270586
0.283131
0.296189
0.309784
0.323942
0.338687
0.354045
0.37004
0.386698
0.404042
0.422105
0.440916
0.460503
0.480892
0.502111
0.52419
0.547157
0.571038
0.595856
0.62164
0.648418
0.676219
0.705084
0.735041
0.766121
0.798354
0.83177
0.8664
0.902273
0.939413
0.977844
1.01759
1.05866
1.10109
1.14488
1.19006
1.23663
1.28461
1.334
1.38481
1.43703
1.49066
1.5457
1.60212
1.65991
1.71905
1.77951
1.84125
1.90425
1.96847
2.03385
2.10034
2.1679
2.23647
2.30598
2.37637
2.44758
2.51952
2.59213
2.66532
2.73902
2.81314
2.88759
2.9623
3.03717
3.11211
3.18702
3.26182
3.33642
3.4107
3.48459
3.55798
3.63078
3.70289
3.77422
3.84468
3.91416
3.98258
4.04985
4.11588
4.18059
4.24388
4.30568
4.36591
4.42449
4.48135
4.53642
4.58962
4.64089
4.69017
4.73741
4.78254
4.82552
4.86629
4.90483
4.94107
4.975
5.00658
5.03579
5.0626
5.08699
5.10895
5.12847
5.14555
5.16018
5.17237
5.18213
5.18948
5.19443
5.19702
5.19728
5.19539
5.191
5.18427
5.17532
5.16418
5.1509
5.13552
5.11811
5.0987
5.07736
5.05413
5.02908
5.00227
4.97376
4.9436
4.91187
4.87861
4.84391
4.80781
4.77038
4.73168
4.69177
4.65072
4.60859
4.56543
4.52132
4.47632
4.43049
4.3839
4.33663
4.28872
4.24027
4.19135
4.14202
4.09238
4.0425
3.99247
3.94239
3.89236
3.8425
3.79295
3.74385
3.69536
3.64768
3.60101
3.55551
3.51135
3.46802
3.4247
0.0322611
0.0698418
0.0889095
0.10245
0.113617
0.123524
0.132706
0.141481
0.150055
0.158576
0.167153
0.175869
0.184786
0.193955
0.203417
0.213208
0.22336
0.233902
0.244859
0.256257
0.268121
0.280476
0.293348
0.306764
0.320754
0.335347
0.350573
0.366465
0.383056
0.400383
0.418477
0.437373
0.457103
0.4777
0.499197
0.521629
0.545034
0.569453
0.594905
0.621416
0.649
0.677715
0.707606
0.738713
0.771074
0.804723
0.839696
0.876034
0.913768
0.952914
0.993496
1.03553
1.07903
1.12402
1.17049
1.21847
1.26796
1.31895
1.37146
1.42547
1.48098
1.53796
1.59641
1.65629
1.71758
1.78024
1.84424
1.90954
1.97609
2.04383
2.11272
2.18269
2.25368
2.32564
2.39849
2.47215
2.54656
2.62163
2.69729
2.77345
2.85003
2.92695
3.00411
3.08143
3.15882
3.23617
3.31341
3.39043
3.46714
3.54345
3.61926
3.69448
3.769
3.84274
3.91559
3.98747
4.05829
4.12795
4.19636
4.26344
4.3291
4.39326
4.45583
4.51675
4.57593
4.6333
4.68879
4.74233
4.79386
4.84332
4.89066
4.93582
4.97874
5.0194
5.05773
5.09371
5.12731
5.15848
5.18722
5.2135
5.2373
5.25861
5.27743
5.29375
5.30757
5.31891
5.32778
5.33419
5.33817
5.33976
5.33909
5.33614
5.33062
5.3228
5.31274
5.30048
5.28607
5.26956
5.251
5.23045
5.20796
5.18359
5.15741
5.12946
5.09981
5.06853
5.03567
5.0013
4.96549
4.92828
4.88975
4.84994
4.80893
4.76676
4.7235
4.67921
4.63395
4.58778
4.54075
4.49295
4.44442
4.39524
4.34547
4.29518
4.24446
4.19338
4.14201
4.09046
4.03881
3.98717
3.93566
3.88441
3.83357
3.7833
3.73378
3.68522
3.63777
3.59161
3.54629
3.50131
0.0320396
0.0694897
0.0883677
0.101752
0.112764
0.122512
0.13153
0.140136
0.148536
0.156877
0.165268
0.173791
0.182511
0.191481
0.200748
0.210347
0.220308
0.23066
0.241431
0.25265
0.264345
0.276548
0.289288
0.302602
0.316521
0.331083
0.346325
0.362283
0.378998
0.396512
0.414869
0.434123
0.45431
0.475463
0.497621
0.520821
0.545085
0.57041
0.596886
0.624579
0.653559
0.683867
0.715534
0.748594
0.783085
0.819038
0.856481
0.895433
0.935915
0.977955
1.02158
1.06682
1.11364
1.16206
1.21207
1.26367
1.31685
1.3716
1.4279
1.48573
1.54506
1.60588
1.66813
1.73179
1.79681
1.86315
1.93075
1.99957
2.06954
2.14061
2.21271
2.28578
2.35976
2.43456
2.51013
2.58638
2.66324
2.74063
2.81846
2.89667
2.97515
3.05384
3.13264
3.21146
3.29022
3.36883
3.4472
3.52523
3.60283
3.67992
3.7564
3.83219
3.90718
3.98129
4.05442
4.12649
4.19741
4.26709
4.33545
4.40239
4.46784
4.53172
4.59395
4.65446
4.71317
4.77002
4.82493
4.87784
4.92868
4.97741
5.02397
5.0683
5.11037
5.15013
5.18753
5.22254
5.25513
5.28528
5.31297
5.33816
5.36086
5.38104
5.39871
5.41386
5.42651
5.43667
5.44433
5.44954
5.45232
5.45273
5.45103
5.44679
5.44009
5.43113
5.41994
5.40657
5.39106
5.37348
5.35387
5.33229
5.3088
5.28346
5.25633
5.22746
5.19692
5.16478
5.13108
5.0959
5.05929
5.02131
4.98202
4.94147
4.89973
4.85683
4.81285
4.76783
4.72183
4.6749
4.62711
4.57851
4.52916
4.47912
4.42846
4.37724
4.32554
4.27343
4.22099
4.16831
4.11548
4.06261
4.00982
3.95723
3.90498
3.85325
3.80221
3.75204
3.70292
3.65503
3.60797
3.56158
0.0315976
0.0687589
0.0873434
0.100494
0.111283
0.120814
0.12962
0.138019
0.146217
0.15436
0.162558
0.170894
0.179432
0.188227
0.197324
0.206762
0.216578
0.226803
0.237471
0.248615
0.260274
0.272484
0.285285
0.298717
0.312826
0.327668
0.343294
0.35974
0.377054
0.395282
0.414462
0.434608
0.455766
0.478027
0.501458
0.52612
0.552077
0.57941
0.60815
0.638349
0.670064
0.703334
0.738188
0.774656
0.812761
0.852522
0.893947
0.937044
0.981815
1.02826
1.07638
1.12611
1.17746
1.23041
1.28495
1.34104
1.39866
1.45778
1.51836
1.58035
1.64372
1.70842
1.77441
1.84162
1.91
1.97951
2.05008
2.12166
2.19419
2.2676
2.34183
2.41682
2.4925
2.5688