/*--------------------------------*- C++ -*----------------------------------*\
  =========                 |
  \\      /  F ield         | OpenFOAM: The Open Source CFD Toolbox
   \\    /   O peration     | Website:  https://openfoam.org
    \\  /    A nd           | Version:  8
     \\/     M anipulation  |
\*---------------------------------------------------------------------------*/
FoamFile
{
    version     2.0;
    format      ascii;
    class       volScalarField;
    location    "275";
    object      nut;
}
// * * * * * * * * * * * * * * * * * * * * * * * * * * * * * * * * * * * * * //

dimensions      [0 2 -1 0 0 0 0];

internalField   nonuniform List<scalar> 
12225
(
4.14968e-05
3.93415e-05
3.74841e-05
3.5432e-05
3.37852e-05
3.24193e-05
3.15113e-05
3.09109e-05
3.09172e-05
3.10973e-05
3.15674e-05
3.21133e-05
3.31459e-05
3.38008e-05
3.51031e-05
3.56703e-05
3.75784e-05
3.56911e-05
0.000332328
0.000215223
0.00017928
0.000157682
0.000146208
0.000138215
0.000132757
0.000131632
0.000129527
0.000130046
0.000129063
0.000129425
0.000128672
0.000128542
0.000128089
0.0001274
0.000127394
0.000126521
0.000674962
0.000450841
0.000355782
0.000309836
0.000275293
0.000251097
0.000231719
0.000217273
0.000202699
0.000192113
0.000182639
0.00017521
0.000169392
0.000163693
0.000160316
0.000155593
0.000153823
0.000149932
0.000833613
0.000684905
0.000571995
0.000499962
0.00044947
0.000411948
0.00038079
0.000355995
0.000334027
0.000314782
0.000298348
0.000281725
0.000270329
0.000256101
0.000248233
0.000236216
0.000230454
0.000220544
0.000861254
0.000802527
0.000742136
0.000676571
0.000624011
0.000581367
0.000545883
0.000514553
0.000489534
0.000464437
0.000445878
0.000424093
0.000409962
0.000390844
0.000379932
0.000363165
0.000354555
0.000339645
0.000854979
0.000840347
0.000822208
0.000786488
0.000750871
0.000715895
0.000685771
0.000656132
0.000632559
0.000607527
0.000589012
0.00056727
0.000552308
0.000533138
0.000520827
0.000503808
0.000493391
0.000477627
0.000852908
0.000850685
0.00084424
0.000832828
0.000817415
0.000796998
0.000777892
0.00075674
0.000738906
0.000719156
0.000703544
0.00068564
0.000672144
0.000655957
0.000644345
0.000629597
0.000619585
0.000605273
0.000851922
0.000851813
0.000850173
0.000847395
0.000841454
0.000833728
0.000824898
0.000813418
0.000802811
0.000790477
0.000779722
0.000767553
0.00075744
0.000745808
0.000736568
0.000725575
0.000717208
0.000706126
0.000851751
0.000851542
0.000851035
0.000850338
0.000848881
0.000846168
0.000843035
0.000838306
0.000833404
0.000827364
0.000821221
0.00081478
0.000808419
0.000801541
0.00079526
0.000788446
0.000782207
0.000775314
0.000851769
0.000851389
0.000851046
0.000850633
0.000850248
0.000849368
0.000848405
0.000846781
0.000844957
0.000842532
0.000839926
0.000836804
0.000833799
0.000830161
0.00082698
0.000822942
0.000819918
0.000815326
0.000851787
0.000851359
0.000851012
0.000850613
0.000850329
0.000849905
0.000849526
0.000848929
0.000848303
0.000847394
0.000846467
0.000845179
0.000843992
0.000842356
0.000841001
0.000839039
0.000837648
0.000835373
0.000851789
0.000851359
0.000850995
0.000850605
0.000850291
0.000849938
0.000849646
0.00084928
0.000848955
0.000848505
0.000848099
0.000847509
0.000846999
0.000846246
0.000845643
0.000844724
0.000844061
0.000842981
0.000851786
0.000851363
0.000850985
0.000850604
0.000850269
0.000849926
0.00084963
0.000849313
0.000849042
0.000848729
0.000848462
0.000848126
0.000847844
0.000847466
0.000847157
0.000846727
0.000846388
0.000845904
0.000851783
0.000851364
0.000850978
0.000850602
0.000850256
0.000849916
0.000849607
0.0008493
0.000849022
0.000848741
0.000848488
0.000848224
0.000847989
0.000847735
0.000847508
0.000847258
0.000847033
0.000846783
0.000851781
0.000851364
0.000850972
0.000850598
0.000850246
0.000849908
0.000849591
0.000849286
0.000849
0.000848723
0.000848463
0.000848211
0.000847975
0.000847744
0.000847527
0.000847316
0.000847114
0.000846918
0.00085178
0.000851363
0.000850969
0.000850594
0.000850239
0.000849901
0.00084958
0.000849274
0.000848984
0.000848707
0.000848443
0.000848191
0.000847951
0.000847721
0.000847502
0.000847292
0.000847092
0.0008469
0.000851779
0.000851362
0.000850967
0.000850591
0.000850234
0.000849894
0.000849572
0.000849265
0.000848973
0.000848694
0.000848428
0.000848174
0.000847932
0.000847701
0.00084748
0.000847268
0.000847066
0.000846873
0.000851779
0.000851362
0.000850965
0.000850588
0.00085023
0.00084989
0.000849567
0.000849258
0.000848965
0.000848685
0.000848418
0.000848163
0.000847919
0.000847686
0.000847464
0.000847251
0.000847047
0.000846853
0.000851779
0.000851362
0.000850965
0.000850588
0.000850229
0.000849889
0.000849565
0.000849256
0.000848962
0.000848681
0.000848413
0.000848157
0.000847913
0.000847679
0.000847456
0.000847242
0.000847038
0.000846842
0.000851779
0.000851362
0.000850965
0.000850589
0.000850231
0.000849891
0.000849567
0.000849259
0.000848965
0.000848684
0.000848417
0.000848161
0.000847916
0.000847683
0.000847459
0.000847245
0.000847039
0.000846843
0.000851779
0.000851363
0.000850967
0.000850592
0.000850235
0.000849896
0.000849573
0.000849266
0.000848972
0.000848693
0.000848423
0.000848168
0.000847919
0.000847682
0.00084745
0.00084723
0.000847011
0.000846805
0.000851778
0.000851366
0.000850968
0.000850599
0.00085024
0.000849907
0.00084958
0.000849274
0.000848964
0.000848671
0.000848364
0.000848071
0.000847755
0.000847454
0.000847122
0.00084681
0.000846456
0.000846134
0.000851777
0.000851374
0.000850971
0.000850615
0.00085024
0.000849889
0.000849478
0.000849053
0.000848529
0.000847977
0.0008473
0.000846603
0.000845765
0.000844938
0.000843953
0.000843027
0.000841916
0.000840937
0.000851802
0.00085141
0.00085097
0.000850549
0.00084986
0.000848967
0.000847607
0.000845979
0.000843903
0.000841634
0.000838953
0.000836212
0.000833114
0.000830111
0.000826759
0.000823676
0.000820179
0.000817173
0.000852138
0.000851403
0.000850234
0.000848252
0.000844472
0.000839355
0.000832711
0.000825762
0.000817912
0.000809998
0.000801612
0.000793623
0.000785327
0.000777701
0.000769737
0.000762693
0.000755115
0.000748786
0.000854142
0.000847718
0.000840125
0.000827122
0.000808707
0.000789646
0.00076997
0.000751414
0.0007333
0.00071689
0.000700928
0.000686774
0.000672822
0.000660662
0.000648369
0.000637931
0.000626942
0.000618008
0.00085497
0.000818336
0.000776229
0.000726634
0.000684937
0.000649855
0.000618457
0.000592018
0.000568376
0.000548306
0.000529681
0.000513985
0.000498741
0.000486008
0.000473192
0.000462698
0.000451611
0.000442793
0.000807487
0.000666879
0.000570551
0.000509853
0.000465647
0.000431192
0.00040413
0.000382497
0.00036419
0.000349062
0.000335935
0.000325072
0.000314473
0.000306241
0.000297955
0.00029136
0.000284273
0.000278924
0.000501854
0.000348404
0.00029269
0.000259174
0.000236321
0.000221176
0.000211543
0.000204014
0.000198479
0.000195058
0.000192217
0.000190366
0.000188581
0.000187438
0.000186163
0.000185473
0.000184553
0.000184142
7.27285e-05
7.02231e-05
6.79539e-05
6.56136e-05
6.33827e-05
6.12765e-05
5.94929e-05
5.79573e-05
5.67103e-05
5.5703e-05
5.49775e-05
5.44184e-05
5.41086e-05
5.38873e-05
5.38766e-05
5.39622e-05
5.40718e-05
5.43224e-05
1.80815e-07
4.78298e-06
8.91236e-06
1.25554e-05
1.60498e-05
1.99707e-05
2.44918e-05
2.98389e-05
3.61105e-05
4.32683e-05
5.11566e-05
5.95998e-05
6.84171e-05
7.74704e-05
8.66405e-05
9.58395e-05
0.000104988
0.000114015
0.000122845
0.000131394
0.000139573
0.000147296
0.000154482
0.00016109
0.00016711
0.000172609
0.000177725
0.000182697
0.000187214
0.000191436
0.00019988
0.000207786
0.00021575
0.000222311
0.000221218
0.000209949
0.000192337
4.00645e-05
4.2421e-05
4.18017e-05
4.54015e-05
4.79252e-05
4.78556e-05
4.98687e-05
5.06111e-05
5.18059e-05
5.28679e-05
5.40013e-05
5.50998e-05
5.62157e-05
5.73194e-05
5.84251e-05
5.95254e-05
6.06237e-05
6.17182e-05
6.28099e-05
6.38979e-05
6.49829e-05
6.60641e-05
6.71421e-05
6.82159e-05
6.92861e-05
7.03517e-05
7.14133e-05
7.24696e-05
7.35213e-05
7.4567e-05
7.56073e-05
7.66408e-05
7.7668e-05
7.86875e-05
7.96998e-05
8.07035e-05
8.16989e-05
8.26846e-05
8.36609e-05
8.46266e-05
8.55817e-05
8.6525e-05
8.74568e-05
8.83755e-05
8.92815e-05
9.01734e-05
9.10514e-05
9.19141e-05
9.27615e-05
9.35925e-05
9.44068e-05
9.52032e-05
9.59815e-05
9.67405e-05
9.74792e-05
9.81963e-05
9.88908e-05
9.95617e-05
0.000100208
0.00010083
0.000101431
0.000102016
0.000102576
0.000103115
0.000103631
0.000104126
0.000104597
0.000105046
0.000105472
0.000105874
0.000106252
0.000106606
0.000106936
0.000107242
0.000107522
0.000107778
0.000108009
0.000108215
0.000108395
0.00010855
0.000108679
0.000108783
0.000108861
0.000108913
0.00010894
0.000108941
0.000108916
0.000108866
0.000108791
0.000108691
0.000108566
0.000108411
0.000108238
0.000108036
0.000107801
0.000107547
0.000107274
0.000106977
0.000106654
0.000106309
0.00010594
0.000105549
0.000105136
0.000104701
0.000104245
0.000103768
0.000103271
0.000102754
0.000102218
0.000101664
0.000101092
0.000100504
9.98981e-05
9.92773e-05
9.86412e-05
9.79911e-05
9.73272e-05
9.66508e-05
9.59622e-05
9.52627e-05
9.45526e-05
9.38336e-05
9.31064e-05
9.23741e-05
9.16443e-05
9.09885e-05
9.05236e-05
9.00967e-05
8.96696e-05
8.92394e-05
8.88062e-05
8.83706e-05
8.79332e-05
8.74942e-05
8.70543e-05
8.66128e-05
8.61694e-05
8.57213e-05
8.52642e-05
8.47869e-05
8.42606e-05
8.3624e-05
8.1724e-05
9.24722e-07
2.51695e-05
5.70195e-05
7.9184e-05
9.32625e-05
0.000102695
0.000110317
0.000117745
0.000125761
0.000134611
0.000144246
0.000154495
0.000165148
0.000176015
0.000186936
0.00019778
0.000208438
0.000218812
0.000228811
0.000238344
0.000247322
0.000255668
0.000263319
0.000270245
0.000276456
0.000282029
0.000286996
0.000290783
0.000293014
0.00029398
0.000293641
0.000291136
0.000286825
0.000278507
0.000265527
0.000251065
0.000226445
0.000200222
0.000217449
0.000220611
0.000234926
0.000248268
0.000267696
0.000274872
0.000281127
0.000288163
0.000295727
0.000303512
0.000311515
0.000319642
0.000327878
0.000336209
0.000344623
0.000353121
0.000361697
0.000370353
0.000379088
0.000387903
0.000396799
0.000405777
0.000414838
0.000423982
0.00043321
0.000442523
0.000451919
0.000461399
0.000470961
0.000480603
0.000490324
0.000500121
0.00050999
0.00051993
0.000529935
0.000540003
0.000550129
0.000560307
0.000570532
0.0005808
0.000591105
0.000601441
0.000611803
0.000622183
0.000632577
0.000642978
0.00065338
0.000663778
0.000674166
0.000684538
0.00069489
0.000705217
0.000715513
0.000725767
0.000735967
0.000746088
0.000756095
0.000765919
0.000775442
0.000784471
0.000792838
0.00080117
0.000809349
0.000817403
0.000825318
0.000833092
0.000840718
0.000848191
0.000855505
0.000862655
0.000869636
0.000876443
0.000883071
0.000889516
0.000895773
0.000901838
0.000907706
0.000913374
0.000918838
0.000924093
0.000929137
0.000933965
0.000938575
0.000942964
0.000947127
0.000951061
0.000954766
0.000958238
0.000961479
0.000964487
0.000967271
0.000969856
0.000972262
0.000974169
0.000975801
0.000977369
0.000978727
0.000979788
0.000980599
0.000981166
0.00098149
0.000981576
0.000981424
0.000981038
0.000980421
0.000979577
0.000978508
0.00097722
0.000975717
0.000974004
0.000972086
0.000969967
0.000967656
0.000965155
0.000962475
0.000959618
0.000956594
0.000953409
0.000950069
0.000946581
0.00094295
0.000939173
0.00093523
0.000930986
0.000925774
0.000918753
0.000911038
0.000903088
0.000895033
0.000886919
0.00087877
0.000870599
0.000862415
0.000854225
0.000846028
0.00083782
0.000829574
0.000821242
0.000812668
0.000803604
0.000792542
0.000762472
1.97561e-06
4.21525e-05
9.13475e-05
0.000128631
0.000155554
0.000175024
0.00018978
0.000201983
0.00021311
0.000224027
0.000235142
0.000246572
0.000258272
0.000270129
0.000282015
0.000293808
0.000305396
0.000316685
0.000327587
0.000338025
0.000347933
0.000357259
0.000365965
0.00037403
0.000381441
0.000388161
0.000394208
0.000400121
0.000406198
0.000412195
0.000418017
0.000423412
0.000427979
0.000430688
0.000431861
0.000432683
0.000433626
0.000439423
0.000457588
0.000472176
0.000492242
0.000512849
0.000532049
0.000547936
0.000563557
0.00057936
0.000595437
0.000611723
0.000628211
0.000644868
0.000661683
0.000678646
0.000695752
0.000713
0.00073039
0.000747922
0.000765598
0.000783418
0.000801383
0.000819493
0.000837749
0.00085615
0.000874695
0.000893386
0.00091222
0.000931192
0.000950301
0.00096954
0.000988905
0.00100839
0.00102799
0.00104769
0.00106749
0.00108738
0.00110735
0.00112739
0.00114748
0.00116763
0.00118781
0.00120802
0.00122824
0.00124846
0.00126867
0.00128886
0.00130901
0.00132911
0.00134915
0.00136911
0.00138898
0.00140874
0.00142838
0.00144786
0.00146716
0.00148623
0.00150501
0.00152345
0.00154146
0.00155896
0.00157605
0.00159291
0.0016095
0.00162581
0.00164183
0.00165755
0.00167295
0.00168803
0.00170277
0.00171716
0.00173119
0.00174486
0.00175814
0.00177105
0.00178355
0.00179565
0.00180734
0.0018186
0.00182944
0.00183984
0.00184979
0.0018593
0.00186835
0.00187694
0.00188506
0.00189271
0.00189987
0.00190656
0.00191276
0.00191849
0.00192374
0.00192856
0.00193303
0.00193655
0.0019395
0.00194225
0.0019445
0.00194622
0.00194742
0.00194812
0.00194832
0.00194803
0.00194727
0.00194602
0.0019443
0.00194211
0.00193947
0.00193638
0.00193285
0.00192889
0.00192451
0.00191972
0.00191453
0.00190896
0.00190302
0.00189673
0.00189009
0.00188312
0.00187583
0.00186824
0.00186037
0.0018522
0.00184371
0.00183472
0.00182467
0.0018129
0.00180015
0.00178691
0.00177341
0.00175972
0.00174592
0.00173203
0.00171808
0.00170407
0.00169002
0.00167592
0.00166172
0.0016473
0.0016324
0.00161629
0.0015962
0.00155219
3.18528e-06
5.52232e-05
0.000117788
0.000166474
0.000202282
0.000228778
0.00024906
0.000265531
0.000279911
0.000293314
0.000306379
0.000319409
0.000332495
0.000345616
0.000358702
0.00037167
0.000384441
0.00039695
0.000409144
0.000420989
0.000432467
0.000443586
0.000454383
0.000464935
0.000475368
0.000485858
0.000496643
0.000508015
0.000520153
0.000533074
0.000546679
0.000560713
0.000574803
0.000588704
0.000602536
0.000616836
0.000632129
0.000649956
0.000670969
0.000692655
0.000715774
0.000739152
0.000762193
0.000784884
0.00080758
0.000830403
0.000853407
0.000876596
0.000899979
0.00092355
0.000947309
0.000971253
0.000995382
0.0010197
0.0010442
0.00106889
0.00109378
0.00111886
0.00114413
0.0011696
0.00119525
0.0012211
0.00124714
0.00127337
0.00129977
0.00132635
0.0013531
0.00138001
0.00140707
0.00143428
0.00146162
0.00148908
0.00151665
0.00154432
0.00157207
0.00159989
0.00162777
0.00165569
0.00168363
0.00171158
0.00173952
0.00176743
0.0017953
0.00182311
0.00185084
0.00187846
0.00190597
0.00193333
0.00196053
0.00198754
0.00201434
0.00204089
0.00206715
0.0020931
0.00211867
0.00214382
0.0021685
0.00219272
0.00221653
0.00223999
0.00226307
0.00228577
0.00230805
0.00232991
0.00235133
0.00237229
0.00239278
0.00241279
0.00243229
0.00245129
0.00246975
0.00248768
0.00250506
0.00252187
0.00253811
0.00255376
0.00256882
0.00258328
0.00259712
0.00261034
0.00262293
0.00263488
0.00264618
0.00265683
0.00266682
0.00267614
0.0026848
0.0026928
0.00270014
0.002707
0.00271309
0.00271811
0.00272234
0.00272627
0.00272947
0.00273194
0.00273371
0.0027348
0.0027352
0.00273493
0.00273398
0.00273238
0.00273012
0.00272722
0.00272369
0.00271953
0.00271477
0.0027094
0.00270345
0.00269693
0.00268985
0.00268223
0.00267409
0.00266545
0.00265632
0.00264672
0.00263668
0.0026262
0.00261532
0.00260402
0.00259229
0.00257998
0.00256671
0.00255212
0.00253655
0.00252036
0.00250377
0.0024869
0.00246982
0.00245259
0.00243524
0.0024178
0.00240028
0.00238269
0.00236498
0.00234706
0.00232863
0.00230869
0.00228399
0.00223791
4.40405e-06
6.62496e-05
0.000139991
0.000198121
0.000241728
0.000274404
0.000299557
0.000319834
0.000337163
0.000352863
0.000367761
0.000382322
0.00039677
0.000411183
0.000425567
0.000439896
0.000454139
0.000468276
0.000482301
0.000496224
0.000510077
0.000523914
0.000537817
0.000551905
0.000566332
0.000581291
0.000597001
0.000613678
0.000631475
0.000650444
0.000670503
0.000691412
0.000712832
0.000734581
0.000756582
0.000778967
0.00080206
0.000826257
0.00085164
0.000877923
0.000905038
0.000932638
0.000960462
0.000988231
0.00101615
0.00104425
0.00107255
0.00110106
0.00112977
0.0011587
0.00118785
0.00121721
0.00124678
0.00127657
0.00130657
0.00133679
0.00136724
0.00139791
0.0014288
0.00145992
0.00149126
0.00152281
0.00155457
0.00158653
0.0016187
0.00165105
0.00168358
0.00171628
0.00174914
0.00178215
0.00181528
0.00184854
0.0018819
0.00191534
0.00194886
0.00198243
0.00201604
0.00204966
0.00208327
0.00211687
0.00215042
0.00218391
0.00221732
0.00225062
0.00228379
0.00231681
0.00234965
0.0023823
0.00241472
0.00244689
0.00247878
0.00251035
0.00254159
0.00257245
0.0026029
0.00263293
0.00266254
0.00269169
0.0027204
0.00274868
0.00277651
0.00280387
0.00283074
0.00285711
0.00288294
0.00290824
0.00293297
0.00295713
0.0029807
0.00300365
0.00302599
0.00304768
0.00306872
0.0030891
0.0031088
0.0031278
0.00314611
0.0031637
0.00318057
0.0031967
0.00321209
0.00322672
0.00324059
0.00325369
0.00326602
0.00327756
0.00328832
0.00329828
0.00330756
0.00331624
0.00332382
0.00333031
0.003336
0.00334116
0.00334547
0.00334894
0.00335158
0.00335341
0.00335443
0.00335466
0.00335409
0.00335273
0.0033506
0.0033477
0.00334404
0.00333964
0.0033345
0.00332864
0.00332208
0.00331483
0.0033069
0.00329832
0.0032891
0.00327926
0.00326883
0.00325782
0.00324625
0.00323416
0.00322155
0.00320844
0.00319481
0.00318056
0.0031655
0.0031494
0.00313242
0.00311478
0.00309667
0.00307818
0.00305942
0.00304044
0.00302129
0.00300201
0.00298262
0.00296315
0.00294356
0.00292375
0.00290341
0.00288156
0.00285502
0.0028116
5.56892e-06
7.55368e-05
0.000158692
0.000224979
0.000275563
0.00031389
0.00034357
0.000367435
0.000387594
0.000405537
0.000422256
0.000438369
0.000454229
0.000470018
0.000485823
0.000501683
0.000517618
0.000533652
0.000549818
0.000566163
0.000582745
0.00059964
0.00061694
0.000634751
0.000653201
0.000672429
0.000692579
0.000713782
0.000736124
0.000759624
0.000784211
0.000809722
0.000835954
0.000862745
0.000889988
0.000917675
0.000945897
0.000974745
0.00100426
0.00103442
0.00106516
0.00109635
0.00112786
0.00115959
0.00119156
0.00122375
0.00125617
0.00128881
0.00132168
0.00135477
0.00138809
0.00142164
0.00145542
0.00148945
0.00152371
0.00155821
0.00159294
0.00162788
0.00166306
0.00169845
0.00173405
0.00176986
0.00180588
0.00184209
0.00187849
0.00191507
0.00195181
0.00198871
0.00202575
0.00206292
0.00210021
0.0021376
0.00217507
0.00221261
0.00225019
0.00228781
0.00232545
0.00236307
0.00240067
0.00243823
0.00247571
0.00251311
0.00255039
0.00258754
0.00262453
0.00266134
0.00269795
0.00273432
0.00277044
0.00280627
0.0028418
0.00287699
0.00291182
0.00294625
0.00298028
0.00301387
0.00304702
0.0030797
0.00311192
0.00314366
0.0031749
0.00320562
0.00323581
0.00326544
0.00329449
0.00332295
0.00335079
0.003378
0.00340457
0.00343046
0.00345568
0.00348019
0.00350399
0.00352707
0.0035494
0.00357098
0.00359179
0.00361182
0.00363106
0.0036495
0.00366712
0.00368392
0.00369989
0.00371501
0.00372929
0.00374271
0.00375527
0.00376698
0.00377804
0.00378819
0.00379729
0.0038052
0.00381237
0.0038188
0.00382431
0.00382891
0.00383261
0.00383542
0.00383734
0.00383839
0.00383856
0.00383786
0.00383631
0.00383391
0.00383067
0.00382661
0.00382172
0.00381604
0.00380956
0.00380231
0.0037943
0.00378554
0.00377607
0.00376589
0.00375503
0.00374351
0.00373136
0.00371859
0.00370523
0.0036913
0.00367678
0.00366163
0.00364574
0.003629
0.00361147
0.00359328
0.00357457
0.00355543
0.00353595
0.00351621
0.00349625
0.00347612
0.00345588
0.00343555
0.00341514
0.00339456
0.00337357
0.00335125
0.00332479
0.00328561
6.63729e-06
8.3227e-05
0.000174245
0.000247622
0.00030449
0.000348057
0.00038204
0.000409397
0.000432371
0.000452595
0.000471205
0.000488954
0.000506315
0.000523573
0.000540895
0.00055838
0.000576098
0.000594108
0.000612467
0.000631239
0.000650495
0.000670309
0.000690761
0.000711934
0.000733912
0.000756777
0.000780603
0.000805448
0.000831345
0.000858284
0.000886206
0.000915008
0.000944565
0.000974765
0.00100552
0.00103678
0.00106855
0.00110082
0.0011336
0.00116688
0.00120062
0.00123476
0.00126923
0.00130399
0.00133901
0.00137428
0.00140979
0.00144552
0.00148148
0.00151767
0.00155408
0.00159072
0.00162759
0.00166468
0.00170201
0.00173955
0.00177732
0.0018153
0.00185349
0.00189188
0.00193048
0.00196928
0.00200826
0.00204743
0.00208677
0.00212627
0.00216592
0.00220572
0.00224564
0.00228568
0.00232582
0.00236604
0.00240633
0.00244668
0.00248706
0.00252746
0.00256786
0.00260823
0.00264857
0.00268884
0.00272904
0.00276913
0.00280909
0.00284891
0.00288855
0.00292801
0.00296724
0.00300623
0.00304495
0.00308338
0.00312149
0.00315926
0.00319666
0.00323367
0.00327027
0.00330644
0.00334215
0.0033774
0.00341216
0.00344642
0.00348017
0.00351337
0.00354601
0.00357807
0.00360953
0.00364036
0.00367055
0.00370008
0.00372894
0.00375709
0.00378453
0.00381124
0.0038372
0.0038624
0.00388682
0.00391045
0.00393328
0.00395528
0.00397646
0.0039968
0.00401628
0.0040349
0.00405264
0.0040695
0.00408547
0.00410054
0.00411471
0.00412803
0.00414068
0.00415218
0.00416275
0.00417209
0.00418071
0.00418843
0.0041952
0.00420102
0.0042059
0.00420984
0.00421285
0.00421493
0.00421609
0.00421633
0.00421567
0.00421411
0.00421166
0.00420832
0.00420412
0.00419905
0.00419314
0.00418639
0.00417883
0.00417046
0.0041613
0.00415138
0.00414072
0.00412933
0.00411723
0.00410447
0.00409104
0.00407698
0.00406229
0.00404695
0.0040309
0.00401411
0.00399658
0.00397841
0.00395968
0.0039405
0.00392092
0.00390103
0.0038809
0.00386057
0.00384011
0.00381958
0.003799
0.00377835
0.00375742
0.00373544
0.00371007
0.00367509
7.57909e-06
8.94375e-05
0.000186913
0.000266405
0.000328907
0.000377333
0.000415421
0.000446199
0.000472004
0.000494574
0.000515163
0.00053464
0.000553586
0.000572378
0.000591257
0.000610379
0.000629855
0.000649771
0.000670196
0.000691197
0.000712841
0.000735192
0.000758312
0.000782261
0.000807095
0.000832857
0.000859564
0.000887226
0.000915838
0.000945377
0.000975793
0.00100702
0.00103897
0.00107157
0.00110476
0.00113847
0.00117269
0.00120737
0.0012425
0.00127806
0.00131403
0.00135036
0.00138701
0.00142395
0.00146116
0.00149862
0.00153631
0.00157422
0.00161234
0.00165068
0.00168922
0.00172798
0.00176695
0.00180612
0.0018455
0.00188507
0.00192485
0.00196483
0.00200499
0.00204535
0.00208589
0.0021266
0.00216749
0.00220854
0.00224975
0.0022911
0.0023326
0.00237422
0.00241596
0.0024578
0.00249974
0.00254175
0.00258382
0.00262595
0.0026681
0.00271028
0.00275244
0.00279459
0.0028367
0.00287875
0.00292073
0.0029626
0.00300435
0.00304596
0.00308741
0.00312867
0.00316971
0.00321052
0.00325108
0.00329135
0.00333131
0.00337094
0.00341022
0.00344912
0.00348762
0.00352569
0.00356333
0.0036005
0.00363719
0.00367337
0.00370903
0.00374415
0.00377869
0.00381265
0.003846
0.00387871
0.00391077
0.00394216
0.00397286
0.00400284
0.0040321
0.00406061
0.00408835
0.00411532
0.00414149
0.00416685
0.00419138
0.00421508
0.00423792
0.00425991
0.00428101
0.00430124
0.00432056
0.00433898
0.00435649
0.00437307
0.00438872
0.0044036
0.00441758
0.00443051
0.00444245
0.00445325
0.00446328
0.00447233
0.00448041
0.00448751
0.00449365
0.00449882
0.00450304
0.0045063
0.00450862
0.00450999
0.00451043
0.00450994
0.00450853
0.0045062
0.00450296
0.00449883
0.00449382
0.00448793
0.00448117
0.00447357
0.00446514
0.0044559
0.00444586
0.00443505
0.00442348
0.00441118
0.00439818
0.00438448
0.00437012
0.00435507
0.00433934
0.00432289
0.00430575
0.00428797
0.00426962
0.00425077
0.0042315
0.00421188
0.00419197
0.00417185
0.0041516
0.00413127
0.00411095
0.00409063
0.00407019
0.00404899
0.00402513
0.00399425
8.37623e-06
9.42834e-05
0.000196924
0.000281616
0.00034911
0.000402003
0.000443984
0.000478095
0.000506724
0.000531686
0.000554322
0.000575595
0.000596178
0.000616527
0.000636944
0.000657635
0.000678747
0.000700431
0.000722722
0.000745676
0.000769347
0.000793784
0.000819025
0.000845094
0.000871988
0.000899788
0.000928507
0.000958136
0.000988655
0.00102003
0.00105222
0.00108517
0.00111882
0.0011531
0.00118797
0.00122337
0.00125926
0.00129561
0.00133238
0.00136953
0.00140699
0.00144472
0.00148275
0.00152108
0.00155968
0.00159852
0.00163756
0.0016768
0.00171622
0.00175583
0.00179562
0.00183559
0.00187574
0.00191607
0.00195658
0.00199727
0.00203813
0.00207916
0.00212037
0.00216174
0.00220328
0.00224498
0.00228684
0.00232885
0.00237101
0.00241331
0.00245575
0.00249831
0.00254098
0.00258377
0.00262665
0.00266962
0.00271267
0.00275577
0.00279892
0.0028421
0.0028853
0.0029285
0.00297168
0.00301482
0.00305791
0.00310093
0.00314384
0.00318665
0.00322931
0.00327181
0.00331413
0.00335624
0.00339812
0.00343974
0.00348108
0.00352212
0.00356283
0.00360319
0.00364316
0.00368274
0.0037219
0.0037606
0.00379884
0.00383658
0.00387381
0.0039105
0.00394663
0.00398217
0.0040171
0.00405141
0.00408506
0.00411803
0.00415032
0.00418189
0.00421272
0.0042428
0.00427212
0.00430064
0.00432837
0.00435527
0.00438134
0.00440656
0.00443092
0.00445441
0.00447701
0.00449871
0.00451951
0.00453939
0.00455834
0.00457635
0.00459344
0.00460976
0.00462504
0.00463938
0.00465271
0.00466499
0.00467641
0.00468683
0.00469624
0.00470468
0.00471214
0.00471863
0.00472415
0.0047287
0.0047323
0.00473495
0.00473664
0.00473739
0.0047372
0.00473607
0.00473402
0.00473105
0.00472717
0.00472239
0.00471672
0.00471018
0.00470276
0.0046945
0.0046854
0.00467549
0.00466478
0.0046533
0.00464107
0.0046281
0.00461442
0.00460003
0.00458494
0.00456915
0.00455267
0.00453555
0.00451783
0.00449959
0.00448089
0.0044618
0.0044424
0.00442276
0.00440297
0.00438313
0.00436331
0.00434357
0.00432383
0.0043036
0.0042814
0.00425471
9.01913e-06
9.78753e-05
0.000204477
0.000293616
0.000365342
0.00042231
0.000467942
0.000505258
0.000536664
0.000564019
0.000588729
0.000611823
0.000634052
0.000655963
0.000677873
0.000699991
0.000722446
0.000745315
0.000768814
0.00079304
0.000818049
0.000843881
0.000870567
0.000898132
0.000926609
0.000955987
0.000986256
0.00101737
0.0010493
0.00108199
0.00111541
0.00114951
0.00118423
0.00121954
0.00125539
0.00129172
0.00132851
0.0013657
0.00140328
0.00144121
0.0014795
0.0015181
0.00155698
0.00159606
0.00163531
0.00167475
0.00171435
0.00175409
0.00179397
0.001834
0.00187416
0.00191448
0.00195494
0.00199556
0.00203632
0.00207723
0.0021183
0.00215952
0.0022009
0.00224244
0.00228413
0.00232599
0.002368
0.00241016
0.00245248
0.00249496
0.00253758
0.00258035
0.00262325
0.00266629
0.00270946
0.00275274
0.00279613
0.00283961
0.00288318
0.00292682
0.00297052
0.00301427
0.00305803
0.00310181
0.00314557
0.00318931
0.00323299
0.00327661
0.00332013
0.00336353
0.00340679
0.00344989
0.0034928
0.00353549
0.00357794
0.00362012
0.00366202
0.00370359
0.00374481
0.00378567
0.00382613
0.00386616
0.00390575
0.00394486
0.00398347
0.00402156
0.00405909
0.00409606
0.00413242
0.00416817
0.00420326
0.00423769
0.00427143
0.00430446
0.00433676
0.0043683
0.00439907
0.00442906
0.00445824
0.00448659
0.00451411
0.00454078
0.00456658
0.0045915
0.00461553
0.00463866
0.00466088
0.00468217
0.00470253
0.00472195
0.00474048
0.00475811
0.00477477
0.0047905
0.00480524
0.00481901
0.00483185
0.00484366
0.00485445
0.00486427
0.00487311
0.00488098
0.00488789
0.00489383
0.00489881
0.00490284
0.00490591
0.00490803
0.0049092
0.00490944
0.00490874
0.00490711
0.00490456
0.00490109
0.00489671
0.00489144
0.00488527
0.00487823
0.00487032
0.00486156
0.00485197
0.00484157
0.00483038
0.00481841
0.00480569
0.00479223
0.00477804
0.00476314
0.00474754
0.00473129
0.00471441
0.00469698
0.00467905
0.0046607
0.00464199
0.00462303
0.00460389
0.00458469
0.00456554
0.00454651
0.00452759
0.0045084
0.00448779
0.0044644
9.50704e-06
0.000100348
0.000209833
0.000302598
0.000377926
0.000438519
0.000487512
0.000527854
0.000561931
0.000591622
0.000618405
0.000643269
0.000666937
0.000689867
0.000712665
0.000735671
0.000759124
0.000783241
0.000808074
0.000833637
0.000859963
0.000887084
0.000915024
0.000943795
0.000973394
0.00100379
0.00103495
0.00106686
0.00109948
0.00113279
0.00116674
0.0012013
0.00123641
0.00127204
0.00130814
0.00134468
0.00138162
0.00141892
0.00145655
0.00149447
0.00153266
0.00157109
0.00160972
0.00164856
0.00168771
0.00172701
0.00176637
0.00180578
0.00184527
0.00188484
0.00192451
0.0019643
0.0020042
0.00204422
0.00208438
0.00212467
0.00216511
0.0022057
0.00224645
0.00228737
0.00232846
0.00236973
0.00241118
0.00245281
0.00249463
0.00253665
0.00257886
0.00262126
0.00266385
0.00270662
0.00274958
0.00279272
0.00283602
0.00287948
0.0029231
0.00296685
0.00301072
0.0030547
0.00309877
0.00314291
0.00318711
0.00323135
0.00327559
0.00331983
0.00336403
0.00340817
0.00345223
0.00349617
0.00353998
0.00358362
0.00362707
0.00367029
0.00371326
0.00375595
0.00379833
0.00384038
0.00388206
0.00392334
0.00396419
0.0040046
0.00404453
0.00408395
0.00412283
0.00416116
0.0041989
0.00423603
0.00427252
0.00430835
0.0043435
0.00437794
0.00441165
0.00444461
0.00447681
0.00450821
0.00453882
0.00456859
0.00459753
0.00462562
0.00465283
0.00467917
0.00470461
0.00472915
0.00475278
0.00477548
0.00479726
0.00481809
0.00483801
0.00485699
0.00487505
0.00489221
0.00490839
0.00492363
0.00493798
0.00495119
0.0049634
0.00497466
0.00498494
0.00499427
0.00500264
0.00501005
0.0050165
0.005022
0.00502656
0.00503017
0.00503284
0.00503457
0.00503537
0.00503523
0.00503417
0.00503218
0.00502927
0.00502545
0.00502072
0.00501509
0.00500858
0.00500119
0.00499294
0.00498385
0.00497392
0.00496319
0.00495165
0.00493935
0.00492628
0.00491248
0.00489795
0.00488274
0.00486688
0.00485042
0.00483343
0.00481597
0.00479812
0.00477997
0.00476163
0.0047432
0.00472482
0.00470659
0.00468853
0.00467037
0.00465121
0.00463052
9.84653e-06
0.000101846
0.000213231
0.000308809
0.000387136
0.000450893
0.00050292
0.000546078
0.000582635
0.000614351
0.000642588
0.000668649
0.000693459
0.000717767
0.000741957
0.000766288
0.000790972
0.000816145
0.000841855
0.000868203
0.000895247
0.000923018
0.00095153
0.000980786
0.00101077
0.00104148
0.00107286
0.00110491
0.00113759
0.00117084
0.00120463
0.00123893
0.0012737
0.0013089
0.00134449
0.00138045
0.00141673
0.0014533
0.00149013
0.00152718
0.00156441
0.0016018
0.00163942
0.00167738
0.00171552
0.0017537
0.00179193
0.00183013
0.00186831
0.00190652
0.00194479
0.00198315
0.00202161