/*--------------------------------*- C++ -*----------------------------------*\
  =========                 |
  \\      /  F ield         | OpenFOAM: The Open Source CFD Toolbox
   \\    /   O peration     | Website:  https://openfoam.org
    \\  /    A nd           | Version:  8
     \\/     M anipulation  |
\*---------------------------------------------------------------------------*/
FoamFile
{
    version     2.0;
    format      ascii;
    class       volScalarField;
    location    "275";
    object      p;
}
// * * * * * * * * * * * * * * * * * * * * * * * * * * * * * * * * * * * * * //

dimensions      [0 2 -2 0 0 0 0];

internalField   nonuniform List<scalar> 
12225
(
-1.46428
-3.65226
-4.75236
-5.07317
-5.25464
-5.42394
-5.5558
-5.65141
-5.7286
-5.79673
-5.85767
-5.91376
-5.96518
-6.01376
-6.06008
-6.10034
-6.15108
-6.13393
-4.62665
-5.39549
-5.55607
-5.46398
-5.45166
-5.51977
-5.59766
-5.66385
-5.72404
-5.78221
-5.83775
-5.88986
-5.93931
-5.98649
-6.0325
-6.07451
-6.12269
-6.16016
-5.02728
-5.0131
-5.1406
-5.21913
-5.31423
-5.43465
-5.54223
-5.6275
-5.69989
-5.76595
-5.82696
-5.88303
-5.93567
-5.98533
-6.03358
-6.07861
-6.12921
-6.17416
-4.90589
-4.84927
-5.091
-5.24948
-5.3514
-5.45785
-5.55588
-5.63634
-5.70562
-5.76938
-5.8288
-5.8839
-5.93589
-5.98519
-6.03322
-6.07932
-6.12864
-6.17675
-4.89596
-4.92035
-5.14849
-5.29018
-5.37397
-5.46626
-5.5578
-5.63591
-5.70396
-5.76682
-5.82573
-5.8807
-5.93271
-5.98228
-6.03061
-6.07768
-6.12645
-6.17596
-4.95405
-5.00286
-5.17719
-5.30121
-5.38288
-5.47093
-5.55926
-5.63614
-5.70358
-5.76586
-5.82436
-5.87917
-5.9311
-5.98075
-6.0291
-6.07647
-6.12461
-6.1736
-5.01435
-5.05849
-5.19372
-5.31015
-5.39404
-5.47837
-5.56256
-5.63753
-5.70404
-5.76557
-5.82347
-5.87794
-5.92964
-5.97917
-6.02733
-6.07456
-6.1219
-6.16954
-5.0678
-5.10539
-5.2154
-5.32378
-5.40691
-5.48669
-5.56634
-5.63912
-5.70454
-5.76521
-5.82241
-5.87645
-5.92781
-5.97709
-6.02491
-6.07169
-6.11806
-6.16406
-5.11744
-5.15056
-5.24152
-5.33956
-5.41975
-5.49528
-5.57065
-5.64102
-5.70515
-5.76481
-5.82121
-5.87467
-5.92557
-5.97443
-6.02172
-6.06781
-6.11305
-6.15734
-5.1644
-5.19365
-5.26921
-5.35649
-5.43279
-5.50447
-5.57575
-5.64346
-5.70602
-5.76452
-5.81995
-5.87267
-5.92295
-5.9712
-6.01779
-6.06298
-6.10699
-6.14961
-5.20861
-5.23411
-5.29734
-5.37457
-5.44633
-5.51425
-5.58161
-5.64647
-5.70723
-5.7644
-5.81872
-5.87053
-5.92002
-5.96749
-6.01322
-6.05738
-6.1001
-6.1411
-5.24653
-5.26888
-5.32311
-5.39198
-5.45915
-5.52362
-5.58754
-5.64971
-5.70865
-5.76446
-5.81764
-5.86847
-5.91711
-5.96374
-6.00856
-6.05169
-6.09319
-6.1328
-5.28153
-5.30126
-5.34811
-5.40952
-5.47205
-5.5331
-5.59376
-5.65326
-5.7103
-5.76465
-5.81662
-5.86639
-5.91406
-5.95976
-6.00361
-6.04568
-6.08599
-6.12431
-5.31819
-5.33538
-5.37541
-5.42944
-5.48678
-5.54396
-5.60111
-5.65762
-5.7124
-5.765
-5.81548
-5.86394
-5.91042
-5.95496
-5.99764
-6.03846
-6.07745
-6.1144
-5.35523
-5.37001
-5.40401
-5.4511
-5.50298
-5.55596
-5.60939
-5.66269
-5.71489
-5.76543
-5.81415
-5.86104
-5.90607
-5.94924
-5.99055
-6.02998
-6.06755
-6.10309
-5.39068
-5.40331
-5.43223
-5.47317
-5.51971
-5.56838
-5.61807
-5.66806
-5.71749
-5.76572
-5.81245
-5.85755
-5.90093
-5.94253
-5.98231
-6.02025
-6.05634
-6.09047
-5.42164
-5.43251
-5.45745
-5.49336
-5.5352
-5.57986
-5.62602
-5.67285
-5.71952
-5.76537
-5.81
-5.85319
-5.8948
-5.93473
-5.97292
-6.00933
-6.04394
-6.07671
-5.44375
-5.45339
-5.47562
-5.50804
-5.54643
-5.58798
-5.63132
-5.67554
-5.71984
-5.76355
-5.80623
-5.84761
-5.88752
-5.92584
-5.96249
-5.99744
-6.03067
-6.06218
-5.45011
-5.45925
-5.48044
-5.51153
-5.54855
-5.58872
-5.63065
-5.67344
-5.71633
-5.75865
-5.79996
-5.83998
-5.87856
-5.91557
-5.95097
-5.98473
-6.01683
-6.04732
-5.43365
-5.4434
-5.46597
-5.49898
-5.5379
-5.57948
-5.62231
-5.66567
-5.70886
-5.75123
-5.79236
-5.83204
-5.87015
-5.90663
-5.94142
-5.97455
-6.00602
-6.0359
-5.40657
-5.41735
-5.44258
-5.47954
-5.52222
-5.56662
-5.61157
-5.65665
-5.70111
-5.74427
-5.78583
-5.82571
-5.86386
-5.90025
-5.93486
-5.96774
-5.99894
-6.02854
-5.3712
-5.383
-5.41231
-5.45583
-5.50401
-5.55188
-5.59956
-5.64713
-5.69351
-5.73792
-5.78025
-5.82061
-5.85902
-5.89549
-5.93008
-5.96286
-5.9939
-6.02333
-5.33054
-5.34242
-5.37683
-5.43003
-5.48549
-5.53733
-5.58808
-5.63838
-5.68673
-5.73243
-5.77567
-5.81667
-5.85548
-5.89215
-5.92681
-5.95958
-5.99057
-6.01993
-5.28678
-5.29772
-5.33945
-5.4038
-5.46589
-5.52245
-5.57794
-5.63165
-5.68176
-5.72841
-5.77235
-5.81386
-5.85295
-5.88973
-5.9244
-5.95713
-5.98806
-6.01732
-5.23983
-5.24527
-5.30788
-5.38601
-5.44786
-5.506
-5.56701
-5.62523
-5.67759
-5.72549
-5.77033
-5.81243
-5.8518
-5.88867
-5.92333
-5.956
-5.98685
-6.01607
-5.19654
-5.16008
-5.26956
-5.38047
-5.44262
-5.4978
-5.55988
-5.61948
-5.67255
-5.72112
-5.76667
-5.80931
-5.84901
-5.88609
-5.92085
-5.95359
-5.98448
-6.01371
-5.21062
-5.05161
-5.1805
-5.33452
-5.42454
-5.4958
-5.5646
-5.62538
-5.67803
-5.72616
-5.77128
-5.81338
-5.85251
-5.88902
-5.92325
-5.95549
-5.98597
-6.01493
-5.33333
-5.15332
-5.16748
-5.23957
-5.32786
-5.42697
-5.51754
-5.59118
-5.65274
-5.70773
-5.75788
-5.8035
-5.84515
-5.88349
-5.91903
-5.95223
-5.98354
-6.01359
-5.04064
-5.6322
-5.72101
-5.59671
-5.54229
-5.56934
-5.6162
-5.6593
-5.70072
-5.74275
-5.78409
-5.82326
-5.86007
-5.89464
-5.92706
-5.95748
-5.9861
-6.01473
-2.05238
-3.81514
-4.81979
-5.11887
-5.26796
-5.41148
-5.52539
-5.60621
-5.67029
-5.72701
-5.77811
-5.824
-5.86552
-5.9036
-5.93875
-5.97076
-5.99949
-6.02318
-6.88315
-6.88317
-6.88354
-6.88431
-6.8853
-6.88646
-6.8878
-6.88934
-6.89111
-6.89317
-6.89557
-6.89833
-6.90151
-6.90516
-6.90931
-6.91402
-6.91931
-6.92525
-6.93188
-6.93925
-6.94743
-6.95647
-6.96646
-6.97748
-6.98961
-7.0029
-7.01734
-7.03277
-7.04868
-7.0647
-7.08128
-7.09916
-7.11788
-7.13767
-7.1605
-7.18582
-7.21172
-7.23901
-7.26864
-7.30012
-7.32913
-7.35238
-7.37293
-7.39588
-7.42207
-7.44972
-7.47836
-7.50762
-7.53729
-7.56721
-7.59724
-7.62729
-7.65723
-7.68699
-7.71644
-7.7455
-7.77406
-7.80202
-7.82925
-7.85566
-7.88111
-7.90548
-7.92864
-7.95045
-7.97076
-7.98944
-8.0063
-8.02121
-8.03397
-8.04444
-8.05242
-8.05774
-8.0602
-8.05962
-8.0558
-8.04857
-8.0377
-8.02301
-8.00428
-7.98135
-7.95399
-7.92202
-7.88523
-7.84346
-7.79649
-7.74418
-7.68631
-7.62274
-7.55327
-7.47777
-7.39612
-7.30816
-7.21376
-7.11279
-7.00525
-6.89126
-6.77083
-6.6436
-6.50908
-6.36726
-6.21833
-6.06234
-5.89931
-5.72927
-5.55225
-5.36828
-5.17742
-4.97976
-4.77536
-4.56436
-4.34687
-4.12302
-3.89296
-3.65688
-3.41494
-3.16735
-2.91431
-2.65607
-2.39284
-2.1249
-1.85251
-1.57595
-1.2955
-1.01146
-0.72414
-0.433868
-0.140972
0.154218
0.451376
0.75017
1.05023
1.35116
1.65262
1.95428
2.25579
2.5568
2.85695
3.15591
3.45333
3.7489
4.04232
4.33328
4.6215
4.9067
5.18861
5.46699
5.7416
6.01223
6.27867
6.54075
6.79829
7.05115
7.29918
7.54227
7.78032
8.01323
8.24094
8.46339
8.68054
8.89236
9.09885
9.30001
9.49599
9.68679
9.87216
10.052
10.2265
10.3956
10.5594
10.7181
10.8716
11.0201
11.1637
11.3025
11.4367
11.5668
11.6941
11.82
11.9558
12.0976
-6.88204
-6.88232
-6.88283
-6.88351
-6.88417
-6.88475
-6.88538
-6.88619
-6.88731
-6.88877
-6.89061
-6.89287
-6.89557
-6.89873
-6.90239
-6.90658
-6.91135
-6.91672
-6.92276
-6.9295
-6.937
-6.9453
-6.95444
-6.96446
-6.97535
-6.98708
-6.99952
-7.01254
-7.02619
-7.0411
-7.05772
-7.0753
-7.09385
-7.11465
-7.13631
-7.15712
-7.17855
-7.20054
-7.22237
-7.24465
-7.2692
-7.2995
-7.33411
-7.36753
-7.39815
-7.428
-7.45766
-7.48736
-7.51717
-7.54707
-7.57699
-7.60687
-7.63664
-7.6662
-7.69546
-7.72434
-7.75274
-7.78056
-7.80768
-7.834
-7.8594
-7.88375
-7.90693
-7.92879
-7.9492
-7.968
-7.98504
-8.00016
-8.01319
-8.02396
-8.03229
-8.038
-8.04091
-8.04082
-8.03755
-8.03091
-8.02068
-8.00669
-7.98872
-7.96658
-7.94007
-7.90901
-7.87319
-7.83243
-7.78654
-7.73535
-7.67867
-7.61634
-7.5482
-7.47409
-7.39389
-7.30746
-7.21466
-7.11537
-7.00946
-6.89677
-6.77708
-6.65039
-6.51688
-6.37654
-6.22924
-6.07495
-5.91365
-5.74536
-5.57009
-5.38789
-5.1988
-5.0029
-4.80028
-4.59103
-4.37528
-4.15317
-3.92483
-3.69044
-3.45017
-3.20422
-2.9528
-2.69612
-2.43442
-2.16797
-1.89702
-1.62184
-1.34272
-1.05995
-0.773837
-0.484708
-0.192888
0.101294
0.397518
0.695457
0.994743
1.29498
1.59583
1.89697
2.19804
2.49869
2.79858
3.09735
3.39468
3.69024
3.98373
4.27485
4.56331
4.84882
5.13112
5.40996
5.68511
5.95633
6.22344
6.48625
6.74457
6.99826
7.24718
7.4912
7.73023
7.96416
8.19292
8.41646
8.63473
8.84773
9.05546
9.25789
9.45485
9.64612
9.8318
10.012
10.1869
10.3564
10.5207
10.6799
10.8339
10.9829
11.1271
11.2665
11.4016
11.5328
11.6617
11.7892
11.9278
12.0645
-6.87824
-6.87917
-6.8805
-6.88164
-6.88234
-6.88278
-6.88318
-6.88373
-6.88456
-6.88575
-6.88734
-6.88937
-6.89187
-6.89485
-6.89835
-6.9024
-6.90703
-6.91229
-6.91822
-6.92485
-6.93222
-6.94038
-6.94937
-6.95919
-6.96985
-6.98134
-6.99364
-7.00674
-7.02076
-7.036
-7.05273
-7.07091
-7.09055
-7.11177
-7.13388
-7.15615
-7.17873
-7.20163
-7.22434
-7.24658
-7.26939
-7.29481
-7.32309
-7.3526
-7.38208
-7.41147
-7.4408
-7.47016
-7.49956
-7.52899
-7.55841
-7.58778
-7.61703
-7.64609
-7.67487
-7.70328
-7.73125
-7.75866
-7.78541
-7.8114
-7.8365
-7.8606
-7.88357
-7.90527
-7.92556
-7.94429
-7.96131
-7.97646
-7.98958
-8.00049
-8.00902
-8.01499
-8.01822
-8.01851
-8.01568
-8.00954
-7.99988
-7.98652
-7.96925
-7.94788
-7.92221
-7.89204
-7.85719
-7.81747
-7.77269
-7.72267
-7.66723
-7.60619
-7.53941
-7.46672
-7.38799
-7.30309
-7.21187
-7.11424
-7.01008
-6.89924
-6.78151
-6.65682
-6.52524
-6.38682
-6.24149
-6.08921
-5.92996
-5.76374
-5.59058
-5.41049
-5.22354
-5.02978
-4.82932
-4.62223
-4.40864
-4.18867
-3.96248
-3.73022
-3.49207
-3.2482
-2.99884
-2.7442
-2.4845
-2.22001
-1.95097
-1.67765
-1.40034
-1.11933
-0.834916
-0.547417
-0.257159
0.0355286
0.330332
0.626925
0.924944
1.22401
1.52378
1.82392
2.12409
2.42393
2.72309
3.02124
3.31803
3.61316
3.90631
4.19717
4.48546
4.77088
5.05318
5.33211
5.60741
5.87887
6.14629
6.40946
6.66822
6.92241
7.17188
7.41651
7.65619
7.89081
8.1203
8.34459
8.56363
8.77736
8.98574
9.1888
9.38651
9.57886
9.76587
9.94751
10.1238
10.2947
10.4603
10.6207
10.776
10.9263
11.0718
11.2125
11.3491
11.482
11.613
11.7422
11.8831
12.0079
-6.87201
-6.87372
-6.87632
-6.87843
-6.87975
-6.88061
-6.88131
-6.88204
-6.88294
-6.88414
-6.8857
-6.88769
-6.89013
-6.89306
-6.89651
-6.90051
-6.9051
-6.91032
-6.91619
-6.92276
-6.93007
-6.93814
-6.94701
-6.9567
-6.96723
-6.97859
-6.99078
-7.00385
-7.01789
-7.03309
-7.04958
-7.06741
-7.08652
-7.10681
-7.128
-7.1498
-7.17215
-7.19503
-7.21838
-7.2421
-7.26638
-7.29173
-7.3184
-7.34609
-7.37432
-7.40283
-7.43152
-7.46033
-7.48924
-7.51821
-7.54719
-7.57612
-7.60496
-7.63362
-7.66203
-7.69011
-7.71776
-7.74489
-7.7714
-7.79718
-7.82211
-7.84608
-7.86895
-7.8906
-7.91088
-7.92964
-7.94673
-7.962
-7.97528
-7.98639
-7.99517
-8.00144
-8.005
-8.00569
-8.00329
-7.99763
-7.9885
-7.97571
-7.95907
-7.93837
-7.91342
-7.88403
-7.84999
-7.81113
-7.76726
-7.71819
-7.66375
-7.60376
-7.53806
-7.46649
-7.38891
-7.30518
-7.21516
-7.11874
-7.01579
-6.9062
-6.78983
-6.66662
-6.53656
-6.39965
-6.25585
-6.10512
-5.94744
-5.78281
-5.61125
-5.43278
-5.24745
-5.05534
-4.85651
-4.65107
-4.43913
-4.2208
-3.99624
-3.7656
-3.52905
-3.28678
-3.03898
-2.78588
-2.52771
-2.2647
-1.99711
-1.72521
-1.44928
-1.1696
-0.88647
-0.600208
-0.311138
-0.0195834
0.274149
0.569722
0.866769
1.16493
1.46388
1.76328
2.06276
2.36198
2.66059
2.95826
3.25465
3.54944
3.84233
4.133
4.42115
4.70652
4.98882
5.26781
5.54324
5.81488
6.08254
6.346
6.60511
6.85969
7.10959
7.3547
7.59488
7.83004
8.06009
8.28497
8.50464
8.71903
8.9281
9.13185
9.33027
9.52345
9.71138
9.89396
10.0712
10.243
10.4096
10.5709
10.7272
10.8784
11.0247
11.1664
11.304
11.4378
11.5698
11.6988
11.8378
11.9487
-6.86481
-6.86735
-6.87144
-6.87478
-6.87696
-6.87848
-6.87971
-6.88086
-6.88209
-6.88355
-6.88532
-6.88748
-6.89008
-6.89315
-6.89674
-6.90088
-6.90561
-6.91097
-6.91698
-6.9237
-6.93115
-6.93938
-6.94842
-6.95828
-6.96899
-6.98057
-6.99302
-7.00638
-7.02071
-7.0361
-7.05264
-7.07036
-7.08919
-7.10905
-7.12978
-7.15121
-7.17325
-7.19586
-7.21907
-7.2429
-7.26748
-7.29289
-7.31913
-7.34608
-7.37355
-7.40138
-7.42949
-7.45779
-7.48625
-7.51479
-7.54338
-7.57195
-7.60045
-7.62879
-7.65691
-7.68472
-7.71213
-7.73906
-7.76539
-7.79102
-7.81584
-7.83973
-7.86255
-7.88418
-7.90448
-7.92329
-7.94047
-7.95585
-7.96928
-7.98058
-7.98957
-7.99609
-7.99994
-8.00094
-7.99889
-7.99361
-7.9849
-7.97256
-7.95639
-7.93621
-7.9118
-7.88298
-7.84955
-7.81133
-7.76812
-7.71974
-7.66602
-7.60678
-7.54186
-7.47109
-7.39434
-7.31146
-7.22231
-7.12677
-7.02473
-6.91606
-6.80068
-6.67851
-6.54952
-6.41367
-6.27094
-6.12128
-5.96469
-5.80115
-5.63069
-5.45333
-5.26912
-5.07813
-4.88042
-4.6761
-4.46527
-4.24806
-4.0246
-3.79506
-3.5596
-3.3184
-3.07166
-2.81961
-2.56245
-2.30044
-2.03383
-1.76287
-1.48785
-1.20905
-0.926775
-0.64133
-0.353041
-0.0622225
0.230817
0.525729
0.822142
1.11973
1.41816
1.7171
2.01615
2.315
2.61329
2.91068
3.20685
3.50147
3.79423
4.08482
4.37295
4.65833
4.9407
5.21979
5.49537
5.7672
6.03508
6.29882
6.55823
6.81314
7.06342
7.30891
7.54952
7.78514
8.01569
8.24109
8.46128
8.67621
8.88583
9.09012
9.28906
9.48273
9.67111
9.85416
10.0318
10.2042
10.3713
10.5331
10.6898
10.8415
10.9883
11.1305
11.2685
11.4026
11.5343
11.6617
11.7974
11.8954
-6.85811
-6.86145
-6.86693
-6.87148
-6.87458
-6.87685
-6.87871
-6.8804
-6.8821
-6.88397
-6.88611
-6.8886
-6.89151
-6.89489
-6.89878
-6.90321
-6.90824
-6.91389
-6.92021
-6.92723
-6.935
-6.94355
-6.95291
-6.96311
-6.97417
-6.98611
-6.99894
-7.01269
-7.02737
-7.04304
-7.05972
-7.07742
-7.09612
-7.11576
-7.13624
-7.15745
-7.17932
-7.20181
-7.22489
-7.2486
-7.27299
-7.29809
-7.32387
-7.35026
-7.37715
-7.40445
-7.43206
-7.45993
-7.48799
-7.51618
-7.54444
-7.57272
-7.60095
-7.62905
-7.65695
-7.68458
-7.71183
-7.73863
-7.76486
-7.79042
-7.81519
-7.83906
-7.86189
-7.88356
-7.90391
-7.92281
-7.94011
-7.95563
-7.96922
-7.98071
-7.98992
-7.99667
-8.00078
-8.00206
-8.00031
-7.99535
-7.98698
-7.975
-7.95922
-7.93943
-7.91544
-7.88706
-7.85408
-7.81633
-7.7736
-7.72573
-7.67253
-7.61383
-7.54945
-7.47925
-7.40308
-7.3208
-7.23226
-7.13735
-7.03594
-6.92794
-6.81324
-6.69179
-6.56352
-6.42841
-6.2864
-6.13748
-5.98162
-5.81882
-5.64911
-5.4725
-5.28904
-5.0988
-4.90185
-4.69828
-4.48821
-4.27175
-4.04905
-3.82025
-3.58552
-3.34505
-3.09904
-2.84769
-2.59123
-2.3299
-2.06394
-1.79363
-1.51923
-1.24103
-0.959325
-0.674434
-0.386673
-0.0963468
0.196225
0.490682
0.786667
1.08387
1.38196
1.68059
1.97937
2.27797
2.57605
2.87327
3.1693
3.46381
3.75651
4.04706
4.33519
4.6206
4.90302
5.1822
5.45789
5.72988
5.99793
6.26187
6.5215
6.77666
7.02721
7.27302
7.51395
7.74992
7.98082
8.20658
8.42714
8.64244
8.85244
9.0571
9.2564
9.45037
9.63903
9.82235
10.0003
10.173
10.3404
10.5025
10.6595
10.8115
10.9586
11.1009
11.2389
11.3728
11.5038
11.6291
11.7613
11.848
-6.85301
-6.85707
-6.86369
-6.86927
-6.87323
-6.87624
-6.87875
-6.88103
-6.88326
-6.8856
-6.88819
-6.8911
-6.89442
-6.89819
-6.90247
-6.90729
-6.9127
-6.91874
-6.92545
-6.93286
-6.94102
-6.94995
-6.95969
-6.97026
-6.98168
-6.99398
-7.00715
-7.02122
-7.03619
-7.05208
-7.06889
-7.08662
-7.10525
-7.12473
-7.14501
-7.16603
-7.18774
-7.21009
-7.23307
-7.25667
-7.28089
-7.30574
-7.33119
-7.35719
-7.38368
-7.41057
-7.43782
-7.46535
-7.49311
-7.52103
-7.54905
-7.57712
-7.60516
-7.63311
-7.66089
-7.68841
-7.71559
-7.74234
-7.76854
-7.7941
-7.8189
-7.84282
-7.86572
-7.88748
-7.90794
-7.92698
-7.94442
-7.96011
-7.97388
-7.98556
-7.99498
-8.00196
-8.0063
-8.00782
-8.00633
-8.00164
-7.99354
-7.98185
-7.96636
-7.94687
-7.92319
-7.89512
-7.86247
-7.82504
-7.78265
-7.73512
-7.68227
-7.62392
-7.5599
-7.49007
-7.41428
-7.33238
-7.24424
-7.14972
-7.04873
-6.94115
-6.8269
-6.7059
-6.57809
-6.44344
-6.30189
-6.15343
-5.99804
-5.83571
-5.66646
-5.49033
-5.30735
-5.11759
-4.92113
-4.71805
-4.50847
-4.2925
-4.07028
-3.84197
-3.60773
-3.36774
-3.1222
-2.87132
-2.61532
-2.35444
-2.08893
-1.81905
-1.54507
-1.26727
-0.985962
-0.701447
-0.414043
-0.124052
0.168191
0.462325
0.758017
1.05496
1.35282
1.65122
1.94981
2.24824
2.54617
2.84327
3.1392
3.43364
3.72628
4.0168
4.30492
4.59034
4.87279
5.15202
5.42778
5.69986
5.96802
6.23209
6.49188
6.74722
6.99795
7.24396
7.48511
7.7213
7.95243
8.17844
8.39924
8.61479
8.82503
9.02993
9.22947
9.42365
9.6125
9.79602
9.97419
10.147
10.3146
10.477
10.6341
10.7862
10.9334
11.0758
11.2136
11.3469
11.4768
11.5998
11.7289
11.8056
-6.85025
-6.85485
-6.86228
-6.86867
-6.87335
-6.87702
-6.88014
-6.88298
-6.88573
-6.88857
-6.89162
-6.89498
-6.89872
-6.90292
-6.90762
-6.91286
-6.91868
-6.92513
-6.93225
-6.94006
-6.94861
-6.95792
-6.96802
-6.97894
-6.99069
-7.00329
-7.01675
-7.03106
-7.04624
-7.06229
-7.0792
-7.09696
-7.11556
-7.13495
-7.1551
-7.17598
-7.19755
-7.21977
-7.24263
-7.26611
-7.29019
-7.31486
-7.34008
-7.36583
-7.39205
-7.41869
-7.44569
-7.473
-7.50055
-7.5283
-7.55618
-7.58414
-7.61209
-7.63998
-7.66771
-7.69522
-7.72241
-7.74919
-7.77544
-7.80107
-7.82596
-7.84998
-7.87301
-7.8949
-7.91552
-7.93471
-7.95232
-7.96819
-7.98216
-7.99403
-8.00365
-8.01083
-8.01538
-8.01711
-8.01583
-8.01135
-8.00346
-7.99197
-7.97669
-7.95741
-7.93393
-7.90607
-7.87362
-7.83639
-7.7942
-7.74687
-7.69421
-7.63606
-7.57224
-7.50261
-7.42702
-7.34533
-7.25739
-7.16309
-7.06231
-6.95496
-6.84094
-6.72018
-6.59262
-6.45821
-6.31691
-6.1687
-6.01355
-5.85148
-5.68249
-5.50661
-5.3239
-5.13441
-4.93822
-4.73542
-4.52612
-4.31044
-4.08851
-3.86049
-3.62654
-3.38685
-3.1416
-2.89102
-2.63531
-2.37472
-2.1095
-1.83989
-1.56618
-1.28864
-1.00759
-0.723324
-0.436152
-0.146387
0.145625
0.439537
0.735028
1.03179
1.32949
1.62774
1.9262
2.2245
2.52232
2.81932
3.11518
3.40956
3.70215
3.99263
4.28072
4.56613
4.84858
5.12783
5.40363
5.67575
5.94398
6.20813
6.468
6.72344
6.97429
7.22042
7.4617
7.69802
7.92931
8.15546
8.37643
8.59213
8.80253
9.00759
9.20727
9.4016
9.59058
9.77422
9.95252
10.1255
10.2932
10.4556
10.6129
10.765
10.9121
11.0543
11.1918
11.3244
11.453
11.5735
11.6998
11.7679
-6.85014
-6.8551
-6.86301
-6.86993
-6.87516
-6.87937
-6.88301
-6.88634
-6.88957
-6.89285
-6.89634
-6.90011
-6.90427
-6.90886
-6.91395
-6.91958
-6.92579
-6.93262
-6.94011
-6.94829
-6.95718
-6.96683
-6.97725
-6.98846
-7.00048
-7.01332
-7.02698
-7.04148
-7.0568
-7.07295
-7.08992
-7.1077
-7.12627
-7.1456
-7.16567
-7.18646
-7.20793
-7.23005
-7.25282
-7.2762
-7.30017
-7.32472
-7.34981
-7.37541
-7.40148
-7.42797
-7.45484
-7.48203
-7.50949
-7.53717
-7.565
-7.59293
-7.62088
-7.64879
-7.67657
-7.70414
-7.73141
-7.75828
-7.78465
-7.81041
-7.83544
-7.85962
-7.88281
-7.90487
-7.92566
-7.94503
-7.96283
-7.97888
-7.99302
-8.00508
-8.01487
-8.02222
-8.02694
-8.02883
-8.0277
-8.02336
-8.01562
-8.00426
-7.98909
-7.96993
-7.94655
-7.91878
-7.88642
-7.84927
-7.80715
-7.75989
-7.70729
-7.6492
-7.58543
-7.51585
-7.44031
-7.35867
-7.27078
-7.17653
-7.0758
-6.96851
-6.85455
-6.73386
-6.60637
-6.47204
-6.33081
-6.18268
-6.02761
-5.86562
-5.69672
-5.52095
-5.33834
-5.14896
-4.95289
-4.75022
-4.54105
-4.3255
-4.10372
-3.87585
-3.64205
-3.40252
-3.15744
-2.90702
-2.65149
-2.39107
-2.12601
-1.85657
-1.58302
-1.30566
-1.02477
-0.74066
-0.453639
-0.164032
0.127816
0.421577
0.716926
1.01356
1.31114
1.60928
1.90763
2.20584
2.50357
2.80048
3.09626
3.39058
3.68311
3.97354
4.26159
4.54697
4.82941
5.10864
5.38444
5.65657
5.92481
6.18898
6.44888
6.70435
6.95525
7.20143
7.44277
7.67916
7.91052
8.13675
8.3578
8.57359
8.78408
8.98922
9.18899
9.38341
9.57246
9.75617
9.93452
10.1076
10.2753
10.4377
10.595
10.7471
10.894
11.0359
11.1729
11.3046
11.4318
11.55
11.6737
11.7343
-6.85271
-6.85781
-6.8659
-6.8731
-6.87869
-6.88329
-6.88733
-6.89106
-6.89467
-6.89833
-6.90218
-6.90631
-6.91081
-6.91574
-6.92116
-6.92712
-6.93365
-6.9408
-6.94859
-6.95705
-6.96622
-6.97613
-6.98678
-6.9982
-7.01041
-7.02341
-7.03721
-7.05181
-7.06722
-7.08342
-7.10042
-7.1182
-7.13674
-7.15603
-7.17605
-7.19678
-7.21818
-7.24025
-7.26296
-7.28629
-7.31021
-7.3347
-7.35974
-7.38529
-7.41131
-7.43776
-7.46459
-7.49176
-7.51922
-7.54692
-7.57479
-7.60278
-7.63081
-7.65881
-7.6867
-7.7144
-7.74182
-7.76884
-7.79538
-7.82131
-7.84651
-7.87087
-7.89424
-7.91648
-7.93746
-7.957
-7.97497
-7.99118
-8.00548
-8.01768
-8.02761
-8.03508
-8.0399
-8.04188
-8.04084
-8.03657
-8.02887
-8.01755
-8.00241
-7.98325
-7.95987
-7.93209
-7.89969
-7.86251
-7.82034
-7.77302
-7.72036
-7.66219
-7.59835
-7.52869
-7.45306
-7.37133
-7.28335
-7.18902
-7.08821
-6.98084
-6.86681
-6.74605
-6.6185
-6.4841
-6.34282
-6.19463
-6.03952
-5.87749
-5.70857
-5.53277
-5.35015
-5.16077
-4.96471
-4.76205
-4.55291
-4.3374
-4.11567
-3.88785
-3.65412
-3.41466
-3.16966
-2.91933
-2.66389
-2.40356
-2.1386
-1.86927
-1.59583
-1.31858
-1.0378
-0.753797
-0.466887
-0.177405
0.114319
0.407962
0.703199
0.999723
1.2972
1.59523
1.89347
2.19158
2.48921
2.78605
3.08174
3.37598
3.66844
3.95881
4.24679
4.53211
4.81449
5.09367
5.36942
5.6415
5.9097
6.17384
6.43371
6.68917
6.94004
7.18621
7.42755
7.66395
7.89532
8.12157
8.34263
8.55844
8.76896
8.97414
9.17395
9.36839
9.55747
9.7412
9.91956
10.0926
10.2603
10.4227
10.5799
10.7318
10.8786
11.0201
11.1565
11.2872
11.413
11.5288
11.6501
11.7044
-6.85775
-6.86282
-6.87081
-6.87805
-6.88381
-6.88864
-6.89295
-6.89695
-6.90084
-6.90478
-6.9089
-6.9133
-6.91806
-6.92324
-6.9289
-6.93509
-6.94184
-6.9492
-6.95719
-6.96584
-6.97518
-6.98524
-6.99603
-7.00758
-7.01989
-7.03297
-7.04684
-7.0615
-7.07694
-7.09316
-7.11016
-7.12793
-7.14646
-7.16572
-7.18571
-7.20641
-7.2278
-7.24985
-7.27255
-7.29587
-7.3198
-7.34431
-7.36936
-7.39494
-7.42099
-7.44748
-7.47437
-7.50161
-7.52916
-7.55695
-7.58494
-7.61305
-7.64122
-7.66938
-7.69744
-7.72531
-7.7529
-7.78011
-7.80683
-7.83295
-7.85834
-7.88287
-7.90642
-7.92883
-7.94995
-7.96965
-7.98774
-8.00407
-8.01846
-8.03074
-8.04073
-8.04825
-8.05309
-8.05509
-8.05403
-8.04973
-8.04198
-8.03059
-8.01537
-7.99611
-7.97262
-7.9447
-7.91216
-7.87482
-7.83249
-7.78499
-7.73214
-7.67378
-7.60975
-7.53989
-7.46407
-7.38214
-7.29397
-7.19944
-7.09844
-6.99088
-6.87668
-6.75574
-6.62803
-6.49347
-6.35204
-6.20371
-6.04847
-5.88632
-5.71728
-5.54138
-5.35868
-5.16923
-4.9731
-4.7704
-4.56122
-4.34569
-4.12395
-3.89614
-3.66243
-3.42299
-3.17803
-2.92775
-2.67236
-2.4121
-2.14721
-1.87795
-1.6046
-1.32744
-1.04675
-0.762859
-0.476066
-0.186709
0.104895
0.398417
0.693533
0.989942
1.2873
1.58522
1.88333
2.18132
2.47885
2.77557
3.07116
3.36528
3.65763
3.94789
4.23577
4.52098
4.80326
5.08234
5.35798
5.62997
5.89808
6.16212
6.42191
6.67728
6.92809
7.17419
7.41546
7.6518
7.88312
8.10932
8.33035
8.54613
8.75662
8.96177
9.16157
9.356
9.54507
9.72876
9.9071
10.0801
10.2477
10.4101
10.5671
10.7189
10.8653
11.0064
11.142
11.2718
11.396
11.5097
11.6288
11.6777
-6.8649
-6.86979
-6.87747
-6.88454
-6.89029
-6.8952
-6.89962
-6.90377
-6.90782
-6.91193
-6.9162
-6.92075
-6.92565
-6.93096
-6.93674
-6.94304
-6.94989
-6.95734
-6.96541
-6.97414
-6.98355
-6.99367
-7.00451
-7.0161
-7.02844
-7.04156
-7.05544
-7.07011
-7.08555
-7.10177
-7.11876
-7.13652
-7.15503
-7.17429
-7.19428
-7.21498
-7.23638
-7.25846
-7.2812
-7.30458
-7.32857
-7.35314
-7.37827
-7.40392
-7.43006
-7.45666
-7.48368
-7.51106
-7.53875
-7.56671
-7.59486
-7.62314
-7.65149
-7.67983
-7.70807
-7.73613
-7.7639
-7.79129
-7.81819
-7.84447
-7.87001
-7.89469
-7.91836
-7.94088
-7.96209
-7.98186
-8
-8.01636
-8.03076
-8.04302
-8.05298
-8.06043
-8.0652
-8.06708
-8.0659
-8.06145
-8.05354
-8.04197
-8.02654
-8.00707
-7.98334
-7.95518
-7.92238
-7.88477
-7.84217
-7.79438
-7.74125
-7.6826
-7.61828
-7.54813
-7.47201
-7.38979
-7.30134
-7.20654
-7.10527
-6.99746
-6.883
-6.76182
-6.63388
-6.4991
-6.35746
-6.20893
-6.05351
-5.89119
-5.722
-5.54597
-5.36314
-5.17359
-4.97737
-4.7746
-4.56537
-4.3498
-4.12803
-3.90021
-3.66651
-3.4271
-3.18218
-2.93195
-2.67663
-2.41644
-2.15164
-1.88248
-1.60923
-1.33218
-1.05161
-0.767847
-0.481198
-0.191983
0.0994807
0.392855
0.68782
0.984088
1.28129
1.57904
1.87699
2.17482
2.47219
2.76875
3.06418
3.35815
3.65033
3.94043
4.22815
4.5132
4.79532
5.07424
5.34973
5.62156
5.88952
6.15341
6.41305
6.66829
6.91896
7.16493
7.40608
7.64231
7.87351
8.09962
8.32055
8.53625
8.74667
8.95176
9.1515
9.34587
9.53488
9.71852
9.8968
10.0697
10.2373
10.3995
10.5563
10.7078
10.8539
10.9945
11.1294
11.2581
11.3809
11.4925
11.6095
11.654
-6.87376
-6.87836
-6.88556
-6.89228
-6.89786
-6.90269
-6.90709
-6.91124
-6.91531
-6.91944
-6.92373
-6.9283
-6.9332
-6.9385
-6.94427
-6.95055
-6.95739
-6.96481
-6.97287
-6.98157
-6.99096
-7.00106
-7.01187
-7.02343
-7.03574
-7.04883
-7.06268
-7.07732
-7.09273
-7.10893
-7.12591
-7.14366
-7.16217
-7.18144
-7.20145
-7.22219
-7.24364
-7.26578
-7.28858
-7.31203
-7.3361
-7.36077
-7.38601
-7.41179
-7.43808
-7.46484
-7.49203
-7.51959
-7.54746
-7.57559
-7.60392
-7.63238
-7.6609
-7.6894
-7.7178
-7.74601
-7.77392
-7.80144
-7.82844
-7.85481
-7.88043
-7.90515
-7.92885
-7.95137
-7.97257
-7.99228
-8.01036
-8.02662
-8.0409
-8.05302
-8.0628
-8.07006
-8.07462
-8.07627
-8.07483
-8.07011
-8.0619
-8.05003
-8.03428
-8.01446
-7.99039
-7.96188
-7.92872
-7.89075
-7.84777
-7.79961
-7.74611
-7.68709
-7.6224
-7.55188
-7.47542
-7.39286
-7.30407
-7.20894
-7.10736
-6.99924
-6.8845
-6.76305
-6.63485
-6.49983
-6.35796
-6.20923
-6.05362
-5.89114
-5.7218
-5.54564
-5.3627
-5.17306
-4.97677
-4.77395
-4.56469
-4.34911
-4.12735
-3.89956
-3.6659
-3.42655
-3.1817
-2.93156
-2.67634
-2.41627
-2.1516
-1.88258
-1.60948
-1.33259
-1.0522
-0.768622
-0.482169
-0.193141
0.0981233
0.391286
0.686048
0.982117
1.2791
1.57661
1.87433
2.17194
2.46908
2.76542
3.06062
3.35436
3.64632
3.93619
4.22368
4.5085
4.79039
5.06909
5.34435
5.61596
5.8837
6.14737
6.40681
6.66184
6.91231
7.15809
7.39906
7.63511
7.86616
8.09211
8.3129
8.52848
8.73877
8.94376
9.1434
9.33768
9.5266
9.71016
9.88834
10.0611
10.2286
10.3906
10.5473
10.6985
10.8442
10.9842
11.1184
11.2459
11.3673
11.477
11.592
11.633
-6.88391
-6.88814
-6.89474
-6.90099
-6.90625
-6.91085
-6.91507
-6.91906
-6.92299
-6.92697
-6.93112
-6.93554
-6.9403
-6.94547
-6.9511
-6.95725
-6.96396
-6.97126
-6.97919
-6.98779
-6.99707
-7.00706
-7.01778
-7.02925
-7.04148
-7.05449
-7.06828
-7.08286
-7.09824
-7.11441
-7.13137
-7.14912
-7.16764
-7.18692
-7.20695
-7.22772
-7.24922
-7.27141
-7.29429
-7.31783
-7.34201
-7.3668
-7.39219
-7.41812
-7.44458
-7.4715
-7.49884
-7.52656
-7.55458
-7.58285
-7.6113
-7.63986
-7.66848
-7.69706
-7.72552
-7.75378
-7.78172
-7.80924
-7.83622
-7.86255
-7.88809
-7.91272
-7.93628
-7.95865
-7.97967
-7.99917
-8.01701
-8.03302
-8.04701
-8.05883
-8.06829
-8.07521
-8.0794
-8.08068
-8.07885
-8.07372
-8.06511
-8.05281
-8.03663
-8.01638
-7.99188
-7.96292
-7.92933
-7.89092
-7.84751
-7.79893
-7.74501
-7.68558
-7.62048
-7.54959
-7.47275
-7.38983
-7.3007
-7.20524
-7.10335
-6.99494
-6.87992
-6.75822
-6.62977
-6.49454
-6.35248
-6.20357
-6.04781
-5.88519
-5.71575
-5.5395
-5.3565
-5.16682
-4.97052
-4.7677
-4.55847
-4.34294
-4.12125
-3.89355
-3.66001
-3.42079
-3.17609
-2.92611
-2.67107
-2.4112
-2.14673
-1.87793
-1.60507
-1.32842
-1.0483
-0.765002
-0.478812
-0.190057
0.100913
0.393776
0.688263
0.984046
1.2807
1.57789
1.8753
2.17259
2.46942
2.76545
3.06034
3.35377
3.64542
3.93498
4.22216
4.50668
4.78826
5.06665
5.34161
5.61292
5.88037
6.14376
6.40292
6.65768
6.90789
7.15342
7.39415
7.62997
7.8608
8.08656
8.30716
8.52256
8.7327
8.93754
9.13705
9.33122
9.52002
9.70346
9.88153
10.0542
10.2215
10.3834
10.5398
10.6907
10.836
10.9754
11.1088
11.2353
11.3552
11.4632
11.5762
11.6144
-6.89498
-6.89881
-6.90476
-6.91043
-6.91522
-6.91943
-6.92328
-6.92693
-6.93052
-6.93418
-6.93803
-6.94215
-6.94663
-6.95153
-6.9569
-6.9628
-6.96928
-6.97636
-6.98409
-6.99249
-7.00159
-7.01142
-7.02199
-7.03333
-7.04545
-7.05835
-7.07204
-7.08654
-7.10184
-7.11795
-7.13486
-7.15256
-7.17106
-7.19033
-7.21037
-7.23116
-7.25267
-7.27492
-7.29787
-7.32151
-7.34579
-7.3707
-7.39619
-7.42223
-7.44876
-7.47576
-7.50316
-7.53091
-7.55895
-7.58721
-7.61564
-7.64416
-7.6727
-7.7012
-7.72956
-7.75768
-7.78546
-7.81279
-7.83956
-7.86564
-7.89091
-7.91524
-7.93848
-7.9605
-7.98114
-8.00026
-8.01769
-8.03326
-8.04682
-8.05818
-8.06717
-8.07361
-8.07731
-8.07809
-8.07577
-8.07014
-8.06102
-8.04822
-8.03155
-8.0108
-7.98581
-7.95637
-7.9223
-7.88342
-7.83956
-7.79054
-7.73619
-7.67635
-7.61087
-7.53961
-7.46242
-7.37917
-7.28972
-7.19396
-7.09181
-6.98314
-6.8679
-6.746
-6.61738
-6.48199
-6.33981
-6.1908
-6.03497
-5.87231
-5.70284
-5.5266
-5.34363
-5.154
-4.95779
-4.75507
-4.54597
-4.3306
-4.10909
-3.88159
-3.64827
-3.40929
-3.16485
-2.91515
-2.6604
-2.40083
-2.13669
-1.86822
-1.59571
-1.31944
-1.0397
-0.756768
-0.470954
-0.182601
0.107956
0.400414
0.694527
0.989896
1.2861
1.58285
1.87984
2.17672
2.47313
2.76874
3.06321
3.35623
3.64747
3.93663
4.22341
4.50752
4.78871
5.06671
5.34129
5.61222
5.8793
6.14233
6.40114
6.65556
6.90544
7.15066
7.39109
7.62663
7.85719
8.08269
8.30307
8.51825
8.7282
8.93287
9.13222
9.32624
9.51491
9.69822
9.87616
10.0487
10.2159
10.3776
10.5337
10.6843
10.8292
10.968
11.1006
11.226
11.3447
11.4509
11.562
11.5982
-6.90716
-6.91059
-6.91588
-6.92088
-6.92506
-6.92866
-6.93191
-6.93498
-6.93802
-6.94115
-6.94449
-6.94813
-6.95215
-6.95663
-6.96161
-6.96715
-6.97328
-6.98005
-6.98748
-6.9956
-7.00444
-7.01403
-7.02437
-7.03549
-7.04739
-7.0601
-7.07362
-7.08796
-7.10311
-7.11907
-7.13584
-7.15342
-7.1718
-7.19099
-7.21096
-7.23171
-7.2532
-7.27542
-7.29834
-7.32195
-7.34619
-7.37105
-7.39646
-7.4224
-7.44881
-7.47566
-7.50289
-7.53045
-7.55827
-7.58629
-7.61445
-7.6427
-7.67095
-7.69914
-7.72715
-7.7549
-7.78228
-7.80917
-7.83548
-7.86108
-7.88584
-7.90964
-7.93235
-7.95381
-7.97389
-7.99243
-8.00928
-8.02426
-8.03723
-8.048
-8.0564
-8.06225
-8.06537
-8.06557
-8.06267
-8.05648
-8.04682
-8.03347
-8.01627
-7.99502
-7.96953
-7.9396
-7.90508
-7.86576
-7.82147
-7.77205
-7.71734
-7.65716
-7.59136
-7.5198
-7.44232
-7.35881
-7.26913
-7.17318
-7.07084
-6.96203
-6.84667
-6.72468
-6.59599
-6.46057
-6.31839
-6.16941
-6.01363
-5.85106
-5.6817
-5.5056
-5.32281
-5.13338
-4.93739
-4.73492
-4.5261
-4.31103
-4.08985
-3.8627
-3.62976
-3.39118
-3.14715
-2.89788
-2.64358
-2.38448
-2.12082
-1.85285
-1.58086
-1.30511
-1.02589
-0.743479
-0.458216
-0.170426
0.119563
0.411493
0.705076
0.999856
1.29546
1.59165
1.88808
2.18439