/*--------------------------------*- C++ -*----------------------------------*\
  =========                 |
  \\      /  F ield         | OpenFOAM: The Open Source CFD Toolbox
   \\    /   O peration     | Website:  https://openfoam.org
    \\  /    A nd           | Version:  8
     \\/     M anipulation  |
\*---------------------------------------------------------------------------*/
FoamFile
{
    version     2.0;
    format      ascii;
    class       surfaceScalarField;
    location    "275";
    object      phi;
}
// * * * * * * * * * * * * * * * * * * * * * * * * * * * * * * * * * * * * * //

dimensions      [0 3 -1 0 0 0 0];

internalField   nonuniform List<scalar> 
24170
(
3.12889e-06
5.95164e-08
3.04664e-06
8.22485e-08
2.97355e-06
7.3091e-08
2.90491e-06
6.86366e-08
2.84059e-06
6.4319e-08
2.78328e-06
5.73097e-08
2.73397e-06
4.93077e-08
2.69204e-06
4.1932e-08
2.65639e-06
3.56471e-08
2.62598e-06
3.04115e-08
2.59983e-06
2.61515e-08
2.5771e-06
2.27266e-08
2.55714e-06
1.99589e-08
2.5394e-06
1.77479e-08
2.52347e-06
1.59224e-08
2.50856e-06
1.49148e-08
2.49502e-06
1.35398e-08
1.76501e-08
2.47737e-06
3.45314e-06
2.36255e-08
3.45702e-06
7.83689e-08
3.45055e-06
7.95596e-08
3.4391e-06
8.0089e-08
3.42432e-06
7.90936e-08
3.40707e-06
7.45555e-08
3.38787e-06
6.85168e-08
3.36735e-06
6.24452e-08
3.34622e-06
5.67781e-08
3.32506e-06
5.15734e-08
3.30435e-06
4.68577e-08
3.28438e-06
4.27005e-08
3.26533e-06
3.90019e-08
3.24726e-06
3.58198e-08
3.23027e-06
3.29167e-08
3.21425e-06
3.09337e-08
3.19954e-06
2.82493e-08
2.93326e-08
3.18786e-06
3.66826e-06
1.78803e-08
3.67919e-06
6.74416e-08
3.68542e-06
7.33238e-08
3.68947e-06
7.60436e-08
3.69107e-06
7.74904e-08
3.69011e-06
7.55138e-08
3.68699e-06
7.16437e-08
3.68216e-06
6.72735e-08
3.67602e-06
6.29133e-08
3.66891e-06
5.86911e-08
3.66108e-06
5.46785e-08
3.65281e-06
5.09738e-08
3.64427e-06
4.75414e-08
3.63563e-06
4.44619e-08
3.62696e-06
4.1582e-08
3.6186e-06
3.93008e-08
3.61008e-06
3.67653e-08
3.57502e-08
3.60366e-06
3.92587e-06
1.73946e-08
3.93592e-06
5.73926e-08
3.94258e-06
6.66706e-08
3.94812e-06
7.04968e-08
3.95254e-06
7.30694e-08
3.9555e-06
7.25571e-08
3.95718e-06
6.99636e-08
3.95782e-06
6.66265e-08
3.95763e-06
6.31102e-08
3.95673e-06
5.95835e-08
3.95528e-06
5.61317e-08
3.95339e-06
5.28638e-08
3.95116e-06
4.97759e-08
3.94868e-06
4.69368e-08
3.946e-06
4.42594e-08
3.94336e-06
4.19468e-08
3.94051e-06
3.9616e-08
3.77603e-08
3.9385e-06
4.20819e-06
1.6327e-08
4.21599e-06
4.95984e-08
4.22169e-06
6.09678e-08
4.2268e-06
6.5388e-08
4.23155e-06
6.83145e-08
4.23553e-06
6.8577e-08
4.23871e-06
6.67849e-08
4.2412e-06
6.41363e-08
4.24311e-06
6.12025e-08
4.24453e-06
5.81692e-08
4.24553e-06
5.51305e-08
4.2462e-06
5.21924e-08
4.2466e-06
4.93766e-08
4.2468e-06
4.67347e-08
4.24683e-06
4.42238e-08
4.24685e-06
4.19349e-08
4.24678e-06
3.96868e-08
3.75539e-08
4.24698e-06
4.51069e-06
1.4725e-08
4.51689e-06
4.33996e-08
4.52214e-06
5.57135e-08
4.52696e-06
6.05668e-08
4.53168e-06
6.35948e-08
4.53594e-06
6.43192e-08
4.53962e-06
6.31001e-08
4.5428e-06
6.09614e-08
4.54554e-06
5.84634e-08
4.5479e-06
5.58036e-08
4.54995e-06
5.30862e-08
4.55173e-06
5.04096e-08
4.55329e-06
4.78131e-08
4.55469e-06
4.53344e-08
4.55596e-06
4.29564e-08
4.55718e-06
4.07103e-08
4.55837e-06
3.85029e-08
3.62939e-08
4.55963e-06
4.83431e-06
1.31368e-08
4.83963e-06
3.80753e-08
4.84476e-06
5.05837e-08
4.84947e-06
5.58582e-08
4.85411e-06
5.89546e-08
4.85844e-06
5.99926e-08
4.86232e-06
5.92166e-08
4.8658e-06
5.74828e-08
4.86893e-06
5.5332e-08
4.87176e-06
5.2973e-08
4.87433e-06
5.05183e-08
4.87668e-06
4.80598e-08
4.87884e-06
4.56472e-08
4.88087e-06
4.33096e-08
4.88278e-06
4.10436e-08
4.88464e-06
3.88529e-08
4.88646e-06
3.66846e-08
3.4483e-08
4.88827e-06
5.18103e-06
1.16857e-08
5.18576e-06
3.33505e-08
5.19076e-06
4.55763e-08
5.19542e-06
5.12008e-08
5.20001e-06
5.43614e-08
5.20438e-06
5.56242e-08
5.20839e-06
5.52093e-08
5.21205e-06
5.38189e-08
5.21542e-06
5.19637e-08
5.21853e-06
4.98632e-08
5.22141e-06
4.76353e-08
5.2241e-06
4.53685e-08
5.22663e-06
4.3117e-08
5.22904e-06
4.09076e-08
5.23134e-06
3.87435e-08
5.23357e-06
3.66194e-08
5.23575e-06
3.45027e-08
3.23522e-08
5.23788e-06
5.55268e-06
1.03388e-08
5.55689e-06
2.91439e-08
5.5617e-06
4.07641e-08
5.56632e-06
4.65859e-08
5.57089e-06
4.97897e-08
5.5753e-06
5.12102e-08
5.57942e-06
5.10939e-08
5.58323e-06
5.00061e-08
5.58678e-06
4.84149e-08
5.5901e-06
4.65475e-08
5.5932e-06
4.45253e-08
5.59614e-06
4.2435e-08
5.59892e-06
4.03326e-08
5.60158e-06
3.82459e-08
5.60415e-06
3.61824e-08
5.60663e-06
3.4137e-08
5.60904e-06
3.20894e-08
3.00188e-08
5.61137e-06
5.95104e-06
9.07979e-09
5.95479e-06
2.53919e-08
5.95936e-06
3.61861e-08
5.96393e-06
4.20244e-08
5.96848e-06
4.52356e-08
5.97293e-06
4.67574e-08
5.97715e-06
4.68809e-08
5.98109e-06
4.60592e-08
5.9848e-06
4.4708e-08
5.98829e-06
4.30559e-08
5.99159e-06
4.12265e-08
5.99472e-06
3.93048e-08
5.9977e-06
3.73472e-08
6.00057e-06
3.53838e-08
6.00332e-06
3.3426e-08
6.00599e-06
3.14729e-08
6.00856e-06
2.95136e-08
2.75445e-08
6.01104e-06
6.37798e-06
7.91015e-09
6.38135e-06
2.20271e-08
6.38568e-06
3.18534e-08
6.39017e-06
3.75332e-08
6.3947e-06
4.0705e-08
6.39918e-06
4.22779e-08
6.40348e-06
4.25831e-08
6.40755e-06
4.19892e-08
6.4114e-06
4.08554e-08
6.41505e-06
3.94037e-08
6.41852e-06
3.77579e-08
6.42182e-06
3.60007e-08
6.42498e-06
3.41882e-08
6.42801e-06
3.23529e-08
6.43093e-06
3.05101e-08
6.43374e-06
2.86642e-08
6.43644e-06
2.68117e-08
2.49619e-08
6.43902e-06
5.74176e-06
6.98433e-09
5.74434e-06
1.94434e-08
5.74782e-06
2.83809e-08
5.75155e-06
3.38012e-08
5.75535e-06
3.68978e-08
5.75915e-06
3.84804e-08
5.76284e-06
3.88948e-08
5.76637e-06
3.84618e-08
5.76973e-06
3.74943e-08
5.77293e-06
3.62011e-08
5.77598e-06
3.47043e-08
5.7789e-06
3.30844e-08
5.78169e-06
3.13969e-08
5.78437e-06
2.96754e-08
5.78694e-06
2.79384e-08
5.78941e-06
2.61947e-08
5.79178e-06
2.44456e-08
2.27092e-08
5.79403e-06
6.99914e-06
6.00078e-09
7.00187e-06
1.67096e-08
7.00564e-06
2.46135e-08
7.00981e-06
2.96301e-08
7.01414e-06
3.25727e-08
7.01849e-06
3.41207e-08
7.02277e-06
3.46155e-08
7.0269e-06
3.43313e-08
7.03087e-06
3.35319e-08
7.03466e-06
3.24072e-08
7.03829e-06
3.10745e-08
7.04176e-06
2.96106e-08
7.04509e-06
2.80693e-08
7.04828e-06
2.64854e-08
7.05134e-06
2.48799e-08
7.05427e-06
2.3266e-08
7.05707e-06
2.1649e-08
2.00538e-08
7.05972e-06
8.53188e-06
4.96735e-09
8.53474e-06
1.38531e-08
8.53877e-06
2.0579e-08
8.54337e-06
2.50273e-08
8.54823e-06
2.77118e-08
8.55319e-06
2.91623e-08
8.55812e-06
2.96916e-08
8.56292e-06
2.95306e-08
8.56756e-06
2.88924e-08
8.57202e-06
2.79417e-08
8.57631e-06
2.67863e-08
8.58042e-06
2.5498e-08
8.58436e-06
2.41272e-08
8.58814e-06
2.27089e-08
8.59175e-06
2.12658e-08
8.59521e-06
1.98142e-08
8.59849e-06
1.83629e-08
1.69395e-08
8.60161e-06
1.04003e-05
3.8933e-09
1.04033e-05
1.08933e-08
1.04075e-05
1.62997e-08
1.04126e-05
2.00022e-08
1.0418e-05
2.22998e-08
1.04236e-05
2.35692e-08
1.04292e-05
2.40709e-08
1.04347e-05
2.39921e-08
1.04401e-05
2.34974e-08
1.04453e-05
2.27196e-08
1.04504e-05
2.17524e-08
1.04552e-05
2.06592e-08
1.04599e-05
1.94857e-08
1.04643e-05
1.82644e-08
1.04685e-05
1.70187e-08
1.04726e-05
1.57658e-08
1.04764e-05
1.45167e-08
1.32993e-08
1.04801e-05
1.26779e-05
2.78367e-09
1.2681e-05
7.82486e-09
1.26855e-05
1.17743e-08
1.26909e-05
1.455e-08
1.26969e-05
1.63101e-08
1.27032e-05
1.72939e-08
1.27096e-05
1.7691e-08
1.27159e-05
1.76407e-08
1.27222e-05
1.72606e-08
1.27282e-05
1.66484e-08
1.27341e-05
1.58769e-08
1.27398e-05
1.49982e-08
1.27452e-05
1.40496e-08
1.27504e-05
1.30595e-08
1.27554e-05
1.20487e-08
1.27601e-05
1.10341e-08
1.27646e-05
1.00255e-08
9.0499e-09
1.27689e-05
1.54543e-05
1.62783e-09
1.54576e-05
4.60223e-09
1.54624e-05
6.94624e-09
1.54683e-05
8.61175e-09
1.5475e-05
9.67066e-09
1.5482e-05
1.02481e-08
1.54892e-05
1.04535e-08
1.54965e-05
1.03707e-08
1.55037e-05
1.00704e-08
1.55107e-05
9.61241e-09
1.55176e-05
9.04371e-09
1.55242e-05
8.39926e-09
1.55305e-05
7.70536e-09
1.55366e-05
6.98252e-09
1.55424e-05
6.24667e-09
1.55479e-05
5.51096e-09
1.55532e-05
4.78344e-09
4.08678e-09
1.55581e-05
1.88389e-05
3.85954e-10
1.88424e-05
1.10129e-09
1.88477e-05
1.64236e-09
1.88543e-05
1.9976e-09
1.88618e-05
2.1849e-09
1.88698e-05
2.23205e-09
1.88781e-05
2.16091e-09
1.88865e-05
1.99125e-09
1.88948e-05
1.74332e-09
1.8903e-05
1.43566e-09
1.89109e-05
1.08377e-09
1.89186e-05
7.00634e-10
1.8926e-05
2.97334e-10
1.89331e-05
-1.16564e-10
1.89399e-05
-5.32945e-10
1.89464e-05
-9.44445e-10
1.89525e-05
-1.34686e-09
-1.72315e-09
1.89583e-05
2.29648e-05
-1.04292e-09
2.29688e-05
-2.96663e-09
2.2975e-05
-4.55626e-09
2.29828e-05
-5.76799e-09
2.29916e-05
-6.6243e-09
2.3001e-05
-7.21126e-09
2.30108e-05
-7.61643e-09
2.30207e-05
-7.89421e-09
2.30305e-05
-8.08142e-09
2.30402e-05
-8.20894e-09
2.30496e-05
-8.30062e-09
2.30586e-05
-8.37059e-09
2.30674e-05
-8.42687e-09
2.30757e-05
-8.47347e-09
2.30837e-05
-8.5126e-09
2.30913e-05
-8.54419e-09
2.30985e-05
-8.56913e-09
-8.57699e-09
2.31054e-05
1.68118e-05
-2.16437e-09
1.6815e-05
-6.13407e-09
1.68198e-05
-9.38109e-09
1.68258e-05
-1.17587e-08
1.68325e-05
-1.33275e-08
1.68396e-05
-1.43155e-08
1.68469e-05
-1.49101e-08
1.68542e-05
-1.52153e-08
1.68615e-05
-1.53098e-08
1.68685e-05
-1.52659e-08
1.68753e-05
-1.51357e-08
1.68819e-05
-1.49527e-08
1.68882e-05
-1.4737e-08
1.68943e-05
-1.45029e-08
1.69e-05
-1.42587e-08
1.69055e-05
-1.40094e-08
1.69107e-05
-1.3758e-08
-1.34988e-08
1.69156e-05
1.46356e-05
-3.24134e-09
1.46387e-05
-9.21741e-09
1.46434e-05
-1.4091e-08
1.46492e-05
-1.74962e-08
1.46555e-05
-1.96067e-08
1.4662e-05
-2.08719e-08
1.46687e-05
-2.15623e-08
1.46753e-05
-2.18138e-08
1.46817e-05
-2.17575e-08
1.4688e-05
-2.15098e-08
1.4694e-05
-2.11463e-08
1.46997e-05
-2.07116e-08
1.47052e-05
-2.0236e-08
1.47105e-05
-1.97405e-08
1.47154e-05
-1.92385e-08
1.47202e-05
-1.87374e-08
1.47246e-05
-1.82424e-08
-1.77495e-08
1.47289e-05
1.27411e-05
-4.24969e-09
1.27443e-05
-1.23414e-08
1.27491e-05
-1.89178e-08
1.27547e-05
-2.31372e-08
1.27607e-05
-2.55806e-08
1.27669e-05
-2.70223e-08
1.2773e-05
-2.77252e-08
1.2779e-05
-2.78387e-08
1.27849e-05
-2.75699e-08
1.27904e-05
-2.70841e-08
1.27958e-05
-2.6471e-08
1.28008e-05
-2.57818e-08
1.28056e-05
-2.50539e-08
1.28102e-05
-2.43127e-08
1.28145e-05
-2.35739e-08
1.28187e-05
-2.28455e-08
1.28225e-05
-2.21328e-08
-2.1433e-08
1.28262e-05
1.10918e-05
-5.09089e-09
1.1095e-05
-1.55601e-08
1.11001e-05
-2.40412e-08
1.11057e-05
-2.87578e-08
1.11115e-05
-3.13101e-08
1.11173e-05
-3.28285e-08
1.1123e-05
-3.34445e-08
1.11285e-05
-3.33404e-08
1.11337e-05
-3.28184e-08
1.11387e-05
-3.20759e-08
1.11435e-05
-3.12045e-08
1.11479e-05
-3.02611e-08
1.11522e-05
-2.92885e-08
1.11562e-05
-2.83156e-08
1.116e-05
-2.73574e-08
1.11635e-05
-2.64223e-08
1.11669e-05
-2.55141e-08
-2.4631e-08
1.11701e-05
9.65581e-06
-5.68972e-09
9.65924e-06
-1.89866e-08
9.66458e-06
-2.93851e-08
9.67008e-06
-3.42513e-08
9.67563e-06
-3.68623e-08
9.68118e-06
-3.83801e-08
9.6865e-06
-3.87684e-08
9.69152e-06
-3.83584e-08
9.69626e-06
-3.75526e-08
9.70072e-06
-3.6545e-08
9.70493e-06
-3.54148e-08
9.70889e-06
-3.42211e-08
9.71262e-06
-3.30118e-08
9.71612e-06
-3.18161e-08
9.71941e-06
-3.06493e-08
9.7225e-06
-2.95185e-08
9.72542e-06
-2.84259e-08
-2.7368e-08
9.72815e-06
8.4053e-06
-5.63555e-09
8.40963e-06
-2.33225e-08
8.41487e-06
-3.46201e-08
8.41989e-06
-3.92748e-08
8.42525e-06
-4.22217e-08
8.43065e-06
-4.37803e-08
8.43573e-06
-4.38453e-08
8.44042e-06
-4.30552e-08
8.44478e-06
-4.19119e-08
8.44883e-06
-4.05917e-08
8.45258e-06
-3.91644e-08
8.45605e-06
-3.76922e-08
8.45926e-06
-3.62247e-08
8.46224e-06
-3.47897e-08
8.46499e-06
-3.34022e-08
8.46754e-06
-3.20686e-08
8.4699e-06
-3.07909e-08
-2.95655e-08
8.4721e-06
7.3145e-06
-2.85205e-09
7.32119e-06
-3.00109e-08
7.32674e-06
-4.01715e-08
7.33168e-06
-4.42194e-08
7.33708e-06
-4.76133e-08
7.34239e-06
-4.90943e-08
7.34726e-06
-4.87153e-08
7.35166e-06
-4.74598e-08
7.35563e-06
-4.58814e-08
7.35918e-06
-4.41383e-08
7.36233e-06
-4.23116e-08
7.36511e-06
-4.0474e-08
7.36756e-06
-3.86777e-08
7.36972e-06
-3.69472e-08
7.37161e-06
-3.52974e-08
7.37328e-06
-3.37316e-08
7.37473e-06
-3.22498e-08
-3.08427e-08
7.37601e-06
6.36243e-06
4.78077e-09
6.37189e-06
-3.9473e-08
6.37932e-06
-4.75946e-08
6.38595e-06
-5.08532e-08
6.39223e-06
-5.38902e-08
6.39754e-06
-5.44017e-08
6.40182e-06
-5.30033e-08
6.4053e-06
-5.09334e-08
6.40809e-06
-4.86742e-08
6.41027e-06
-4.63153e-08
6.41189e-06
-4.39363e-08
6.41303e-06
-4.16132e-08
6.41375e-06
-3.93969e-08
6.41411e-06
-3.73059e-08
6.41416e-06
-3.53527e-08
6.41397e-06
-3.35354e-08
6.41357e-06
-3.18541e-08
-3.02881e-08
6.41302e-06
5.54129e-06
8.95218e-09
5.55032e-06
-4.85019e-08
5.55833e-06
-5.56064e-08
5.56604e-06
-5.85572e-08
5.57249e-06
-6.03476e-08
5.57681e-06
-5.87229e-08
5.57905e-06
-5.52395e-08
5.5796e-06
-5.14873e-08
5.57885e-06
-4.79151e-08
5.57705e-06
-4.45238e-08
5.57445e-06
-4.13362e-08
5.57123e-06
-3.83932e-08
5.56754e-06
-3.57027e-08
5.56349e-06
-3.32587e-08
5.55919e-06
-3.1053e-08
5.55473e-06
-2.90745e-08
5.5502e-06
-2.73236e-08
-2.57469e-08
5.54566e-06
4.86019e-06
-2.36309e-08
4.86538e-06
-5.36929e-08
4.86523e-06
-5.54566e-08
4.86217e-06
-5.54926e-08
4.85699e-06
-5.51731e-08
4.84948e-06
-5.12173e-08
4.83979e-06
-4.5543e-08
4.82839e-06
-4.00899e-08
4.81581e-06
-3.53327e-08
4.80252e-06
-3.12399e-08
4.78892e-06
-2.77321e-08
4.77528e-06
-2.47495e-08
4.76178e-06
-2.2212e-08
4.74858e-06
-2.00542e-08
4.73575e-06
-1.82201e-08
4.72336e-06
-1.66861e-08
4.71152e-06
-1.54887e-08
-1.51389e-08
4.70092e-06
4.17905e-06
4.12535e-06
4.0699e-06
4.0144e-06
3.95923e-06
3.90801e-06
3.86247e-06
3.82238e-06
3.78705e-06
3.75581e-06
3.72807e-06
3.70333e-06
3.68111e-06
3.66106e-06
3.64284e-06
3.62615e-06
3.61066e-06
3.59553e-06
1.11155e-08
-1.11353e-08
2.44003e-08
-1.33155e-08
3.39559e-08
-9.58116e-09
3.83097e-08
-4.37903e-09
3.7379e-08
9.09107e-10
3.17908e-08
5.56323e-09
2.25145e-08
9.25783e-09
1.04706e-08
1.20189e-08
-3.58962e-09
1.40445e-08
-1.92153e-08
1.56029e-08
-3.61077e-08
1.68812e-08
-5.41093e-08
1.79822e-08
-7.31086e-08
1.89917e-08
-9.30748e-08
1.99502e-08
-1.13954e-07
2.08746e-08
-1.35734e-07
2.17672e-08
-1.58361e-07
2.26257e-08
-1.81818e-07
2.34446e-08
-2.06038e-07
2.42197e-08
-2.31002e-07
2.49484e-08
-2.56636e-07
2.56335e-08
-2.82937e-07
2.62814e-08
-3.0985e-07
2.69085e-08
-3.37408e-07
2.75325e-08
-3.65595e-07
2.8182e-08
-3.94529e-07
2.8906e-08
-4.24265e-07
2.97336e-08
-4.54907e-07
3.06163e-08
-4.86476e-07
3.15671e-08
-5.19193e-07
3.26964e-08
-5.53292e-07
3.41026e-08
-5.89073e-07
3.57693e-08
-6.24894e-07
3.58268e-08
-6.58671e-07
3.37727e-08
-6.92721e-07
3.40584e-08
-7.29642e-07
3.69197e-08
-7.69256e-07
3.96222e-08
-8.15675e-07
4.64161e-08
-8.54061e-07
3.83905e-08
-8.91968e-07
3.79016e-08
-9.39852e-07
4.78858e-08
-9.91884e-07
5.20247e-08
-1.03727e-06
4.53875e-08
-1.07199e-06
3.47152e-08
-1.11117e-06
3.91792e-08
-1.15287e-06
4.16879e-08
-1.19583e-06
4.29611e-08
-1.23935e-06
4.35135e-08
-1.28305e-06
4.37083e-08
-1.32677e-06
4.37147e-08
-1.37039e-06
4.36195e-08
-1.41386e-06
4.34589e-08
-1.45712e-06
4.32574e-08
-1.50015e-06
4.3025e-08
-1.54292e-06
4.27699e-08
-1.58542e-06
4.24935e-08
-1.62762e-06
4.21989e-08
-1.66952e-06
4.18845e-08
-1.71107e-06
4.1551e-08
-1.75227e-06
4.11953e-08
-1.79309e-06
4.08176e-08
-1.83352e-06
4.04143e-08
-1.8735e-06
3.99853e-08
-1.91304e-06
3.95267e-08
-1.95207e-06
3.90384e-08
-1.9906e-06
3.85166e-08
-2.02856e-06
3.79617e-08
-2.06594e-06
3.737e-08
-2.10268e-06
3.67423e-08
-2.13876e-06
3.60752e-08
-2.17413e-06
3.53697e-08
-2.20876e-06
3.46228e-08
-2.2426e-06
3.38358e-08
-2.27561e-06
3.30058e-08
-2.30774e-06
3.21346e-08
-2.33897e-06
3.12197e-08
-2.36924e-06
3.02633e-08
-2.39851e-06
2.92635e-08
-2.42674e-06
2.82225e-08
-2.45388e-06
2.7138e-08
-2.4799e-06
2.60128e-08
-2.50475e-06
2.4845e-08
-2.52839e-06
2.36375e-08
-2.55078e-06
2.23876e-08
-2.57188e-06
2.10985e-08
-2.59165e-06
1.97678e-08
-2.61005e-06
1.83984e-08
-2.62704e-06
1.69872e-08
-2.64256e-06
1.55344e-08
-2.65658e-06
1.40368e-08
-2.66906e-06
1.24888e-08
-2.67994e-06
1.08854e-08
-2.68915e-06
9.22091e-09
-2.69664e-06
7.48666e-09
-2.70231e-06
5.66741e-09
-2.70605e-06
3.74657e-09
-2.70779e-06
1.73666e-09
-2.70752e-06
-2.65116e-10
-2.70545e-06
-2.0775e-09
-2.70173e-06
-3.71719e-09
-2.69642e-06
-5.32186e-09
-2.68951e-06
-6.91898e-09
-2.681e-06
-8.52012e-09
-2.67089e-06
-1.01282e-08
-2.65916e-06
-1.17407e-08
-2.64582e-06
-1.33581e-08
-2.63086e-06
-1.49762e-08
-2.61428e-06
-1.65957e-08
-2.59608e-06
-1.82124e-08
-2.57626e-06
-1.98271e-08
-2.55483e-06
-2.14355e-08
-2.5318e-06
-2.30385e-08
-2.50717e-06
-2.46316e-08
-2.48095e-06
-2.62156e-08
-2.45317e-06
-2.77859e-08
-2.42382e-06
-2.93432e-08
-2.39293e-06
-3.08829e-08
-2.36052e-06
-3.24053e-08
-2.32661e-06
-3.39059e-08
-2.29121e-06
-3.5385e-08
-2.25436e-06
-3.68389e-08
-2.21609e-06
-3.82668e-08
-2.17642e-06
-3.96647e-08
-2.13539e-06
-4.10315e-08
-2.09302e-06
-4.23634e-08
-2.04934e-06
-4.36604e-08
-2.00441e-06
-4.49203e-08
-1.95825e-06
-4.61407e-08
-1.91091e-06
-4.73217e-08
-1.86243e-06
-4.84646e-08
-1.81284e-06
-4.95643e-08
-1.76221e-06
-5.06121e-08
-1.71058e-06
-5.16079e-08
-1.658e-06
-5.25585e-08
-1.60452e-06
-5.34619e-08
-1.55019e-06
-5.43105e-08
-1.49507e-06
-5.51056e-08
-1.43922e-06
-5.58454e-08
-1.38269e-06
-5.6532e-08
-1.32555e-06
-5.7162e-08
-1.26783e-06
-5.77355e-08
-1.20961e-06
-5.82501e-08
-1.15093e-06
-5.87063e-08
-1.09185e-06
-5.91042e-08
-1.03244e-06
-5.94454e-08
-9.7274e-07
-5.97304e-08
-9.12813e-07
-5.99608e-08
-8.52713e-07
-6.01372e-08
-7.92488e-07
-6.02614e-08
-7.32193e-07
-6.03345e-08
-6.71873e-07
-6.03585e-08
-6.1158e-07
-6.03348e-08
-5.51356e-07
-6.02657e-08
-4.91247e-07
-6.01527e-08
-4.31292e-07
-5.99981e-08
-3.71532e-07
-5.98035e-08
-3.12006e-07
-5.95695e-08
-2.52752e-07
-5.92981e-08
-1.93806e-07
-5.89875e-08
-1.35206e-07
-5.86424e-08
-7.69763e-08
-5.82692e-08
-1.92037e-08
-5.78114e-08
3.81131e-08
-5.7352e-08
9.49748e-08
-5.68948e-08
1.51287e-07
-5.6341e-08
2.07025e-07
-5.57637e-08
2.6221e-07
-5.52069e-08
3.16859e-07
-5.46684e-08
3.70982e-07
-5.41378e-08
4.24576e-07
-5.36076e-08
4.77629e-07
-5.30608e-08
5.30099e-07
-5.24774e-08
5.81911e-07
-5.18143e-08
6.32912e-07
-5.10015e-08
6.82812e-07
-4.98944e-08
7.31018e-07
-4.81984e-08
7.76256e-07
-4.52243e-08
8.15396e-07
-3.91265e-08
8.40548e-07
-2.51372e-08
1.91645e-08
8.2139e-07
9.01895e-09
-2.01714e-08
1.20877e-08
-1.64057e-08
1.04563e-08
-7.96428e-09
5.6163e-09
4.47913e-10
-1.76136e-09
8.27579e-09
-1.14764e-08
1.52666e-08
-2.3488e-08
2.12597e-08
-3.77086e-08
2.62284e-08
-5.39536e-08
3.02812e-08
-7.19697e-08
3.36084e-08
-9.15084e-08
3.64128e-08
-1.12401e-07
3.88655e-08
-1.34508e-07
4.10927e-08
-1.57743e-07
4.31766e-08
-1.82038e-07
4.51656e-08
-2.07364e-07
4.7086e-08
-2.33692e-07
4.89513e-08
-2.61022e-07
5.07689e-08
-2.8935e-07
5.25454e-08
-3.18698e-07
5.42887e-08
-3.49078e-07
5.6011e-08
-3.80536e-07
5.77293e-08
-4.13098e-07
5.94667e-08
-4.46828e-07
6.12494e-08
-4.81758e-07
6.31067e-08
-5.17936e-07
6.50699e-08
-5.55378e-07
6.71704e-08
-5.94197e-07
6.94223e-08
-6.34437e-07
7.18038e-08
-6.75978e-07
7.42272e-08
-7.18386e-07
7.65094e-08
-7.60993e-07
7.83702e-08
-8.04426e-07
7.92611e-08
-8.50127e-07
7.94727e-08
-8.96635e-07
8.05698e-08
-9.42091e-07
8.23752e-08
-9.86527e-07
8.40614e-08
-1.02581e-06
8.56978e-08
-1.07245e-06
8.50349e-08
-1.12008e-06
8.55271e-08
-1.16138e-06
8.91786e-08
-1.19984e-06
9.04897e-08
-1.24239e-06
8.79309e-08
-1.29184e-06
8.41634e-08
-1.33619e-06
8.35275e-08
-1.37802e-06
8.35205e-08
-1.41858e-06
8.35129e-08
-1.45843e-06
8.33603e-08
-1.49778e-06
8.30624e-08
-1.53672e-06
8.26569e-08
-1.57528e-06
8.21768e-08
-1.61347e-06
8.1642e-08
-1.65128e-06
8.10657e-08
-1.68871e-06
8.04546e-08
-1.72576e-06
7.98122e-08
-1.7624e-06
7.91388e-08
-1.79864e-06
7.84336e-08
-1.83445e-06
7.76944e-08
-1.86982e-06
7.69184e-08
-1.90474e-06
7.61021e-08
-1.93916e-06
7.52423e-08
-1.97309e-06
7.43352e-08
-2.00648e-06
7.33774e-08
-2.03933e-06
7.23652e-08
-2.07158e-06
7.12956e-08
-2.10324e-06
7.01651e-08
-2.13425e-06
6.89713e-08
-2.16459e-06
6.77114e-08
-2.19424e-06
6.63835e-08
-2.22315e-06
6.49851e-08
-2.2513e-06
6.35151e-08
-2.27865e-06
6.19716e-08
-2.30517e-06
6.03539e-08
-2.33083e-06
5.86605e-08
-2.35558e-06
5.68915e-08
-2.37941e-06
5.50459e-08
-2.40228e-06
5.31246e-08
-2.42415e-06
5.11271e-08
-2.44498e-06
4.90544e-08
-2.46475e-06
4.69061e-08
-2.48343e-06
4.46838e-08
-2.50097e-06
4.23876e-08
-2.51735e-06
4.00189e-08
-2.53255e-06
3.75778e-08
-2.54652e-06
3.50662e-08
-2.55924e-06
3.24844e-08
-2.57067e-06
2.98342e-08
-2.5808e-06
2.71156e-08
-2.58959e-06
2.43297e-08
-2.59702e-06
2.14756e-08
-2.60307e-06
1.85529e-08
-2.60775e-06
1.55628e-08
-2.61103e-06
1.2507e-08
-2.61293e-06
9.38966e-09
-2.61349e-06
6.21812e-09
-2.61276e-06
3.01601e-09
-2.61085e-06
-1.73448e-10
-2.6078e-06
-3.31252e-09
-2.60345e-06
-6.42522e-09
-2.59763e-06
-9.54967e-09
-2.59026e-06
-1.269e-08
-2.58134e-06
-1.58455e-08
-2.57086e-06
-1.90177e-08
-2.55879e-06
-2.22046e-08
-2.54514e-06
-2.5403e-08
-2.5299e-06
-2.86095e-08
-2.51307e-06
-3.182e-08
-2.49464e-06
-3.50314e-08
-2.47462e-06
-3.82396e-08
-2.45301e-06
-4.14418e-08
-2.42982e-06
-4.46338e-08
-2.40505e-06
-4.78126e-08
-2.37871e-06
-5.09741e-08
-2.35081e-06
-5.4115e-08
-2.32136e-06
-5.72309e-08
-2.29039e-06
-6.03187e-08
-2.25789e-06
-6.33736e-08
-2.2239e-06
-6.63918e-08
-2.18843e-06
-6.93689e-08
-2.15151e-06
-7.23016e-08
-2.11316e-06
-7.51852e-08
-2.07341e-06
-7.80159e-08
-2.03228e-06
-8.0788e-08
-1.98981e-06
-8.34972e-08
-1.94603e-06
-8.61381e-08
-1.90098e-06
-8.87081e-08
-1.85469e-06
-9.12033e-08
-1.8072e-06
-9.36217e-08
-1.75854e-06
-9.59612e-08
-1.70878e-06
-9.82208e-08
-1.65793e-06
-1.00394e-07
-1.60607e-06
-1.02467e-07
-1.55322e-06
-1.04437e-07
-1.49946e-06
-1.06314e-07
-1.44481e-06
-1.08094e-07
-1.38935e-06
-1.09766e-07
-1.33312e-06
-1.11329e-07
-1.27618e-06
-1.12783e-07
-1.21859e-06
-1.14126e-07
-1.16041e-06
-1.15358e-07
-1.10168e-06
-1.16475e-07
-1.04247e-06
-1.17476e-07
-9.82828e-07
-1.1836e-07
-9.2282e-07
-1.19129e-07
-8.62498e-07
-1.19784e-07
-8.01919e-07
-1.20328e-07
-7.41138e-07
-1.20761e-07
-6.80208e-07
-1.21088e-07
-6.19181e-07
-1.21308e-07
-5.5811e-07
-1.21428e-07
-4.97041e-07
-1.21448e-07
-4.36025e-07
-1.21374e-07
-3.75104e-07
-1.21208e-07
-3.14325e-07
-1.20955e-07
-2.53728e-07
-1.20618e-07
-1.93352e-07
-1.20202e-07
-1.33237e-07
-1.19708e-07
-7.34168e-08
-1.19141e-07
-1.39228e-08
-1.18503e-07
4.52187e-08
-1.17805e-07
1.03978e-07
-1.17048e-07
1.62361e-07
-1.16213e-07
2.20305e-07
-1.15313e-07
2.77724e-07
-1.1433e-07
3.34642e-07
-1.13274e-07
3.91076e-07
-1.1221e-07
4.47026e-07
-1.11168e-07
5.02498e-07
-1.10149e-07
5.57495e-07
-1.09143e-07
6.12012e-07
-1.0813e-07
6.66034e-07
-1.07086e-07
7.19518e-07
-1.05963e-07
7.72387e-07
-1.04683e-07
8.24492e-07
-1.03103e-07
8.75551e-07
-1.00949e-07
9.25055e-07
-9.76942e-08
9.71974e-07
-9.21332e-08
1.01469e-06
-8.18324e-08
1.04993e-06
-6.03664e-08
-9.02183e-09
1.07813e-06
2.97498e-10
-2.04812e-08
-5.60419e-09
-1.05183e-08
-1.41841e-08
6.06814e-10
-2.44609e-08
1.07172e-08
-3.60965e-08
1.99052e-08
-4.90377e-08
2.8201e-08
-6.33608e-08
3.55774e-08
-7.91688e-08
4.20297e-08
-9.65106e-08
4.76179e-08
-1.15371e-07
5.24625e-08
-1.35678e-07
5.67146e-08
-1.57342e-07
6.0524e-08
-1.80272e-07
6.40182e-08
-2.04396e-07
6.72947e-08
-2.29655e-07
7.04221e-08
-2.56021e-07
7.34467e-08
-2.83471e-07
7.6399e-08
-3.12006e-07
7.92999e-08
-3.41627e-07
8.21657e-08
-3.72354e-07
8.50108e-08
-4.04195e-07
8.78503e-08
-4.37171e-07
9.06998e-08
-4.71282e-07
9.35756e-08
-5.06533e-07
9.64927e-08
-5.42891e-07
9.94621e-08
-5.80316e-07
1.02487e-07
-6.18701e-07
1.05553e-07
-6.57906e-07
1.0862e-07
-6.9771e-07
1.11605e-07
-7.37878e-07
1.1439e-07
-7.78181e-07
1.16811e-07
-8.18505e-07
1.1869e-07
-8.59151e-07
1.19907e-07
-9.00337e-07
1.20657e-07
-9.41264e-07
1.21498e-07
-9.8134e-07
1.22451e-07
-1.02046e-06
1.23187e-07
-1.05854e-06
1.23776e-07
-1.09751e-06
1.24006e-07
-1.13631e-06
1.24323e-07
-1.17217e-06
1.25033e-07
-1.20667e-06
1.24986e-07
-1.24248e-06
1.23742e-07
-1.28029e-06
1.21973e-07
-1.3175e-06
1.20736e-07
-1.35384e-06
1.19862e-07
-1.38948e-06
1.19147e-07
-1.42458e-06
1.18465e-07
-1.45928e-06
1.17762e-07
-1.49365e-06
1.17024e-07
-1.52772e-06
1.16246e-07
-1.56151e-06
1.15431e-07
-1.59503e-06
1.14578e-07
-1.62826e-06
1.13688e-07
-1.66121e-06
1.12759e-07
-1.69386e-06
1.11788e-07
-1.7262e-06
1.10771e-07
-1.75821e-06
1.09704e-07
-1.78988e-06
1.08582e-07
-1.82118e-06
1.074e-07
-1.85209e-06
1.06152e-07
-1.88259e-06
1.04834e-07
-1.91266e-06
1.0344e-07
-1.94226e-06
1.01966e-07
-1.97137e-06
1.00407e-07
-1.99997e-06
9.87593e-08
-2.02802e-06
9.70185e-08
-2.05549e-06
9.51813e-08
-2.08236e-06
9.32447e-08
-2.10858e-06
9.1206e-08
-2.13413e-06
8.90629e-08
-2.15897e-06
8.68133e-08
-2.18307e-06
8.44559e-08
-2.2064e-06
8.19893e-08
-2.22893e-06
7.94129e-08
-2.25061e-06
7.67262e-08
-2.27142e-06
7.39294e-08
-2.29131e-06
7.10227e-08
-2.31027e-06
6.80067e-08
-2.32825e-06
6.4882e-08
-2.34521e-06
6.165e-08
-2.36114e-06
5.83119e-08
-2.37599e-06
5.48692e-08
-2.38974e-06
5.13236e-08
-2.40235e-06
4.76772e-08
-2.4138e-06
4.3932e-08
-2.42406e-06
4.00907e-08
-2.4331e-06
3.61558e-08
-2.44089e-06
3.21299e-08
-2.44743e-06
2.80161e-08
-2.45269e-06
2.38174e-08
-2.45666e-06
1.95389e-08
-2.45934e-06
1.51882e-08
-2.46073e-06
1.07743e-08
-2.46082e-06
6.31061e-09
-2.45962e-06
1.81632e-09
-2.45711e-06
-2.6874e-09
-2.45323e-06
-7.19752e-09
-2.44792e-06
-1.17376e-08
-2.44115e-06
-1.63238e-08
-2.43289e-06
-2.09504e-08
-2.42313e-06
-2.56114e-08
-2.41186e-06
-3.03021e-08
-2.39905e-06
-3.50167e-08
-2.38472e-06
-3.975e-08
-2.36884e-06
-4.44956e-08
-2.35142e-06
-4.92485e-08
-2.33245e-06
-5.40027e-08
-2.31195e-06
-5.87535e-08
-2.2899e-06
-6.34948e-08
-2.26631e-06
-6.82222e-08
-2.2412e-06
-7.29295e-08
-2.21456e-06
-7.7612e-08
-2.18641e-06
-8.22634e-08
-2.15676e-06
-8.68786e-08
-2.12563e-06
-9.14514e-08
-2.09303e-06
-9.59762e-08
-2.05897e-06
-1.00446e-07
-2.02348e-06
-1.04856e-07
-1.98657e-06
-1.092e-07
-1.94829e-06
-1.13471e-07
-1.90864e-06
-1.17664e-07
-1.86765e-06
-1.2177e-07
-1.82537e-06
-1.25782e-07
-1.78181e-06
-1.29694e-07
-1.73701e-06
-1.33499e-07
-1.69102e-06
-1.37194e-07
-1.64386e-06
-1.40773e-07
-1.59558e-06
-1.44235e-07
-1.54621e-06
-1.47576e-07
-1.49581e-06
-1.50787e-07
-1.44442e-06
-1.53854e-07
-1.39207e-06
-1.5677e-07
-1.33884e-06
-1.59542e-07
-1.28476e-06
-1.62166e-07
-1.22989e-06
-1.64632e-07
-1.17428e-06
-1.66935e-07
-1.11799e-06
-1.69073e-07
-1.06107e-06
-1.71047e-07
-1.00358e-06
-1.72852e-07
-9.45576e-07
-1.74487e-07
-8.87109e-07
-1.75949e-07
-8.28238e-07
-1.77238e-07
-7.69018e-07
-1.78356e-07
-7.09505e-07
-1.79305e-07
-6.49753e-07
-1.80086e-07
-5.89817e-07
-1.80704e-07
-5.29749e-07
-1.81162e-07
-4.696e-07
-1.81464e-07
-4.0942e-07
-1.81614e-07
-3.49258e-07
-1.81618e-07
-2.89159e-07
-1.8148e-07
-2.29168e-07
-1.81206e-07
-1.69328e-07
-1.80802e-07
-1.09678e-07
-1.80274e-07
-5.0256e-08
-1.7963e-07
8.90592e-09
-1.78876e-07
6.77729e-08
-1.78013e-07
1.26312e-07
-1.77048e-07
1.84493e-07
-1.75991e-07
2.4229e-07
-1.74849e-07
2.99699e-07
-1.73626e-07
3.56704e-07
-1.72322e-07
4.13291e-07
-1.70919e-07
4.69455e-07
-1.69441e-07
5.25189e-07
-1.67946e-07
5.80484e-07
-1.66466e-07
6.35338e-07
-1.65005e-07
6.89749e-07
-1.63555e-07
7.43709e-07
-1.62092e-07
7.97203e-07
-1.60581e-07
8.50191e-07
-1.58952e-07
9.026e-07
-1.57093e-07
9.54294e-07
-1.54798e-07
1.00504e-06
-1.51693e-07
1.05443e-06
-1.47081e-07
1.10182e-06
-1.39526e-07
1.14636e-06
-1.26367e-07
1.18762e-06
-1.01625e-07
-5.16039e-08
1.2302e-06
-7.71419e-09
-1.27769e-08
-1.95994e-08
1.35666e-09
-3.28197e-08
1.38212e-08
-4.68486e-08
2.47407e-08
-6.1591e-08
3.46435e-08
-7.70953e-08
4.37005e-08
-9.34749e-08
5.19533e-08
-1.10867e-07
5.94168e-08
-1.29382e-07
6.61296e-08
-1.49092e-07
7.21676e-08
-1.70015e-07
7.76345e-08
-1.9214e-07
8.26441e-08
-2.15429e-07
8.73043e-08
-2.39846e-07
9.17069e-08
-2.6535e-07
9.59236e-08
-2.91915e-07
1.00008e-07
-3.19514e-07
1.03996e-07
-3.48134e-07
1.07916e-07
-3.77753e-07
1.11784e-07
-4.08358e-07
1.15613e-07
-4.39917e-07
1.19409e-07
-4.72396e-07
1.23176e-07
-5.05734e-07
1.26913e-07
-5.39857e-07
1.30612e-07
-5.74652e-07
1.34257e-07
-6.0999e-07
1.37821e-07
-6.45699e-07
1.41262e-07
-6.81603e-07
1.44519e-07
-7.17511e-07
1.47513e-07
-7.53279e-07
1.50153e-07
-7.88815e-07
1.52347e-07
-8.2415e-07
1.54022e-07
-8.5941e-07
1.55166e-07
-8.94655e-07
1.55901e-07
-9.29609e-07
1.56452e-07
-9.64054e-07
1.56895e-07
-9.98047e-07
1.57179e-07
-1.03162e-06
1.57347e-07
-1.06499e-06
1.57377e-07
-1.09795e-06
1.57274e-07
-1.12994e-06
1.57025e-07
-1.16138e-06
1.56423e-07
-1.19304e-06
1.55403e-07
-1.22523e-06
1.54158e-07
-1.25746e-06
1.52967e-07
-1.28949e-06
1.51889e-07
-1.32124e-06
1.50896e-07
-1.35272e-06
1.49943e-07
-1.38395e-06
1.48998e-07
-1.41497e-06
1.4804e-07
-1.44578e-06
1.47058e-07
-1.4764e-06
1.46044e-07
-1.50681e-06
1.44992e-07
-1.53702e-06
1.43896e-07
-1.56701e-06
1.42751e-07
-1.59677e-06
1.4155e-07
-1.62629e-06
1.40288e-07
-1.65555e-06
1.38959e-07
-1.68452e-06
1.37554e-07
-1.71319e-06
1.36068e-07
-1.74154e-06
1.34494e-07
-1.76953e-06
1.32824e-07
-1.79715e-06
1.31054e-07
-1.82436e-06
1.29177e-07
-1.85114e-06
1.27187e-07
-1.87746e-06
1.25079e-07
-1.9033e-06
1.22848e-07
-1.92861e-06
1.2049e-07
-1.95336e-06
1.18001e-07
-1.97754e-06
1.15377e-07
-2.00109e-06
1.12617e-07
-2.024e-06
1.09716e-07
-2.04622e-06
1.06674e-07
-2.06772e-06
1.03489e-07
-2.08846e-06
1.0016e-07
-2.10843e-06
9.66871e-08
-2.12757e-06
9.30696e-08
-2.14585e-06
8.93082e-08
-2.16325e-06
8.54038e-08
-2.17973e-06
8.13575e-08
-2.19525e-06
7.71711e-08
-2.20979e-06
7.28464e-08
-2.22331e-06
6.83857e-08
-2.23577e-06
6.37917e-08
-2.24717e-06
5.90672e-08
-2.25745e-06
5.42159e-08
-2.2666e-06
4.92414e-08
-2.27459e-06
4.4148e-08
-2.2814e-06
3.89405e-08
-2.28701e-06
3.36233e-08
-2.29139e-06
2.82027e-08
-2.29453e-06
2.26855e-08
-2.29643e-06
1.70807e-08
-2.29705e-06
1.13984e-08
-2.29639e-06
5.65062e-09
-2.29443e-06
-1.49903e-10
-2.29113e-06
-5.99395e-09
-2.28644e-06
-1.18837e-08
-2.28035e-06
-1.78308e-08
-2.27284e-06
-2.38402e-08
-2.26389e-06
-2.9906e-08
-2.25349e-06
-3.60203e-08
-2.24162e-06
-4.21757e-08
-2.22828e-06
-4.83639e-08
-2.21346e-06
-5.45775e-08
-2.19716e-06
-6.08082e-08
-2.17937e-06
-6.70492e-08
-2.16008e-06
-7.32925e-08
-2.13931e-06
-7.95319e-08
-2.11705e-06
-8.57594e-08
-2.0933e-06
-9.19688e-08
-2.06808e-06
-9.8152e-08
-2.04139e-06
-1.04303e-07
-2.01324e-06
-1.10413e-07
-1.98364e-06
-1.16476e-07