/*--------------------------------*- C++ -*----------------------------------*\
  =========                 |
  \\      /  F ield         | OpenFOAM: The Open Source CFD Toolbox
   \\    /   O peration     | Website:  https://openfoam.org
    \\  /    A nd           | Version:  8
     \\/     M anipulation  |
\*---------------------------------------------------------------------------*/
FoamFile
{
    version     2.0;
    format      ascii;
    class       volVectorField;
    location    "275";
    object      U;
}
// * * * * * * * * * * * * * * * * * * * * * * * * * * * * * * * * * * * * * //

dimensions      [0 1 -1 0 0 0 0];

internalField   nonuniform List<vector> 
12225
(
(9.85699 -0.886639 0)
(9.6663 -0.740718 0)
(9.45579 -0.429421 0)
(9.22455 -0.222147 0)
(9.00655 -0.1064 0)
(8.81445 -0.0458197 0)
(8.64761 -0.0151302 0)
(8.50545 0.000484286 0)
(8.38385 0.0084105 0)
(8.28114 0.0122961 0)
(8.19283 0.0139939 0)
(8.11675 0.0149947 0)
(8.05016 0.0153577 0)
(7.99135 0.0155083 0)
(7.93844 0.0156379 0)
(7.89259 0.0152799 0)
(7.83964 0.0180964 0)
(7.83079 0.0102996 0)
(10.0545 0.227708 0)
(10.1213 0.326964 0)
(10.1196 0.261651 0)
(10.0856 0.18659 0)
(10.0435 0.134694 0)
(9.99676 0.101129 0)
(9.94405 0.0792886 0)
(9.88534 0.0645629 0)
(9.82401 0.0542488 0)
(9.76154 0.0466526 0)
(9.70012 0.040876 0)
(9.64037 0.0363093 0)
(9.58315 0.0326328 0)
(9.52888 0.0297327 0)
(9.47721 0.0271736 0)
(9.42974 0.0261177 0)
(9.38257 0.0226648 0)
(9.34739 0.0311908 0)
(10.0035 0.0581549 0)
(10.0305 0.0559493 0)
(10.056 0.0337735 0)
(10.0704 0.0328849 0)
(10.077 0.040632 0)
(10.0779 0.0465275 0)
(10.0726 0.0493391 0)
(10.0615 0.05028 0)
(10.0463 0.0501713 0)
(10.0279 0.0494495 0)
(10.0074 0.0483939 0)
(9.98526 0.0472125 0)
(9.96221 0.0460006 0)
(9.93868 0.0448879 0)
(9.91492 0.0437713 0)
(9.89168 0.0432086 0)
(9.86861 0.0421379 0)
(9.84691 0.0435616 0)
(9.99772 0.0109486 0)
(10.0111 0.0266186 0)
(10.035 0.0371204 0)
(10.0525 0.0480629 0)
(10.0644 0.0554307 0)
(10.0735 0.0581613 0)
(10.0796 0.0583273 0)
(10.0825 0.0575801 0)
(10.0829 0.0565234 0)
(10.0814 0.0553174 0)
(10.0784 0.0540305 0)
(10.0741 0.0527803 0)
(10.0687 0.0515584 0)
(10.0627 0.050461 0)
(10.0561 0.0493862 0)
(10.0493 0.0486755 0)
(10.0423 0.0477407 0)
(10.0354 0.0475821 0)
(9.99935 0.00709989 0)
(10.009 0.0316936 0)
(10.0275 0.043905 0)
(10.0418 0.0499045 0)
(10.0528 0.0535914 0)
(10.0629 0.0552118 0)
(10.0716 0.055486 0)
(10.0784 0.0551889 0)
(10.0836 0.0546357 0)
(10.0874 0.0539188 0)
(10.0903 0.0530918 0)
(10.0922 0.0522481 0)
(10.0935 0.0514 0)
(10.0942 0.0506153 0)
(10.0944 0.0498438 0)
(10.0944 0.0492498 0)
(10.0944 0.0485448 0)
(10.0943 0.048009 0)
(10.0003 0.00914878 0)
(10.0083 0.0312092 0)
(10.0227 0.0409411 0)
(10.035 0.0453805 0)
(10.0451 0.049019 0)
(10.0548 0.0513468 0)
(10.0638 0.0523195 0)
(10.0715 0.0525427 0)
(10.078 0.052396 0)
(10.0836 0.0520165 0)
(10.0885 0.0514789 0)
(10.0927 0.0508692 0)
(10.0964 0.0502196 0)
(10.0997 0.0495778 0)
(10.1026 0.0489242 0)
(10.1053 0.0483248 0)
(10.108 0.0476403 0)
(10.1106 0.0468686 0)
(10.0004 0.00892299 0)
(10.0071 0.027109 0)
(10.0191 0.0364109 0)
(10.0302 0.0413799 0)
(10.0396 0.0453938 0)
(10.0487 0.0480496 0)
(10.0573 0.0493077 0)
(10.065 0.0497644 0)
(10.0718 0.0498212 0)
(10.0779 0.0496235 0)
(10.0835 0.0492477 0)
(10.0886 0.048769 0)
(10.0932 0.0482279 0)
(10.0976 0.0476573 0)
(10.1016 0.047051 0)
(10.1055 0.0464259 0)
(10.1093 0.045703 0)
(10.113 0.0448092 0)
(10.0004 0.00789986 0)
(10.006 0.023385 0)
(10.0161 0.0327309 0)
(10.0263 0.038089 0)
(10.0352 0.0420729 0)
(10.0436 0.0447447 0)
(10.0518 0.0461423 0)
(10.0593 0.04676 0)
(10.066 0.0469621 0)
(10.0723 0.0468928 0)
(10.078 0.0466293 0)
(10.0834 0.0462396 0)
(10.0884 0.045767 0)
(10.0932 0.0452361 0)
(10.0977 0.0446458 0)
(10.1021 0.0439912 0)
(10.1063 0.0432203 0)
(10.1105 0.0422624 0)
(10.0004 0.00694992 0)
(10.005 0.0204215 0)
(10.0137 0.0294448 0)
(10.0229 0.0348448 0)
(10.0312 0.0386844 0)
(10.0392 0.0413332 0)
(10.0469 0.0428498 0)
(10.0541 0.043605 0)
(10.0607 0.0439216 0)
(10.0669 0.0439489 0)
(10.0726 0.0437665 0)
(10.0781 0.0434383 0)
(10.0832 0.0430073 0)
(10.0881 0.0424947 0)
(10.0928 0.0419016 0)
(10.0974 0.0412168 0)
(10.1018 0.0404028 0)
(10.1061 0.0394118 0)
(10.0004 0.00612252 0)
(10.0043 0.0178504 0)
(10.0116 0.0262628 0)
(10.0199 0.0315606 0)
(10.0277 0.0352736 0)
(10.0352 0.0378856 0)
(10.0425 0.0394803 0)
(10.0494 0.0403367 0)
(10.0558 0.0407381 0)
(10.0618 0.0408366 0)
(10.0675 0.0407131 0)
(10.0729 0.0404277 0)
(10.0781 0.0400217 0)
(10.083 0.0395157 0)
(10.0877 0.0389127 0)
(10.0922 0.0382025 0)
(10.0966 0.0373584 0)
(10.1009 0.0363566 0)
(10.0003 0.00536427 0)
(10.0037 0.0155388 0)
(10.0099 0.0232212 0)
(10.0173 0.0283206 0)
(10.0245 0.0318909 0)
(10.0315 0.0344252 0)
(10.0384 0.0360437 0)
(10.045 0.0369625 0)
(10.0512 0.037423 0)
(10.0571 0.0375725 0)
(10.0627 0.0374916 0)
(10.068 0.0372363 0)
(10.0731 0.0368463 0)
(10.0779 0.0363425 0)
(10.0826 0.0357303 0)
(10.0871 0.0350037 0)
(10.0914 0.0341455 0)
(10.0956 0.0331505 0)
(10.0003 0.00469979 0)
(10.0032 0.0135973 0)
(10.0086 0.020572 0)
(10.0152 0.025405 0)
(10.0219 0.0288086 0)
(10.0286 0.0312363 0)
(10.0351 0.0328345 0)
(10.0414 0.0337786 0)
(10.0474 0.0342716 0)
(10.0531 0.0344513 0)
(10.0586 0.0343964 0)
(10.0638 0.0341601 0)
(10.0687 0.03378 0)
(10.0735 0.0332776 0)
(10.0781 0.032661 0)
(10.0825 0.0319289 0)
(10.0867 0.0310713 0)
(10.0907 0.0300971 0)
(10.0003 0.00408511 0)
(10.0028 0.0118276 0)
(10.0075 0.0180706 0)
(10.0134 0.0225613 0)
(10.0197 0.0257636 0)
(10.0259 0.0280595 0)
(10.0321 0.029605 0)
(10.0381 0.0305475 0)
(10.0439 0.0310548 0)
(10.0495 0.0312517 0)
(10.0548 0.0312136 0)
(10.0598 0.0309908 0)
(10.0647 0.030619 0)
(10.0693 0.0301202 0)
(10.0738 0.029505 0)
(10.0781 0.0287768 0)
(10.0822 0.0279313 0)
(10.0861 0.0269878 0)
(10.0002 0.00345008 0)
(10.0024 0.00998872 0)
(10.0064 0.0153878 0)
(10.0117 0.019411 0)
(10.0174 0.0223285 0)
(10.0232 0.0244327 0)
(10.029 0.0258749 0)
(10.0348 0.0267782 0)
(10.0403 0.0272753 0)
(10.0456 0.0274732 0)
(10.0508 0.0274415 0)
(10.0557 0.0272269 0)
(10.0604 0.0268626 0)
(10.0649 0.0263708 0)
(10.0693 0.0257643 0)
(10.0734 0.025051 0)
(10.0774 0.0242316 0)
(10.0812 0.0233326 0)
(10.0002 0.00279067 0)
(10.002 0.0080789 0)
(10.0055 0.012534 0)
(10.0101 0.0159599 0)
(10.0153 0.0184904 0)
(10.0206 0.0203277 0)
(10.026 0.0216028 0)
(10.0314 0.0224156 0)
(10.0367 0.0228664 0)
(10.0418 0.023041 0)
(10.0468 0.0230001 0)
(10.0515 0.0227854 0)
(10.0561 0.022427 0)
(10.0604 0.0219462 0)
(10.0646 0.0213576 0)
(10.0686 0.0206721 0)
(10.0724 0.0198948 0)
(10.076 0.0190554 0)
(10.0002 0.00210623 0)
(10.0017 0.00610016 0)
(10.0047 0.0095178 0)
(10.0088 0.012213 0)
(10.0134 0.0142377 0)
(10.0183 0.0157156 0)
(10.0233 0.0167452 0)
(10.0283 0.0174019 0)
(10.0333 0.0177572 0)
(10.0382 0.0178745 0)
(10.0429 0.0178021 0)
(10.0475 0.0175747 0)
(10.0518 0.017218 0)
(10.056 0.0167514 0)
(10.0601 0.0161897 0)
(10.0639 0.0155452 0)
(10.0675 0.0148249 0)
(10.071 0.0140594 0)
(10.0002 0.00139387 0)
(10.0015 0.00403856 0)
(10.0041 0.00632326 0)
(10.0076 0.00815384 0)
(10.0118 0.00954239 0)
(10.0163 0.0105531 0)
(10.0209 0.0112463 0)
(10.0256 0.0116709 0)
(10.0303 0.0118715 0)
(10.035 0.0118891 0)
(10.0394 0.0117569 0)
(10.0438 0.0115002 0)
(10.048 0.0111383 0)
(10.052 0.0106871 0)
(10.0559 0.0101592 0)
(10.0595 0.00956624 0)
(10.063 0.00891501 0)
(10.0663 0.00823387 0)
(10.0001 0.000637248 0)
(10.0013 0.00184245 0)
(10.0036 0.00287853 0)
(10.0068 0.00370276 0)
(10.0107 0.00431447 0)
(10.0148 0.00473604 0)
(10.0192 0.00499026 0)
(10.0236 0.00509698 0)
(10.0281 0.00507556 0)
(10.0325 0.00494439 0)
(10.0368 0.0047192 0)
(10.0409 0.0044129 0)
(10.045 0.00403633 0)
(10.0488 0.00359904 0)
(10.0525 0.00310951 0)
(10.056 0.00257607 0)
(10.0594 0.00200376 0)
(10.0625 0.00141613 0)
(10.0001 -0.000206636 0)
(10.0012 -0.000609951 0)
(10.0034 -0.000989331 0)
(10.0065 -0.00133216 0)
(10.0102 -0.00163877 0)
(10.0143 -0.00192311 0)
(10.0185 -0.00220303 0)
(10.0228 -0.00249058 0)
(10.0271 -0.00279302 0)
(10.0313 -0.0031157 0)
(10.0355 -0.00346278 0)
(10.0395 -0.00383626 0)
(10.0434 -0.00423653 0)
(10.0471 -0.00466251 0)
(10.0507 -0.00511238 0)
(10.0541 -0.00558299 0)
(10.0573 -0.00607304 0)
(10.0604 -0.00656572 0)
(10.0001 -0.00101374 0)
(10.0013 -0.00296274 0)
(10.0037 -0.00470651 0)
(10.007 -0.00616152 0)
(10.0108 -0.00732532 0)
(10.015 -0.00825767 0)
(10.0193 -0.00901986 0)
(10.0237 -0.00965389 0)
(10.028 -0.0101938 0)
(10.0323 -0.0106711 0)
(10.0364 -0.0111101 0)
(10.0404 -0.0115274 0)
(10.0442 -0.0119336 0)
(10.0479 -0.0123362 0)
(10.0514 -0.0127395 0)
(10.0548 -0.013146 0)
(10.0579 -0.0135574 0)
(10.0609 -0.0139634 0)
(10.0002 -0.00170964 0)
(10.0015 -0.00501734 0)
(10.0041 -0.00795502 0)
(10.0078 -0.0103167 0)
(10.012 -0.0121243 0)
(10.0164 -0.0135279 0)
(10.021 -0.0146335 0)
(10.0255 -0.0154982 0)
(10.03 -0.0161784 0)
(10.0343 -0.0167328 0)
(10.0385 -0.0172055 0)
(10.0426 -0.0176248 0)
(10.0464 -0.0180098 0)
(10.0501 -0.018374 0)
(10.0536 -0.0187264 0)
(10.0569 -0.0190724 0)
(10.06 -0.019416 0)
(10.063 -0.0197506 0)
(10.0002 -0.00237041 0)
(10.0016 -0.00704745 0)
(10.0047 -0.0112016 0)
(10.009 -0.0143805 0)
(10.0137 -0.0166857 0)
(10.0185 -0.0184278 0)
(10.0233 -0.0197668 0)
(10.0281 -0.0207734 0)
(10.0328 -0.021529 0)
(10.0373 -0.0221144 0)
(10.0416 -0.0225862 0)
(10.0457 -0.0229807 0)
(10.0495 -0.0233242 0)
(10.0532 -0.0236359 0)
(10.0567 -0.023929 0)
(10.06 -0.0242109 0)
(10.0632 -0.024487 0)
(10.0661 -0.0247531 0)
(10.0002 -0.00298841 0)
(10.0018 -0.00910382 0)
(10.0054 -0.0144717 0)
(10.0105 -0.0183694 0)
(10.0159 -0.0211207 0)
(10.0211 -0.0231498 0)
(10.0263 -0.024612 0)
(10.0314 -0.0256324 0)
(10.0362 -0.0263649 0)
(10.0409 -0.0269195 0)
(10.0452 -0.0273525 0)
(10.0494 -0.0276993 0)
(10.0533 -0.0279891 0)
(10.057 -0.0282443 0)
(10.0605 -0.0284788 0)
(10.0639 -0.028701 0)
(10.067 -0.0289163 0)
(10.07 -0.0291225 0)
(10.0001 -0.00353164 0)
(10.0018 -0.0115595 0)
(10.0062 -0.0179079 0)
(10.0123 -0.0220119 0)
(10.0183 -0.0250839 0)
(10.024 -0.0274986 0)
(10.0296 -0.0291418 0)
(10.035 -0.0301569 0)
(10.0401 -0.030814 0)
(10.0448 -0.0312778 0)
(10.0493 -0.0316158 0)
(10.0536 -0.0318684 0)
(10.0575 -0.0320694 0)
(10.0613 -0.0322425 0)
(10.0648 -0.0324012 0)
(10.0681 -0.0325528 0)
(10.0712 -0.0327007 0)
(10.0741 -0.0328418 0)
(9.99991 -0.00337506 0)
(10.0016 -0.0149905 0)
(10.0073 -0.0227486 0)
(10.0142 -0.0262617 0)
(10.0206 -0.0288508 0)
(10.0268 -0.0312197 0)
(10.0331 -0.0329449 0)
(10.039 -0.0340369 0)
(10.0444 -0.0347404 0)
(10.0494 -0.0352075 0)
(10.054 -0.0355086 0)
(10.0583 -0.0356978 0)
(10.0623 -0.0358209 0)
(10.0659 -0.035909 0)
(10.0693 -0.0359799 0)
(10.0725 -0.0360436 0)
(10.0754 -0.0361049 0)
(10.0781 -0.0361624 0)
(9.99859 -0.000382002 0)
(9.99903 -0.0158003 0)
(10.0076 -0.027444 0)
(10.0166 -0.0325035 0)
(10.0238 -0.0348824 0)
(10.0306 -0.0362415 0)
(10.0376 -0.0369968 0)
(10.0441 -0.0374674 0)
(10.0498 -0.0378195 0)
(10.0549 -0.0380694 0)
(10.0595 -0.0382169 0)
(10.0635 -0.038287 0)
(10.0671 -0.0383093 0)
(10.0703 -0.0383053 0)
(10.073 -0.0382898 0)
(10.0754 -0.0382717 0)
(10.0776 -0.0382545 0)
(10.0794 -0.0382362 0)
(9.99487 0.00140552 0)
(9.99287 -0.00812553 0)
(10.006 -0.0203357 0)
(10.0202 -0.0322706 0)
(10.0306 -0.0404799 0)
(10.0392 -0.0441565 0)
(10.0467 -0.0450728 0)
(10.0529 -0.0449324 0)
(10.0577 -0.0444689 0)
(10.0616 -0.0438754 0)
(10.0646 -0.0432331 0)
(10.0667 -0.0425982 0)
(10.0682 -0.0420049 0)
(10.069 -0.0414619 0)
(10.0693 -0.0409777 0)
(10.0692 -0.0405502 0)
(10.0687 -0.0401762 0)
(10.0679 -0.0398294 0)
(9.9947 -0.0305774 0)
(9.99943 -0.0228513 0)
(10.0146 -0.00262267 0)
(10.0304 -0.00190534 0)
(10.0434 -0.0116593 0)
(10.0533 -0.0209272 0)
(10.0594 -0.0272882 0)
(10.0618 -0.0315176 0)
(10.0615 -0.0342946 0)
(10.059 -0.0359928 0)
(10.055 -0.0369263 0)
(10.0497 -0.037361 0)
(10.0434 -0.0374872 0)
(10.0364 -0.0374255 0)
(10.0288 -0.0372644 0)
(10.0209 -0.0370619 0)
(10.0127 -0.0368813 0)
(10.0045 -0.03669 0)
(10.0274 -0.183007 0)
(10.0766 -0.288325 0)
(10.0871 -0.247822 0)
(10.0777 -0.186561 0)
(10.0663 -0.140326 0)
(10.0537 -0.108246 0)
(10.0365 -0.0858992 0)
(10.0145 -0.0704411 0)
(9.98933 -0.0596701 0)
(9.96229 -0.0518939 0)
(9.93431 -0.0460713 0)
(9.90598 -0.0415733 0)
(9.87779 -0.0380167 0)
(9.85008 -0.03514 0)
(9.82308 -0.0327764 0)
(9.7969 -0.0308521 0)
(9.7718 -0.0293326 0)
(9.74779 -0.0285157 0)
(9.93575 0.689541 0)
(9.86827 0.609595 0)
(9.76458 0.380605 0)
(9.62661 0.21741 0)
(9.48587 0.119241 0)
(9.35716 0.0631582 0)
(9.24264 0.0315458 0)
(9.14104 0.013594 0)
(9.05137 0.0032403 0)
(8.97237 -0.0028204 0)
(8.90246 -0.00637373 0)
(8.84027 -0.00849195 0)
(8.78455 -0.0097384 0)
(8.73443 -0.0104963 0)
(8.68899 -0.0109769 0)
(8.64764 -0.011253 0)
(8.60944 -0.011477 0)
(8.57409 -0.0121153 0)
(0.00479415 -0.0110996 -8.41764e-19)
(0.0164223 -0.0175582 7.23268e-19)
(0.0265899 -0.0151418 0)
(0.0329886 -0.00889321 0)
(0.0347159 -0.00172782 0)
(0.0316312 0.00467775 -3.7627e-19)
(0.0248289 0.0095518 0)
(0.0151872 0.0128569 0)
(0.00343438 0.0149215 0)
(-0.00986955 0.0161599 0)
(-0.0243924 0.0169615 2.25511e-19)
(-0.0399656 0.0175858 0)
(-0.0564799 0.0181611 0)
(-0.0738803 0.0187317 0)
(-0.0921342 0.0193021 0)
(-0.111216 0.019859 1.23049e-19)
(-0.131097 0.0203865 0)
(-0.151747 0.0208727 0)
(-0.173128 0.021314 0)
(-0.195204 0.0217187 0)
(-0.217931 0.0221085 0)
(-0.241275 0.0225157 0)
(-0.265209 0.0229847 0)
(-0.289726 0.0235536 7.20747e-20)
(-0.314843 0.0242707 -6.91829e-20)
(-0.340618 0.0252422 6.68181e-20)
(-0.367156 0.0264909 6.49564e-20)
(-0.394541 0.027821 0)
(-0.422707 0.0291639 0)
(-0.451668 0.0305183 -6.17152e-20)
(-0.481768 0.0317054 -6.10232e-20)
(-0.513255 0.0324238 0)
(-0.545614 0.0271601 0)
(-0.578475 0.0161267 -5.63243e-20)
(-0.609434 0.0151142 0)
(-0.640493 0.0251214 0)
(-0.676107 0.0359999 5.00684e-20)
(-0.713217 0.0589424 0)
(-0.753177 0.0348167 5.73414e-20)
(-0.79237 0.0398382 9.53332e-20)
(-0.82913 0.0823989 0)
(-0.87285 0.104167 0)
(-0.915666 0.0788192 0)
(-0.956593 0.0298389 0)
(-0.989393 0.0311044 0)
(-1.02673 0.0328303 1.1357e-19)
(-1.06569 0.0339423 1.1026e-19)
(-1.10569 0.0343072 1.07157e-19)
(-1.14603 0.0343358 0)
(-1.18652 0.034187 -1.01529e-19)
(-1.22702 0.0339544 0)
(-1.26746 0.0336666 9.65713e-20)
(-1.3078 0.0333481 9.43093e-20)
(-1.348 0.0330082 0)
(-1.38803 0.0326545 0)
(-1.42789 0.032289 0)
(-1.46754 0.0319143 8.64378e-20)
(-1.50698 0.0315299 0)
(-1.54618 0.0311363 0)
(-1.58513 0.0307315 0)
(-1.62381 0.0303157 0)
(-1.6622 0.0298867 0)
(-1.70027 0.0294441 0)
(-1.73799 0.0289856 0)
(-1.77534 0.028511 0)
(-1.8123 0.0280182 -7.34195e-20)
(-1.84882 0.0275073 0)
(-1.88488 0.0269763 0)
(-1.92044 0.0264258 7.00015e-20)
(-1.95547 0.0258539 6.89317e-20)
(-1.98994 0.0252614 0)
(-2.02379 0.0246469 -6.68791e-20)
(-2.05701 0.0240112 6.5891e-20)
(-2.08953 0.0233531 0)
(-2.12134 0.0226739 -6.39789e-20)
(-2.15238 0.0219726 0)
(-2.18262 0.0212508 0)
(-2.21202 0.0205079 6.12377e-20)
(-2.24053 0.0197453 0)
(-2.26811 0.0189622 -5.94707e-20)
(-2.29472 0.0181604 0)
(-2.32033 0.0173392 5.77342e-20)
(-2.34488 0.0165001 5.6873e-20)
(-2.36835 0.015642 5.60143e-20)
(-2.39069 0.0147664 1.10313e-19)
(-2.41186 0.013872 -1.08595e-19)
(-2.43182 0.0129593 0)
(-2.45052 0.0120251 0)
(-2.46793 0.0110673 0)
(-2.484 0.0100805 -1.0165e-19)
(-2.49869 0.00905739 -9.98816e-20)
(-2.51195 0.00798985 9.8096e-20)
(-2.52372 0.00686844 0)
(-2.53393 0.00568415 -9.44643e-20)
(-2.54251 0.00443687 -9.26157e-20)
(-2.54938 0.00315272 -9.0746e-20)
(-2.55445 0.0018952 0)
(-2.55759 0.000742007 0)
(-2.55882 -0.000254358 0)
(-2.5586 -0.00115078 -8.29038e-20)
(-2.55684 -0.00202529 0)
(-2.55359 -0.00288941 0)
(-2.54884 -0.00374941 7.65006e-20)
(-2.54258 -0.00460623 0)
(-2.5348 -0.00545904 0)
(-2.52548 -0.00630803 6.95909e-20)
(-2.51462 -0.00715157 0)
(-2.50222 -0.00799015 0)
(-2.48825 -0.00882211 -6.21044e-20)
(-2.47274 -0.0096481 -5.94681e-20)
(-2.45566 -0.0104664 0)
(-2.43703 -0.0112777 5.39674e-20)
(-2.41684 -0.0120801 0)
(-2.3951 -0.0128745 -4.81419e-20)
(-2.37182 -0.013659 0)
(-2.34699 -0.0144344 -4.19657e-20)
(-2.32064 -0.0151989 -3.87373e-20)
(-2.29277 -0.0159531 0)
(-2.26339 -0.0166953 0)
(-2.23252 -0.0174261 0)
(-2.20018 -0.0181441 0)
(-2.16639 -0.0188495 0)
(-2.13117 -0.0195409 0)
(-2.09454 -0.0202182 0)
(-2.05652 -0.0208805 -9.00589e-21)
(-2.01715 -0.0215283 4.72938e-21)
(-1.97645 -0.0221613 0)
(-1.93446 -0.0227761 0)
(-1.8912 -0.0233777 0)
(-1.8467 -0.0239666 0)
(-1.80101 -0.0245334 -3.78731e-20)
(-1.75418 -0.0250822 0)
(-1.70623 -0.0256165 5.92254e-20)
(-1.65721 -0.0261342 -7.04853e-20)
(-1.60716 -0.0266325 0)
(-1.55614 -0.0271113 0)
(-1.50419 -0.0275718 0)
(-1.45135 -0.0280131 1.19936e-19)
(-1.39769 -0.0284363 1.33522e-19)
(-1.34325 -0.0288398 0)
(-1.28809 -0.0292239 1.62361e-19)
(-1.23224 -0.0295879 1.77683e-19)
(-1.17577 -0.0299322 -1.93656e-19)
(-1.11872 -0.0302574 0)
(-1.06115 -0.0305645 0)
(-1.00312 -0.030854 -2.45923e-19)
(-0.944663 -0.031127 0)
(-0.885843 -0.031384 0)
(-0.826706 -0.0316262 0)
(-0.7673 -0.0318545 0)
(-0.707674 -0.0320701 3.50891e-19)
(-0.647871 -0.032274 3.75211e-19)
(-0.587937 -0.0324678 0)
(-0.527914 -0.0326523 4.27947e-19)
(-0.467842 -0.0328293 0)
(-0.40776 -0.0329996 0)
(-0.347706 -0.0331637 5.19258e-19)
(-0.287715 -0.0333223 0)
(-0.227827 -0.0334768 5.9023e-19)
(-0.168074 -0.0336422 0)
(-0.108492 -0.0338226 0)
(-0.0491497 -0.0339609 7.16636e-19)
(0.0099398 -0.0337109 0)
(0.0687331 -0.0328979 7.33196e-19)
(0.12723 -0.0318994 0)
(0.185369 -0.0309364 0)
(0.243143 -0.0300317 0)
(0.300564 -0.0291775 -6.69059e-19)
(0.357647 -0.0283643 0)
(0.414399 -0.0275846 6.43192e-19)
(0.470813 -0.0268285 0)
(0.526864 -0.0260849 0)
(0.582497 -0.0253345 0)
(0.63759 -0.0245478 0)
(0.691961 -0.0236665 0)
(0.745009 -0.0225814 0)
(0.796466 -0.0210222 0)
(0.841468 -0.0183404 -1.13947e-18)
(0.885948 -0.0130442 0)
(0.877349 0.0039393 0)
(0.00482466 -0.0334803 1.94949e-18)
(0.0105404 -0.0331703 -1.0645e-18)
(0.0106131 -0.0205569 0)
(0.00765007 -0.00685195 3.34684e-19)
(0.00224355 0.00607908 0)
(-0.00530816 0.0173507 1.3027e-19)
(-0.0149957 0.0265352 -2.38425e-19)
(-0.0267222 0.0336555 -2.20223e-19)
(-0.0403488 0.0390328 0)
(-0.0556698 0.0431115 -1.88604e-19)
(-0.0724574 0.046321 -8.73814e-20)
(-0.0905278 0.0489896 0)
(-0.109748 0.0513314 0)
(-0.130022 0.0534665 0)
(-0.151287 0.0554564 0)
(-0.173502 0.0573264 -6.21682e-20)
(-0.196644 0.0590862 0)
(-0.220702 0.0607364 1.1136e-19)
(-0.245673 0.0622782 0)
(-0.271568 0.0637131 0)
(-0.298401 0.0650492 -9.71048e-20)
(-0.326201 0.0662986 0)
(-0.355005 0.0674849 9.02298e-20)
(-0.384858 0.0686376 -4.37772e-20)
(-0.415815 0.0697985 4.26127e-20)
(-0.447923 0.0710211 -4.16501e-20)
(-0.481199 0.0723753 -4.08886e-20)
(-0.515659 0.0739021 0)
(-0.551377 0.0756068 0)
(-0.588428 0.0774723 3.97904e-20)
(-0.626628 0.0794283 -3.96449e-20)
(-0.66521 0.0812999 0)
(-0.704617 0.0825271 0)
(-0.745285 0.0833273 3.79506e-20)
(-0.786754 0.0848421 0)
(-0.82892 0.0861225 0)
(-0.869981 0.0867762 -3.52396e-20)
(-0.908079 0.0872669 0)
(-0.948995 0.0869159 3.40601e-20)
(-0.989902 0.0855456 -6.35045e-20)
(-1.0299 0.0858731 0)
(-1.06731 0.0844514 0)
(-1.10692 0.083938 -1.29598e-19)
(-1.14846 0.0848355 -1.27224e-19)
(-1.1913 0.0866769 -1.2441e-19)
(-1.23099 0.0875648 6.06683e-20)
(-1.26908 0.0876788 -5.97758e-20)
(-1.30637 0.0873249 -1.75276e-19)
(-1.34317 0.086662 1.14412e-19)
(-1.37961 0.0858165 5.62502e-20)
(-1.41576 0.0848621 0)
(-1.45161 0.0838393 -5.41851e-20)
(-1.48717 0.0827733 5.29328e-20)
(-1.52245 0.081677 0)
(-1.55743 0.0805583 0)
(-1.59211 0.0794198 0)
(-1.62648 0.0782632 -4.97688e-20)
(-1.66052 0.077087 0)
(-1.69423 0.0758904 9.61893e-20)
(-1.72757 0.0746704 0)
(-1.76054 0.0734253 9.33299e-20)
(-1.79311 0.0721518 0)
(-1.82527 0.0708483 -9.06442e-20)
(-1.85699 0.0695113 0)
(-1.88824 0.0681396 8.81043e-20)
(-1.919 0.0667303 -4.33136e-20)
(-1.94924 0.0652827 0)
(-1.97894 0.0637945 -8.45146e-20)
(-2.00806 0.0622658 -4.18022e-20)
(-2.03658 0.0606946 -4.12348e-20)
(-2.06446 0.0590818 0)
(-2.09168 0.0574258 -3.99044e-20)
(-2.1182 0.0557278 -3.95794e-20)
(-2.14399 0.0539871 0)
(-2.16902 0.0522053 3.8504e-20)
(-2.19326 0.050382 -7.57529e-20)
(-2.21667 0.0485196 0)
(-2.23922 0.0466183 -3.69135e-20)
(-2.26088 0.0446804 0)
(-2.28162 0.0427061 1.07416e-19)
(-2.3014 0.0406981 0)
(-2.32019 0.0386568 -1.04253e-19)
(-2.33796 0.0365849 -3.42628e-20)
(-2.35468 0.0344826 3.36085e-20)
(-2.37032 0.0323527 6.61546e-20)
(-2.38484 0.0301956 -6.50829e-20)
(-2.39822 0.0280141 0)
(-2.41043 0.0258079 0)
(-2.42144 0.0235784 0)
(-2.43121 0.0213245 1.82221e-19)
(-2.43974 0.0190446 5.96098e-20)
(-2.44701 0.0167376 -5.84295e-20)
(-2.453 0.0144018 0)
(-2.45772 0.0120325 -5.60174e-20)
(-2.46116 0.00962235 5.47755e-20)
(-2.46339 0.00717456 5.35198e-20)
(-2.46445 0.00472423 0)
(-2.46447 0.00234479 0)
(-2.46347 0.000105103 0)
(-2.46107 -0.00202977 4.82054e-20)
(-2.45726 -0.00412603 0)
(-2.45199 -0.00619597 -9.09659e-20)
(-2.44524 -0.00824667 -1.32027e-19)
(-2.43701 -0.0102787 8.51666e-20)
(-2.42727 -0.0122904 0)
(-2.41603 -0.0142802 3.97281e-20)
(-2.40326 -0.0162454 0)
(-2.38896 -0.0181848 7.28957e-20)
(-2.37313 -0.0200959 -3.50378e-20)
(-2.35577 -0.0219778 -3.34144e-20)
(-2.33686 -0.0238278 0)
(-2.31642 -0.0256454 -8.92684e-20)
(-2.29445 -0.0274278 5.62097e-20)
(-2.27095 -0.0291743 2.60752e-20)
(-2.24592 -0.0308822 0)
(-2.21937 -0.032551 2.24248e-20)
(-2.19131 -0.0341779 6.22664e-20)
(-2.16175 -0.0357621 0)
(-2.13071 -0.0373012 3.40728e-20)
(-2.0982 -0.0387946 3.01504e-20)
(-2.06423 -0.0402402 2.61603e-20)
(-2.02883 -0.0416371 0)
(-1.99202 -0.0429826 0)
(-1.95382 -0.0442755 0)
(-1.91426 -0.0455137 -5.16686e-21)
(-1.87335 -0.0466971 -2.16589e-21)
(-1.83114 -0.0478246 0)
(-1.78765 -0.0488969 3.70366e-21)
(-1.74291 -0.0499132 8.24915e-21)
(-1.69696 -0.050875 0)
(-1.64984 -0.0517804 1.85081e-20)
(-1.60158 -0.0526197 4.46182e-20)
(-1.55223 -0.0533934 -2.81371e-20)
(-1.50183 -0.0541114 -3.10182e-20)
(-1.45042 -0.0547725 0)
(-1.39805 -0.0553708 0)
(-1.34477 -0.0559071 0)
(-1.29063 -0.0563826 -5.34022e-20)
(-1.23568 -0.0567988 5.6455e-20)
(-1.17998 -0.0571558 1.25726e-19)
(-1.12356 -0.0574534 -6.93639e-20)
(-1.06649 -0.0576922 7.25325e-20)
(-1.00881 -0.0578728 8.03272e-20)
(-0.950572 -0.0579975 0)
(-0.89184 -0.0580679 0)
(-0.832659 -0.0580868 -9.48797e-20)
(-0.773082 -0.0580557 0)
(-0.713159 -0.0579776 0)
(-0.652941 -0.0578539 2.26978e-19)
(-0.592475 -0.0576882 0)
(-0.531809 -0.0574822 1.24193e-19)
(-0.470989 -0.0572393 -1.32644e-19)
(-0.410059 -0.0569615 0)
(-0.349061 -0.0566522 1.42465e-19)
(-0.288037 -0.0563134 0)
(-0.227025 -0.0559482 0)
(-0.166062 -0.0555568 -1.63614e-19)
(-0.105184 -0.0551399 3.37502e-19)
(-0.0444289 -0.0546983 -1.76334e-19)
(0.0161845 -0.0542355 0)
(0.0766296 -0.0537505 0)
(0.136896 -0.0532348 1.82749e-19)
(0.196956 -0.0525844 0)
(0.256718 -0.0517269 1.8638e-19)
(0.316164 -0.0507771 0)
(0.375316 -0.0498376 0)
(0.434184 -0.0489333 0)
(0.492773 -0.0480631 1.95135e-19)
(0.551089 -0.04722 0)
(0.609133 -0.0463953 -1.97823e-19)
(0.666897 -0.0455762 0)
(0.724354 -0.0447435 0)
(0.78145 -0.0438645 4.00557e-19)
(0.838068 -0.0428824 -4.02466e-19)
(0.894021 -0.0416859 0)
(0.948825 -0.0400659 0)
(1.00211 -0.0374941 0)
(1.05096 -0.032995 1.23449e-18)
(1.09859 -0.0232982 0)
(1.12341 0.000221922 -8.55526e-19)
(0.000163272 -0.0417218 -8.09049e-22)
(-0.00228603 -0.0278433 1.03309e-18)
(-0.00851618 -0.00892051 0)
(-0.0167791 0.00863461 -4.21816e-19)
(-0.0265312 0.0244391 0)
(-0.0374689 0.0383946 0)
(-0.0495933 0.0504102 3.94825e-23)
(-0.0630032 0.0604947 1.30783e-19)
(-0.0777782 0.068818 1.23076e-19)
(-0.0939349 0.0756753 1.16406e-19)
(-0.111431 0.0814046 0)
(-0.130191 0.086317 0)
(-0.150135 0.0906603 -9.9512e-20)
(-0.17119 0.094611 -1.89558e-19)
(-0.1933 0.098285 1.80915e-19)
(-0.216428 0.101754 0)
(-0.240554 0.105062 1.65911e-19)
(-0.265669 0.108237 -7.97424e-20)
(-0.291777 0.111302 0)
(-0.318889 0.114278 1.48275e-19)
(-0.347019 0.117191 7.17618e-20)
(-0.376185 0.120072 -1.39213e-19)
(-0.406401 0.122957 -6.76989e-20)
(-0.437676 0.125888 0)
(-0.470002 0.128906 1.29099e-19)
(-0.503353 0.132048 1.26571e-19)
(-0.537665 0.13533 0)
(-0.572814 0.138734 1.22391e-19)
(-0.608628 0.142186 0)
(-0.644933 0.145546 1.18555e-19)
(-0.681535 0.148577 5.81859e-20)
(-0.718229 0.150913 0)
(-0.755079 0.152109 0)
(-0.792291 0.1523 0)
(-0.829702 0.152751 0)
(-0.866818 0.153604 0)
(-0.903079 0.154039 0)
(-0.938549 0.154335 9.74414e-20)
(-0.973954 0.153146 -1.4281e-19)
(-1.00916 0.152125 0)
(-1.04328 0.152376 0)
(-1.07599 0.151498 0)
(-1.10885 0.148313 5.08731e-23)
(-1.14285 0.144251 8.70625e-20)
(-1.17746 0.141882 1.70499e-19)
(-1.21148 0.140155 -1.67149e-19)
(-1.24487 0.138588 -8.18646e-20)
(-1.27776 0.136991 8.04855e-20)
(-1.31027 0.135324 -1.66375e-22)
(-1.3425 0.133593 7.7398e-20)
(-1.3745 0.131813 0)
(-1.40628 0.129998 7.47169e-20)
(-1.43785 0.128156 -1.60635e-22)
(-1.46923 0.126291 0)
(-1.50039 0.124405 0)
(-1.53134 0.122497 -6.99469e-20)
(-1.56206 0.120564 0)
(-1.59254 0.118604 0)
(-1.62277 0.116613 6.66221e-20)
(-1.65271 0.114585 1.31583e-19)
(-1.68237 0.112519 -6.49872e-20)
(-1.71171 0.110408 0)
(-1.74071 0.10825 6.31313e-20)
(-1.76935 0.106042 0)
(-1.7976 0.103779 6.10537e-20)
(-1.82545 0.101459 6.04997e-20)
(-1.85286 0.0990809 -1.19016e-19)
(-1.8798 0.096642 -5.85358e-20)
(-1.90624 0.0941414 0)
(-1.93216 0.0915781 1.14125e-19)
(-1.95753 0.0889519 0)
(-1.9823 0.0862624 1.66581e-19)
(-2.00646 0.0835104 1.0941e-19)
(-2.02997 0.0806961 1.07864e-19)
(-2.0528 0.0778211 -1.06327e-19)
(-2.07492 0.0748864 1.57308e-19)
(-2.09628 0.0718943 0)
(-2.11687 0.0688463 0)
(-2.13664 0.065745 -1.00221e-19)
(-2.15557 0.0625923 -1.48131e-19)
(-2.17362 0.059391 0)
(-2.19075 0.0561435 4.78906e-20)
(-2.20695 0.0528527 0)
(-2.22217 0.0495209 -1.38845e-19)
(-2.23638 0.0461514 -1.1908e-22)
(-2.24956 0.0427467 1.05333e-22)
(-2.26168 0.0393102 8.77693e-20)
(-2.27271 0.0358443 0)
(-2.28262 0.0323523 -8.4521e-20)
(-2.29139 0.0288364 -4.72529e-23)
(-2.299 0.0252998 0)
(-2.30543 0.0217475 0)
(-2.31068 0.018187 0)
(-2.31474 0.0146285 7.60272e-20)
(-2.31761 0.0110864 0)
(-2.31928 0.00758055 0)
(-2.31974 0.00413092 0)
(-2.31896 0.000740909 0)
(-2.31688 -0.00261857 0)
(-2.31344 -0.00596412 6.49007e-20)
(-2.30861 -0.0092868 0)
(-2.30237 -0.0125833 6.07798e-20)
(-2.29471 -0.0158516 5.87328e-20)
(-2.2856 -0.0190884 -5.66557e-20)
(-2.27503 -0.0222905 0)
(-2.26299 -0.025454 -5.24102e-20)
(-2.24948 -0.0285755 0)
(-2.23448 -0.0316518 -4.8041e-20)
(-2.218 -0.0346798 4.58097e-20)
(-2.20003 -0.0376566 1.31216e-19)
(-2.18056 -0.0405794 0)
(-2.1596 -0.0434453 1.17427e-19)
(-2.13715 -0.0462516 3.72484e-20)
(-2.11321 -0.0489955 0)
(-2.08778 -0.0516743 6.42751e-20)
(-2.06088 -0.0542853 5.94101e-20)
(-2.03252 -0.0568258 -8.13221e-20)
(-2.00269 -0.0592929 0)
(-1.97142 -0.0616842 -2.17903e-20)
(-1.93872 -0.0639974 -1.92226e-20)
(-1.90461 -0.0662299 -5.08126e-20)
(-1.8691 -0.0683794 0)
(-1.83222 -0.0704426 0)
(-1.79399 -0.0724167 0)
(-1.75442 -0.0742993 -7.01578e-21)
(-1.71355 -0.0760889 0)
(-1.67141 -0.0777844 0)
(-1.62803 -0.0793856 -2.29884e-21)
(-1.58343 -0.0808926 -5.10154e-21)
(-1.53766 -0.0823054 0)
(-1.49074 -0.0836214 0)
(-1.44273 -0.0848332 -2.72823e-20)
(-1.39364 -0.0859379 0)
(-1.34354 -0.0869443 3.88693e-20)
(-1.29246 -0.0878521 4.3427e-20)
(-1.24045 -0.0886563 0)
(-1.18756 -0.0893569 0)
(-1.13383 -0.0899558 -6.10924e-20)
(-1.07931 -0.0904542 -1.35509e-21)
(-1.02407 -0.0908531 -1.36934e-21)
(-0.968137 -0.0911529 0)
(-0.911571 -0.0913547 -1.71362e-19)
(-0.854422 -0.0914601 0)
(-0.796741 -0.0914724 0)
(-0.738581 -0.0913942 0)
(-0.679992 -0.0912295 1.1053e-19)
(-0.621025 -0.0909813 0)
(-0.56173 -0.0906538 -2.42365e-19)
(-0.502156 -0.0902501 -1.28667e-19)
(-0.442349 -0.0897748 0)
(-0.382357 -0.0892315 -1.40726e-19)
(-0.322225 -0.0886246 0)
(-0.261994 -0.0879582 0)
(-0.201707 -0.0872367 -4.73224e-19)
(-0.141404 -0.0864629 3.26427e-19)
(-0.0811201 -0.085641 0)
(-0.0208913 -0.0847752 3.49706e-19)
(0.0392538 -0.0838718 -1.80757e-19)
(0.0992814 -0.0829328 0)
(0.15916 -0.0819533 0)
(0.218859 -0.0809335 0)
(0.278368 -0.0798813 -5.77506e-19)
(0.33768 -0.0787999 0)
(0.396782 -0.0776823 -1.99274e-19)
(0.45566 -0.0765408 0)
(0.514312 -0.0754091 0)
(0.572731 -0.074302 0)
(0.630913 -0.0732202 0)
(0.688856 -0.0721581 0)
(0.746561 -0.0711052 0)
(0.804017 -0.0700448 -4.32542e-19)
(0.861198 -0.0689486 0)
(0.918053 -0.0677683 -2.21486e-19)
(0.974475 -0.0664186 6.68272e-19)
(1.0303 -0.0647413 0)
(1.08513 -0.0624368 0)
(1.13871 -0.0588673 -4.5634e-19)
(1.18912 -0.0528026 -4.6255e-19)
(1.23944 -0.0413336 4.67506e-19)
(1.27743 -0.0170017 4.81044e-19)
(-0.00492961 -0.0332136 -2.98667e-18)
(-0.0130597 -0.0104099 -1.24199e-18)
(-0.0232373 0.0118564 -4.50147e-19)
(-0.0350768 0.0314667 -1.60568e-19)
(-0.0478994 0.0489776 0)
(-0.0613724 0.0646169 2.32582e-19)
(-0.0755495 0.0784498 -1.06323e-19)
(-0.0905724 0.0905284 0)
(-0.106565 0.100974 -9.38009e-20)
(-0.123613 0.109989 0)
(-0.141756 0.117822 1.70113e-19)
(-0.160997 0.124727 0)
(-0.181311 0.130933 7.79282e-20)
(-0.202666 0.13662 1.49566e-19)
(-0.225028 0.141926 -1.43774e-19)
(-0.248369 0.146946 0)
(-0.272666 0.151748 -1.33548e-19)
(-0.297905 0.156377 0)
(-0.324071 0.160869 0)
(-0.351152 0.165249 -1.21096e-19)
(-0.37913 0.169541 0)
(-0.40798 0.173765 -5.23529e-23)
(-0.437663 0.177937 0)
(-0.468124 0.182067 0)
(-0.499282 0.18615 9.08264e-23)
(-0.531029 0.190164 -1.03876e-19)
(-0.563228 0.194057 -1.01823e-19)
(-0.595712 0.197737 -9.96298e-20)
(-0.628309 0.20107 0)
(-0.660873 0.20388 -1.90979e-19)
(-0.693297 0.205973 0)
(-0.725543 0.207181 -9.09506e-20)
(-0.757692 0.207437 0)
(-0.789838 0.20701 0)
(-0.821926 0.206421 8.37129e-20)
(-0.853725 0.205811 0)
(-0.885113 0.205018 -7.94813e-20)
(-0.916131 0.204063 -7.27463e-23)
(-0.94688 0.202817 1.51803e-19)
(-0.977299 0.201524 -1.48389e-19)
(-1.00716 0.200257 0)
(-1.03649 0.198271 0)
(-1.06575 0.195313 -6.99496e-20)
(-1.09534 0.191944 0)
(-1.12519 0.188927 -6.72054e-20)
(-1.15501 0.186235 6.59348e-20)
(-1.18466 0.183736 6.4706e-20)
(-1.21411 0.181321 0)
(-1.24337 0.178935 -6.23814e-20)
(-1.27246 0.17655 -6.12854e-20)
(-1.30141 0.174156 1.20328e-19)
(-1.33021 0.171748 -5.92177e-20)
(-1.35888 0.169322 -5.82411e-20)
(-1.38741 0.166875 0)
(-1.4158 0.164403 0)