/*--------------------------------*- C++ -*----------------------------------*\
  =========                 |
  \\      /  F ield         | OpenFOAM: The Open Source CFD Toolbox
   \\    /   O peration     | Website:  https://openfoam.org
    \\  /    A nd           | Version:  8
     \\/     M anipulation  |
\*---------------------------------------------------------------------------*/
FoamFile
{
    version     2.0;
    format      ascii;
    class       volScalarField;
    location    "285";
    object      epsilon;
}
// * * * * * * * * * * * * * * * * * * * * * * * * * * * * * * * * * * * * * //

dimensions      [0 2 -3 0 0 0 0];

internalField   nonuniform List<scalar> 
12225
(
285.515
270.697
257.922
243.802
232.472
223.072
216.825
212.693
212.742
213.94
217.245
220.86
228.093
232.824
241.24
246.578
254.988
262.776
52.4945
91.879
106.972
114.746
124.841
136.778
152.682
169.898
191.084
210.922
235.174
255.459
280.956
299.275
324.575
339.161
364.203
373.12
20.3233
34.8565
44.6744
50.4699
55.3943
59.608
64.6602
69.6442
76.3078
83.1835
91.4172
99.3118
108.139
116.913
125.484
135.212
142.453
153.541
15.3482
19.6977
24.1121
27.5692
30.4962
32.8703
35.1532
37.2942
39.4993
41.9177
44.3316
47.1987
49.6733
53.0291
55.398
59.2114
61.3987
65.5926
14.6508
15.8626
17.3669
19.074
20.6378
22.0262
23.2452
24.4312
25.4429
26.5943
27.5218
28.7563
29.6294
30.9812
31.808
33.2559
34.0665
35.6282
14.7068
14.8769
15.2014
15.8668
16.5665
17.2868
17.9233
18.5841
19.1187
19.7336
20.1927
20.798
21.2073
21.8206
22.1959
22.8214
23.1744
23.8509
14.7421
14.6201
14.6248
14.737
14.9297
15.2191
15.4912
15.8088
16.0708
16.3824
16.6179
16.9197
17.1303
17.4261
17.6148
17.9103
18.0793
18.4029
14.7626
14.5866
14.4637
14.3812
14.3669
14.39
14.4381
14.5337
14.6185
14.7365
14.8307
14.9562
15.0475
15.1758
15.2605
15.3909
15.4688
15.6181
14.7666
14.5908
14.4346
14.2963
14.1849
14.1044
14.0398
14.0066
13.9814
13.9785
13.9808
13.9916
14.004
14.0294
14.0469
14.0791
14.1027
14.1449
14.7663
14.5939
14.432
14.282
14.143
14.0219
13.9115
13.8194
13.737
13.6698
13.6102
13.5633
13.5181
13.4871
13.4516
13.4341
13.402
13.4005
14.7658
14.5945
14.4321
14.2803
14.1362
14.0032
13.8782
13.7644
13.6582
13.5629
13.4736
13.3952
13.3198
13.2561
13.1916
13.1408
13.0838
13.0451
14.7657
14.5943
14.4321
14.2798
14.1353
13.9999
13.8715
13.7518
13.6385
13.5337
13.4341
13.343
13.2557
13.1771
13.1003
13.0328
12.9647
12.9074
14.7657
14.5941
14.432
14.2794
14.1349
13.9989
13.8699
13.7485
13.6332
13.525
13.422
13.3257
13.2338
13.1484
13.0663
12.9906
12.9172
12.8502
14.7657
14.5939
14.4318
14.279
14.1346
13.9983
13.8692
13.7472
13.6315
13.5223
13.4184
13.3204
13.227
13.139
13.055
12.9759
12.9002
12.8291
14.7657
14.5938
14.4317
14.2787
14.1342
13.9977
13.8686
13.7464
13.6307
13.5211
13.4171
13.3185
13.2249
13.136
13.0516
12.9714
12.8951
12.8227
14.7657
14.5937
14.4315
14.2785
14.1339
13.9973
13.8681
13.7458
13.63
13.5202
13.4161
13.3174
13.2236
13.1346
13.05
12.9696
12.8931
12.8204
14.7657
14.5937
14.4315
14.2783
14.1337
13.997
13.8677
13.7453
13.6294
13.5195
13.4154
13.3165
13.2227
13.1336
13.0489
12.9684
12.8918
12.819
14.7657
14.5937
14.4314
14.2782
14.1335
13.9968
13.8674
13.7449
13.629
13.5191
13.4148
13.3159
13.222
13.1328
13.0481
12.9675
12.8908
12.8179
14.7657
14.5937
14.4314
14.2782
14.1335
13.9967
13.8673
13.7448
13.6288
13.5189
13.4146
13.3156
13.2217
13.1325
13.0477
12.967
12.8903
12.8174
14.7657
14.5937
14.4314
14.2782
14.1336
13.9968
13.8674
13.745
13.629
13.519
13.4148
13.3158
13.2219
13.1327
13.0479
12.9673
12.8906
12.8177
14.7657
14.5937
14.4315
14.2784
14.1337
13.997
13.8677
13.7453
13.6294
13.5195
13.4154
13.3166
13.2229
13.1338
13.0493
12.9689
12.8926
12.8199
14.7657
14.5937
14.4316
14.2785
14.1341
13.9974
13.8685
13.7464
13.6312
13.522
13.419
13.3213
13.2293
13.1418
13.0594
12.981
12.9073
12.8368
14.7658
14.5937
14.4318
14.2788
14.1353
14.0002
13.8742
13.756
13.6463
13.5435
13.4485
13.3591
13.277
13.1992
13.1282
13.0601
12.9988
12.9386
14.7655
14.5928
14.4328
14.2844
14.1515
14.0321
13.929
13.8375
13.7593
13.6894
13.6306
13.5769
13.5328
13.4905
13.4574
13.423
13.3989
13.3693
14.7592
14.5932
14.4603
14.3602
14.3029
14.2766
14.2805
14.2921
14.3211
14.3531
14.3959
14.4346
14.4825
14.5217
14.572
14.609
14.6617
14.694
14.7213
14.6911
14.754
14.9176
15.1828
15.4611
15.7476
16.012
16.2724
16.5039
16.7362
16.9387
17.1508
17.3311
17.5311
17.6938
17.8891
18.0362
14.7477
15.5124
16.5473
17.6841
18.7044
19.5676
20.3373
20.9969
21.6196
22.1663
22.7191
23.2111
23.7403
24.2047
24.7332
25.1833
25.7257
26.1668
15.9871
20.9921
25.0238
27.7605
29.7847
31.3586
32.7773
34.0582
35.3599
36.6169
37.9762
39.2981
40.7628
42.1472
43.7195
45.1758
46.8861
48.3611
29.9032
47.2183
54.8697
58.6737
61.6144
64.4326
67.5815
70.9788
74.7405
78.717
82.9886
87.3486
91.9102
96.4561
101.107
105.63
110.184
114.586
165.798
160.075
154.899
149.565
144.479
139.678
135.615
132.109
129.27
126.974
125.32
124.045
123.341
122.826
122.843
122.961
123.286
123.83
0.156779
0.20114
0.376401
0.531088
0.678367
0.844296
1.03673
1.26624
1.53873
1.85325
2.20364
2.58153
2.97846
3.3869
3.80051
4.21397
4.62288
5.02367
5.41355
5.79069
6.15406
6.50389
6.84089
7.16679
7.4828
7.78981
8.08699
8.37444
8.65493
8.90668
9.12373
39.2283
39.9029
40.2055
40.2361
39.8117
9.32664
9.14859
8.78463
8.48992
9.25626
9.3505
41.6423
46.383
48.8254
52.6496
56.0996
59.9666
63.8898
68.0366
72.3296
76.8109
81.4626
86.2993
91.3173
96.5243
101.92
107.51
113.294
119.278
125.462
131.848
138.438
145.233
152.233
159.439
166.85
174.466
182.284
190.305
198.523
206.938
215.542
224.337
233.311
242.464
251.785
261.272
270.912
280.702
290.628
300.685
310.857
321.14
331.514
341.974
352.5
363.081
373.699
384.338
394.978
405.595
416.166
426.665
437.065
447.344
457.491
467.528
477.534
487.355
497.055
506.591
515.963
525.147
534.132
542.9
551.437
559.728
567.758
575.515
582.981
590.148
596.998
603.523
609.707
615.543
621.018
626.124
630.851
635.193
639.141
642.689
645.826
648.551
650.857
652.744
654.204
655.228
655.89
656.158
655.93
655.225
654.082
652.626
650.816
648.537
645.881
642.838
639.422
635.642
631.507
627.032
622.227
617.101
611.667
605.94
599.933
593.661
587.139
580.382
573.406
566.226
558.86
551.321
543.628
535.795
527.84
519.779
511.631
503.418
495.175
486.981
479.413
474.883
471.648
468.486
465.296
462.07
458.815
455.535
452.237
448.921
445.583
442.207
438.759
435.159
431.251
426.586
420.287
395.276
0.8067
0.502786
0.50967
0.575834
0.677813
0.8103
0.975444
1.17558
1.41116
1.67998
1.97785
2.29964
2.64031
2.99531
3.36087
3.73394
4.11232
4.4947
4.88084
5.27189
5.67069
6.08239
6.51501
6.98086
7.49816
8.09479
8.81394
9.72548
10.9461
12.6699
15.2116
19.0751
19.2207
18.8772
18.0782
16.6143
14.3516
16.0678
17.7233
19.0933
22.2022
24.2901
27.8215
29.2574
30.8933
32.6657
34.4501
36.3252
38.2522
40.2519
42.3164
44.4516
46.6566
48.9338
51.2835
53.7072
56.2054
58.7791
61.4287
64.1549
66.9578
69.8378
72.7946
75.8285
78.9388
82.1254
85.3873
88.7241
92.1344
95.6173
99.1712
102.795
106.486
110.243
114.063
117.944
121.884
125.879
129.926
134.023
138.164
142.347
146.567
150.82
155.101
159.405
163.726
168.059
172.397
176.733
181.061
185.372
189.659
193.915
198.137
202.326
206.493
210.664
214.898
219.06
223.175
227.228
231.217
235.135
238.975
242.731
246.398
249.97
253.442
256.807
260.061
263.197
266.212
269.099
271.855
274.474
276.953
279.287
281.473
283.508
285.387
287.108
288.668
290.065
291.296
292.361
293.258
293.988
294.556
294.951
295.158
295.186
295.046
294.763
294.325
293.709
292.933
291.998
290.906
289.661
288.266
286.726
285.044
283.224
281.27
279.189
276.984
274.661
272.225
269.683
267.04
264.301
261.474
258.563
255.576
252.519
249.397
246.219
242.99
239.721
236.423
233.131
229.987
227.418
225.161
222.961
220.765
218.565
216.36
214.154
211.949
209.75
207.557
205.374
203.2
201.039
198.874
196.765
194.673
191.221
1.72931
0.89615
0.80866
0.842768
0.928522
1.05349
1.21522
1.41298
1.64533
1.9093
2.20082
2.51542
2.84892
3.19782
3.55941
3.93176
4.31378
4.70516
5.10665
5.52017
5.94921
6.39927
6.87838
7.39781
7.97257
8.62196
9.36878
10.2367
11.243
12.3757
13.5716
14.6737
15.1345
15.4546
15.7579
16.1528
16.8482
18.1215
19.4595
20.8627
22.4633
23.9465
25.4801
26.8228
28.2342
29.7057
31.2254
32.8
34.4265
36.1075
37.8429
39.6337
41.4806
43.3842
45.345
47.3636
49.4404
51.5759
53.7705
56.0243
58.3377
60.7105
63.1427
65.6341
68.1846
70.7937
73.461
76.1858
78.9674
81.8049
84.6973
87.6435
90.642
93.6914
96.79
99.936
103.127
106.362
109.637
112.951
116.301
119.683
123.094
126.532
129.993
133.472
136.967
140.472
143.984
147.499
151.012
154.519
158.017
161.504
164.978
168.441
171.895
175.347
178.785
182.181
185.537
188.845
192.101
195.299
198.435
201.503
204.5
207.42
210.257
213.009
215.67
218.236
220.702
223.066
225.321
227.466
229.497
231.41
233.202
234.87
236.412
237.825
239.107
240.256
241.27
242.148
242.89
243.495
243.963
244.29
244.461
244.499
244.402
244.176
243.819
243.324
242.697
241.939
241.053
240.042
238.909
237.657
236.288
234.808
233.218
231.524
229.729
227.837
225.854
223.783
221.63
219.399
217.095
214.724
212.289
209.797
207.253
204.661
202.029
199.362
196.672
193.98
191.352
188.922
186.63
184.385
182.154
179.928
177.708
175.495
173.292
171.104
168.935
166.789
164.675
162.609
160.605
158.754
157.099
155.478
2.79694
1.34095
1.14905
1.15121
1.2292
1.35512
1.52082
1.72301
1.9591
2.22597
2.51999
2.83734
3.17456
3.52881
3.89805
4.28097
4.67699
5.08624
5.50956
5.94859
6.40587
6.88505
7.39098
7.92987
8.50914
9.13703
9.82126
10.5665
11.37
12.2153
13.068
13.8781
14.6039
15.3301
16.1068
16.9756
17.973
19.102
20.291
21.5362
22.8097
24.1059
25.4225
26.7432
28.1083
29.5224
30.985
32.4974
34.0597
35.673
37.3379
39.0551
40.8254
42.6495
44.5279
46.4612
48.4498
50.4942
52.5948
54.7521
56.9664
59.2377
61.5664
63.9523
66.3955
68.8958
71.4529
74.0666
76.7361
79.461
82.2403
85.0732
87.9586
90.8952
93.8816
96.9161
99.9971
103.122
106.29
109.498
112.743
116.023
119.334
122.675
126.041
129.429
132.836
136.257
139.69
143.13
146.574
150.019
153.46
156.896
160.325
163.744
167.153
170.546
173.913
177.243
180.532
183.774
186.965
190.099
193.17
196.175
199.107
201.963
204.736
207.424
210.021
212.522
214.924
217.222
219.412
221.492
223.457
225.304
227.03
228.632
230.108
231.455
232.671
233.754
234.704
235.518
236.196
236.737
237.142
237.402
237.508
237.497
237.346
237.064
236.65
236.102
235.423
234.617
233.685
232.63
231.455
230.164
228.761
227.247
225.628
223.908
222.091
220.181
218.182
216.1
213.939
211.703
209.399
207.031
204.603
202.122
199.592
197.018
194.407
191.765
189.101
186.432
183.795
181.249
178.776
176.341
173.924
171.518
169.124
166.745
164.383
162.043
159.73
157.452
155.218
153.047
150.969
149.07
147.396
145.937
3.87733
1.79919
1.49776
1.46749
1.53438
1.6582
1.82527
2.02977
2.26806
2.53687
2.83285
3.15272
3.49353
3.85288
4.22907
4.62108
5.02852
5.45159
5.89097
6.34785
6.82392
7.32136
7.84283
8.39151
8.97099
9.58509
10.2375
10.9308
11.6654
12.4371
13.2363
14.0518
14.8815
15.7411
16.6444
17.6029
18.6224
19.6983
20.8195
21.9821
23.1969
24.4483
25.7354
27.0592
28.4274
29.8432
31.3078
32.8222
34.3873
36.0041
37.6735
39.3964
41.1737
43.0064
44.8957
46.8418
48.8454
50.9072
53.0279
55.2081
57.4484
59.7493
62.1112
64.5344
67.0191
69.5655
72.1736
74.8432
77.574
80.3657
83.2176
86.1291
89.0992
92.1267
95.2105
98.349
101.54
104.783
108.075
111.413
114.795
118.219
121.681
125.178
128.707
132.264
135.846
139.448
143.068
146.7
150.341
153.987
157.634
161.278
164.915
168.539
172.145
175.728
179.28
182.793
186.263
189.683
193.047
196.351
199.587
202.751
205.837
208.84
211.754
214.575
217.297
219.915
222.426
224.824
227.105
229.265
231.301
233.21
234.987
236.63
238.137
239.504
240.73
241.813
242.752
243.545
244.192
244.692
245.044
245.233
245.281
245.19
244.952
244.573
244.052
243.391
242.592
241.658
240.591
239.396
238.075
236.633
235.073
233.399
231.616
229.728
227.74
225.657
223.484
221.225
218.887
216.474
213.992
211.445
208.84
206.183
203.477
200.73
197.947
195.135
192.303
189.464
186.64
183.863
181.13
178.427
175.745
173.079
170.431
167.803
165.201
162.629
160.094
157.605
155.174
152.826
150.593
148.549
146.731
145.098
4.91219
2.24551
1.83551
1.77225
1.82587
1.94495
2.11056
2.31453
2.55221
2.82008
3.11498
3.434
3.77457
4.13461
4.51266
4.90785
5.31986
5.74889
6.19552
6.66074
7.14583
7.6524
8.18229
8.73758
9.32055
9.93357
10.579
11.2591
11.9753
12.7279
13.5156
14.3366
15.1916
16.0839
17.0173
17.995
19.0187
20.0877
21.2013
22.3602
23.566
24.8163
26.111
27.4511
28.8389
30.2762
31.7647
33.3056
34.9
36.5493
38.2546
40.0171
41.8379
43.718
45.6583
47.6604
49.7254
51.8544
54.0485
56.3087
58.6358
61.0307
63.4941
66.0268
68.6293
71.3019
74.045
76.8587
79.7429
82.6975
85.7219
88.8158
91.9781
95.2078
98.5037
101.864
105.288
108.772
112.315
115.914
119.566
123.268
127.017
130.81
134.642
138.509
142.408
146.334
150.282
154.248
158.227
162.213
166.203
170.19
174.168
178.132
182.075
185.989
189.869
193.707
197.495
201.229
204.9
208.504
212.032
215.479
218.839
222.105
225.272
228.333
231.283
234.117
236.829
239.415
241.869
244.188
246.367
248.403
250.292
252.031
253.617
255.047
256.32
257.434
258.386
259.177
259.805
260.272
260.567
260.689
260.663
260.476
260.129
259.626
258.967
258.155
257.192
256.083
254.831
253.438
251.911
250.252
248.467
246.561
244.538
242.403
240.163
237.822
235.387
232.862
230.254
227.569
224.813
221.991
219.11
216.176
213.195
210.172
207.116
204.032
200.928
197.816
194.712
191.634
188.587
185.565
182.566
179.587
176.633
173.706
170.812
167.957
165.148
162.396
159.716
157.133
154.679
152.419
150.37
148.442
5.86303
2.66253
2.14855
2.05207
2.0907
2.2027
2.36418
2.56478
2.79887
3.0626
3.35292
3.66716
4.00305
4.35881
4.73313
5.12528
5.53502
5.96254
6.40843
6.8736
7.35924
7.86675
8.39774
8.95394
9.53722
10.1495
10.7928
11.4691
12.1799
12.9268
13.7104
14.5316
15.3912
16.2908
17.2319
18.2161
19.2446
20.3181
21.4377
22.6044
23.8193
25.0828
26.3956
27.7588
29.1738
30.6422
32.1656
33.7457
35.3839
37.0817
38.8408
40.6626
42.5488
44.5008
46.5201
48.6084
50.7673
52.9983
55.3028
57.6822
60.1378
62.671
65.2828
67.9743
70.7463
73.5997
76.5349
79.5525
82.6526
85.8352
89.1
92.4465
95.874
99.3815
102.968
106.631
110.369
114.18
118.061
122.01
126.023
130.097
134.228
138.412
142.645
146.921
151.236
155.585
159.962
164.362
168.779
173.207
177.638
182.067
186.487
190.889
195.267
199.613
203.918
208.176
212.378
216.517
220.586
224.576
228.481
232.293
236.005
239.61
243.101
246.471
249.715
252.825
255.797
258.623
261.301
263.824
266.187
268.388
270.421
272.284
273.974
275.488
276.823
277.978
278.952
279.744
280.353
280.779
281.007
281.059
280.935
280.632
280.152
279.497
278.669
277.672
276.51
275.185
273.704
272.069
270.287
268.362
266.299
264.105
261.785
259.346
256.793
254.132
251.372
248.517
245.574
242.551
239.454
236.29
233.065
229.787
226.462
223.096
219.698
216.273
212.83
209.379
205.932
202.502
199.096
195.714
192.357
189.026
185.725
182.459
179.233
176.055
172.933
169.88
166.911
164.05
161.33
158.804
156.472
154.201
6.70256
3.03695
2.42668
2.29743
2.31979
2.42263
2.57759
2.77223
2.99998
3.2567
3.53931
3.84535
4.17281
4.52014
4.88623
5.27049
5.67275
6.09327
6.53269
6.99197
7.4723
7.97505
8.50179
9.05416
9.63353
10.242
10.8813
11.5535
12.2601
13.0029
13.7832
14.6023
15.4615
16.3621
17.3057
18.2934
19.3269
20.4072
21.5358
22.7141
23.9434
25.2248
26.5598
27.9497
29.3961
30.9008
32.4658
34.0929
35.7841
37.5413
39.3666
41.2619
43.2292
45.2705
47.388
49.5836
51.8594
54.2173
56.6595
59.1876
61.8035
64.509
67.3056
70.1947
73.1777
76.2557
79.4295
82.6999
86.0672
89.5316
93.0931
96.7512
100.505
104.354
108.296
112.329
116.452
120.662
124.956
129.33
133.781
138.305
142.897
147.553
152.267
157.034
161.848
166.702
171.591
176.507
181.443
186.392
191.346
196.296
201.236
206.155
211.045
215.898
220.703
225.454
230.139
234.752
239.283
243.724
248.066
252.301
256.42
260.415
264.279
268.004
271.583
275.009
278.275
281.376
284.305
287.057
289.627
292.01
294.203
296.202
298.003
299.604
301.003
302.198
303.188
303.972
304.55
304.917
305.068
305.026
304.781
304.335
303.693
302.855
301.826
300.609
299.209
297.631
295.879
293.959
291.878
289.641
287.254
284.724
282.059
279.264
276.348
273.317
270.18
266.942
263.613
260.199
256.709
253.15
249.529
245.854
242.132
238.371
234.579
230.762
226.928
223.088
219.251
215.429
211.627
207.851
204.103
200.387
196.707
193.069
189.48
185.948
182.482
179.095
175.804
172.632
169.61
166.78
164.127
161.491
7.41418
3.36021
2.66347
2.50256
2.50782
2.59979
2.74613
2.93258
3.15171
3.39905
3.67151
3.96675
4.28299
4.61889
4.97359
5.34663
5.73792
6.14762
6.57659
7.02595
7.49696
7.99107
8.50992
9.05539
9.62901
10.2321
10.8663
11.5335
12.2352
12.9734
13.7495
14.5651
15.4218
16.3211
17.2645
18.2537
19.2902
20.3758
21.5123
22.7014
23.9454
25.2473
26.6076
28.0278
29.5093
31.0548
32.667
34.3482
36.1009
37.9274
39.8304
41.8122
43.8754
46.0227
48.2566
50.5797
52.9946
55.5039
58.1101
60.8155
63.6226
66.5336
69.5504
72.6751
75.9092
79.2543
82.7116
86.2821
89.9663
93.7646
97.6769
101.703
105.842
110.092
114.452
118.92
123.493
128.169
132.943
137.812
142.772
147.817
152.943
158.142
163.411
168.74
174.125
179.556
185.027
190.529
196.054
201.593
207.136
212.674
218.198
223.696
229.16
234.578
239.941
245.239
250.461
255.597
260.638
265.573
270.394
275.089
279.651
284.069
288.336
292.442
296.38
300.141
303.719
307.107
310.298
313.287
316.068
318.636
320.987
323.117
325.023
326.702
328.152
329.371
330.359
331.115
331.64
331.923
331.978
331.807
331.41
330.79
329.951
328.895
327.628
326.153
324.476
322.602
320.539
318.292
315.869
313.275
310.52
307.611
304.554
301.36
298.035
294.589
291.029
287.364
283.603
279.755
275.827
271.828
267.768
263.653
259.493
255.295
251.067
246.818
242.555
238.287
234.023
229.775
225.548
221.349
217.183
213.055
208.969
204.934
200.956
197.044
193.208
189.462
185.823
182.313
178.958
175.796
172.796
169.784
7.98902
3.62778
2.85619
2.6644
2.65304
2.73272
2.86869
3.04511
3.2538
3.48996
3.75044
4.03307
4.33618
4.65849
4.99956
5.35944
5.73861
6.1383
6.55799
6.99844
7.46078
7.94636
8.45664
8.99305
9.55713
10.1507
10.7756
11.4337
12.1269
12.8572
13.6262
14.4358
15.2878
16.1841
17.1265
18.117
19.1576
20.2504
21.3975
22.6012
23.8634
25.1859
26.5715
28.023
29.5441
31.1365
32.8033
34.5477
36.3725
38.2808
40.2755
42.3598
44.5369
46.8099
49.1821
51.6567
54.2369
56.9259
59.7268
62.6426
65.6762
68.8304
72.1078
75.5105
79.0409
82.7005
86.491
90.4135
94.4687
98.657
102.978
107.432
112.017
116.732
121.575
126.543
131.634
136.843
142.166
147.599
153.135
158.771
164.498
170.31
176.199
182.158
188.179
194.251
200.367
206.516
212.688
218.874
225.061
231.239
237.397
243.523
249.606
255.633
261.594
267.476
273.268
278.959
284.538
289.993
295.313
300.488
305.508
310.362
315.04
319.533
323.833
327.93
331.818
335.488
338.933
342.148
345.126
347.863
350.353
352.594
354.581
356.313
357.787
359.002
359.957
360.653
361.088
361.259
361.177
360.84
360.252
359.418
358.342
357.027
355.479
353.703
351.707
349.496
347.078
344.461
341.652
338.66
335.493
332.161
328.672
325.036
321.262
317.359
313.337
309.205
304.974
300.652
296.25
291.776
287.24
282.651
278.018
273.349
268.654
263.939
259.215
254.49
249.772
245.072
240.396
235.753
231.147
226.586
222.075
217.623
213.236
208.924
204.699
200.575
196.566
192.696
188.987
185.47
182.106
178.712
8.42604
3.83815
3.00426
2.78369
2.7561
2.82263
2.94694
3.11193
3.30881
3.5325
3.77959
4.04851
4.33836
4.64909
4.97919
5.3281
5.6957
6.08184
6.48737
6.91371
7.36217
7.8341
8.33096
8.8543
9.40588
9.98771
10.6017
11.2497
11.9335
12.6552
13.4168
14.2204
15.0681
15.962
16.9045
17.898
18.9448
20.0474
21.2086
22.4309
23.7172
25.0703
26.4933
27.9896
29.5601
31.2094
32.9427
34.7643
36.6777
38.6863
40.7936
43.0035
45.3197
47.7461
50.2868
52.9456
55.7263
58.6329
61.669
64.8383
68.1443
71.5901
75.1787
78.913
82.7953
86.8276
91.0116
95.3484
99.8388
104.483
109.281
114.231
119.332
124.583
129.98
135.52
141.199
147.013
152.955
159.022
165.205
171.498
177.893
184.382
190.955
197.604
204.318
211.087
217.9
224.746
231.613
238.489
245.36
252.216
259.042
265.826
272.554
279.214
285.791
292.274
298.649
304.904
311.025
317.002
322.821
328.471
333.94
339.218
344.293
349.157
353.798
358.209
362.38
366.304
369.974
373.382
376.524
379.393
381.985
384.297
386.325
388.068
389.522
390.688
391.566
392.155
392.456
392.469
392.201
391.649
390.822
389.727
388.366
386.744
384.869
382.746
380.383
377.789
374.972
371.94
368.703
365.269
361.65
357.855
353.894
349.777
345.516
341.121
336.601
331.969
327.235
322.408
317.5
312.521
307.481
302.39
297.257
292.093
286.905
281.702
276.495
271.29
266.099
260.928
255.787
250.684
245.624
240.616
235.666
230.783
225.974
221.25
216.623
212.105
207.713
203.468
199.389
195.501
191.761
187.986
8.73092
3.99292
3.1095
2.86333
2.81993
2.87284
2.98458
3.137
3.32121
3.53259
3.76883
4.02683
4.30479
4.60107
4.9154
5.24812
5.59955
5.97028
6.3616
6.77428
7.20944
7.66842
8.15272
8.66398
9.20401
9.77475
10.3782
11.0164
11.6916
12.406
13.1618
13.9617
14.808
15.7034
16.6506
17.6525
18.712
19.8324
21.0165
22.2678
23.5899
24.9867
26.4605
28.0136
29.6499
31.3772
33.1998
35.1227
37.1518
39.2907
41.5436
43.9149
46.4092
49.0311
51.7854
54.6765
57.7092
60.8878
64.2168
67.7002
71.3419
75.1457
79.1148
83.2521
87.5601
92.0409
96.696
101.526
106.533
111.714
117.07
122.599
128.299
134.167
140.199
146.391
152.737
159.232
165.869
172.641
179.54
186.557
193.682
200.907
208.22
215.609
223.064
230.573
238.121
245.697
253.288
260.878
268.454
276.002
283.507
290.955
298.331
305.619
312.807
319.878
326.82
333.619
340.26
346.73
353.016
359.106
364.988
370.649
376.079
381.266
386.201
390.874
395.276
399.4
403.237
406.782
410.028
412.971
415.604
417.927
419.934
421.625
422.999
424.054
424.792
425.214
425.32
425.118
424.601
423.776
422.654
421.24
419.539
417.557
415.301
412.78
410.003
406.977
403.714
400.223
396.514
392.598
388.487
384.191
379.721
375.09
370.309
365.39
360.344
355.183
349.919
344.562
339.126
333.619
328.054
322.442
316.792
311.113
305.417
299.712
294.007
288.311
282.634
276.983
271.368
265.797
260.276
254.815
249.42
244.099
238.863
233.72
228.683
223.765
218.982
214.352
209.894
205.629
201.509
197.357
8.91599
4.09672
3.17573
2.90739
2.84891
2.88804
2.98744
3.12933
3.30332
3.50342
3.72541
3.96782
4.22968
4.51046
4.81023
5.12882
5.46652
5.82394
6.202
6.60173
7.02435
7.47128
7.94413
8.44465
8.97479
9.53662
10.1323
10.7643
11.435
12.147
12.9031
13.7063
14.5596
15.4659
16.4286
17.4513
18.5379
19.6923
20.9176
22.2174
23.5945
25.0503
26.5929
28.2296
29.9665
31.8088
33.7616
35.8307
38.0225
40.342
42.7944
45.385
48.1194
51.0029
54.0409
57.2387
60.6014
64.134
67.8412
71.7274
75.7969
80.0534
84.5
89.1397
93.9745
99.0062
104.236
109.663
115.288
121.11
127.126
133.334
139.73
146.311
153.07
160.001
167.099
174.356
181.762
189.31
196.989
204.788
212.698
220.705
228.797
236.962
245.185
253.454
261.752
270.067
278.382
286.682
294.952
303.176
311.337
319.42
327.408
335.287
343.039
350.651
358.106
365.39
372.488
379.386
386.071
392.529
398.748
404.715
410.418
415.848
420.993
425.844
430.392
434.629
438.548
442.142
445.406
448.335
450.924
453.171
455.073
456.629
457.839
458.703
459.223
459.399
459.241
458.743
457.903
456.738
455.253
453.457
451.353
448.951
446.257
443.283
440.038
436.532
432.776
428.782
424.56
420.123
415.482
410.651
405.642
400.467
395.139
389.671
384.076
378.365
372.553
366.65
360.67
354.623
348.522
342.377
336.201
330.002
323.791
317.578
311.372
305.181
299.016
292.884
286.795
280.757
274.777
268.864
263.025
257.27
251.607
246.047
240.601
235.283
230.108
225.093
220.254
215.611
211.113
206.594
8.97571
4.14923
3.2054
2.91955
2.84848
2.87756
2.96669
3.09584
3.25556
3.44086
3.6489
3.87791
4.12666
4.39455
4.68145
4.98747
5.31304
5.65885
6.02584
6.41515
6.82817
7.26646
7.73183
8.22629
8.75208
9.31156
9.90723
10.5418
11.2181
11.9394
12.7092
13.5317
14.4099
15.3473
16.3476
17.4146
18.5508
19.7589
21.0464
22.4193
23.884
25.4478
27.1158
28.8949
30.7917
32.8127
34.9644
37.2541
39.688
42.2725
45.0141
47.9195
50.995
54.2468
57.6806
61.3021
65.1165
69.1288
73.3439
77.7659
82.3986
87.2453
92.3084
97.59
103.091
108.812
114.753
120.913
127.289
133.879
140.678
147.683
154.888
162.287
169.871
177.635
185.568
193.66
201.902
210.283
218.79
227.411
236.133
244.943
253.825
262.766
271.75
280.761
289.784
298.803
307.8
316.76
325.665
334.498
343.243
351.882
360.399
368.777
376.999
385.05
392.913
400.574
408.017
415.228
422.194
428.9
435.334
441.483
447.337
452.884
458.114
463.018
467.588
471.815
475.692
479.215
482.377
485.175
487.604
489.663
491.349
492.664
493.605
494.177
494.38
494.224
493.705
492.815
491.574
489.988
488.066
485.814
483.24
480.352
477.161
473.677
469.911
465.875
461.581
457.041
452.268
447.274
442.074
436.679
431.105
425.364
419.47
413.438
407.279
401.009
394.639
388.183
381.654
375.065
368.426
361.751
355.05
348.334
341.614
334.899
328.198
321.521
314.876
308.273
301.721
295.226
288.798
282.445
276.174
269.995
263.916
257.948
252.103
246.394
240.835
235.442
230.227
225.213
220.347
215.477
8.95734
4.15939
3.20517
2.90985
2.82912
2.84527
2.92084
3.0372
3.18489
3.35849
3.55497
3.77256
4.01025
4.26757
4.54447
4.84126
5.15855
5.49723
5.85842
6.24344
6.6539
7.09167
7.5589
8.05809
8.59231
9.16461
9.77753
10.4343
11.1383
11.8931
12.7017
13.5657
14.491
15.4838
16.5497
17.6943
18.9243
20.2466
21.6665
23.1912
24.8281
26.5853
28.4702
30.4903
32.6532
34.9669
37.4389
40.0773
42.8895
45.8833
49.0665
52.447
56.0324
59.8284
63.8403
68.0731
72.5312
77.2189
82.1398
87.2967
92.6919
98.327
104.203
110.319
116.674
123.267
130.095
137.153
144.438
151.945
159.665
167.594
175.722
184.04
192.539
201.209
210.038
219.014
228.125
237.358
246.699
256.133
265.647
275.224
284.85
294.507
304.18
313.853
323.507
333.126
342.693
352.191
361.602
370.908
380.092
389.137
398.026
406.742
415.269
423.59
431.689
439.552
447.163
454.509
461.576
468.351
474.821
480.975
486.801
492.29
497.432
502.217
506.639
510.69
514.365
517.657
520.563
523.079
525.202
526.932
528.266
529.208
529.754
529.913
529.694
529.086
528.088
526.718
524.981
522.887
520.444
517.659
514.541
511.101
507.35
503.3
498.962
494.35
489.477
484.355
478.998
473.421
467.636
461.659
455.504
449.185
442.718
436.115
429.392
422.562
415.639
408.636
401.567
394.445
387.282
380.089
372.88
365.664
358.452
351.253
344.078
336.935
329.833
322.78
315.786
308.858
302.004
295.233
288.552
281.969
275.496
269.14
262.915
256.832
250.905
245.148
239.574
234.203
228.985
223.789
8.89803
4.14918
3.18866
2.88073
2.78772
2.79292
2.85808
2.96431
3.10215
3.26647
3.4544
3.66434
3.89545
4.14747
4.42057
4.71536
5.03292
5.37499
5.74288
6.13809
6.56268
7.01899
7.50956
8.03684
8.60265
9.20931
9.86267
10.5677
11.3295
12.1531
13.0445
14.0106
15.0572
16.1906
17.4181
18.7476
20.1876
21.7467
23.4334
25.2565
27.2251
29.3488
31.6366
34.0977
36.7411
39.5755
42.6091
45.8489
49.3016
52.9773
56.8849
61.0341
65.4364
70.0924
75.0035
80.1717
85.5985
91.2851
97.2316
103.438
109.902
116.623
123.596
130.818
138.285
145.99
153.926
162.088
170.465
179.05
187.833
196.804
205.951
215.263
224.729
234.335
244.068
253.914
263.86
273.891
283.992
294.147
304.342
314.56
324.785
335.002
345.192
355.34
365.429
375.441
385.36
395.169
404.85
414.387
423.763
432.962
441.966
450.759
459.327
467.653
475.723
483.522
491.036
498.252
505.157
511.74
517.989
523.893
529.442
534.626
539.437
543.869
547.912
551.563
554.815
557.665
560.108
562.144
563.768
564.985
565.787
566.191
566.172
565.791
564.973
563.766
562.171
560.194
557.845
555.133
552.067
548.654
544.905
540.833
536.449
531.766
526.797
521.555
516.055
510.31
504.334
498.143
491.75
485.171
478.42
471.514
464.466
457.292
450.005
442.621
435.154
427.616
420.021
412.383
404.713
397.025
389.329
381.637
373.958
366.303
358.68
351.099
343.568
336.095
328.688
321.356
314.105
306.944
299.881
292.924
286.081
279.364
272.783
266.35
260.077
253.979
248.065
242.358
236.807
231.312
8.77747
4.11502
3.15174
2.83652
2.73687
2.73564
2.79493
2.89632
3.03062
3.19306
3.38133
3.59436
3.83132
4.09225
4.37771
4.68856
5.02566
5.38922
5.78168
6.2067
6.66772
7.16841
7.71282
8.30556
8.95229
9.65904
10.4311
11.2752
12.1989
13.21
14.3175
15.5308
16.8593
18.3126
19.9012
21.6359
23.5282
25.5894
27.8309
30.2641
32.9
35.7493
38.8221
42.1284
45.6771
49.4766
53.5336
57.8542
62.4442
67.3097
72.4565
77.8918
83.6189
89.6313
95.9247
102.495
109.337
116.445
123.815
131.438
139.309
147.419
155.759
164.32
173.094
182.069
191.236
200.583
210.099
219.773
229.592
239.545
249.619
259.801
270.078
280.438
290.866
301.348
311.872
322.422
332.985
343.547
354.092
364.606
375.073
385.48
395.811
406.05
416.181
426.191
436.062
445.781
455.33
464.696
473.863
482.815
491.539
500.018
508.24
516.19
523.855
531.222
538.277
545.011
551.41
557.466
563.168
568.506
573.47
578.054
582.25
586.052
589.454
592.45
595.039
597.216
598.977
600.326
601.25
601.773
601.861
601.579
600.862
599.739
598.214
596.297
593.993
591.31
588.259
584.849
581.089
576.986
572.554
567.805
562.752
557.408
551.787
545.903
539.77
533.402
526.814
520.022
513.039
505.881
498.564
491.102
483.511
475.806
468.001
460.11
452.148
444.127
436.06
427.962
419.844
411.718
403.596
395.487
387.402
379.35
371.34
363.381
355.48
347.645
339.884
332.205
324.613
317.118
309.725
302.445
295.284
288.253
281.362
274.622
268.045
261.645
255.43
249.424
243.575
237.824
8.65543
4.06138
3.10626
2.79255
2.69345
2.69371
2.75703
2.86483
3.00809
3.18213
3.38411
3.61204
3.86734
4.15125
4.46543
4.81207
5.19404
5.61541
6.07999
6.5923
7.15795
7.78336
8.47586
9.24366
10.096
11.0425
12.0936
13.2605
14.5558
15.9925
17.5844
19.3457
21.2909
23.4346
25.7917
28.3768
31.2037
34.2853
37.6341
41.2617
45.1783
49.3916
53.9076
58.7317
63.8686
69.3201
75.0848
81.1608
87.5483
94.2446
101.246
108.56
116.148
123.999
132.104
140.449
149.022
157.811
166.803
175.985
185.346
194.872
204.553
214.375
224.327
234.398
244.575
254.847
265.204
275.634
286.126
296.668
307.251
317.863
328.492
339.128
349.76
360.377
370.966
381.518
392.019
402.46
412.827
423.109
433.294
443.369
453.322
463.14
472.81
482.319
491.654
500.803
509.752
518.488
526.998
535.268
543.286
551.04
558.517
565.705
572.592
579.167
585.418
591.336
596.911
602.135
606.998
611.492
615.608
619.34