/*--------------------------------*- C++ -*----------------------------------*\
  =========                 |
  \\      /  F ield         | OpenFOAM: The Open Source CFD Toolbox
   \\    /   O peration     | Website:  https://openfoam.org
    \\  /    A nd           | Version:  8
     \\/     M anipulation  |
\*---------------------------------------------------------------------------*/
FoamFile
{
    version     2.0;
    format      ascii;
    class       volScalarField;
    location    "285";
    object      k;
}
// * * * * * * * * * * * * * * * * * * * * * * * * * * * * * * * * * * * * * //

dimensions      [0 2 -2 0 0 0 0];

internalField   nonuniform List<scalar> 
12225
(
0.362828
0.34399
0.327753
0.309809
0.295411
0.283467
0.275529
0.270278
0.270336
0.271886
0.276041
0.280714
0.289803
0.295749
0.306749
0.312735
0.325188
0.327542
0.440271
0.468738
0.461616
0.44837
0.450343
0.458314
0.474575
0.498484
0.524413
0.55206
0.580732
0.606102
0.633778
0.653796
0.679642
0.692934
0.717951
0.724233
0.390407
0.41786
0.420244
0.41683
0.411634
0.407802
0.408019
0.410035
0.414564
0.42138
0.430717
0.439702
0.451148
0.461135
0.472781
0.483496
0.493436
0.505745
0.377043
0.387169
0.391466
0.391343
0.39026
0.387882
0.385662
0.384078
0.382883
0.382896
0.383354
0.384377
0.386268
0.388458
0.390893
0.394223
0.396511
0.40092
0.374434
0.376094
0.378427
0.378665
0.378275
0.3772
0.375489
0.373737
0.37201
0.370455
0.369255
0.368109
0.367379
0.366801
0.36644
0.366327
0.366343
0.366686
0.373779
0.372704
0.372659
0.372365
0.371773
0.370818
0.369554
0.368083
0.366572
0.364977
0.363528
0.362063
0.360756
0.359528
0.358397
0.357425
0.356436
0.355779
0.373775
0.37174
0.370388
0.369284
0.368235
0.367114
0.365915
0.364587
0.363239
0.361808
0.360423
0.359024
0.357679
0.356384
0.355122
0.353968
0.352795
0.351803
0.373818
0.371559
0.369635
0.367976
0.366501
0.365108
0.363776
0.36243
0.361108
0.359767
0.358451
0.357145
0.355865
0.354624
0.353403
0.352252
0.351101
0.350054
0.373832
0.371553
0.369449
0.367525
0.365777
0.364154
0.362645
0.361199
0.359818
0.358474
0.357171
0.355904
0.354669
0.353477
0.352309
0.351198
0.350099
0.349075
0.373831
0.37156
0.369418
0.367405
0.365529
0.363773
0.362133
0.360585
0.359122
0.357728
0.356395
0.355119
0.353889
0.352712
0.351571
0.350483
0.349422
0.348422
0.373829
0.37156
0.369413
0.367378
0.365458
0.363645
0.361937
0.360324
0.358799
0.357353
0.35598
0.354673
0.353425
0.352237
0.351095
0.35001
0.348961
0.34797
0.373828
0.371558
0.369409
0.36737
0.365439
0.363609
0.361876
0.360234
0.358678
0.357202
0.3558
0.354469
0.353201
0.351995
0.350843
0.349748
0.348696
0.347702
0.373827
0.371556
0.369405
0.367365
0.36543
0.363593
0.361851
0.360197
0.358626
0.357134
0.355716
0.354368
0.353085
0.351865
0.350701
0.349595
0.348536
0.347532
0.373826
0.371555
0.369401
0.367359
0.365422
0.363583
0.361837
0.360178
0.3586
0.357101
0.355674
0.354317
0.353025
0.351795
0.350622
0.349506
0.34844
0.347427
0.373826
0.371553
0.369398
0.367355
0.365416
0.363575
0.361826
0.360164
0.358584
0.357081
0.355651
0.35429
0.352993
0.351758
0.35058
0.349458
0.348388
0.347368
0.373826
0.371552
0.369396
0.367351
0.36541
0.363567
0.361817
0.360153
0.358571
0.357067
0.355634
0.35427
0.352971
0.351734
0.350554
0.349429
0.348356
0.347333
0.373825
0.371551
0.369394
0.367348
0.365406
0.363562
0.36181
0.360145
0.358561
0.357055
0.355621
0.354256
0.352955
0.351716
0.350534
0.349408
0.348333
0.347308
0.373825
0.371551
0.369393
0.367346
0.365403
0.363558
0.361805
0.360139
0.358554
0.357047
0.355612
0.354245
0.352943
0.351703
0.35052
0.349392
0.348316
0.347289
0.373825
0.37155
0.369393
0.367345
0.365402
0.363557
0.361804
0.360137
0.358552
0.357043
0.355608
0.35424
0.352938
0.351696
0.350513
0.349384
0.348307
0.34728
0.373825
0.371551
0.369393
0.367347
0.365404
0.363559
0.361806
0.360139
0.358554
0.357046
0.355611
0.354244
0.352941
0.3517
0.350516
0.349388
0.348311
0.347284
0.373825
0.371551
0.369395
0.367349
0.365407
0.363563
0.361811
0.360145
0.358562
0.357055
0.355621
0.354255
0.352954
0.351715
0.350533
0.349406
0.348332
0.347307
0.373826
0.371552
0.369397
0.367352
0.365412
0.363571
0.361822
0.360161
0.358583
0.357083
0.355656
0.354298
0.353006
0.351774
0.350602
0.349482
0.348416
0.347397
0.373826
0.371554
0.369399
0.367359
0.365428
0.363602
0.361875
0.36024
0.35869
0.35722
0.355823
0.354493
0.353227
0.352018
0.350865
0.349762
0.34871
0.3477
0.373828
0.371551
0.369412
0.367417
0.365556
0.363819
0.362189
0.360651
0.359189
0.357793
0.356456
0.355171
0.353935
0.352745
0.3516
0.350495
0.349435
0.348409
0.373823
0.371554
0.369604
0.367893
0.366339
0.364892
0.363495
0.362122
0.360761
0.359413
0.35808
0.356769
0.355488
0.354237
0.353028
0.351855
0.350733
0.349644
0.373781
0.37199
0.371113
0.370265
0.36936
0.368311
0.367048
0.365629
0.36412
0.362575
0.36103
0.359522
0.358073
0.356682
0.355381
0.354141
0.353009
0.351923
0.374297
0.375564
0.377778
0.377858
0.377291
0.375885
0.373835
0.371641
0.369505
0.367482
0.365664
0.364084
0.36271
0.361535
0.36061
0.359818
0.359289
0.358801
0.378732
0.394393
0.398293
0.396565
0.392558
0.387608
0.383642
0.380455
0.378266
0.376852
0.376497
0.376751
0.3774
0.378699
0.380445
0.382425
0.38483
0.387141
0.408344
0.427539
0.422424
0.411051
0.402227
0.397925
0.398558
0.401119
0.405989
0.413043
0.421001
0.429835
0.438843
0.4482
0.457317
0.466565
0.475334
0.484195
0.366033
0.353412
0.341988
0.33021
0.318982
0.308382
0.299409
0.291674
0.285403
0.280334
0.276682
0.273868
0.272311
0.271186
0.271177
0.271524
0.272158
0.273389
0.000543581
0.00318544
0.00595794
0.00840082
0.0107232
0.0133336
0.016357
0.01996
0.0242363
0.029169
0.0346613
0.0405802
0.0467946
0.053189
0.0596706
0.0661636
0.0726101
0.0789625
0.0851837
0.0912401
0.0970977
0.102716
0.10804
0.112994
0.117471
0.121335
0.124401
0.12643
0.127095
0.125976
0.122451
0.115548
0.120219
0.124889
0.130347
0.141475
0.155804
0.153493
0.151153
0.150614
0.151956
0.147912
0.149026
0.159323
0.165078
0.173549
0.180956
0.189137
0.197209
0.205579
0.21405
0.222712
0.231519
0.240494
0.249622
0.258912
0.268356
0.277959
0.287714
0.297625
0.307684
0.317894
0.328247
0.338745
0.349379
0.360149
0.371046
0.382068
0.393206
0.404458
0.415812
0.427266
0.438807
0.450432
0.462127
0.473889
0.485702
0.497562
0.509454
0.521373
0.533301
0.545233
0.557152
0.569053
0.580914
0.592731
0.604483
0.616162
0.627748
0.639228
0.650583
0.661792
0.672832
0.683681
0.694316
0.70472
0.714885
0.724841
0.734674
0.744229
0.753579
0.762682
0.771544
0.780148
0.788485
0.796544
0.804316
0.811792
0.818961
0.825816
0.832346
0.838546
0.844407
0.849922
0.855083
0.859887
0.864324
0.868393
0.872087
0.875405
0.878341
0.880892
0.883053
0.884825
0.886204
0.887192
0.887784
0.887975
0.887829
0.887324
0.886365
0.884976
0.883184
0.881104
0.878706
0.875879
0.872709
0.869184
0.865318
0.861117
0.85659
0.851748
0.8466
0.841152
0.835414
0.829398
0.823115
0.816574
0.80979
0.802773
0.795535
0.78809
0.78045
0.772627
0.764635
0.756487
0.748197
0.739778
0.731246
0.72262
0.713931
0.705249
0.697075
0.691767
0.687829
0.683968
0.680074
0.676138
0.672165
0.668159
0.664127
0.660069
0.655979
0.651842
0.647625
0.643247
0.638554
0.633101
0.626011
0.600101
0.00279938
0.0116829
0.0177557
0.0222625
0.0262207
0.0300746
0.034181
0.0387464
0.043859
0.049508
0.0556206
0.0620964
0.0688323
0.0757355
0.0827297
0.0897532
0.0967586
0.103709
0.110577
0.117338
0.123969
0.130441
0.136712
0.142723
0.148395
0.153628
0.158312
0.162348
0.165728
0.168591
0.171408
0.175362
0.183161
0.192218
0.202305
0.213228
0.223277
0.230398
0.23999
0.252097
0.262187
0.272918
0.284081
0.296253
0.308528
0.321551
0.334755
0.348337
0.362218
0.376432
0.390956
0.405799
0.420955
0.436428
0.452216
0.468322
0.484745
0.501488
0.518549
0.53593
0.553628
0.571644
0.589975
0.608618
0.62757
0.646828
0.666384
0.686235
0.706373
0.726791
0.74748
0.76843
0.789632
0.811074
0.832743
0.854628
0.876712
0.898983
0.921425
0.94402
0.966752
0.989603
1.01255
1.03558
1.05867
1.0818
1.10494
1.12807
1.15117
1.17422
1.19717
1.22002
1.24271
1.26521
1.28749
1.30949
1.33116
1.35242
1.37322
1.39373
1.41394
1.43381
1.45334
1.47249
1.49125
1.50959
1.52749
1.54494
1.56191
1.57837
1.59433
1.60974
1.62461
1.6389
1.6526
1.6657
1.67818
1.69003
1.70124
1.71178
1.72166
1.73086
1.73936
1.74717
1.75427
1.76065
1.76633
1.77129
1.77554
1.77908
1.78189
1.78387
1.785
1.78552
1.7855
1.78467
1.78312
1.78087
1.77792
1.77429
1.76999
1.76503
1.75942
1.75318
1.74633
1.73887
1.73082
1.72222
1.71306
1.70338
1.69319
1.68251
1.67137
1.65979
1.64778
1.63538
1.62261
1.60949
1.59605
1.58231
1.56831
1.5541
1.53983
1.52595
1.51219
1.49832
1.48433
1.47024
1.45608
1.44187
1.42763
1.41337
1.3991
1.38483
1.37052
1.35615
1.34155
1.32671
1.31026
1.27361
0.00600283
0.0202144
0.0283339
0.0343454
0.0396546
0.0448082
0.0501112
0.0557419
0.0617832
0.068242
0.0750744
0.0822105
0.0895742
0.0970957
0.104717
0.112392
0.120089
0.127786
0.13547
0.143136
0.15078
0.158402
0.165997
0.173553
0.181054
0.188486
0.195852
0.203196
0.210646
0.218435
0.226921
0.236555
0.247675
0.259738
0.272461
0.285565
0.298743
0.312062
0.326197
0.340977
0.355456
0.37036
0.385763
0.401769
0.418165
0.43503
0.452286
0.469936
0.48797
0.50639
0.525194
0.544381
0.563952
0.583907
0.604245
0.624969
0.646076
0.667569
0.689444
0.711703
0.734342
0.75736
0.780752
0.804516
0.828646
0.853136
0.877979
0.903169
0.928695
0.954549
0.980719
1.00719
1.03396
1.06101
1.08831
1.11587
1.14365
1.17165
1.19984
1.2282
1.25671
1.28535
1.3141
1.34292
1.37181
1.40072
1.42964
1.45853
1.48737
1.51613
1.54477
1.57326
1.60158
1.62968
1.65754
1.68511
1.71238
1.73932
1.76591
1.79214
1.81799
1.84341
1.86839
1.89289
1.91688
1.94034
1.96324
1.98554
2.00723
2.02828
2.04866
2.06835
2.08733
2.10556
2.12304
2.13975
2.15565
2.17074
2.18499
2.1984
2.21095
2.22261
2.23339
2.24327
2.25224
2.26029
2.26742
2.27363
2.27892
2.28328
2.28669
2.28913
2.29048
2.291
2.29073
2.28949
2.28732
2.28426
2.2803
2.27547
2.26978
2.26324
2.25587
2.2477
2.23874
2.22901
2.21853
2.20733
2.19543
2.18286
2.16964
2.1558
2.14137
2.12637
2.11084
2.09481
2.0783
2.06135
2.04399
2.02626
2.00819
1.98984
1.97134
1.95292
1.93447
1.91589
1.89718
1.87835
1.85944
1.84048
1.8215
1.80252
1.78357
1.76467
1.74585
1.72712
1.70844
1.6899
1.67028
1.63843
0.00971248
0.0283473
0.0383836
0.0456909
0.0520492
0.0581197
0.0642408
0.0706022
0.0772985
0.0843547
0.091748
0.0994295
0.107341
0.115428
0.123644
0.131957
0.140345
0.148798
0.157319
0.165916
0.174607
0.183414
0.192359
0.201467
0.210758
0.220257
0.229997
0.240034
0.250456
0.261394
0.273001
0.285411
0.298667
0.312653
0.327263
0.3424
0.358004
0.374107
0.390778
0.407934
0.425414
0.443319
0.461665
0.480458
0.499677
0.519343
0.539444
0.55998
0.580949
0.602353
0.624191
0.646466
0.669178
0.69233
0.715921
0.739953
0.764428
0.789344
0.814702
0.8405
0.866738
0.893412
0.92052
0.948057
0.976018
1.0044
1.03319
1.06238
1.09196
1.12193
1.15226
1.18296
1.21399
1.24535
1.27702
1.30899
1.34122
1.37371
1.40642
1.43934
1.47244
1.5057
1.53908
1.57257
1.60613
1.63973
1.67333
1.70692
1.74046
1.7739
1.80723
1.8404
1.87338
1.90614
1.93864
1.97084
2.00273
2.03426
2.0654
2.09612
2.12638
2.15615
2.18539
2.21406
2.24213
2.26956
2.29633
2.3224
2.34774
2.37231
2.39609
2.41904
2.44115
2.46238
2.48271
2.50212
2.52058
2.53806
2.55457
2.57006
2.58453
2.59796
2.61034
2.62165
2.63188
2.64104
2.6491
2.65607
2.66195
2.66673
2.6704
2.67292
2.67419
2.67452
2.67381
2.67199
2.6691
2.66515
2.66016
2.65414
2.64711
2.6391
2.63012
2.62019
2.60935
2.5976
2.58499
2.57154
2.55728
2.54223
2.52643
2.50992
2.49272
2.47486
2.45639
2.43734
2.41774
2.39763
2.37705
2.35604
2.33465
2.31293
2.291
2.26899
2.24687
2.22461
2.2022
2.17967
2.15706
2.13441
2.11176
2.08914
2.0666
2.04419
2.02195
1.99999
1.97834
1.95719
1.93544
1.90613
0.0134681
0.0359918
0.047799
0.056301
0.0635909
0.0704303
0.0772025
0.0841222
0.0913051
0.0987989
0.106605
0.114697
0.123034
0.131577
0.140292
0.149155
0.158153
0.167286
0.176564
0.186007
0.195642
0.205502
0.215624
0.226044
0.236799
0.247921
0.259446
0.271413
0.28387
0.296879
0.3105
0.324781
0.33974
0.355356
0.371601
0.38844
0.405853
0.423832
0.442368
0.46142
0.480946
0.500947
0.521413
0.542339
0.563726
0.585586
0.607922
0.630737
0.654034
0.677817
0.702088
0.72685
0.752106
0.777859
0.804111
0.830864
0.85812
0.885881
0.914146
0.942915
0.972188
1.00196
1.03224
1.06301
1.09426
1.12601
1.15823
1.19092
1.22406
1.25766
1.29168
1.32613
1.36098
1.39622
1.43182
1.46777
1.50405
1.54063
1.57748
1.61458
1.65191
1.68943
1.72711
1.76492
1.80282
1.84079
1.87879
1.91678
1.95472
1.99258
2.03031
2.06789
2.10527
2.14241
2.17927
2.21581
2.25199
2.28778
2.32312
2.35798
2.39231
2.42607
2.45923
2.49174
2.52355
2.55464
2.58495
2.61446
2.64312
2.67091
2.69777
2.7237
2.74864
2.77257
2.79547
2.8173
2.83804
2.85767
2.87616
2.89349
2.90964
2.9246
2.93836
2.95089
2.96218
2.97224
2.98105
2.98861
2.99491
2.99997
3.00376
3.00622
3.00732
3.00735
3.00613
3.00367
3
2.99513
2.98907
2.98186
2.9735
2.96403
2.95347
2.94184
2.92917
2.9155
2.90085
2.88526
2.86876
2.85138
2.83316
2.81414
2.79435
2.77384
2.75264
2.73079
2.70833
2.68531
2.66177
2.63775
2.61331
2.58851
2.56344
2.53819
2.51278
2.4872
2.46146
2.43561
2.40967
2.38371
2.35777
2.33189
2.30616
2.28062
2.25539
2.23058
2.20633
2.18283
2.15916
2.13046
0.0170669
0.0429598
0.0563619
0.0659545
0.0740849
0.0815995
0.0889241
0.0962994
0.103864
0.111688
0.119797
0.128188
0.136839
0.145726
0.154827
0.164128
0.173622
0.183316
0.193225
0.203372
0.21379
0.224514
0.235585
0.247042
0.258924
0.271264
0.284093
0.29744
0.311331
0.325796
0.340861
0.356547
0.372865
0.389816
0.407392
0.425585
0.444383
0.463776
0.483748
0.504281
0.525352
0.546951
0.569068
0.591696
0.614837
0.638496
0.66268
0.687395
0.712645
0.738436
0.764773
0.791661
0.819105
0.847109
0.875676
0.904812
0.934518
0.964797
0.995651
1.02708
1.05909
1.09167
1.12483
1.15855
1.19285
1.2277
1.26311
1.29906
1.33554
1.37255
1.41006
1.44807
1.48655
1.52549
1.56487
1.60465
1.64483
1.68536
1.72623
1.7674
1.80884
1.85052
1.89241
1.93446
1.97664
2.0189
2.06122
2.10354
2.14583
2.18805
2.23014
2.27207
2.31378
2.35524
2.39639
2.43718
2.47758
2.51753
2.55697
2.59587
2.63418
2.67184
2.70882
2.74506
2.78051
2.81514
2.8489
2.88174
2.91362
2.94451
2.97436
3.00314
3.0308
3.05733
3.08267
3.10682
3.12972
3.15137
3.17173
3.19078
3.20851
3.22489
3.2399
3.25354
3.26579
3.27664
3.28609
3.29413
3.30077
3.306
3.30982
3.31214
3.31302
3.31263
3.31085
3.30769
3.30318
3.29733
3.29017
3.28172
3.27201
3.26106
3.2489
3.23557
3.22109
3.2055
3.18884
3.17113
3.15243
3.13276
3.11218
3.09071
3.06841
3.04531
3.02147
2.99692
2.97171
2.94589
2.9195
2.8926
2.86524
2.83748
2.8094
2.78108
2.75256
2.72384
2.69496
2.66596
2.63689
2.6078
2.57876
2.54982
2.52107
2.49261
2.46455
2.43707
2.41033
2.38455
2.35888
2.32956
0.0203748
0.049125
0.0639191
0.0744766
0.0833515
0.0914587
0.0992591
0.107016
0.114887
0.122965
0.131296
0.139898
0.148769
0.1579
0.167281
0.176907
0.18678
0.196909
0.207312
0.218016
0.229051
0.240454
0.252262
0.264513
0.277244
0.290485
0.304263
0.318602
0.333518
0.34903
0.365149
0.381888
0.399254
0.417249
0.435875
0.455128
0.475006
0.495502
0.516607
0.53831
0.560602
0.583473
0.606919
0.630934
0.655522
0.680685
0.70643
0.732763
0.759692
0.787224
0.815366
0.844124
0.873506
0.903517
0.934164
0.965453
0.997387
1.02997
1.06321
1.09711
1.13166
1.16687
1.20275
1.23927
1.27645
1.31428
1.35274
1.39184
1.43155
1.47187
1.51279
1.55428
1.59632
1.6389
1.68199
1.72557
1.76961
1.81407
1.85893
1.90415
1.9497
1.99554
2.04163
2.08792
2.13438
2.18095
2.2276
2.27428
2.32093
2.36751
2.41396
2.46025
2.5063
2.55208
2.59751
2.64256
2.68716
2.73125
2.77478
2.81771
2.85996
2.9015
2.94227
2.98221
3.02127
3.0594
3.09655
3.13268
3.16774
3.20167
3.23445
3.26602
3.29634
3.32539
3.35312
3.3795
3.4045
3.42809
3.45025
3.47094
3.49015
3.50786
3.52406
3.53872
3.55183
3.56339
3.5734
3.58184
3.58873
3.59405
3.59782
3.59993
3.60053
3.59965
3.59724
3.59331
3.5879
3.58103
3.57271
3.56298
3.55187
3.53941
3.52563
3.51057
3.49426
3.47675
3.45806
3.43825
3.41736
3.39542
3.37249
3.34861
3.32383
3.2982
3.27176
3.24456
3.21666
3.18811
3.15895
3.12924
3.09904
3.0684
3.03741
3.00613
2.97461
2.94288
2.91097
2.87895
2.84686
2.81476
2.78274
2.75085
2.71921
2.68793
2.65714
2.62706
2.59787
2.56977
2.54196
2.5112
0.0232964
0.0544078
0.0703757
0.0817552
0.0912677
0.0998821
0.108086
0.11616
0.124278
0.13255
0.14104
0.149785
0.158801
0.168092
0.177662
0.187514
0.197656
0.208102
0.218872
0.229991
0.241489
0.2534
0.265757
0.278595
0.291946
0.305838
0.320294
0.335335
0.350975
0.367227
0.384102
0.401606
0.419745
0.438525
0.457947
0.478013
0.498724
0.520078
0.542074
0.564707
0.587974
0.611873
0.636402
0.661562
0.687355
0.713787
0.740865
0.768596
0.796989
0.826054
0.855799
0.886234
0.917367
0.949207
0.981762
1.01504
1.04905
1.08379
1.11928
1.15551
1.19249
1.23022
1.26871
1.30794
1.34792
1.38864
1.4301
1.47228
1.51518
1.55878
1.60306
1.64801
1.6936
1.73981
1.78661
1.83398
1.88189
1.93029
1.97916
2.02846
2.07814
2.12816
2.17847
2.22904
2.2798
2.33072
2.38173
2.43278
2.48382
2.53478
2.58563
2.63628
2.68669
2.73678
2.78651
2.8358
2.88459
2.93282
2.98043
3.02736
3.07355
3.11893
3.16345
3.20706
3.24968
3.29127
3.33178
3.37114
3.4093
3.44623
3.48186
3.51615
3.54907
3.58056
3.6106
3.63914
3.66615
3.6916
3.71546
3.73771
3.75832
3.77727
3.79455
3.81014
3.82403
3.83621
3.84668
3.85544
3.86249
3.86782
3.87146
3.8733
3.87352
3.87207
3.86897
3.86421
3.85784
3.84988
3.84036
3.82931
3.81677
3.80276
3.78733
3.77052
3.75236
3.73291
3.7122
3.69029
3.66721
3.64302
3.61777
3.59151
3.56428
3.53615
3.50717
3.47738
3.44685
3.41563
3.38376
3.35132
3.31835
3.28492
3.2511
3.21696
3.18254
3.1479
3.11308
3.07814
3.04313
3.00814
2.97323
2.9385
2.90406
2.87004
2.8366
2.80395
2.7723
2.74183
2.71177
2.67939
0.0257736
0.0587776
0.0756947
0.0877441
0.0977788
0.10681
0.115343
0.123673
0.131984
0.140398
0.148997
0.157831
0.16693
0.176314
0.185996
0.195988
0.206304
0.216961
0.22798
0.239385
0.251205
0.26347
0.276209
0.289453
0.303231
0.317568
0.332485
0.348
0.364129
0.380884
0.398273
0.416306
0.43499
0.454329
0.47433
0.494996
0.516333
0.538343
0.561029
0.584394
0.60844
0.633169
0.658587
0.684697
0.711505
0.739018
0.767246
0.796199
0.825886
0.856321
0.887513
0.919476
0.95222
0.985756
1.02009
1.05525
1.09122
1.12802
1.16567
1.20415
1.24349
1.28367
1.32471
1.36661
1.40935
1.45294
1.49736
1.54261
1.58868
1.63555
1.6832
1.73161
1.78076
1.83062
1.88116
1.93234
1.98414
2.03651
2.08942
2.14281
2.19665
2.25088
2.30545
2.36031
2.4154
2.47066
2.52604
2.58148
2.6369
2.69226
2.74747
2.80248
2.85722
2.91161
2.96559
3.01908
3.07203
3.12435
3.17598
3.22686
3.27691
3.32607
3.37427
3.42146
3.46756
3.51252
3.55628
3.59877
3.63995
3.67976
3.71814
3.75505
3.79044
3.82426
3.85649
3.88706
3.91597
3.94316
3.9686
3.99229
4.01418
4.03425
4.0525
4.06891
4.08346
4.09616
4.10699
4.11595
4.12306
4.12831
4.13171
4.13322
4.13296
4.13088
4.127
4.12135
4.11396
4.10487
4.09409
4.08168
4.06766
4.05208
4.03498
4.0164
3.9964
3.97501
3.95228
3.92828
3.90305
3.87663
3.8491
3.8205
3.79089
3.76032
3.72886
3.69655
3.66346
3.62965
3.59517
3.56008
3.52444
3.48831
3.45176
3.41486
3.37767
3.34024
3.30262
3.26487
3.22707
3.18929
3.15162
3.11415
3.077
3.04033
3.0043
2.96913
2.93502
2.90214
2.86977
2.83563
0.0277753
0.0622407
0.0798894
0.0924552
0.102893
0.112246
0.121034
0.129556
0.138007
0.146517
0.155179
0.164055
0.173187
0.182607
0.192336
0.202393
0.212798
0.223571
0.234734
0.246311
0.258328
0.270812
0.283789
0.297286
0.311329
0.32594
0.341139
0.356945
0.373373
0.390436
0.408147
0.426515
0.445551
0.465262
0.485658
0.506745
0.528533
0.551029
0.574241
0.598176
0.622842
0.648246
0.674398
0.701305
0.728978
0.757428
0.786666
0.816706
0.847561
0.879246
0.911775
0.945163
0.979422
1.01457
1.05061
1.08756
1.12544
1.16425
1.20401
1.24471
1.28637
1.32899
1.37257
1.41712
1.46262
1.50908
1.55648
1.60482
1.65408
1.70424
1.75529
1.80719
1.85992
1.91346
1.96776
2.02278
2.0785
2.13486
2.19182
2.24932
2.30733
2.36577
2.42459
2.48373
2.54313
2.60273
2.66245
2.72222
2.78199
2.84167
2.90119
2.96048
3.01946
3.07806
3.1362
3.19379
3.25078
3.30707
3.36259
3.41728
3.47106
3.52385
3.57559
3.6262
3.67562
3.72379
3.77063
3.81609
3.86011
3.90262
3.94358
3.98292
4.02061
4.05659
4.09083
4.12327
4.15389
4.18265
4.20952
4.23447
4.25748
4.27852
4.29759
4.31466
4.32974
4.3428
4.35385
4.3629
4.36994
4.37499
4.37806
4.37915
4.37831
4.37551
4.37079
4.36417
4.3557
4.34542
4.33335
4.31953
4.30402
4.28685
4.26807
4.24774
4.22589
4.20259
4.17788
4.15183
4.12448
4.0959
4.06615
4.03528
4.00336
3.97044
3.93659
3.90186
3.86632
3.83003
3.79305
3.75543
3.71724
3.67854
3.6394
3.59988
3.56005
3.51997
3.4797
3.4393
3.39884
3.35841
3.31809
3.27801
3.23828
3.19905
3.16052
3.12288
3.08635
3.05106
3.01634
2.98024
0.0292975
0.0648359
0.0830113
0.0959467
0.106672
0.116253
0.125217
0.133867
0.142404
0.150964
0.159646
0.168521
0.177641
0.187046
0.196768
0.20683
0.217257
0.228069
0.239289
0.25094
0.263045
0.275629
0.288717
0.302333
0.316499
0.331238
0.346569
0.362512
0.379083
0.396299
0.414175
0.432723
0.451958
0.471891
0.492534
0.513901
0.536003
0.558852
0.582461
0.606842
0.632007
0.657968
0.68474
0.712337
0.740773
0.770062
0.80022
0.831264
0.863211
0.896079
0.929885
0.964646
1.00038
1.0371
1.07483
1.11357
1.15334
1.19416
1.23603
1.27897
1.32298
1.36806
1.41422
1.46145
1.50976
1.55914
1.60957
1.66104
1.71354
1.76704
1.82152
1.87696
1.93331
1.99056
2.04864
2.10753
2.16717
2.22752
2.28853
2.35013
2.41227
2.47488
2.5379
2.60126
2.66489
2.72873
2.79268
2.85669
2.92066
2.98453
3.04821
3.11162
3.17468
3.2373
3.2994
3.36089
3.4217
3.48175
3.54094
3.59921
3.65647
3.71265
3.76767
3.82146
3.87394
3.92505
3.97472
4.02288
4.06947
4.11443
4.1577
4.19922
4.23895
4.27684
4.31283
4.3469
4.379
4.40909
4.43715
4.46315
4.48706
4.50886
4.52855
4.5461
4.5615
4.57476
4.58588
4.59485
4.60169
4.60641
4.60902
4.60956
4.60806
4.60445
4.59879
4.59115
4.58154
4.57002
4.55662
4.54139
4.52438
4.50562
4.48518
4.4631
4.43945
4.41428
4.38765
4.35961
4.33023
4.29957
4.2677
4.23467
4.20054
4.16539
4.12928
4.09227
4.05442
4.0158
3.97646
3.93647
3.8959
3.85479
3.81323
3.77127
3.72899
3.68643
3.64368
3.6008
3.55786
3.51495
3.47216
3.42962
3.38745
3.3458
3.30487
3.26486
3.22596
3.18832
3.15127
3.11317
0.03036
0.0666316
0.0851428
0.0983115
0.109214
0.118932
0.127993
0.136707
0.145275
0.153836
0.162497
0.171336
0.18041
0.189765
0.199436
0.20945
0.219835
0.230613
0.241807
0.253441
0.265536
0.278116
0.291205
0.304824
0.318997
0.333745
0.34909
0.365049
0.381642
0.398889
0.41681
0.435422
0.454743
0.474789
0.495577
0.517123
0.539446
0.562563
0.58649
0.611243
0.636839
0.663293
0.690628
0.718862
0.748015
0.778105
0.809155
0.841184
0.874213
0.908265
0.94336
0.979517
1.01675
1.05509
1.09455
1.13514
1.17687
1.21977
1.26384
1.30909
1.35553
1.40317
1.452
1.50202
1.55322
1.6056
1.65915
1.71384
1.76965
1.82656
1.88454
1.94356
2.00357
2.06454
2.12642
2.18917
2.25272
2.31702
2.38201
2.44763
2.51382
2.58049
2.64758
2.71501
2.78271
2.8506
2.91859
2.98661
3.05456
3.12236
3.18993
3.25717
3.32401
3.39034
3.45609
3.52115
3.58545
3.6489
3.7114
3.77289
3.83327
3.89246
3.95039
4.00697
4.06214
4.11582
4.16794
4.21842
4.26722
4.31425
4.35947
4.40281
4.44423
4.48368
4.5211
4.55646
4.58972
4.62084
4.64979
4.67655
4.70109
4.72339
4.74344
4.76123
4.77675
4.79
4.80098
4.80969
4.81616
4.8204
4.82242
4.82228
4.82003
4.81549
4.80883
4.80009
4.7893
4.77651
4.76177
4.74511
4.7266
4.70628
4.68421
4.66045
4.63506
4.6081
4.57963
4.54971
4.51841
4.48579
4.45193
4.41688
4.38071
4.3435
4.3053
4.26618
4.22621
4.18544
4.14395
4.1018
4.05904
4.01574
3.97197
3.92779
3.88327
3.83847
3.79346
3.74831
3.70311
3.65793
3.61287
3.56806
3.52363
3.47974
3.43656
3.39431
3.35316
3.31324
3.27397
3.23391
0.0310054
0.0677077
0.0863838
0.0996613
0.110638
0.120405
0.129491
0.138205
0.146753
0.155279
0.163887
0.172658
0.181648
0.190908
0.200479
0.210393
0.220678
0.231357
0.242456
0.253995
0.265999
0.278489
0.291488
0.305021
0.319109
0.333778
0.349054
0.364952
0.381493
0.3987
0.416595
0.4352
0.454538
0.474631
0.495503
0.51718
0.539693
0.563058
0.587295
0.612422
0.638457
0.665412
0.693321
0.722213
0.752116
0.783055
0.815056
0.848142
0.882341
0.917676
0.95417
0.991844
1.03072
1.07081
1.11215
1.15474
1.1986
1.24375
1.29018
1.33793
1.38697
1.43733
1.48899
1.54196
1.59621
1.65174
1.70853
1.76654
1.82577
1.88617
1.94771
2.01035
2.07404
2.13873
2.20438
2.27092
2.33829
2.40643
2.47528
2.54475
2.61478
2.6853
2.75621
2.82744
2.89891
2.97053
3.04222
3.11387
3.18541
3.25674
3.32777
3.39842
3.46857
3.53815
3.60705
3.67519
3.74248
3.80882
3.87412
3.93831
4.00128
4.06296
4.12327
4.18213
4.23947
4.2952
4.34925
4.40156
4.45205
4.50068
4.54736
4.59206
4.63471
4.67527
4.71369
4.74993
4.78394
4.8157
4.84518
4.87235
4.89718
4.91966
4.93978
4.95753
4.97289
4.98588
4.9965
5.00475
5.01066
5.01424
5.01553
5.01463
5.01144
5.0059
4.99816
4.98827
4.97627
4.9622
4.9461
4.92805
4.90807
4.88625
4.86262
4.83726
4.81023
4.78159
4.75141
4.71976
4.68669
4.65229
4.61662
4.57974
4.54174
4.50266
4.4626
4.4216
4.37974
4.33708
4.29368
4.24961
4.20493
4.1597
4.11399
4.06785
4.02137
3.97459
3.9276
3.88045
3.83324
3.78605
3.73897
3.69214
3.64567
3.59974
3.55452
3.5102
3.46695
3.42492
3.38355
3.34167
0.0312146
0.0680914
0.086805
0.100092
0.111059
0.120802
0.129851
0.138515
0.146998
0.155443
0.163961
0.172638
0.181536
0.190702
0.200172
0.20998
0.220154
0.230721
0.241703
0.253125
0.265007
0.277375
0.290251
0.303659
0.317624
0.332171
0.347322
0.363102
0.379538
0.39666
0.414498
0.43308
0.452434
0.472588
0.493571
0.515409
0.538129
0.561762
0.586333
0.611867
0.638396
0.665935
0.694532
0.724222
0.755034
0.786996
0.820139
0.854493
0.890088
0.92695
0.9651
1.00456
1.04535
1.0875
1.131
1.17589
1.22218
1.26987
1.31897
1.36949
1.42142
1.47477
1.52952
1.58566
1.64317
1.70203
1.76222
1.82369
1.88643
1.95038
2.01551
2.08176
2.14908
2.21741
2.2867
2.35687
2.42787
2.49961
2.57203
2.64504
2.71857
2.79253
2.86684
2.94142
3.01617
3.09101
3.16583
3.24056
3.31509
3.38934
3.4632
3.53659
3.6094
3.68154
3.75292
3.82345
3.89302
3.96154
4.02894
4.09511
4.15997
4.22344
4.28544
4.34588
4.4047
4.46181
4.51713
4.57062
4.62218
4.67177
4.71932
4.76479
4.80811
4.84923
4.88812
4.92472
4.95901
4.99095
5.02051
5.04766
5.0724
5.09469
5.11452
5.1319
5.14681
5.15927
5.16927
5.17684
5.18198
5.18473
5.18513
5.18336
5.17911
5.17248
5.16361
5.15254
5.1393
5.12395
5.10655
5.08714
5.06578
5.04253
5.01746
4.99063
4.9621
4.93195
4.90024
4.86704
4.83242
4.79645
4.75921
4.72075
4.68116
4.6405
4.59884
4.55625
4.5128
4.46854
4.42354
4.37787
4.33158
4.28474
4.23741
4.18965
4.14152
4.09309
4.04443
3.99561
3.94671
3.89781
3.84901
3.80044
3.75222
3.70451
3.65748
3.61132
3.56619
3.52224
3.47897
3.43548
0.0311508
0.0680133
0.0866634
0.0998967
0.110808
0.120488
0.129464
0.138045
0.146436
0.154782
0.16319
0.171739
0.180491
0.189497
0.198796
0.208424
0.218413
0.22879
0.239579
0.250805
0.262493
0.274668
0.287354
0.30058
0.314373
0.328763
0.34378
0.359457
0.375829
0.39293
0.410792
0.429453
0.448943
0.469296
0.490544
0.512724
0.535871
0.560032
0.585225
0.611476
0.6388
0.667243
0.696861
0.72769
0.759769
0.793133
0.827818
0.863863
0.901305
0.94016
0.980448
1.02219
1.0654
1.11009
1.15627
1.20395
1.25315
1.30385
1.35606
1.40978
1.46499
1.52169
1.57985
1.63945
1.70046
1.76284
1.82657
1.8916
1.95788
2.02537
2.094
2.16373
2.23448
2.30621
2.37883
2.45227
2.52647
2.60135
2.67682
2.7528
2.82922
2.90598
2.983
3.06018
3.13745
3.21471
3.29186
3.36881
3.44546
3.52174
3.59753
3.67274
3.74728
3.82106
3.89397
3.96593
4.03685
4.10662
4.17518
4.24241
4.30825
4.37261
4.4354
4.49656
4.55599
4.61364
4.66943
4.72328
4.77514
4.82494
4.87264
4.91816
4.96147
5.00251
5.04124
5.07762
5.11162
5.1432
5.17234
5.19901
5.22319
5.24487
5.26405
5.2807
5.29484
5.30647
5.3156
5.32223
5.3264
5.32814
5.32759
5.32476
5.31934
5.31158
5.30155
5.28928
5.27484
5.25826
5.23961
5.21894
5.1963
5.17178
5.14542
5.1173
5.08748
5.05603
5.02303
4.98854
4.95264
4.91539
4.87687
4.83715
4.79629
4.75438
4.71147
4.66764
4.62295
4.57746
4.53124
4.48434
4.43682
4.38875
4.34018
4.29117
4.24179
4.1921
4.14215
4.09203
4.0418
3.99156
3.9414
3.89142
3.84178
3.7926
3.74407
3.69635
3.6496
3.60399
3.55906
3.51422
0.0309458
0.0676838
0.0861476
0.0992243
0.10998
0.1195
0.128309
0.136719
0.144933
0.153095
0.161312
0.169665
0.178218
0.187024
0.196129
0.205564
0.215359
0.225542
0.236142
0.247186
0.258701
0.270719
0.283269
0.296386
0.310103
0.324457
0.339484
0.355222
0.37171
0.388991
0.407108
0.426115
0.446051
0.46695
0.488849
0.511786
0.535787
0.560851
0.587054
0.614467
0.643158
0.673177
0.704554
0.737323
0.771519
0.807176
0.844324
0.882983
0.923169
0.964911
1.00824
1.05317
1.0997
1.14783
1.19754
1.24885
1.30173
1.35619
1.4122
1.46974
1.5288
1.58933
1.6513
1.71469
1.77943
1.8455
1.91284
1.9814
2.05111
2.12193
2.19379
2.26662
2.34036
2.41495
2.49029
2.56633
2.64299
2.72018
2.79783
2.87586
2.95418
3.03271
3.11136
3.19006
3.2687
3.34721
3.42549
3.50345
3.58101
3.65806
3.73453
3.81032
3.88533
3.95949
4.03269
4.10484
4.17587
4.24568
4.31419
4.38131
4.44695
4.51105
4.57352
4.6343
4.69329
4.75044
4.80567
4.85892
4.91012
4.95923
5.00618
5.05092
5.09341
5.13359
5.17142
5.20688
5.23992
5.27051
5.29863
5.32426
5.34738
5.36797
5.38603
5.40155
5.41455
5.42502
5.43297
5.43841
5.44137
5.44191
5.44032
5.43619
5.42955
5.42059
5.40937
5.39591
5.38028
5.36254
5.34272
5.32091
5.29714
5.2715
5.24405
5.21484
5.18396
5.15148
5.11746
5.08197
5.04509
5.00688
4.96743
4.92679
4.88504
4.84224
4.79847
4.75379
4.70826
4.66195
4.61491
4.5672
4.51887
4.46999
4.42061
4.37078
4.32056
4.27002
4.21921
4.16819
4.11704
4.06584
4.01469
3.9637
3.91298
3.86268
3.81297
3.764
3.71593
3.66895
3.62262
3.57672
0.0305275
0.066987
0.0851616
0.0980049
0.108538
0.11784
0.126436
0.134636
0.142646
0.150609
0.158632
0.166795
0.175165
0.183792
0.192722
0.201992
0.211637
0.22169
0.232181
0.243145
0.254617
0.266636
0.27924
0.292468
0.306367
0.320988
0.336389
0.352604
0.369681
0.387666
0.406599
0.426496
0.447393
0.469385
0.492542
0.516924
0.542593
0.569635
0.598082
0.627984
0.659398
0.692366
0.726921
0.763088
0.800894
0.840357
0.881487
0.924291
0.968775
1.01493
1.06277
1.11222
1.16329
1.21596
1.27022
1.32603
1.38338
1.44223
1.50254
1.56426
1.62737
1.69181
1.75753
1.82448
1.89262
1.96187
2.0322
2.10354
2.17582
2.24899