/*--------------------------------*- C++ -*----------------------------------*\
  =========                 |
  \\      /  F ield         | OpenFOAM: The Open Source CFD Toolbox
   \\    /   O peration     | Website:  https://openfoam.org
    \\  /    A nd           | Version:  8
     \\/     M anipulation  |
\*---------------------------------------------------------------------------*/
FoamFile
{
    version     2.0;
    format      ascii;
    class       volScalarField;
    location    "285";
    object      nut;
}
// * * * * * * * * * * * * * * * * * * * * * * * * * * * * * * * * * * * * * //

dimensions      [0 2 -1 0 0 0 0];

internalField   nonuniform List<scalar> 
12225
(
4.14969e-05
3.93415e-05
3.74841e-05
3.54319e-05
3.37852e-05
3.24192e-05
3.15114e-05
3.09108e-05
3.09171e-05
3.10975e-05
3.15673e-05
3.21109e-05
3.31389e-05
3.38113e-05
3.51043e-05
3.56978e-05
3.73243e-05
3.67444e-05
0.000332329
0.000215222
0.000179281
0.00015768
0.000146209
0.000138213
0.000132759
0.000131631
0.000129529
0.000130045
0.000129064
0.000129423
0.000128671
0.000128546
0.000128082
0.000127415
0.000127376
0.000126518
0.000674966
0.000450837
0.000355785
0.000309834
0.000275296
0.000251094
0.000231722
0.00021727
0.000202702
0.000192112
0.000182642
0.00017521
0.000169394
0.000163696
0.000160314
0.000155602
0.000153827
0.000149928
0.000833617
0.0006849
0.000572
0.000499958
0.000449474
0.000411944
0.000380795
0.000355992
0.00033403
0.00031478
0.000298352
0.000281726
0.000270331
0.000256104
0.000248235
0.000236222
0.00023046
0.000220548
0.000861255
0.000802526
0.000742139
0.000676567
0.000624014
0.000581364
0.000545887
0.000514551
0.000489537
0.000464436
0.000445881
0.000424095
0.000409965
0.000390847
0.000379936
0.000363171
0.000354561
0.000339654
0.00085498
0.000840347
0.000822209
0.000786486
0.000750874
0.000715893
0.000685773
0.000656132
0.000632561
0.000607528
0.000589014
0.000567271
0.00055231
0.000533142
0.000520831
0.000503814
0.000493399
0.000477636
0.000852908
0.000850685
0.00084424
0.000832828
0.000817416
0.000796998
0.000777892
0.00075674
0.000738907
0.000719157
0.000703545
0.000685641
0.000672146
0.00065596
0.000644349
0.000629602
0.000619592
0.000605281
0.000851923
0.000851813
0.000850173
0.000847394
0.000841454
0.000833728
0.000824898
0.000813418
0.000802811
0.000790477
0.000779723
0.000767554
0.000757441
0.00074581
0.00073657
0.000725579
0.000717213
0.000706131
0.000851751
0.000851542
0.000851035
0.000850338
0.000848881
0.000846168
0.000843035
0.000838306
0.000833404
0.000827365
0.000821222
0.000814781
0.00080842
0.000801542
0.000795261
0.000788448
0.00078221
0.000775318
0.000851769
0.000851389
0.000851046
0.000850633
0.000850248
0.000849368
0.000848405
0.000846781
0.000844957
0.000842532
0.000839926
0.000836804
0.0008338
0.000830161
0.000826981
0.000822943
0.00081992
0.000815328
0.000851787
0.000851359
0.000851012
0.000850613
0.000850329
0.000849905
0.000849526
0.000848929
0.000848303
0.000847394
0.000846467
0.000845179
0.000843992
0.000842356
0.000841001
0.00083904
0.000837649
0.000835374
0.000851789
0.000851359
0.000850995
0.000850605
0.000850291
0.000849938
0.000849646
0.00084928
0.000848955
0.000848505
0.000848099
0.000847509
0.000846999
0.000846246
0.000845644
0.000844724
0.000844062
0.000842981
0.000851786
0.000851363
0.000850985
0.000850604
0.000850269
0.000849926
0.00084963
0.000849313
0.000849042
0.000848729
0.000848462
0.000848127
0.000847844
0.000847467
0.000847157
0.000846727
0.000846388
0.000845904
0.000851783
0.000851364
0.000850978
0.000850602
0.000850256
0.000849916
0.000849607
0.0008493
0.000849022
0.000848741
0.000848488
0.000848224
0.000847989
0.000847735
0.000847508
0.000847258
0.000847033
0.000846783
0.000851781
0.000851364
0.000850972
0.000850598
0.000850246
0.000849908
0.000849591
0.000849286
0.000849
0.000848723
0.000848463
0.000848211
0.000847975
0.000847745
0.000847527
0.000847316
0.000847114
0.000846918
0.00085178
0.000851363
0.000850969
0.000850594
0.000850239
0.000849901
0.00084958
0.000849274
0.000848984
0.000848707
0.000848443
0.000848191
0.000847951
0.000847721
0.000847502
0.000847292
0.000847092
0.0008469
0.000851779
0.000851362
0.000850967
0.000850591
0.000850234
0.000849894
0.000849572
0.000849265
0.000848973
0.000848694
0.000848428
0.000848174
0.000847932
0.000847701
0.00084748
0.000847268
0.000847066
0.000846873
0.000851779
0.000851362
0.000850965
0.000850588
0.00085023
0.00084989
0.000849567
0.000849258
0.000848965
0.000848685
0.000848418
0.000848163
0.000847919
0.000847686
0.000847464
0.000847251
0.000847047
0.000846853
0.000851779
0.000851362
0.000850965
0.000850588
0.000850229
0.000849889
0.000849565
0.000849256
0.000848962
0.000848681
0.000848413
0.000848157
0.000847913
0.000847679
0.000847456
0.000847242
0.000847038
0.000846842
0.000851779
0.000851362
0.000850965
0.000850589
0.000850231
0.000849891
0.000849567
0.000849259
0.000848965
0.000848684
0.000848416
0.000848161
0.000847916
0.000847683
0.000847459
0.000847245
0.000847039
0.000846843
0.000851779
0.000851363
0.000850967
0.000850592
0.000850235
0.000849896
0.000849573
0.000849266
0.000848972
0.000848693
0.000848423
0.000848168
0.000847919
0.000847682
0.00084745
0.00084723
0.000847011
0.000846805
0.000851778
0.000851366
0.000850968
0.000850599
0.00085024
0.000849907
0.00084958
0.000849274
0.000848964
0.000848671
0.000848364
0.000848071
0.000847755
0.000847454
0.000847122
0.00084681
0.000846455
0.000846134
0.000851777
0.000851374
0.000850971
0.000850615
0.00085024
0.000849889
0.000849478
0.000849053
0.000848529
0.000847977
0.0008473
0.000846603
0.000845765
0.000844938
0.000843953
0.000843027
0.000841915
0.000840937
0.000851802
0.00085141
0.00085097
0.000850549
0.00084986
0.000848967
0.000847607
0.000845979
0.000843902
0.000841634
0.000838953
0.000836212
0.000833114
0.00083011
0.000826759
0.000823676
0.000820179
0.000817172
0.000852138
0.000851403
0.000850234
0.000848252
0.000844472
0.000839355
0.000832711
0.000825762
0.000817912
0.000809998
0.000801612
0.000793623
0.000785326
0.0007777
0.000769736
0.000762692
0.000755114
0.000748785
0.000854143
0.000847718
0.000840125
0.000827122
0.000808707
0.000789646
0.00076997
0.000751414
0.0007333
0.00071689
0.000700927
0.000686773
0.000672822
0.000660661
0.000648368
0.00063793
0.000626941
0.000618007
0.00085497
0.000818336
0.000776229
0.000726634
0.000684937
0.000649855
0.000618457
0.000592018
0.000568376
0.000548305
0.000529681
0.000513985
0.00049874
0.000486007
0.000473191
0.000462697
0.00045161
0.000442792
0.000807487
0.000666879
0.000570551
0.000509853
0.000465647
0.000431192
0.00040413
0.000382497
0.00036419
0.000349062
0.000335935
0.000325071
0.000314473
0.00030624
0.000297955
0.00029136
0.000284273
0.000278923
0.000501854
0.000348404
0.00029269
0.000259173
0.000236321
0.000221176
0.000211542
0.000204014
0.000198479
0.000195058
0.000192217
0.000190366
0.000188581
0.000187438
0.000186163
0.000185473
0.000184553
0.000184141
7.27285e-05
7.02231e-05
6.79539e-05
6.56136e-05
6.33827e-05
6.12765e-05
5.94929e-05
5.79573e-05
5.67103e-05
5.5703e-05
5.49775e-05
5.44185e-05
5.41086e-05
5.38874e-05
5.38766e-05
5.39622e-05
5.40719e-05
5.43225e-05
1.69622e-07
4.54029e-06
8.48759e-06
1.19597e-05
1.52556e-05
1.89515e-05
2.32266e-05
2.8317e-05
3.43566e-05
4.13192e-05
4.90674e-05
5.74106e-05
6.61671e-05
7.51767e-05
8.43184e-05
9.34952e-05
0.000102642
0.000111702
0.000120635
0.000129385
0.000137879
0.000145999
0.000153567
0.000160335
0.000165974
0.000170094
0.000172227
0.000171785
0.000167972
0.000160362
0.00014791
3.06317e-05
3.25976e-05
3.49144e-05
3.80041e-05
4.5247e-05
0.000234248
0.000231776
0.000234074
0.000240475
0.000224513
0.000210579
4.79989e-05
4.92536e-05
5.02315e-05
5.14862e-05
5.25324e-05
5.36889e-05
5.47856e-05
5.59058e-05
5.70105e-05
5.81174e-05
5.92185e-05
6.03174e-05
6.14123e-05
6.25043e-05
6.35926e-05
6.46778e-05
6.57592e-05
6.68372e-05
6.79112e-05
6.89814e-05
7.00472e-05
7.11087e-05
7.21653e-05
7.32169e-05
7.42628e-05
7.5303e-05
7.63367e-05
7.7364e-05
7.83838e-05
7.93961e-05
8.04001e-05
8.13956e-05
8.23816e-05
8.33582e-05
8.43241e-05
8.52795e-05
8.62232e-05
8.71552e-05
8.80744e-05
8.89807e-05
8.9873e-05
9.07513e-05
9.16145e-05
9.24623e-05
9.32937e-05
9.41085e-05
9.49055e-05
9.56845e-05
9.64442e-05
9.71835e-05
9.79014e-05
9.85967e-05
9.92684e-05
9.99156e-05
0.000100538
0.000101139
0.000101725
0.000102285
0.000102824
0.000103341
0.000103835
0.000104307
0.000104756
0.000105182
0.000105585
0.000105963
0.000106318
0.000106648
0.000106954
0.000107235
0.000107491
0.000107723
0.000107929
0.00010811
0.000108266
0.000108396
0.000108501
0.000108581
0.000108636
0.000108664
0.000108668
0.000108646
0.000108599
0.000108526
0.000108429
0.000108306
0.000108161
0.000107994
0.000107798
0.000107576
0.000107328
0.000107061
0.000106775
0.000106462
0.000106128
0.00010577
0.000105392
0.000104992
0.000104571
0.00010413
0.000103669
0.000103189
0.000102691
0.000102174
0.000101639
0.000101087
0.000100519
9.99341e-05
9.93343e-05
9.87197e-05
9.80911e-05
9.74491e-05
9.67943e-05
9.61274e-05
9.54492e-05
9.47604e-05
9.40617e-05
9.33543e-05
9.26395e-05
9.19212e-05
9.12205e-05
9.06933e-05
9.02787e-05
8.98707e-05
8.94594e-05
8.90441e-05
8.8625e-05
8.82025e-05
8.77766e-05
8.73476e-05
8.69148e-05
8.64773e-05
8.60327e-05
8.55757e-05
8.50957e-05
8.45633e-05
8.39189e-05
8.19955e-05
8.74287e-07
2.44321e-05
5.56708e-05
7.7463e-05
9.12897e-05
0.000100461
0.000107798
0.000114935
0.000122683
0.000131307
0.000140774
0.000150909
0.0001615
0.000172346
0.00018328
0.000194167
0.000204897
0.000215366
0.000225464
0.000235046
0.000243911
0.000251765
0.00025819
0.000262617
0.000264317
0.000262409
0.000255917
0.000243907
0.000225825
0.000201901
0.000173832
0.000145094
0.000157087
0.000176154
0.000203751
0.000246292
0.000312629
0.000297333
0.000292474
0.00029957
0.000278657
0.00027598
0.000261063
0.000269979
0.000277312
0.000284873
0.000292756
0.00030063
0.000308693
0.000316832
0.00032508
0.000333408
0.000341823
0.000350314
0.000358886
0.000367535
0.000376263
0.000385071
0.000393959
0.000402929
0.000411981
0.000421118
0.000430338
0.000439643
0.000449031
0.000458503
0.000468057
0.000477691
0.000487404
0.000497193
0.000507055
0.000516988
0.000526986
0.000537047
0.000547166
0.000557338
0.000567558
0.00057782
0.000588119
0.000598449
0.000608804
0.000619178
0.000629565
0.000639959
0.000650354
0.000660743
0.000671121
0.000681482
0.000691822
0.000702135
0.000712415
0.000722654
0.000732837
0.000742945
0.000752943
0.00076277
0.000772318
0.000781405
0.000789746
0.000798065
0.000806227
0.000814261
0.000822155
0.000829907
0.000837508
0.000844954
0.00085224
0.00085936
0.00086631
0.000873083
0.000879676
0.000886083
0.000892302
0.000898326
0.000904153
0.000909779
0.000915199
0.000920411
0.000925411
0.000930196
0.000934765
0.000939114
0.000943241
0.000947143
0.000950819
0.000954268
0.000957492
0.000960488
0.000963244
0.000965789
0.00096817
0.000970225
0.000971913
0.000973417
0.000974849
0.000975979
0.000976865
0.00097752
0.000977945
0.000978143
0.000978116
0.000977866
0.000977397
0.000976714
0.000975818
0.000974715
0.000973407
0.000971899
0.000970196
0.000968301
0.00096622
0.000963959
0.000961521
0.000958914
0.000956142
0.000953211
0.000950125
0.000946892
0.000943512
0.000939988
0.000936306
0.000932394
0.00092787
0.000921508
0.000914038
0.0009062
0.0008982
0.000890105
0.000881939
0.00087372
0.000865453
0.000857146
0.000848797
0.000840401
0.000831933
0.000823341
0.000814474
0.000805093
0.000793687
0.000763445
1.87535e-06
4.10376e-05
8.9349e-05
0.000125971
0.000152419
0.000171524
0.000185977
0.000197911
0.0002088
0.000219519
0.000230485
0.000241817
0.000253471
0.000265331
0.000277267
0.000289153
0.000300881
0.000312346
0.00032344
0.00033403
0.000343931
0.000352886
0.000360541
0.000366439
0.00037005
0.000370849
0.000368481
0.000363006
0.000355195
0.000346989
0.000341476
0.000343216
0.000364787
0.000392875
0.000423985
0.000454366
0.000476742
0.00048365
0.00049212
0.000501559
0.000506223
0.000515524
0.000525633
0.000541616
0.000557393
0.000573379
0.000589605
0.000605962
0.000622494
0.000639168
0.00065599
0.000672951
0.000690052
0.000707291
0.00072467
0.000742189
0.000759851
0.000777656
0.000795605
0.000813698
0.000831936
0.000850321
0.000868852
0.000887528
0.000906346
0.000925304
0.000944397
0.000963621
0.000982972
0.00100244
0.00102203
0.00104172
0.0010615
0.00108138
0.00110134
0.00112136
0.00114145
0.00116158
0.00118176
0.00120195
0.00122216
0.00124238
0.00126258
0.00128276
0.0013029
0.00132299
0.00134301
0.00136296
0.00138282
0.00140257
0.00142219
0.00144166
0.00146095
0.00148001
0.00149879
0.00151724
0.00153525
0.00155276
0.00156982
0.00158666
0.00160322
0.0016195
0.00163549
0.00165117
0.00166654
0.00168157
0.00169627
0.00171061
0.00172459
0.0017382
0.00175143
0.00176427
0.00177671
0.00178874
0.00180035
0.00181155
0.00182231
0.00183263
0.00184251
0.00185195
0.00186093
0.00186944
0.0018775
0.00188509
0.0018922
0.00189884
0.00190501
0.0019107
0.00191592
0.00192068
0.00192508
0.00192888
0.00193193
0.0019346
0.00193697
0.0019388
0.00194014
0.001941
0.00194139
0.00194132
0.00194078
0.00193978
0.00193834
0.00193645
0.00193413
0.00193139
0.00192822
0.00192465
0.00192067
0.00191631
0.00191156
0.00190644
0.00190096
0.00189514
0.00188897
0.00188248
0.00187568
0.00186858
0.00186118
0.00185348
0.00184548
0.00183705
0.00182783
0.00181688
0.00180461
0.00179167
0.00177836
0.0017648
0.00175106
0.00173716
0.00172314
0.00170899
0.00169474
0.00168036
0.00166582
0.00165099
0.00163562
0.00161898
0.00159826
0.00155392
3.03543e-06
5.39329e-05
0.000115397
0.00016321
0.000198357
0.000224343
0.000244222
0.00026037
0.000274492
0.000287701
0.000300634
0.00031359
0.000326657
0.00033981
0.000352975
0.000366072
0.000379026
0.00039178
0.000404283
0.00041649
0.000428339
0.000439744
0.000450576
0.000460665
0.000469815
0.000477858
0.000484754
0.000490744
0.000496529
0.000503419
0.000513292
0.000528267
0.000549726
0.000573883
0.000598448
0.000621561
0.000641798
0.000659409
0.000677331
0.000695427
0.00071408
0.000733756
0.000754534
0.000776857
0.000799443
0.000822241
0.000845247
0.00086844
0.000891822
0.000915387
0.000939135
0.000963065
0.000987177
0.00101147
0.00103595
0.00106062
0.00108549
0.00111054
0.00113579
0.00116123
0.00118686
0.00121268
0.0012387
0.0012649
0.00129128
0.00131783
0.00134456
0.00137144
0.00139848
0.00142567
0.00145299
0.00148043
0.00150798
0.00153563
0.00156337
0.00159117
0.00161904
0.00164694
0.00167487
0.0017028
0.00173073
0.00175863
0.00178649
0.00181429
0.001842
0.00186962
0.00189712
0.00192447
0.00195166
0.00197866
0.00200545
0.00203199
0.00205825
0.00208419
0.00210976
0.00213492
0.00215959
0.0021838
0.00220759
0.00223103
0.00225409
0.00227675
0.002299
0.00232082
0.0023422
0.00236311
0.00238356
0.00240351
0.00242296
0.00244189
0.00246029
0.00247814
0.00249544
0.00251218
0.00252833
0.0025439
0.00255887
0.00257324
0.00258699
0.00260011
0.00261261
0.00262447
0.00263569
0.00264626
0.00265617
0.00266543
0.00267403
0.00268198
0.00268926
0.00269598
0.00270219
0.00270742
0.00271172
0.00271562
0.00271892
0.00272153
0.00272347
0.00272475
0.00272538
0.00272537
0.00272471
0.00272343
0.00272152
0.00271901
0.00271589
0.00271218
0.00270789
0.00270303
0.00269761
0.00269164
0.00268515
0.00267814
0.00267063
0.00266262
0.00265415
0.00264522
0.00263584
0.00262604
0.00261582
0.00260519
0.00259413
0.00258254
0.00257015
0.00255642
0.00254149
0.00252578
0.00250956
0.00249296
0.00247607
0.00245893
0.0024416
0.00242408
0.0024064
0.00238855
0.00237051
0.00235219
0.00233323
0.00231268
0.00228725
0.00224071
4.21042e-06
6.47999e-05
0.00013729
0.000194401
0.000237192
0.00026923
0.000293885
0.000313774
0.000330809
0.000346297
0.000361056
0.000375542
0.000389969
0.000404408
0.000418856
0.000433285
0.000447669
0.000461998
0.00047628
0.000490541
0.000504815
0.000519139
0.000533536
0.000548011
0.000562549
0.000577129
0.000591756
0.000606525
0.000621702
0.000637796
0.000655539
0.0006756
0.00069805
0.000721996
0.00074667
0.000771446
0.000796056
0.000820733
0.00084594
0.000871698
0.000897442
0.0009238
0.000950771
0.000978293
0.0010061
0.00103414
0.00106239
0.00109087
0.00111955
0.00114846
0.00117758
0.00120691
0.00123646
0.00126622
0.00129619
0.00132638
0.0013568
0.00138744
0.0014183
0.00144939
0.00148069
0.00151221
0.00154394
0.00157588
0.00160801
0.00164033
0.00167283
0.00170551
0.00173834
0.00177132
0.00180443
0.00183766
0.001871
0.00190442
0.00193792
0.00197147
0.00200506
0.00203867
0.00207227
0.00210586
0.0021394
0.00217288
0.00220627
0.00223956
0.00227273
0.00230574
0.00233858
0.00237122
0.00240364
0.0024358
0.00246769
0.00249927
0.0025305
0.00256136
0.00259182
0.00262185
0.00265144
0.00268059
0.00270929
0.00273755
0.00276535
0.00279269
0.00281953
0.00284587
0.00287167
0.00289692
0.00292161
0.00294572
0.00296923
0.00299213
0.0030144
0.00303602
0.00305699
0.00307728
0.00309689
0.00311581
0.00313402
0.00315152
0.00316828
0.00318431
0.0031996
0.00321413
0.00322791
0.00324091
0.00325314
0.0032646
0.00327528
0.00328519
0.00329433
0.00330291
0.00331061
0.00331728
0.00332293
0.00332814
0.00333253
0.00333613
0.00333894
0.00334097
0.00334222
0.00334271
0.00334244
0.00334143
0.00333968
0.00333719
0.00333399
0.00333009
0.00332548
0.0033202
0.00331425
0.00330764
0.00330039
0.00329252
0.00328404
0.00327497
0.00326532
0.00325512
0.00324437
0.0032331
0.00322132
0.00320904
0.00319624
0.00318285
0.00316871
0.00315352
0.00313732
0.00312033
0.00310275
0.0030847
0.00306628
0.00304754
0.00302853
0.00300928
0.00298982
0.00297017
0.00295029
0.00293008
0.00290924
0.00288678
0.00285949
0.00281533
5.33677e-06
7.39692e-05
0.000155761
0.000220905
0.00027054
0.000308112
0.000337197
0.0003606
0.00038041
0.0003981
0.00041465
0.000430662
0.000446474
0.000462257
0.000478085
0.000493985
0.000509978
0.00052609
0.000542364
0.000558862
0.000575658
0.000592834
0.000610469
0.000628629
0.000647359
0.000666685
0.000686622
0.00070719
0.000728453
0.000750546
0.000773683
0.000798047
0.000823648
0.000850292
0.000877764
0.000905864
0.000934494
0.000963671
0.00099339
0.00102355
0.00105404
0.00108493
0.00111621
0.00114784
0.00117973
0.00121187
0.00124424
0.00127684
0.00130967
0.00134273
0.00137602
0.00140953
0.00144328
0.00147727
0.00151151
0.00154597
0.00158066
0.00161558
0.00165072
0.00168607
0.00172165
0.00175743
0.00179341
0.00182959
0.00186596
0.0019025
0.00193922
0.00197608
0.0020131
0.00205024
0.00208751
0.00212487
0.00216232
0.00219984
0.00223741
0.00227501
0.00231263
0.00235024
0.00238783
0.00242537
0.00246285
0.00250024
0.00253752
0.00257467
0.00261166
0.00264847
0.00268508
0.00272146
0.00275758
0.00279343
0.00282896
0.00286416
0.002899
0.00293345
0.00296748
0.00300108
0.00303423
0.00306692
0.00309914
0.00313087
0.0031621
0.00319282
0.00322299
0.0032526
0.00328164
0.00331007
0.00333788
0.00336506
0.00339158
0.00341743
0.00344259
0.00346705
0.00349078
0.00351379
0.00353604
0.00355754
0.00357826
0.00359819
0.00361733
0.00363566
0.00365318
0.00366987
0.00368573
0.00370074
0.00371491
0.00372823
0.00374069
0.0037523
0.00376318
0.00377334
0.00378244
0.00379047
0.00379755
0.00380401
0.00380958
0.00381428
0.00381811
0.00382109
0.00382321
0.00382449
0.00382494
0.00382457
0.00382337
0.00382138
0.00381859
0.00381501
0.00381067
0.00380557
0.00379972
0.00379315
0.00378586
0.00377787
0.0037692
0.00375986
0.00374987
0.00373926
0.00372803
0.0037162
0.00370379
0.00369081
0.00367725
0.00366308
0.00364818
0.00363242
0.00361579
0.0035984
0.00358038
0.00356184
0.00354287
0.00352351
0.00350384
0.00348389
0.0034637
0.00344331
0.0034227
0.00340182
0.00338039
0.00335751
0.00333036
0.00329029
6.37244e-06
8.15744e-05
0.000171143
0.000243271
0.000299073
0.000341773
0.000375061
0.000401871
0.000424426
0.000444337
0.000462725
0.000480326
0.000497595
0.0005148
0.000532093
0.00054956
0.000567261
0.00058525
0.000603588
0.000622349
0.000641614
0.000661469
0.000681998
0.000703272
0.000725345
0.000748245
0.00077198
0.000796545
0.000821935
0.000848159
0.00087525
0.000903237
0.000932109
0.000961813
0.000992278
0.00102343
0.0010552
0.00108755
0.00112043
0.00115376
0.00118747
0.00122154
0.00125595
0.00129066
0.00132564
0.00136086
0.00139633
0.00143203
0.00146795
0.00150411
0.00154049
0.0015771
0.00161394
0.001651
0.0016883
0.00172581
0.00176354
0.00180149
0.00183965
0.00187802
0.00191658
0.00195535
0.0019943
0.00203344
0.00207275
0.00211222
0.00215185
0.00219162
0.00223151
0.00227153
0.00231164
0.00235184
0.00239212
0.00243244
0.00247281
0.0025132
0.00255358
0.00259395
0.00263428
0.00267455
0.00271474
0.00275483
0.0027948
0.00283462
0.00287428
0.00291374
0.00295299
0.00299199
0.00303073
0.00306918
0.00310732
0.00314511
0.00318253
0.00321957
0.00325619
0.00329238
0.00332812
0.00336338
0.00339817
0.00343245
0.0034662
0.00349942
0.00353207
0.00356413
0.00359559
0.00362642
0.00365661
0.00368612
0.00371496
0.00374308
0.00377049
0.00379716
0.00382307
0.00384822
0.00387258
0.00389613
0.00391888
0.0039408
0.00396188
0.00398212
0.00400149
0.00402
0.00403763
0.00405437
0.00407021
0.00408516
0.00409921
0.00411237
0.00412484
0.00413632
0.00414683
0.00415618
0.00416469
0.0041724
0.00417919
0.00418505
0.00419
0.00419404
0.00419718
0.00419944
0.00420081
0.00420131
0.00420095
0.00419973
0.00419768
0.00419479
0.00419108
0.00418656
0.00418126
0.00417517
0.00416832
0.00416072
0.00415239
0.00414334
0.00413359
0.00412315
0.00411205
0.0041003
0.00408792
0.00407491
0.00406128
0.00404702
0.00403206
0.00401633
0.00399982
0.00398258
0.00396471
0.00394629
0.00392738
0.00390806
0.00388837
0.00386838
0.00384813
0.00382768
0.00380705
0.00378622
0.00376497
0.00374255
0.00371656
0.0036806
7.28748e-06
8.77258e-05
0.000183686
0.000261837
0.000323169
0.000370621
0.000407914
0.000438054
0.000463355
0.000485538
0.000505837
0.000525103
0.000543898
0.000562581
0.000581377
0.000600427
0.000619827
0.000639656
0.000659981
0.000680871
0.000702399
0.000724638
0.000747655
0.000771509
0.000796272
0.000821942
0.000848511
0.000875963
0.000904272
0.00093341
0.000963354
0.000994083
0.00102557
0.00105777
0.00109065
0.00112416
0.00115825
0.00119288
0.001228
0.00126355
0.00129949
0.00133579
0.0013724
0.00140931
0.00144649
0.00148392
0.00152158
0.00155946
0.00159756
0.00163587
0.0016744
0.00171313
0.00175207
0.00179122
0.00183057
0.00187013
0.00190988
0.00194983
0.00198997
0.00203029
0.00207081
0.00211149
0.00215235
0.00219338
0.00223456
0.00227589
0.00231736
0.00235896
0.00240068
0.0024425
0.00248441
0.00252641
0.00256847
0.00261058
0.00265273
0.00269489
0.00273705
0.0027792
0.00282131
0.00286336
0.00290534
0.00294722
0.00298898
0.00303061
0.00307207
0.00311335
0.00315442
0.00319526
0.00323584
0.00327615
0.00331615
0.00335582
0.00339514
0.00343408
0.00347262
0.00351074
0.00354842
0.00358563
0.00362236
0.00365859
0.00369429
0.00372944
0.00376403
0.00379802
0.00383139
0.00386413
0.00389621
0.00392762
0.00395832
0.00398831
0.00401756
0.00404605
0.00407377
0.0041007
0.00412683
0.00415214
0.00417661
0.00420023
0.00422299
0.00424488
0.00426588
0.00428599
0.00430519
0.00432347
0.00434084
0.00435727
0.00437277
0.00438743
0.00440128
0.00441407
0.00442593
0.00443662
0.00444651
0.00445548
0.0044635
0.00447056
0.00447669
0.00448188
0.00448614
0.00448949
0.00449192
0.00449346
0.0044941
0.00449386
0.00449275
0.00449078
0.00448796
0.0044843
0.00447983
0.00447454
0.00446845
0.00446159
0.00445395
0.00444557
0.00443645
0.00442661
0.00441607
0.00440483
0.00439293
0.00438037
0.00436715
0.00435328
0.00433872
0.00432344
0.00430744
0.00429074
0.0042734
0.00425549
0.00423706
0.00421818
0.00419891
0.00417931
0.00415944
0.00413938
0.00411918
0.00409885
0.00407825
0.00405675
0.00403244
0.00400097
8.06359e-06
9.25336e-05
0.000193609
0.000276882
0.000343112
0.000394933
0.00043602
0.000469398
0.000497435
0.000521926
0.000544195
0.000565184
0.000585548
0.000605727
0.000626007
0.000646579
0.00066758
0.000689126
0.00071127
0.000734062
0.000757557
0.000781806
0.00080685
0.000832708
0.000859427
0.000887055
0.000915596
0.000945024
0.000975308
0.00100641
0.00103829
0.00107091
0.00110424
0.00113824
0.00117287
0.00120808
0.00124384
0.0012801
0.00131682
0.00135394
0.00139141
0.00142912
0.00146711
0.00150539
0.00154397
0.00158279
0.00162182
0.00166104
0.00170046
0.00174005
0.00177983
0.00181979
0.00185993
0.00190024
0.00194074
0.00198141
0.00202225
0.00206327
0.00210445
0.0021458
0.00218732
0.002229
0.00227084
0.00231283
0.00235497
0.00239724
0.00243966
0.0024822
0.00252486
0.00256763
0.00261049
0.00265345
0.00269648
0.00273957
0.00278272
0.00282589
0.00286909
0.00291229
0.00295547
0.00299863
0.00304173
0.00308476
0.00312769
0.00317052
0.00321321
0.00325574
0.0032981
0.00334025
0.00338217
0.00342384
0.00346523
0.00350633
0.00354709
0.00358751
0.00362755
0.0036672
0.00370642
0.00374519
0.0037835
0.00382131
0.00385861
0.00389537
0.00393156
0.00396716
0.00400216
0.00403652
0.00407022
0.00410324
0.00413556
0.00416717
0.00419802
0.00422812
0.00425744
0.00428596
0.00431366
0.00434054
0.00436656
0.00439173
0.00441602
0.00443942
0.00446192
0.0044835
0.00450417
0.00452391
0.0045427
0.00456054
0.00457743
0.00459352
0.00460863
0.00462277
0.00463592
0.00464801
0.00465924
0.00466949
0.00467876
0.00468707
0.00469441
0.00470081
0.00470627
0.00471079
0.00471439
0.00471707
0.00471884
0.00471971
0.0047197
0.00471881
0.00471706
0.00471445
0.00471101
0.00470673
0.00470165
0.00469576
0.00468908
0.00468163
0.00467343
0.00466448
0.0046548
0.0046444
0.00463331
0.00462152
0.00460906
0.00459593
0.00458211
0.00456759
0.00455238
0.00453648
0.00451995
0.00450282
0.00448515
0.00446701
0.00444844
0.00442953
0.00441035
0.00439097
0.00437149
0.00435194
0.00433225
0.00431192
0.00428944
0.0042623
8.69093e-06
9.6106e-05
0.00020111
0.000288739
0.000359146
0.000414948
0.000459591
0.000496083
0.000526807
0.000553606
0.000577867
0.000600601
0.000622541
0.000644216
0.000665934
0.000687884
0.000710184
0.000732867
0.000756178
0.000780208
0.000805012
0.000830633
0.000857108
0.000884475
0.000912754
0.000941934
0.000971997
0.0010029
0.00103461
0.00106708
0.00110027
0.00113415
0.00116867
0.00120379
0.00123947
0.00127567
0.00131234
0.00134946
0.00138697
0.00142485
0.00146307
0.00150164
0.00154049
0.00157958
0.00161883
0.00165827
0.00169787
0.00173762
0.00177751
0.00181754
0.00185771
0.00189802
0.00193848
0.00197909
0.00201985
0.00206076
0.00210182
0.00214303
0.00218439
0.00222591
0.00226759
0.00230943
0.00235142
0.00239357
0.00243587
0.00247832
0.00252093
0.00256368
0.00260656
0.00264959
0.00269274
0.002736
0.00277938
0.00282286
0.00286642
0.00291006
0.00295376
0.00299751
0.00304128
0.00308507
0.00312885
0.0031726
0.00321631
0.00325996
0.00330351
0.00334696
0.00339026
0.00343341
0.00347638
0.00351913
0.00356165
0.0036039
0.00364587
0.00368752
0.00372883
0.00376977
0.00381032
0.00385045
0.00389013
0.00392934
0.00396805
0.00400623
0.00404387
0.00408093
0.00411739
0.00415322
0.0041884
0.00422291
0.00425673
0.00428982
0.00432217
0.00435376
0.00438457
0.00441458
0.00444377
0.00447212
0.00449962
0.00452625
0.00455199
0.00457684
0.00460078
0.0046238
0.00464588
0.00466702
0.00468721
0.00470644
0.00472473
0.00474213
0.00475854
0.00477401
0.0047885
0.00480199
0.00481457
0.00482613
0.00483668
0.00484626
0.00485488
0.00486254
0.00486925
0.00487502
0.00487986
0.00488378
0.00488678
0.00488888
0.00489008
0.0048904
0.00488985
0.00488844
0.00488618
0.00488309
0.00487918
0.00487445
0.00486893
0.00486262
0.00485554
0.0048477
0.00483912
0.00482981
0.00481977
0.00480902
0.00479758
0.00478545
0.00477263
0.00475911
0.00474491
0.00473003
0.00471451
0.00469838
0.00468169
0.0046645
0.00464686
0.00462886
0.00461056
0.00459208
0.00457351
0.00455491
0.00453627
0.00451721
0.00449655
0.00447293
9.16812e-06
9.85715e-05
0.000206433
0.000297634
0.000371575
0.000430924
0.000478845
0.000518277
0.000551587
0.000580639
0.000606895
0.000631327
0.000654642
0.000677287
0.000699828
0.000722602
0.000745836
0.000769736
0.000794366
0.00081973
0.000845857
0.000872777
0.000900517
0.000929091
0.00095849
0.000988682
0.00101964
0.00105135
0.00108379
0.00111691
0.00115069
0.00118509
0.00122006
0.00125556
0.00129155
0.001328
0.00136486
0.0014021
0.00143968
0.00147757
0.00151573
0.00155415
0.00159278
0.00163161
0.00167073
0.00171005
0.00174945
0.0017889
0.00182841
0.001868
0.00190769
0.00194749
0.0019874
0.00202743
0.00206759
0.00210788
0.00214832
0.00218891
0.00222965
0.00227055
0.00231163
0.00235288
0.00239431
0.00243592
0.00247773
0.00251972
0.00256191
0.00260429
0.00264686
0.00268961
0.00273255
0.00277567
0.00281896
0.00286242
0.00290602
0.00294976
0.00299363
0.00303762
0.0030817
0.00312585
0.00317007
0.00321433
0.0032586
0.00330287
0.00334711
0.0033913
0.00343541
0.00347941
0.00352328
0.003567
0.00361052
0.00365383
0.00369689
0.00373968
0.00378217
0.00382432
0.00386611
0.00390751
0.00394849
0.00398902
0.00402907
0.00406862
0.00410763
0.00414609
0.00418395
0.00422121
0.00425782
0.00429376
0.00432902
0.00436356
0.00439736
0.00443041
0.00446267
0.00449414
0.00452478
0.00455458
0.00458353
0.0046116
0.00463878
0.00466507
0.00469043
0.00471487
0.00473836
0.0047609
0.00478249
0.00480311
0.00482278
0.00484149
0.00485924
0.00487608
0.00489194
0.00490683
0.00492083
0.00493371
0.00494559
0.00495649
0.00496643
0.00497542
0.00498345
0.00499055
0.0049967
0.00500194
0.00500626
0.00500968
0.0050122
0.00501384
0.00501461
0.00501452
0.00501359
0.00501182
0.00500922
0.00500581
0.00500161
0.00499661
0.00499084
0.0049843
0.004977
0.00496897
0.00496019
0.0049507
0.00494049
0.00492958
0.00491797
0.00490566
0.00489266
0.00487899
0.00486466
0.0048497
0.00483417
0.00481811
0.00480157
0.00478465
0.00476742
0.00474998
0.00473246
0.00471494
0.00469744
0.00467967
0.00466073
0.00464006
9.50136e-06
0.000100072
0.00020982
0.000303794
0.000380678
0.000443125
0.000494008
0.000536182
0.000571907
0.000602929
0.000630563
0.000656109
0.000680477
0.000704396
0.000728265
0.000752317
0.000776754
0.000801708
0.00082721
0.00085336
0.000880213
0.000907798
0.000936131
0.000965213
0.000995035
0.00102557
0.00105681
0.00108869
0.00112119
0.00115429
0.00118796
0.00122215
0.00125683
0.00129196
0.0013275
0.0013634
0.00139964
0.00143618
0.001473
0.00151006
0.0015473
0.00158469
0.0016223
0.00166021
0.0016984
0.00173662
0.00177489
0.00181316
0.00185139
0.00188964
0.00192794
0.00196632
0.0020048
0.00204339