/*--------------------------------*- C++ -*----------------------------------*\
  =========                 |
  \\      /  F ield         | OpenFOAM: The Open Source CFD Toolbox
   \\    /   O peration     | Website:  https://openfoam.org
    \\  /    A nd           | Version:  8
     \\/     M anipulation  |
\*---------------------------------------------------------------------------*/
FoamFile
{
    version     2.0;
    format      ascii;
    class       volScalarField;
    location    "285";
    object      p;
}
// * * * * * * * * * * * * * * * * * * * * * * * * * * * * * * * * * * * * * //

dimensions      [0 2 -2 0 0 0 0];

internalField   nonuniform List<scalar> 
12225
(
-1.32748
-3.51546
-4.61557
-4.93638
-5.11786
-5.28717
-5.41906
-5.51469
-5.59191
-5.66008
-5.72108
-5.77724
-5.82876
-5.87746
-5.92394
-5.96452
-6.01552
-5.99908
-4.48984
-5.25868
-5.41927
-5.32719
-5.31488
-5.38301
-5.46092
-5.52713
-5.58736
-5.64556
-5.70116
-5.75333
-5.80287
-5.85017
-5.89634
-5.93855
-5.98697
-6.02494
-4.89047
-4.87629
-5.0038
-5.08234
-5.17745
-5.29789
-5.40548
-5.49079
-5.5632
-5.6293
-5.69036
-5.7465
-5.79922
-5.84899
-5.89738
-5.94256
-5.99335
-6.03854
-4.76909
-4.71246
-4.9542
-5.11268
-5.21462
-5.32109
-5.41913
-5.49962
-5.56893
-5.63273
-5.6922
-5.74736
-5.79942
-5.84882
-5.89696
-5.94318
-5.99262
-6.04082
-4.75915
-4.78354
-5.01169
-5.15339
-5.23719
-5.3295
-5.42105
-5.49918
-5.56727
-5.63017
-5.68912
-5.74415
-5.79622
-5.84587
-5.89429
-5.94145
-5.99029
-6.03981
-4.81724
-4.86605
-5.04039
-5.16441
-5.2461
-5.33416
-5.42251
-5.49941
-5.56688
-5.6292
-5.68774
-5.7426
-5.79459
-5.8443
-5.89272
-5.94015
-5.98832
-6.03729
-4.87754
-4.92168
-5.05692
-5.17335
-5.25725
-5.3416
-5.42581
-5.5008
-5.56734
-5.6289
-5.68683
-5.74135
-5.79309
-5.84268
-5.89089
-5.93816
-5.9855
-6.03309
-4.93098
-4.96858
-5.0786
-5.18698
-5.27012
-5.34992
-5.42959
-5.50239
-5.56783
-5.62852
-5.68576
-5.73984
-5.79124
-5.84056
-5.88841
-5.93521
-5.98157
-6.02751
-4.98062
-5.01374
-5.10472
-5.20276
-5.28296
-5.3585
-5.43388
-5.50428
-5.56842
-5.62812
-5.68454
-5.73803
-5.78897
-5.83785
-5.88516
-5.93125
-5.97647
-6.02071
-5.02758
-5.05683
-5.1324
-5.21969
-5.296
-5.36768
-5.43898
-5.5067
-5.56929
-5.62781
-5.68326
-5.736
-5.78631
-5.83457
-5.88117
-5.92636
-5.97034
-6.0129
-5.07179
-5.09729
-5.16053
-5.23776
-5.30953
-5.37746
-5.44483
-5.5097
-5.57048
-5.62767
-5.68201
-5.73383
-5.78334
-5.83082
-5.87655
-5.9207
-5.96338
-6.00433
-5.1097
-5.13206
-5.18629
-5.25516
-5.32235
-5.38682
-5.45076
-5.51293
-5.57189
-5.62771
-5.68091
-5.73175
-5.78039
-5.82702
-5.87184
-5.91495
-5.95642
-5.99599
-5.1447
-5.16443
-5.21128
-5.2727
-5.33524
-5.39629
-5.45697
-5.51647
-5.57352
-5.62789
-5.67986
-5.72964
-5.77732
-5.82301
-5.86685
-5.90889
-5.94918
-5.98745
-5.18135
-5.19855
-5.23858
-5.29261
-5.34996
-5.40715
-5.4643
-5.52082
-5.57561
-5.62821
-5.6787
-5.72716
-5.77363
-5.81817
-5.86083
-5.90163
-5.94059
-5.97751
-5.21839
-5.23317
-5.26717
-5.31426
-5.36614
-5.41913
-5.47257
-5.52587
-5.57807
-5.62861
-5.67733
-5.72422
-5.76925
-5.81241
-5.8537
-5.8931
-5.93064
-5.96615
-5.25383
-5.26646
-5.29539
-5.33632
-5.38287
-5.43154
-5.48123
-5.53122
-5.58065
-5.62888
-5.6756
-5.72069
-5.76407
-5.80565
-5.84542
-5.88333
-5.91939
-5.95349
-5.28478
-5.29565
-5.32059
-5.3565
-5.39834
-5.443
-5.48916
-5.53598
-5.58265
-5.62849
-5.67312
-5.7163
-5.7579
-5.79782
-5.83599
-5.87237
-5.90696
-5.9397
-5.30687
-5.31651
-5.33875
-5.37117
-5.40955
-5.4511
-5.49443
-5.53865
-5.58294
-5.62664
-5.66932
-5.71068
-5.75058
-5.78888
-5.82552
-5.86044
-5.89366
-5.92514
-5.31322
-5.32236
-5.34354
-5.37463
-5.41165
-5.45182
-5.49374
-5.53652
-5.5794
-5.62171
-5.66301
-5.70302
-5.74158
-5.77859
-5.81397
-5.84771
-5.8798
-5.91027
-5.29674
-5.3065
-5.32906
-5.36207
-5.40098
-5.44256
-5.48538
-5.52874
-5.57192
-5.61428
-5.65539
-5.69506
-5.73316
-5.76962
-5.80441
-5.83752
-5.86898
-5.89884
-5.26966
-5.28043
-5.30566
-5.34261
-5.38529
-5.42968
-5.47463
-5.5197
-5.56415
-5.6073
-5.64885
-5.68872
-5.72686
-5.76323
-5.79783
-5.8307
-5.86189
-5.89147
-5.23428
-5.24607
-5.27539
-5.3189
-5.36708
-5.41494
-5.46261
-5.51017
-5.55655
-5.60094
-5.64326
-5.68361
-5.72201
-5.75847
-5.79304
-5.82581
-5.85685
-5.88626
-5.19362
-5.20549
-5.2399
-5.2931
-5.34854
-5.40038
-5.45113
-5.50141
-5.54975
-5.59544
-5.63868
-5.67967
-5.71846
-5.75512
-5.78977
-5.82253
-5.85352
-5.88286
-5.14985
-5.16079
-5.20252
-5.26686
-5.32894
-5.3855
-5.44098
-5.49468
-5.54478
-5.59142
-5.63535
-5.67685
-5.71593
-5.7527
-5.78736
-5.82009
-5.851
-5.88025
-5.1029
-5.10834
-5.17094
-5.24907
-5.31091
-5.36904
-5.43005
-5.48825
-5.54061
-5.58849
-5.63333
-5.67542
-5.71478
-5.75164
-5.78629
-5.81895
-5.84979
-5.87901
-5.05961
-5.02315
-5.13263
-5.24352
-5.30568
-5.36084
-5.42291
-5.48251
-5.53557
-5.58412
-5.62967
-5.6723
-5.71199
-5.74905
-5.78381
-5.81654
-5.84742
-5.87665
-5.07369
-4.91467
-5.04356
-5.19757
-5.28759
-5.35884
-5.42764
-5.4884
-5.54104
-5.58916
-5.63427
-5.67637
-5.71549
-5.75199
-5.78621
-5.81844
-5.84891
-5.87786
-5.1964
-5.01638
-5.03054
-5.10263
-5.19091
-5.29002
-5.38058
-5.45421
-5.51575
-5.57073
-5.62088
-5.66649
-5.70813
-5.74646
-5.78199
-5.81518
-5.84649
-5.87653
-4.9037
-5.49526
-5.58407
-5.45976
-5.40534
-5.43239
-5.47923
-5.52232
-5.56373
-5.60575
-5.64708
-5.68625
-5.72304
-5.75761
-5.79002
-5.82043
-5.84905
-5.87766
-1.91545
-3.6782
-4.68285
-4.98193
-5.13101
-5.27452
-5.38842
-5.46923
-5.53331
-5.59001
-5.64111
-5.68698
-5.7285
-5.76657
-5.80171
-5.83371
-5.86244
-5.88612
-6.74437
-6.74439
-6.74475
-6.74549
-6.74646
-6.74758
-6.74887
-6.75034
-6.75204
-6.75401
-6.7563
-6.75895
-6.76201
-6.76552
-6.76952
-6.77407
-6.77919
-6.78495
-6.79138
-6.79854
-6.80649
-6.8153
-6.82503
-6.83577
-6.84761
-6.86067
-6.87511
-6.89097
-6.90798
-6.9255
-6.94337
-6.96248
-6.98344
-7.00582
-7.02948
-7.0539
-7.07851
-7.10232
-7.12413
-7.14782
-7.17668
-7.20343
-7.22554
-7.25022
-7.2776
-7.3057
-7.33462
-7.36405
-7.39386
-7.42391
-7.45407
-7.48425
-7.51433
-7.54423
-7.57384
-7.60306
-7.63179
-7.65993
-7.68736
-7.71397
-7.73964
-7.76425
-7.78765
-7.80972
-7.83031
-7.84928
-7.86645
-7.88169
-7.8948
-7.90564
-7.91401
-7.91974
-7.92263
-7.92251
-7.91918
-7.91245
-7.90211
-7.88798
-7.86985
-7.84754
-7.82083
-7.78955
-7.75348
-7.71247
-7.6663
-7.61481
-7.55782
-7.49516
-7.42665
-7.35217
-7.27157
-7.18474
-7.09152
-6.99179
-6.88551
-6.77276
-6.65364
-6.52793
-6.39505
-6.25488
-6.10767
-5.95347
-5.79232
-5.62424
-5.44927
-5.26744
-5.07882
-4.88348
-4.68152
-4.47303
-4.25813
-4.03698
-3.8097
-3.57647
-3.33746
-3.09286
-2.84288
-2.58774
-2.32765
-2.06288
-1.79368
-1.52031
-1.24304
-0.962147
-0.677912
-0.390641
-0.100641
0.191771
0.486293
0.782619
1.08043
1.37937
1.67909
1.97929
2.27965
2.57985
2.87955
3.17844
3.47619
3.7725
4.06707
4.35962
4.64984
4.93748
5.22227
5.50396
5.7823
6.05707
6.32806
6.59505
6.85786
7.11632
7.37026
7.61953
7.86401
8.10357
8.33811
8.56752
8.79174
9.01069
9.22434
9.43263
9.63566
9.83343
10.0257
10.2122
10.3931
10.5684
10.738
10.9021
11.0606
11.2135
11.3611
11.5032
11.6403
11.7727
11.9018
12.0288
12.1657
12.3088
-6.74333
-6.74359
-6.74408
-6.74475
-6.7454
-6.74598
-6.74658
-6.74735
-6.74841
-6.74979
-6.75155
-6.75371
-6.7563
-6.75934
-6.76287
-6.76691
-6.77152
-6.77673
-6.7826
-6.78917
-6.79651
-6.80469
-6.81375
-6.82375
-6.83472
-6.84668
-6.85957
-6.87323
-6.88749
-6.90265
-6.91941
-6.93757
-6.95595
-6.97451
-6.99332
-7.01215
-7.03116
-7.05175
-7.0761
-7.10388
-7.12911
-7.15672
-7.19121
-7.22461
-7.25468
-7.28444
-7.31417
-7.344
-7.37394
-7.40396
-7.43402
-7.46404
-7.49394
-7.52364
-7.55306
-7.5821
-7.61067
-7.63867
-7.66598
-7.6925
-7.71812
-7.7427
-7.76611
-7.78823
-7.80891
-7.828
-7.84534
-7.86078
-7.87415
-7.88528
-7.894
-7.90011
-7.90345
-7.90381
-7.90102
-7.89487
-7.88517
-7.87173
-7.85434
-7.83282
-7.80695
-7.77656
-7.74145
-7.70143
-7.65632
-7.60595
-7.55012
-7.48869
-7.42148
-7.34836
-7.26919
-7.18384
-7.09219
-6.99409
-6.88944
-6.7781
-6.65987
-6.53462
-6.40258
-6.26382
-6.1182
-5.96566
-5.80621
-5.63984
-5.46658
-5.28648
-5.09959
-4.90597
-4.70572
-4.49895
-4.28575
-4.06628
-3.84067
-3.60908
-3.37169
-3.12869
-2.88027
-2.62664
-2.36804
-2.10472
-1.83691
-1.56489
-1.28892
-1.00927
-0.726218
-0.440073
-0.151141
0.140267
0.433846
0.729301
1.02631
1.32453
1.62359
1.92321
2.22306
2.52283
2.82218
3.12079
3.41835
3.71454
4.00907
4.30165
4.59199
4.87982
5.16487
5.44689
5.72564
6.00088
6.2724
6.53999
6.80346
7.06264
7.31735
7.56745
7.81281
8.05329
8.2888
8.51923
8.7445
8.96457
9.17941
9.38895
9.59297
9.7912
9.98368
10.1706
10.3518
10.5275
10.6975
10.8621
11.0211
11.1746
11.3228
11.4657
11.6037
11.7372
11.868
11.9969
12.1365
12.2743
-6.73968
-6.74057
-6.74184
-6.74294
-6.74364
-6.74406
-6.74444
-6.74495
-6.74572
-6.74684
-6.74836
-6.75031
-6.75271
-6.75558
-6.75897
-6.7629
-6.76741
-6.77254
-6.77834
-6.78486
-6.79215
-6.80028
-6.80928
-6.81919
-6.83004
-6.84183
-6.85452
-6.86803
-6.88224
-6.89729
-6.91345
-6.93078
-6.94905
-6.96824
-6.98831
-7.00907
-7.03055
-7.05342
-7.07841
-7.10455
-7.1298
-7.15533
-7.18304
-7.21155
-7.24009
-7.26895
-7.29806
-7.32736
-7.35678
-7.38627
-7.41579
-7.44527
-7.47464
-7.50383
-7.53275
-7.56132
-7.58944
-7.61702
-7.64396
-7.67014
-7.69545
-7.71977
-7.74297
-7.76492
-7.78547
-7.80448
-7.8218
-7.83727
-7.85072
-7.86198
-7.87088
-7.87725
-7.88089
-7.88162
-7.87926
-7.8736
-7.86446
-7.85164
-7.83494
-7.81416
-7.78912
-7.75962
-7.72546
-7.68646
-7.64244
-7.59322
-7.53862
-7.47846
-7.41259
-7.34087
-7.26315
-7.1793
-7.0892
-6.99272
-6.88977
-6.78023
-6.66389
-6.54063
-6.41053
-6.27366
-6.12996
-5.97939
-5.82194
-5.6576
-5.4864
-5.30836
-5.12356
-4.93204
-4.73389
-4.52922
-4.31813
-4.10075
-3.87722
-3.64771
-3.41237
-3.1714
-2.92499
-2.67334
-2.41669
-2.15527
-1.88933
-1.61913
-1.34493
-1.06699
-0.785612
-0.501075
-0.213692
0.0762301
0.368387
0.662487
0.958212
1.25521
1.55314
1.85171
2.15059
2.44946
2.748
3.04588
3.34278
3.63841
3.93246
4.22464
4.51466
4.80225
5.08714
5.36908
5.64782
5.92312
6.19478
6.46258
6.72632
6.98583
7.24093
7.49148
7.73733
7.97836
8.21444
8.44548
8.67139
8.89207
9.10745
9.3175
9.52219
9.72145
9.91525
10.1035
10.2861
10.4632
10.6346
10.8005
10.9609
11.1158
11.2653
11.4097
11.5493
11.6847
11.8178
11.9485
12.0903
12.2162
-6.73364
-6.73529
-6.73778
-6.73982
-6.74111
-6.74194
-6.74261
-6.7433
-6.74416
-6.7453
-6.7468
-6.74872
-6.75108
-6.75393
-6.7573
-6.76122
-6.76572
-6.77086
-6.77666
-6.78318
-6.79046
-6.79854
-6.80747
-6.81726
-6.82796
-6.83954
-6.85199
-6.86526
-6.87932
-6.89421
-6.91005
-6.92688
-6.9447
-6.96351
-6.9833
-7.00407
-7.02586
-7.04889
-7.07338
-7.09894
-7.12488
-7.15109
-7.17786
-7.20512
-7.2328
-7.26089
-7.28932
-7.31801
-7.34687
-7.37585
-7.40488
-7.4339
-7.46283
-7.49161
-7.52014
-7.54836
-7.57616
-7.60345
-7.63013
-7.6561
-7.68123
-7.70541
-7.72851
-7.75039
-7.77092
-7.78996
-7.80734
-7.82291
-7.83651
-7.84797
-7.85712
-7.86377
-7.86774
-7.86885
-7.86691
-7.86173
-7.8531
-7.84085
-7.82476
-7.80465
-7.78031
-7.75157
-7.71821
-7.68006
-7.63694
-7.58865
-7.53503
-7.4759
-7.4111
-7.34047
-7.26389
-7.1812
-7.09227
-6.99698
-6.89523
-6.7869
-6.67187
-6.55005
-6.42144
-6.28605
-6.14385
-5.9948
-5.83888
-5.67609
-5.50646
-5.33001
-5.14679
-4.95686
-4.76032
-4.55725
-4.34776
-4.13197
-3.91004
-3.6821
-3.44833
-3.2089
-2.96401
-2.71387
-2.4587
-2.19873
-1.93421
-1.66539
-1.39254
-1.11591
-0.835792
-0.552478
-0.266272
0.0225181
0.313598
0.606676
0.901418
1.19748
1.49455
1.79232
2.09046
2.38865
2.68656
2.98388
3.28029
3.57548
3.86916
4.16103
4.4508
4.73821
5.02297
5.30484
5.58357
5.85892
6.13068
6.39862
6.66257
6.92232
7.17772
7.4286
7.67482
7.91624
8.15274
8.38425
8.61066
8.83189
9.04785
9.2585
9.46383
9.66385
9.85851
10.0477
10.2312
10.4092
10.5816
10.7485
10.9098
11.0656
11.2162
11.3616
11.5023
11.6388
11.7729
11.9035
12.0436
12.1556
-6.72662
-6.72908
-6.73302
-6.73625
-6.73837
-6.73984
-6.74103
-6.74214
-6.74333
-6.74474
-6.74646
-6.74856
-6.7511
-6.75412
-6.75765
-6.76173
-6.7664
-6.77171
-6.77768
-6.78437
-6.79182
-6.80006
-6.80913
-6.81905
-6.82985
-6.84153
-6.85408
-6.86748
-6.88172
-6.89683
-6.91283
-6.92976
-6.94763
-6.96644
-6.98619
-7.0069
-7.02859
-7.05132
-7.07511
-7.09983
-7.12527
-7.15128
-7.1778
-7.20472
-7.232
-7.25963
-7.28757
-7.31578
-7.34418
-7.37272
-7.40134
-7.42997
-7.45854
-7.48698
-7.51521
-7.54315
-7.5707
-7.59777
-7.62427
-7.65008
-7.67508
-7.69917
-7.72221
-7.74407
-7.76462
-7.78369
-7.80115
-7.81683
-7.83058
-7.84221
-7.85156
-7.85846
-7.86271
-7.86412
-7.86252
-7.85771
-7.84949
-7.83767
-7.82205
-7.80244
-7.77864
-7.75045
-7.71769
-7.68016
-7.63769
-7.59008
-7.53716
-7.47877
-7.41472
-7.34488
-7.26911
-7.18725
-7.09917
-7.00475
-6.90388
-6.79645
-6.68237
-6.56156
-6.43399
-6.29964
-6.15848
-6.01048
-5.85561
-5.69389
-5.52533
-5.34996
-5.16782
-4.97899
-4.78354
-4.58156
-4.37315
-4.15846
-3.9376
-3.71073
-3.47802
-3.23964
-2.99578
-2.74666
-2.49249
-2.23351
-1.96995
-1.70207
-1.43011
-1.15436
-0.875093
-0.592601
-0.307184
-0.0191494
0.271223
0.563622
0.857709
1.15315
1.44965
1.74691
2.04458
2.34233
2.63985
2.93682
3.23293
3.52787
3.82134
4.11304
4.4027
4.69002
4.97475
5.25663
5.53541
5.81086
6.08275
6.35087
6.61502
6.87502
7.13069
7.38187
7.62843
7.87023
8.10715
8.3391
8.56596
8.78766
9.00412
9.21527
9.42106
9.62151
9.81657
10.0062
10.1902
10.3687
10.5416
10.709
10.8708
11.0272
11.1783
11.3243
11.4655
11.6023
11.7363
11.8654
12.0021
12.1012
-6.72005
-6.72328
-6.72859
-6.733
-6.73602
-6.73822
-6.74003
-6.74167
-6.74333
-6.74515
-6.74725
-6.74969
-6.75256
-6.75589
-6.75973
-6.76412
-6.7691
-6.77472
-6.781
-6.788
-6.79575
-6.80429
-6.81365
-6.82386
-6.83494
-6.84689
-6.85971
-6.87339
-6.88793
-6.90333
-6.9196
-6.93674
-6.95475
-6.97366
-6.99346
-7.01416
-7.03577
-7.05828
-7.08165
-7.10582
-7.13068
-7.15615
-7.18217
-7.20864
-7.23551
-7.26273
-7.29028
-7.31809
-7.34612
-7.37431
-7.4026
-7.43092
-7.45921
-7.4874
-7.5154
-7.54314
-7.57052
-7.59746
-7.62384
-7.64956
-7.67451
-7.69858
-7.72162
-7.74351
-7.7641
-7.78326
-7.80083
-7.81664
-7.83054
-7.84236
-7.85192
-7.85904
-7.86354
-7.86523
-7.86392
-7.85942
-7.85153
-7.84006
-7.82481
-7.80559
-7.78219
-7.75443
-7.72211
-7.68504
-7.64304
-7.59592
-7.5435
-7.48563
-7.42212
-7.35283
-7.27761
-7.19633
-7.10884
-7.01502
-6.91477
-6.80798
-6.69456
-6.57444
-6.44758
-6.31393
-6.17348
-6.02618
-5.87203
-5.71102
-5.54318
-5.36853
-5.18713
-4.99903
-4.80431
-4.60306
-4.39539
-4.18143
-3.9613
-3.73516
-3.50317
-3.2655
-3.02236
-2.77394
-2.52046
-2.26215
-1.99925
-1.73201
-1.46069
-1.18555
-0.906871
-0.624952
-0.34009
-0.0525807
0.237293
0.529207
0.822822
1.11782
1.41393
1.71082
2.00815
2.3056
2.60284
2.89956
3.19546
3.49021
3.78353
4.07512
4.36469
4.65196
4.93667
5.21857
5.49739
5.77291
6.04491
6.31316
6.57747
6.83765
7.09354
7.34497
7.5918
7.8339
8.07113
8.3034
8.53061
8.75266
8.96947
9.18097
9.38709
9.58783
9.78316
9.97303
10.1574
10.3362
10.5094
10.6771
10.8393
10.9961
11.1475
11.2937
11.4351
11.5717
11.705
11.8321
11.9653
12.053
-6.715
-6.71894
-6.72537
-6.73081
-6.73467
-6.7376
-6.74004
-6.74226
-6.74444
-6.74675
-6.74929
-6.75216
-6.75543
-6.75916
-6.7634
-6.76818
-6.77355
-6.77956
-6.78623
-6.79361
-6.80173
-6.81063
-6.82034
-6.83089
-6.84228
-6.85453
-6.86764
-6.8816
-6.8964
-6.91205
-6.92853
-6.94585
-6.96399
-6.98297
-7.00279
-7.02344
-7.04493
-7.06725
-7.09034
-7.11416
-7.13864
-7.16372
-7.18934
-7.21544
-7.24196
-7.26886
-7.29609
-7.3236
-7.35135
-7.37928
-7.40733
-7.43545
-7.46355
-7.49157
-7.51944
-7.54707
-7.57436
-7.60124
-7.62759
-7.6533
-7.67827
-7.70237
-7.72548
-7.74745
-7.76815
-7.78743
-7.80514
-7.82111
-7.83519
-7.84719
-7.85695
-7.86429
-7.86901
-7.87094
-7.86988
-7.86564
-7.85802
-7.84682
-7.83186
-7.81292
-7.78983
-7.76237
-7.73035
-7.6936
-7.65192
-7.60513
-7.55305
-7.49551
-7.43234
-7.3634
-7.28855
-7.20763
-7.12051
-7.02708
-6.92721
-6.82083
-6.70782
-6.58814
-6.46171
-6.32851
-6.18849
-6.04163
-5.88793
-5.72737
-5.55998
-5.38578
-5.20484
-5.0172
-4.82295
-4.62217
-4.41498
-4.20149
-3.98184
-3.75617
-3.52466
-3.28746
-3.04479
-2.79684
-2.54383
-2.28599
-2.02355
-1.75675
-1.48586
-1.21114
-0.932888
-0.651375
-0.36691
-0.0797735
0.209733
0.50128
0.794542
1.08922
1.38503
1.68165
1.97872
2.27592
2.57294
2.86946
3.16518
3.45978
3.75297
4.04444
4.33393
4.62114
4.90582
5.1877
5.46653
5.74208
6.01412
6.28245
6.54686
6.80717
7.06321
7.31481
7.56182
7.80411
8.04156
8.27406
8.5015
8.72379
8.94085
9.15259
9.35896
9.55993
9.75548
9.94556
10.1301
10.3092
10.4827
10.6506
10.8131
10.97
11.1216
11.2679
11.4092
11.5454
11.6776
11.8024
11.9325
12.0103
-6.71223
-6.71671
-6.72394
-6.73018
-6.73475
-6.73833
-6.74138
-6.74415
-6.74685
-6.74964
-6.75265
-6.75596
-6.75967
-6.76382
-6.76848
-6.77368
-6.77946
-6.78587
-6.79294
-6.80071
-6.80922
-6.81848
-6.82854
-6.8394
-6.85109
-6.86362
-6.87698
-6.89118
-6.9062
-6.92204
-6.93869
-6.95614
-6.97438
-6.99342
-7.01325
-7.03386
-7.05525
-7.0774
-7.10028
-7.12385
-7.14805
-7.17285
-7.19819
-7.22402
-7.25029
-7.27696
-7.30397
-7.33129
-7.35886
-7.38663
-7.41454
-7.44254
-7.47055
-7.4985
-7.52632
-7.55393
-7.58123
-7.60812
-7.63452
-7.6603
-7.68535
-7.70955
-7.73277
-7.75487
-7.77571
-7.79515
-7.81302
-7.82917
-7.84342
-7.85562
-7.86557
-7.8731
-7.87803
-7.88015
-7.87929
-7.87525
-7.86783
-7.85684
-7.84207
-7.82334
-7.80043
-7.77316
-7.74134
-7.70478
-7.66328
-7.61667
-7.56478
-7.50742
-7.44444
-7.37568
-7.30101
-7.22027
-7.13334
-7.0401
-6.94044
-6.83425
-6.72146
-6.60199
-6.47579
-6.34282
-6.20302
-6.0564
-5.90292
-5.74259
-5.57544
-5.40149
-5.2208
-5.03341
-4.83942
-4.63891
-4.43199
-4.21878
-3.99941
-3.77403
-3.54281
-3.30591
-3.06354
-2.81589
-2.56319
-2.30564
-2.0435
-1.777
-1.50641
-1.23199
-0.954019
-0.672794
-0.388606
-0.101738
0.187492
0.478762
0.771759
1.0662
1.36178
1.65818
1.95504
2.25204
2.54888
2.84524
3.1408
3.43526
3.72832
4.01969
4.30908
4.59622
4.88083
5.16267
5.44148
5.71703
5.98909
6.25745
6.52191
6.78229
7.03841
7.2901
7.53723
7.77965
8.01723
8.24988
8.47747
8.69993
8.91716
9.12908
9.33563
9.53677
9.73249
9.92274
10.1075
10.2867
10.4604
10.6285
10.7911
10.9481
11.0998
11.246
11.387
11.5226
11.6536
11.776
11.9032
11.9724
-6.71206
-6.71689
-6.72461
-6.73138
-6.7365
-6.74061
-6.74417
-6.74743
-6.7506
-6.75384
-6.75727
-6.76101
-6.76512
-6.76967
-6.77472
-6.7803
-6.78646
-6.79325
-6.80069
-6.80881
-6.81766
-6.82725
-6.8376
-6.84875
-6.86069
-6.87345
-6.88701
-6.90138
-6.91656
-6.93253
-6.94929
-6.96683
-6.98514
-7.00422
-7.02406
-7.04464
-7.06596
-7.088
-7.11074
-7.13413
-7.15816
-7.18277
-7.20793
-7.23358
-7.2597
-7.28622
-7.31311
-7.34033
-7.36781
-7.39552
-7.42339
-7.45136
-7.47937
-7.50734
-7.5352
-7.56286
-7.59023
-7.61722
-7.64372
-7.66963
-7.69481
-7.71916
-7.74253
-7.7648
-7.78581
-7.80542
-7.82347
-7.83979
-7.85423
-7.86659
-7.87672
-7.88441
-7.8895
-7.89178
-7.89106
-7.88716
-7.87987
-7.869
-7.85434
-7.83571
-7.81289
-7.78571
-7.75396
-7.71747
-7.67603
-7.62948
-7.57763
-7.52031
-7.45737
-7.38864
-7.314
-7.2333
-7.1464
-7.05318
-6.95355
-6.8474
-6.73466
-6.61524
-6.48909
-6.35617
-6.21643
-6.06986
-5.91645
-5.7562
-5.58912
-5.41525
-5.23465
-5.04737
-4.85348
-4.65309
-4.44629
-4.23322
-4.01399
-3.78876
-3.55769
-3.32097
-3.07877
-2.83131
-2.57879
-2.32144
-2.05948
-1.79318
-1.52279
-1.24857
-0.97081
-0.689792
-0.405801
-0.11914
0.169875
0.460929
0.753721
1.04796
1.34337
1.63958
1.93626
2.2331
2.52977
2.82597
3.12138
3.4157
3.70863
3.99989
4.28918
4.57622
4.86076
5.14254
5.4213
5.69681
5.96885
6.2372
6.50167
6.76206
7.01821
7.26994
7.51713
7.75961
7.99728
8.23001
8.4577
8.68026
8.8976
9.10964
9.31632
9.51759
9.71343
9.9038
10.0887
10.268
10.4418
10.61
10.7727
10.9298
11.0813
11.2274
11.3679
11.5027
11.6324
11.7524
11.8771
11.9388
-6.71452
-6.7195
-6.72741
-6.73446
-6.73994
-6.74445
-6.7484
-6.75206
-6.75561
-6.75922
-6.76302
-6.7671
-6.77155
-6.77644
-6.78182
-6.78773
-6.79421
-6.8013
-6.80904
-6.81745
-6.82656
-6.8364
-6.84698
-6.85833
-6.87045
-6.88336
-6.89706
-6.91155
-6.92682
-6.94287
-6.95969
-6.97729
-6.99563
-7.01473
-7.03457
-7.05513
-7.07641
-7.09839
-7.12105
-7.14436
-7.16829
-7.19281
-7.21787
-7.24345
-7.2695
-7.29598
-7.32284
-7.35004
-7.37753
-7.40526
-7.43317
-7.4612
-7.48929
-7.51735
-7.54532
-7.57311
-7.60062
-7.62776
-7.65442
-7.68048
-7.70584
-7.73036
-7.75392
-7.77636
-7.79755
-7.81733
-7.83554
-7.85202
-7.8666
-7.87911
-7.88936
-7.89717
-7.90235
-7.90472
-7.90408
-7.90024
-7.89299
-7.88215
-7.86751
-7.84887
-7.82605
-7.79884
-7.76705
-7.7305
-7.689
-7.64238
-7.59045
-7.53304
-7.47001
-7.40119
-7.32644
-7.24563
-7.15863
-7.06531
-6.96558
-6.85934
-6.7465
-6.62699
-6.50076
-6.36776
-6.22795
-6.08131
-5.92784
-5.76753
-5.60041
-5.42651
-5.24589
-5.05859
-4.86471
-4.66433
-4.45756
-4.24452
-4.02534
-3.80017
-3.56918
-3.33254
-3.09044
-2.84308
-2.59068
-2.33345
-2.07163
-1.80547
-1.53522
-1.26116
-0.983553
-0.702694
-0.418866
-0.132383
0.156446
0.447318
0.739929
1.034
1.32922
1.62526
1.92176
2.21842
2.51492
2.81095
3.10621
3.40038
3.69318
3.9843
4.27346
4.5604
4.84483
5.12651
5.40518
5.68062
5.9526
6.2209
6.48533
6.74569
7.00182
7.25356
7.50075
7.74325
7.98094
8.21371
8.44145
8.66406
8.88146
9.09357
9.30033
9.50168
9.6976
9.88805
10.073
10.2524
10.4263
10.5945
10.7572
10.9142
11.0657
11.2114
11.3514
11.4853
11.6136
11.7314
11.8538
11.909
-6.71941
-6.72437
-6.73221
-6.73931
-6.74496
-6.7497
-6.75393
-6.75786
-6.76169
-6.76557
-6.76964
-6.77399
-6.7787
-6.78383
-6.78944
-6.79558
-6.80228
-6.80958
-6.81752
-6.82611
-6.83539
-6.84537
-6.85609
-6.86756
-6.87978
-6.89277
-6.90654
-6.92108
-6.9364
-6.95249
-6.96934
-6.98696
-7.00532
-7.02443
-7.04428
-7.06485
-7.08612
-7.10809
-7.13073
-7.15402
-7.17793
-7.20243
-7.2275
-7.25309
-7.27916
-7.30567
-7.33258
-7.35985
-7.38742
-7.41525
-7.44328
-7.47144
-7.49966
-7.52788
-7.55601
-7.58397
-7.61166
-7.63898
-7.66582
-7.69207
-7.71761
-7.74231
-7.76603
-7.78864
-7.80997
-7.82989
-7.84823
-7.86482
-7.87949
-7.89207
-7.90238
-7.91023
-7.91544
-7.91781
-7.91715
-7.91327
-7.90597
-7.89505
-7.88031
-7.86157
-7.83862
-7.81127
-7.77933
-7.74261
-7.70093
-7.65412
-7.60199
-7.54438
-7.48113
-7.4121
-7.33714
-7.25612
-7.1689
-7.07537
-6.97543
-6.86898
-6.75594
-6.63625
-6.50983
-6.37666
-6.23668
-6.08988
-5.93626
-5.77582
-5.60858
-5.43457
-5.25385
-5.06648
-4.87253
-4.6721
-4.4653
-4.25224
-4.03306
-3.8079
-3.57694
-3.34035
-3.09831
-2.85102
-2.59871
-2.34157
-2.07986
-1.81381
-1.5437
-1.26977
-0.992316
-0.711612
-0.427957
-0.141656
0.146984
0.437669
0.730087
1.02397
1.31901
1.61485
1.91115
2.20762
2.50393
2.79977
3.09484
3.38884
3.68146
3.97242
4.26142
4.5482
4.83249
5.11403
5.39258
5.6679
5.93977
6.20798
6.47232
6.73262
6.98868
7.24037
7.48751
7.72999
7.96766
8.20042
8.42816
8.65078
8.8682
9.08034
9.28713
9.48852
9.68449
9.87498
10.06
10.2394
10.4133
10.5816
10.7442
10.9011
11.0523
11.1977
11.3372
11.4701
11.597
11.7126
11.8328
11.8827
-6.72641
-6.73121
-6.73875
-6.7457
-6.75135
-6.75617
-6.76051
-6.7646
-6.76859
-6.77264
-6.77686
-6.78136
-6.7862
-6.79147
-6.7972
-6.80344
-6.81024
-6.81763
-6.82564
-6.8343
-6.84364
-6.85369
-6.86445
-6.87595
-6.88821
-6.90122
-6.915
-6.92956
-6.94488
-6.96098
-6.97784
-6.99547
-7.01385
-7.03297
-7.05284
-7.07343
-7.09474
-7.11674
-7.13941
-7.16274
-7.1867
-7.21126
-7.23638
-7.26203
-7.28818
-7.3148
-7.34183
-7.36924
-7.39696
-7.42495
-7.45314
-7.48147
-7.50987
-7.53828
-7.56659
-7.59473
-7.6226
-7.6501
-7.67711
-7.70353
-7.72922
-7.75406
-7.7779
-7.80061
-7.82204
-7.84202
-7.86041
-7.87702
-7.8917
-7.90426
-7.91453
-7.92231
-7.92743
-7.92969
-7.9289
-7.92487
-7.91739
-7.90628
-7.89134
-7.87237
-7.84917
-7.82157
-7.78936
-7.75236
-7.71039
-7.66328
-7.61085
-7.55294
-7.48939
-7.42004
-7.34478
-7.26345
-7.17593
-7.08211
-6.98188
-6.87516
-6.76185
-6.6419
-6.51524
-6.38182
-6.24162
-6.09462
-5.9408
-5.78018
-5.61278
-5.43863
-5.25778
-5.0703
-4.87626
-4.67576
-4.4689
-4.25581
-4.03662
-3.81147
-3.58053
-3.34398
-3.10201
-2.85481
-2.60258
-2.34556
-2.08397
-1.81807
-1.5481
-1.27434
-0.99706
-0.716543
-0.43309
-0.146999
0.141432
0.431897
0.72409
1.01776
1.31257
1.60817
1.90423
2.20045
2.49653
2.79214
3.08698
3.38075
3.67315
3.96389
4.25268
4.53926
4.82335
5.10471
5.38308
5.65824
5.92995
6.19801
6.46222
6.72239
6.97835
7.22993
7.47699
7.71939
7.957
8.18971
8.41741
8.64
8.85739
9.06952
9.27632
9.47772
9.6737
9.86421
10.0492
10.2287
10.4025
10.5708
10.7333
10.8901
11.0411
11.186
11.3248
11.4567
11.5822
11.6958
11.814
11.8594
-6.73511
-6.73963
-6.74672
-6.75334
-6.75883
-6.76358
-6.76791
-6.772
-6.77601
-6.78009
-6.78433
-6.78884
-6.79369
-6.79895
-6.80466
-6.81089
-6.81766
-6.82502
-6.83301
-6.84165
-6.85096
-6.86097
-6.8717
-6.88317
-6.89539
-6.90837
-6.92213
-6.93665
-6.95196
-6.96804
-6.98489
-7.00252
-7.02091
-7.04006
-7.05996
-7.0806
-7.10197
-7.12403
-7.14677
-7.17018
-7.19421
-7.21886
-7.24408
-7.26985
-7.29614
-7.32291
-7.35011
-7.37769
-7.40559
-7.43376
-7.46213
-7.49064
-7.51921
-7.54778
-7.57625
-7.60455
-7.63256
-7.66018
-7.6873
-7.71381
-7.73957
-7.76446
-7.78833
-7.81104
-7.83244
-7.85238
-7.87069
-7.88721
-7.90176
-7.91417
-7.92427
-7.93185
-7.93675
-7.93877
-7.93772
-7.9334
-7.92563
-7.9142
-7.89893
-7.87961
-7.85607
-7.8281
-7.79552
-7.75814
-7.71579
-7.6683
-7.61548
-7.55718
-7.49325
-7.42353
-7.34789
-7.2662
-7.17834
-7.08417
-6.98361
-6.87657
-6.76296
-6.64272
-6.51578
-6.38211
-6.24167
-6.09445
-5.94043
-5.77964
-5.61207
-5.43779
-5.25682
-5.06925
-4.87514
-4.6746
-4.46771
-4.25462
-4.03544
-3.81034
-3.57947
-3.343
-3.10113
-2.85405
-2.60196
-2.34509
-2.08368
-1.81796
-1.5482
-1.27466
-0.997603
-0.71734
-0.434148
-0.148317
0.139848
0.430025
0.721939
1.01533
1.30985
1.60513
1.90089
2.19681
2.49258
2.78789
3.08244
3.37592
3.66803
3.95849
4.24702
4.53333
4.81717
5.09828
5.37642
5.65135
5.92285
6.19071
6.45473
6.71472
6.97052
7.22195
7.46887
7.71115
7.94865
8.18126
8.40888
8.6314
8.84874
9.06083
9.26759
9.46898
9.66495
9.85545
10.0404
10.2199
10.3937
10.5619
10.7243
10.8809
11.0316
11.1761
11.3141
11.445
11.5691
11.6809
11.7972
11.8389
-6.74511
-6.74928
-6.7558
-6.76197
-6.76715
-6.77169
-6.77584
-6.77977
-6.78365
-6.78758
-6.79168
-6.79605
-6.80076
-6.80587
-6.81145
-6.81754
-6.82418
-6.83141
-6.83927
-6.84779
-6.85699
-6.86689
-6.87752
-6.8889
-6.90103
-6.91393
-6.92762
-6.94209
-6.95735
-6.97341
-6.99026
-7.00789
-7.0263
-7.04548
-7.06541
-7.08609
-7.1075
-7.12962
-7.15244
-7.17592
-7.20006
-7.22482
-7.25019
-7.27611
-7.30256
-7.32949
-7.35685
-7.38459
-7.41264
-7.44095
-7.46944
-7.49806
-7.52673
-7.55538
-7.58392
-7.61227
-7.64031
-7.66794
-7.69504
-7.7215
-7.74719
-7.77197
-7.79572
-7.81827
-7.83949
-7.85922
-7.87729
-7.89355
-7.90782
-7.91992
-7.92968
-7.93692
-7.94146
-7.94309
-7.94164
-7.93692
-7.92872
-7.91687
-7.90116
-7.8814
-7.85741
-7.82899
-7.79596
-7.75814
-7.71535
-7.66742
-7.61417
-7.55545
-7.49109
-7.42097
-7.34495
-7.26289
-7.17466
-7.08015
-6.97926
-6.87191
-6.758
-6.63749
-6.5103
-6.3764
-6.23575
-6.08834
-5.93416
-5.77322
-5.60554
-5.43117
-5.25014
-5.06252
-4.8684
-4.66786
-4.46102
-4.24798
-4.0289
-3.8039
-3.57316
-3.33686
-3.09516
-2.84828
-2.59641
-2.33978
-2.07862
-1.81318
-1.54371
-1.27047
-0.993744
-0.71382
-0.430962
-0.145472
0.142328
0.432128
0.723691
1.01673
1.31084
1.60572
1.90108
2.19662
2.49201
2.78694
3.08111
3.37422
3.66597
3.95607
4.24424
4.53022
4.81373
5.09452
5.37235
5.64699
5.91822
6.18581
6.44958
6.70934
6.96492
7.21616
7.46289
7.705
7.94235
8.17483
8.40232
8.62474
8.84199
9.05401
9.26072
9.46206
9.658
9.84847
10.0334
10.2128
10.3866
10.5547
10.717
10.8734
11.0237
11.1677
11.3051
11.435
11.5577
11.6677
11.7821
11.821
-6.75605
-6.75984
-6.76572
-6.77133
-6.77607
-6.78022
-6.78402
-6.78762
-6.79116
-6.79478
-6.79858
-6.80265
-6.80707
-6.81191
-6.81723
-6.82307
-6.82947
-6.83648
-6.84413
-6.85244
-6.86146
-6.87119
-6.88167
-6.8929
-6.90491
-6.91771
-6.93129
-6.94568
-6.96087
-6.97686
-6.99366
-7.01125
-7.02964
-7.04881
-7.06876
-7.08945
-7.11089
-7.13306
-7.15595
-7.17953
-7.20378
-7.22866
-7.25413
-7.28015
-7.30669
-7.33369
-7.36111
-7.38889
-7.41696
-7.44527
-7.47374
-7.50232
-7.53093
-7.55949
-7.58793
-7.61614
-7.64402
-7.67147
-7.69836
-7.72457
-7.74999
-7.77448
-7.79789
-7.8201
-7.84094
-7.86028
-7.87794
-7.89376
-7.90758
-7.91922
-7.92851
-7.93527
-7.93931
-7.94044
-7.93849
-7.93326
-7.92455
-7.91219
-7.89597
-7.87571
-7.85121
-7.8223
-7.78879
-7.75049
-7.70723
-7.65884
-7.60516
-7.54601
-7.48126
-7.41076
-7.33437
-7.25195
-7.16339
-7.06857
-6.9674
-6.85978
-6.74564
-6.6249
-6.49752
-6.36345
-6.22267
-6.07515
-5.92089
-5.75989
-5.59219
-5.41782
-5.23682
-5.04926
-4.85522
-4.6548
-4.44809
-4.23522
-4.01633
-3.79156
-3.56107
-3.32503
-3.08362
-2.83705
-2.58552
-2.32924
-2.06845
-1.8034
-1.53434
-1.26153
-0.985252
-0.705759
-0.423346
-0.138321
0.148989
0.438311
0.729426
1.02198
1.31558
1.60995
1.90481
2.19986
2.49475
2.78921
3.0829
3.37554
3.66683
3.95649
4.24422
4.52977
4.81287
5.09326
5.37071
5.64499
5.91586
6.18313
6.44659
6.70605
6.96135
7.21233
7.45884
7.70073
7.93788
8.17018
8.39752
8.6198
8.83694
9.04886
9.25548
9.45677
9.65265
9.84308
10.028
10.2074
10.3811
10.5491
10.7112
10.8674
11.0174
11.1608
11.2975
11.4264
11.5478
11.6562
11.7687
11.8056
-6.76812
-6.77153
-6.77677
-6.78174
-6.78588
-6.78944
-6.79265
-6.79568
-6.79867
-6.80176
-6.80505
-6.80865
-6.81262
-6.81703
-6.82195
-6.82742
-6.83348
-6.84016
-6.84751
-6.85554
-6.86428
-6.87376
-6.884
-6.89501
-6.90681
-6.9194
-6.93281
-6.94703
-6.96207
-6.97792
-6.99457
-7.01204
-7.03032
-7.0494
-7.06928
-7.08994
-7.11135
-7.1335
-7.15636
-7.17992
-7.20413
-7.22895
-7.25435
-7.28028
-7.3067
-7.33357
-7.36082
-7.3884
-7.41626
-7.44433
-7.47254
-7.50085
-7.52917
-7.55743
-7.58553
-7.61337
-7.64085
-7.66786
-7.69429
-7.72003
-7.74494
-7.7689
-7.79177
-7.81342
-7.8337
-7.85245
-7.86953
-7.88476
-7.89798
-7.90903
-7.91772
-7.92388
-7.92733
-7.92788
-7.92535
-7.91954
-7.91028
-7.89737
-7.88062
-7.85983
-7.83484
-7.80543
-7.77145
-7.73269
-7.689
-7.64021
-7.58614
-7.52664
-7.46155
-7.39073
-7.31405
-7.23136
-7.14255
-7.04751
-6.94614
-6.83836
-6.72409
-6.60325
-6.47579
-6.34168
-6.20088
-6.05337
-5.89916
-5.73825
-5.57065
-5.39642
-5.21559
-5.02823
-4.83442
-4.63426
-4.42784
-4.21529
-3.99675
-3.77235
-3.54226
-3.30665
-3.06569
-2.81959
-2.56854
-2.31278
-2.05253
-1.78802
-1.51954
-1.24731
-0.971614
-0.692708
-0.410904
-0.126511
0.16016
0.448883