/*--------------------------------*- C++ -*----------------------------------*\
  =========                 |
  \\      /  F ield         | OpenFOAM: The Open Source CFD Toolbox
   \\    /   O peration     | Website:  https://openfoam.org
    \\  /    A nd           | Version:  8
     \\/     M anipulation  |
\*---------------------------------------------------------------------------*/
FoamFile
{
    version     2.0;
    format      ascii;
    class       surfaceScalarField;
    location    "285";
    object      phi;
}
// * * * * * * * * * * * * * * * * * * * * * * * * * * * * * * * * * * * * * //

dimensions      [0 3 -1 0 0 0 0];

internalField   nonuniform List<scalar> 
24170
(
3.12889e-06
5.95162e-08
3.04664e-06
8.22484e-08
2.97355e-06
7.30907e-08
2.90491e-06
6.86361e-08
2.84059e-06
6.43183e-08
2.78329e-06
5.73088e-08
2.73398e-06
4.93065e-08
2.69205e-06
4.19306e-08
2.6564e-06
3.56453e-08
2.62599e-06
3.04092e-08
2.59985e-06
2.61483e-08
2.57712e-06
2.27207e-08
2.55717e-06
1.99516e-08
2.53943e-06
1.77443e-08
2.52353e-06
1.58974e-08
2.50861e-06
1.4916e-08
2.4951e-06
1.35132e-08
1.75977e-08
2.4775e-06
3.45314e-06
2.36251e-08
3.45702e-06
7.83685e-08
3.45055e-06
7.95591e-08
3.4391e-06
8.00882e-08
3.42432e-06
7.90925e-08
3.40708e-06
7.45542e-08
3.38787e-06
6.8515e-08
3.36736e-06
6.2443e-08
3.34623e-06
5.67752e-08
3.32507e-06
5.15695e-08
3.30436e-06
4.68526e-08
3.28439e-06
4.26926e-08
3.26535e-06
3.89947e-08
3.24728e-06
3.58113e-08
3.23028e-06
3.28926e-08
3.21428e-06
3.09201e-08
3.1996e-06
2.8189e-08
2.92633e-08
3.18794e-06
3.66826e-06
1.78798e-08
3.67919e-06
6.74412e-08
3.68542e-06
7.33233e-08
3.68947e-06
7.60426e-08
3.69107e-06
7.74889e-08
3.69012e-06
7.5512e-08
3.68699e-06
7.16412e-08
3.68216e-06
6.72703e-08
3.67603e-06
6.29092e-08
3.66891e-06
5.86857e-08
3.66109e-06
5.46713e-08
3.65282e-06
5.0964e-08
3.64429e-06
4.75308e-08
3.63565e-06
4.44475e-08
3.62698e-06
4.15586e-08
3.61864e-06
3.92679e-08
3.61013e-06
3.66977e-08
3.56838e-08
3.60371e-06
3.92587e-06
1.7394e-08
3.93592e-06
5.7392e-08
3.94258e-06
6.66699e-08
3.94812e-06
7.04955e-08
3.95254e-06
7.30675e-08
3.9555e-06
7.25546e-08
3.95718e-06
6.99604e-08
3.95783e-06
6.66224e-08
3.95763e-06
6.31049e-08
3.95674e-06
5.95767e-08
3.95529e-06
5.61228e-08
3.9534e-06
5.28521e-08
3.95117e-06
4.9762e-08
3.9487e-06
4.69177e-08
3.94603e-06
4.4233e-08
3.94339e-06
4.19062e-08
3.94054e-06
3.955e-08
3.76898e-08
3.93853e-06
4.20819e-06
1.63263e-08
4.21599e-06
4.95979e-08
4.22169e-06
6.09669e-08
4.2268e-06
6.53864e-08
4.23156e-06
6.83121e-08
4.23554e-06
6.85739e-08
4.23872e-06
6.67808e-08
4.24121e-06
6.41311e-08
4.24312e-06
6.11959e-08
4.24453e-06
5.81608e-08
4.24554e-06
5.51197e-08
4.24621e-06
5.21786e-08
4.24661e-06
4.93595e-08
4.24682e-06
4.67118e-08
4.24686e-06
4.41935e-08
4.24687e-06
4.18903e-08
4.2468e-06
3.96239e-08
3.7483e-08
4.24701e-06
4.51069e-06
1.47241e-08
4.51689e-06
4.3399e-08
4.52214e-06
5.57126e-08
4.52696e-06
6.05649e-08
4.53168e-06
6.3592e-08
4.53594e-06
6.43154e-08
4.53963e-06
6.30952e-08
4.5428e-06
6.09552e-08
4.54554e-06
5.84556e-08
4.54791e-06
5.57936e-08
4.54996e-06
5.30736e-08
4.55174e-06
5.03937e-08
4.55331e-06
4.77933e-08
4.55471e-06
4.53086e-08
4.55598e-06
4.29229e-08
4.55721e-06
4.06641e-08
4.55839e-06
3.84428e-08
3.62254e-08
4.55965e-06
4.83431e-06
1.31358e-08
4.83963e-06
3.80745e-08
4.84476e-06
5.05826e-08
4.84947e-06
5.58559e-08
4.85411e-06
5.89512e-08
4.85844e-06
5.99881e-08
4.86232e-06
5.92108e-08
4.8658e-06
5.74754e-08
4.86894e-06
5.53228e-08
4.87177e-06
5.29615e-08
4.87434e-06
5.05039e-08
4.87669e-06
4.8042e-08
4.87886e-06
4.56249e-08
4.88089e-06
4.32814e-08
4.8828e-06
4.10079e-08
4.88466e-06
3.88063e-08
4.88647e-06
3.66271e-08
3.44178e-08
4.88828e-06
5.18103e-06
1.16845e-08
5.18576e-06
3.33496e-08
5.19076e-06
4.5575e-08
5.19542e-06
5.11982e-08
5.20002e-06
5.43575e-08
5.20438e-06
5.56191e-08
5.20839e-06
5.52027e-08
5.21206e-06
5.38106e-08
5.21543e-06
5.19533e-08
5.21854e-06
4.98503e-08
5.22142e-06
4.76194e-08
5.22412e-06
4.53489e-08
5.22665e-06
4.30928e-08
5.22905e-06
4.08777e-08
5.23135e-06
3.87065e-08
5.23359e-06
3.65732e-08
5.23576e-06
3.44479e-08
3.2291e-08
5.23789e-06
5.55268e-06
1.03376e-08
5.55689e-06
2.91428e-08
5.5617e-06
4.07626e-08
5.56632e-06
4.65829e-08
5.57089e-06
4.97853e-08
5.57531e-06
5.12044e-08
5.57942e-06
5.10864e-08
5.58324e-06
4.99967e-08
5.58679e-06
4.84033e-08
5.5901e-06
4.65333e-08
5.59321e-06
4.45079e-08
5.59615e-06
4.24138e-08
5.59893e-06
4.03069e-08
5.6016e-06
3.82148e-08
5.60416e-06
3.61448e-08
5.60664e-06
3.40918e-08
5.60905e-06
3.20374e-08
2.99616e-08
5.61138e-06
5.95104e-06
9.07833e-09
5.95479e-06
2.53906e-08
5.95937e-06
3.61845e-08
5.96393e-06
4.20211e-08
5.96848e-06
4.52308e-08
5.97294e-06
4.67509e-08
5.97715e-06
4.68727e-08
5.9811e-06
4.60489e-08
5.9848e-06
4.46953e-08
5.9883e-06
4.30405e-08
5.9916e-06
4.12079e-08
5.99473e-06
3.92824e-08
5.99771e-06
3.73205e-08
6.00058e-06
3.5352e-08
6.00333e-06
3.33885e-08
6.006e-06
3.14293e-08
6.00857e-06
2.94644e-08
2.74915e-08
6.01104e-06
6.37798e-06
7.90853e-09
6.38135e-06
2.20255e-08
6.38568e-06
3.18516e-08
6.39017e-06
3.75296e-08
6.3947e-06
4.06997e-08
6.39918e-06
4.22709e-08
6.40348e-06
4.25742e-08
6.40755e-06
4.19781e-08
6.4114e-06
4.08418e-08
6.41506e-06
3.93873e-08
6.41853e-06
3.77383e-08
6.42183e-06
3.59775e-08
6.42499e-06
3.41609e-08
6.42802e-06
3.23211e-08
6.43094e-06
3.04733e-08
6.43374e-06
2.86224e-08
6.43644e-06
2.67656e-08
2.49129e-08
6.43902e-06
5.74176e-06
6.98255e-09
5.74434e-06
1.94417e-08
5.74782e-06
2.83791e-08
5.75155e-06
3.37974e-08
5.75536e-06
3.68922e-08
5.75915e-06
3.84729e-08
5.76284e-06
3.88854e-08
5.76637e-06
3.84501e-08
5.76973e-06
3.74801e-08
5.77294e-06
3.61841e-08
5.77599e-06
3.46842e-08
5.77891e-06
3.30608e-08
5.7817e-06
3.13694e-08
5.78437e-06
2.96438e-08
5.78695e-06
2.79026e-08
5.78941e-06
2.61547e-08
5.79178e-06
2.4402e-08
2.26636e-08
5.79403e-06
6.99914e-06
5.9988e-09
7.00187e-06
1.67077e-08
7.00564e-06
2.46115e-08
7.00981e-06
2.9626e-08
7.01414e-06
3.25667e-08
7.0185e-06
3.41129e-08
7.02278e-06
3.46055e-08
7.02691e-06
3.4319e-08
7.03087e-06
3.35171e-08
7.03467e-06
3.23897e-08
7.0383e-06
3.10539e-08
7.04177e-06
2.95868e-08
7.0451e-06
2.80419e-08
7.04829e-06
2.64544e-08
7.05134e-06
2.48454e-08
7.05427e-06
2.32281e-08
7.05706e-06
2.16085e-08
2.00118e-08
7.05971e-06
8.53188e-06
4.96512e-09
8.53474e-06
1.38509e-08
8.53877e-06
2.05768e-08
8.54338e-06
2.50229e-08
8.54824e-06
2.77055e-08
8.55319e-06
2.9154e-08
8.55812e-06
2.96812e-08
8.56292e-06
2.95178e-08
8.56756e-06
2.88772e-08
8.57203e-06
2.79238e-08
8.57631e-06
2.67656e-08
8.58043e-06
2.54743e-08
8.58437e-06
2.41005e-08
8.58814e-06
2.26791e-08
8.59176e-06
2.12331e-08
8.5952e-06
1.97789e-08
8.59849e-06
1.83257e-08
1.69016e-08
8.6016e-06
1.04003e-05
3.89084e-09
1.04033e-05
1.08906e-08
1.04075e-05
1.62971e-08
1.04126e-05
1.99975e-08
1.0418e-05
2.22931e-08
1.04236e-05
2.35605e-08
1.04292e-05
2.40601e-08
1.04347e-05
2.39791e-08
1.04401e-05
2.3482e-08
1.04453e-05
2.27018e-08
1.04504e-05
2.17319e-08
1.04552e-05
2.06362e-08
1.04599e-05
1.94601e-08
1.04643e-05
1.82364e-08
1.04685e-05
1.69884e-08
1.04726e-05
1.57338e-08
1.04764e-05
1.44834e-08
1.32658e-08
1.04801e-05
1.26779e-05
2.781e-09
1.2681e-05
7.82174e-09
1.26855e-05
1.17714e-08
1.26909e-05
1.45449e-08
1.26969e-05
1.63031e-08
1.27032e-05
1.72849e-08
1.27096e-05
1.768e-08
1.27159e-05
1.76276e-08
1.27222e-05
1.72454e-08
1.27283e-05
1.6631e-08
1.27341e-05
1.58574e-08
1.27398e-05
1.49766e-08
1.27452e-05
1.4026e-08
1.27504e-05
1.30341e-08
1.27554e-05
1.20218e-08
1.27601e-05
1.10059e-08
1.27646e-05
9.99668e-09
9.02111e-09
1.27688e-05
1.54543e-05
1.6251e-09
1.54576e-05
4.59859e-09
1.54624e-05
6.94303e-09
1.54683e-05
8.60648e-09
1.5475e-05
9.66357e-09
1.5482e-05
1.02392e-08
1.54892e-05
1.04427e-08
1.54965e-05
1.03582e-08
1.55037e-05
1.0056e-08
1.55107e-05
9.59623e-09
1.55176e-05
9.02584e-09
1.55242e-05
8.3798e-09
1.55305e-05
7.68448e-09
1.55366e-05
6.9604e-09
1.55424e-05
6.22356e-09
1.55479e-05
5.48715e-09
1.55531e-05
4.75938e-09
4.0631e-09
1.55581e-05
1.88389e-05
3.83281e-10
1.88424e-05
1.09734e-09
1.88477e-05
1.63899e-09
1.88543e-05
1.99242e-09
1.88618e-05
2.17814e-09
1.88698e-05
2.22375e-09
1.88781e-05
2.15105e-09
1.88865e-05
1.97988e-09
1.88948e-05
1.73049e-09
1.8903e-05
1.42145e-09
1.89109e-05
1.06831e-09
1.89186e-05
6.84056e-10
1.8926e-05
2.79811e-10
1.89331e-05
-1.34853e-10
1.89399e-05
-5.51791e-10
1.89463e-05
-9.63617e-10
1.89525e-05
-1.36601e-09
-1.7418e-09
1.89583e-05
2.29648e-05
-1.04528e-09
2.29688e-05
-2.97049e-09
2.2975e-05
-4.55947e-09
2.29828e-05
-5.77267e-09
2.29916e-05
-6.63022e-09
2.3001e-05
-7.21845e-09
2.30108e-05
-7.62477e-09
2.30207e-05
-7.90374e-09
2.30305e-05
-8.09197e-09
2.30402e-05
-8.22051e-09
2.30496e-05
-8.31298e-09
2.30586e-05
-8.38369e-09
2.30673e-05
-8.44048e-09
2.30757e-05
-8.48752e-09
2.30837e-05
-8.52684e-09
2.30913e-05
-8.55853e-09
2.30985e-05
-8.58324e-09
-8.59056e-09
2.31053e-05
1.68118e-05
-2.1664e-09
1.6815e-05
-6.1375e-09
1.68198e-05
-9.3839e-09
1.68258e-05
-1.17627e-08
1.68325e-05
-1.33326e-08
1.68396e-05
-1.43216e-08
1.68469e-05
-1.49172e-08
1.68542e-05
-1.52233e-08
1.68615e-05
-1.53187e-08
1.68685e-05
-1.52754e-08
1.68753e-05
-1.51459e-08
1.68819e-05
-1.49633e-08
1.68882e-05
-1.47481e-08
1.68943e-05
-1.45142e-08
1.69e-05
-1.42701e-08
1.69055e-05
-1.40207e-08
1.69106e-05
-1.37692e-08
-1.35094e-08
1.69156e-05
1.46356e-05
-3.24304e-09
1.46387e-05
-9.22031e-09
1.46434e-05
-1.40933e-08
1.46492e-05
-1.74996e-08
1.46555e-05
-1.96109e-08
1.4662e-05
-2.08769e-08
1.46687e-05
-2.15681e-08
1.46753e-05
-2.18204e-08
1.46817e-05
-2.17647e-08
1.46879e-05
-2.15177e-08
1.4694e-05
-2.11546e-08
1.46997e-05
-2.07203e-08
1.47052e-05
-2.02449e-08
1.47104e-05
-1.97496e-08
1.47154e-05
-1.92476e-08
1.47201e-05
-1.87465e-08
1.47246e-05
-1.82512e-08
-1.77579e-08
1.47289e-05
1.27411e-05
-4.25109e-09
1.27443e-05
-1.23438e-08
1.27491e-05
-1.89196e-08
1.27547e-05
-2.31399e-08
1.27607e-05
-2.5584e-08
1.27669e-05
-2.70263e-08
1.2773e-05
-2.77298e-08
1.2779e-05
-2.78439e-08
1.27848e-05
-2.75757e-08
1.27904e-05
-2.70904e-08
1.27957e-05
-2.64776e-08
1.28008e-05
-2.57888e-08
1.28056e-05
-2.5061e-08
1.28102e-05
-2.432e-08
1.28145e-05
-2.35811e-08
1.28186e-05
-2.28527e-08
1.28225e-05
-2.21398e-08
-2.14395e-08
1.28262e-05
1.10918e-05
-5.09201e-09
1.1095e-05
-1.55622e-08
1.11001e-05
-2.40428e-08
1.11057e-05
-2.87599e-08
1.11115e-05
-3.13128e-08
1.11173e-05
-3.28316e-08
1.1123e-05
-3.34482e-08
1.11285e-05
-3.33445e-08
1.11337e-05
-3.28229e-08
1.11387e-05
-3.20808e-08
1.11435e-05
-3.12097e-08
1.11479e-05
-3.02665e-08
1.11522e-05
-2.92942e-08
1.11562e-05
-2.83212e-08
1.11599e-05
-2.73632e-08
1.11635e-05
-2.64279e-08
1.11669e-05
-2.55196e-08
-2.4636e-08
1.11701e-05
9.65581e-06
-5.69061e-09
9.65924e-06
-1.89884e-08
9.66458e-06
-2.93863e-08
9.67008e-06
-3.4253e-08
9.67563e-06
-3.68643e-08
9.68118e-06
-3.83826e-08
9.6865e-06
-3.87712e-08
9.69152e-06
-3.83616e-08
9.69625e-06
-3.75561e-08
9.70072e-06
-3.65489e-08
9.70493e-06
-3.54188e-08
9.70889e-06
-3.42253e-08
9.71261e-06
-3.30161e-08
9.71611e-06
-3.18205e-08
9.7194e-06
-3.06537e-08
9.72249e-06
-2.95229e-08
9.7254e-06
-2.84302e-08
-2.73719e-08
9.72814e-06
8.4053e-06
-5.63622e-09
8.40963e-06
-2.33239e-08
8.41487e-06
-3.46211e-08
8.41989e-06
-3.92761e-08
8.42525e-06
-4.22233e-08
8.43065e-06
-4.37822e-08
8.43573e-06
-4.38475e-08
8.44042e-06
-4.30576e-08
8.44478e-06
-4.19147e-08
8.44883e-06
-4.05947e-08
8.45257e-06
-3.91675e-08
8.45604e-06
-3.76954e-08
8.45926e-06
-3.62279e-08
8.46223e-06
-3.4793e-08
8.46498e-06
-3.34055e-08
8.46753e-06
-3.20719e-08
8.46989e-06
-3.07941e-08
-2.95685e-08
8.47209e-06
7.3145e-06
-2.85255e-09
7.32119e-06
-3.00119e-08
7.32674e-06
-4.01722e-08
7.33168e-06
-4.42203e-08
7.33707e-06
-4.76144e-08
7.34239e-06
-4.90956e-08
7.34726e-06
-4.87169e-08
7.35166e-06
-4.74616e-08
7.35563e-06
-4.58834e-08
7.35918e-06
-4.41405e-08
7.36232e-06
-4.2314e-08
7.3651e-06
-4.04763e-08
7.36755e-06
-3.86801e-08
7.36971e-06
-3.69497e-08
7.37161e-06
-3.52999e-08
7.37327e-06
-3.37341e-08
7.37473e-06
-3.22522e-08
-3.08449e-08
7.376e-06
6.36243e-06
4.78042e-09
6.37189e-06
-3.94737e-08
6.37932e-06
-4.75951e-08
6.38595e-06
-5.08539e-08
6.39223e-06
-5.3891e-08
6.39753e-06
-5.44027e-08
6.40182e-06
-5.30044e-08
6.40529e-06
-5.09347e-08
6.40809e-06
-4.86757e-08
6.41026e-06
-4.63169e-08
6.41189e-06
-4.39379e-08
6.41303e-06
-4.1615e-08
6.41374e-06
-3.93986e-08
6.4141e-06
-3.73077e-08
6.41416e-06
-3.53545e-08
6.41396e-06
-3.35371e-08
6.41356e-06
-3.18558e-08
-3.02895e-08
6.41301e-06
5.54129e-06
8.95196e-09
5.55032e-06
-4.85024e-08
5.55833e-06
-5.56067e-08
5.56604e-06
-5.85576e-08
5.57249e-06
-6.03482e-08
5.57681e-06
-5.87236e-08
5.57905e-06
-5.52403e-08
5.5796e-06
-5.14881e-08
5.57884e-06
-4.79162e-08
5.57705e-06
-4.45248e-08
5.57445e-06
-4.13373e-08
5.57123e-06
-3.83944e-08
5.56753e-06
-3.57039e-08
5.56349e-06
-3.32599e-08
5.55919e-06
-3.10542e-08
5.55472e-06
-2.90757e-08
5.55019e-06
-2.73247e-08
-2.57478e-08
5.54565e-06
4.86019e-06
-2.3631e-08
4.86538e-06
-5.36932e-08
4.86523e-06
-5.54568e-08
4.86217e-06
-5.54928e-08
4.85699e-06
-5.51734e-08
4.84948e-06
-5.12177e-08
4.83979e-06
-4.55434e-08
4.82839e-06
-4.00904e-08
4.81581e-06
-3.53333e-08
4.80252e-06
-3.12405e-08
4.78892e-06
-2.77327e-08
4.77527e-06
-2.47501e-08
4.76178e-06
-2.22127e-08
4.74858e-06
-2.00548e-08
4.73574e-06
-1.82208e-08
4.72335e-06
-1.66867e-08
4.71152e-06
-1.54892e-08
-1.51392e-08
4.70091e-06
4.17905e-06
4.12535e-06
4.0699e-06
4.0144e-06
3.95923e-06
3.90801e-06
3.86247e-06
3.82238e-06
3.78704e-06
3.7558e-06
3.72807e-06
3.70332e-06
3.68111e-06
3.66105e-06
3.64283e-06
3.62615e-06
3.61066e-06
3.59552e-06
1.08224e-08
-1.08336e-08
2.40007e-08
-1.31904e-08
3.36441e-08
-9.66013e-09
3.82487e-08
-4.6143e-09
3.76481e-08
5.84733e-10
3.24247e-08
5.21341e-09
2.34866e-08
8.92214e-09
1.17586e-08
1.17179e-08
-2.03439e-09
1.37778e-08
-1.74114e-08
1.53689e-08
-3.41044e-08
1.66804e-08
-5.19226e-08
1.78132e-08
-7.07878e-08
1.88551e-08
-9.06405e-08
1.98508e-08
-1.11467e-07
2.08186e-08
-1.33232e-07
2.17649e-08
-1.55926e-07
2.26884e-08
-1.79513e-07
2.35859e-08
-2.03969e-07
2.44513e-08
-2.29253e-07
2.52782e-08
-2.55317e-07
2.60588e-08
-2.82117e-07
2.67866e-08
-3.09581e-07
2.74596e-08
-3.37681e-07
2.80815e-08
-3.66351e-07
2.86673e-08
-3.95591e-07
2.92271e-08
-4.25341e-07
2.97534e-08
-4.55699e-07
3.0356e-08
-4.86697e-07
3.10055e-08
-5.18241e-07
3.15537e-08
-5.50344e-07
3.2113e-08
-5.83342e-07
3.30143e-08
-6.17298e-07
3.39635e-08
-6.52156e-07
3.4874e-08
-6.88197e-07
3.60422e-08
-7.25227e-07
3.70406e-08
-7.64631e-07
3.94003e-08
-8.07367e-07
4.27393e-08
-8.54132e-07
4.67567e-08
-8.96551e-07
4.24173e-08
-9.33325e-07
3.6764e-08
-9.72412e-07
3.90824e-08
-1.01288e-06
4.04552e-08
-1.05591e-06
4.30285e-08
-1.0999e-06
4.39863e-08
-1.14379e-06
4.38832e-08
-1.18783e-06
4.40276e-08
-1.23192e-06
4.40894e-08
-1.27599e-06
4.40652e-08
-1.31996e-06
4.3961e-08
-1.36377e-06
4.38058e-08
-1.40739e-06
4.3611e-08
-1.45078e-06
4.33874e-08
-1.49393e-06
4.31401e-08
-1.53681e-06
4.28734e-08
-1.57941e-06
4.25885e-08
-1.6217e-06
4.22863e-08
-1.66368e-06
4.19659e-08
-1.70531e-06
4.16269e-08
-1.74659e-06
4.12669e-08
-1.78748e-06
4.08852e-08
-1.82796e-06
4.04789e-08
-1.86802e-06
4.00469e-08
-1.90761e-06
3.95862e-08
-1.94671e-06
3.90958e-08
-1.98529e-06
3.85728e-08
-2.02331e-06
3.80165e-08
-2.06074e-06
3.74243e-08
-2.09754e-06
3.67958e-08
-2.13368e-06
3.61285e-08
-2.1691e-06
3.54227e-08
-2.20379e-06
3.4676e-08
-2.23768e-06
3.38889e-08
-2.27075e-06
3.30595e-08
-2.30294e-06
3.21887e-08
-2.33422e-06
3.12747e-08
-2.36455e-06
3.03189e-08
-2.39388e-06
2.93202e-08
-2.42216e-06
2.82801e-08
-2.44937e-06
2.71971e-08
-2.47545e-06
2.60733e-08
-2.50036e-06
2.49076e-08
-2.52407e-06
2.3702e-08
-2.54653e-06
2.24551e-08
-2.5677e-06
2.1169e-08
-2.58755e-06
1.98424e-08
-2.60603e-06
1.84774e-08
-2.62311e-06
1.70716e-08
-2.63873e-06
1.56254e-08
-2.65286e-06
1.41359e-08
-2.66545e-06
1.25983e-08
-2.67646e-06
1.10073e-08
-2.68582e-06
9.35738e-09
-2.69346e-06
7.64054e-09
-2.69931e-06
5.84325e-09
-2.70326e-06
3.94698e-09
-2.70522e-06
1.95126e-09
-2.70516e-06
-6.28394e-11
-2.70328e-06
-1.88585e-09
-2.69978e-06
-3.51551e-09
-2.69468e-06
-5.10544e-09
-2.68801e-06
-6.68466e-09
-2.67975e-06
-8.26628e-09
-2.66992e-06
-9.85312e-09
-2.65849e-06
-1.14432e-08
-2.64547e-06
-1.30366e-08
-2.63086e-06
-1.46296e-08
-2.61465e-06
-1.62224e-08
-2.59685e-06
-1.78113e-08
-2.57747e-06
-1.93969e-08
-2.5565e-06
-2.09752e-08
-2.53396e-06
-2.25468e-08
-2.50986e-06
-2.41075e-08
-2.48421e-06
-2.5658e-08
-2.45702e-06
-2.7194e-08
-2.4283e-06
-2.87163e-08
-2.39809e-06
-3.02204e-08
-2.36638e-06
-3.17069e-08
-2.3332e-06
-3.31714e-08
-2.29859e-06
-3.46152e-08
-2.26255e-06
-3.6035e-08
-2.22513e-06
-3.74309e-08
-2.18633e-06
-3.8798e-08
-2.14621e-06
-4.01358e-08
-2.10477e-06
-4.1439e-08
-2.06207e-06
-4.27098e-08
-2.01812e-06
-4.39444e-08
-1.97297e-06
-4.51458e-08
-1.92665e-06
-4.63092e-08
-1.8792e-06
-4.74366e-08
-1.83066e-06
-4.85253e-08
-1.78107e-06
-4.95732e-08
-1.73047e-06
-5.05717e-08
-1.67892e-06
-5.15281e-08
-1.62645e-06
-5.24425e-08
-1.57311e-06
-5.33116e-08
-1.51894e-06
-5.41316e-08
-1.46401e-06
-5.49036e-08
-1.40835e-06
-5.56272e-08
-1.35201e-06
-5.63022e-08
-1.29506e-06
-5.69276e-08
-1.23753e-06
-5.75025e-08
-1.17948e-06
-5.80272e-08
-1.12096e-06
-5.8501e-08
-1.06202e-06
-5.89249e-08
-1.00271e-06
-5.9298e-08
-9.43079e-07
-5.96217e-08
-8.83177e-07
-5.98956e-08
-8.23054e-07
-6.01216e-08
-7.62756e-07
-6.02994e-08
-7.0233e-07
-6.04314e-08
-6.41821e-07
-6.05174e-08
-5.81273e-07
-6.05604e-08
-5.20728e-07
-6.05603e-08
-4.60228e-07
-6.05198e-08
-3.9981e-07
-6.04391e-08
-3.39515e-07
-6.03201e-08
-2.79379e-07
-6.01625e-08
-2.19441e-07
-5.99685e-08
-1.59734e-07
-5.97374e-08
-1.00288e-07
-5.94793e-08
-4.1154e-08
-5.91678e-08
1.76032e-08
-5.8793e-08
7.60123e-08
-5.84432e-08
1.34041e-07
-5.80635e-08
1.91607e-07
-5.75997e-08
2.48716e-07
-5.71429e-08
3.05377e-07
-5.66941e-08
3.6159e-07
-5.62473e-08
4.17347e-07
-5.57897e-08
4.7262e-07
-5.53058e-08
5.27357e-07
-5.47693e-08
5.81462e-07
-5.41384e-08
6.34766e-07
-5.33364e-08
6.86954e-07
-5.22196e-08
7.37408e-07
-5.04858e-08
7.84816e-07
-4.74386e-08
8.26009e-07
-4.12221e-08
8.52851e-07
-2.68672e-08
1.82224e-08
8.34606e-07
9.02358e-09
-1.98654e-08
1.22827e-08
-1.64579e-08
1.08765e-08
-8.26234e-09
6.27044e-09
-1.3694e-11
-8.65403e-10
7.71336e-09
-1.0315e-08
1.46579e-08
-2.20493e-08
2.06495e-08
-3.5983e-08
2.56466e-08
-5.19548e-08
2.97433e-08
-6.97109e-08
3.31207e-08
-8.90142e-08
3.5978e-08
-1.0969e-07
3.8486e-08
-1.31612e-07
4.07722e-08
-1.54684e-07
4.29207e-08
-1.78851e-07
4.49819e-08
-2.0407e-07
4.69833e-08
-2.30323e-07
4.89385e-08
-2.57591e-07
5.08533e-08
-2.85871e-07
5.27285e-08
-3.15159e-07
5.45626e-08
-3.45457e-07
5.63535e-08
-3.76778e-07
5.80998e-08
-4.09126e-07
5.98036e-08
-4.42526e-07
6.14716e-08
-4.76979e-07
6.31174e-08
-5.12517e-07
6.47583e-08
-5.49182e-07
6.64192e-08
-5.86978e-07
6.81517e-08
-6.25955e-07
6.99871e-08
-6.66291e-07
7.18959e-08
-7.08064e-07
7.38927e-08
-7.51066e-07
7.60258e-08
-7.9527e-07
7.8173e-08
-8.40581e-07
8.01944e-08
-8.86663e-07
8.21265e-08
-9.33592e-07
8.39738e-08
-9.80217e-07
8.60242e-08
-1.0254e-06
8.79257e-08
-1.06733e-06
8.86791e-08
-1.11193e-06
8.70157e-08
-1.15988e-06
8.47046e-08
-1.20508e-06
8.42865e-08
-1.24905e-06
8.44163e-08
-1.29101e-06
8.4984e-08
-1.33215e-06
8.51264e-08
-1.3731e-06
8.4821e-08
-1.4135e-06
8.44299e-08
-1.45342e-06
8.40011e-08
-1.49289e-06
8.35312e-08
-1.53195e-06
8.30185e-08
-1.57061e-06
8.2469e-08
-1.6089e-06
8.1888e-08
-1.64679e-06
8.12791e-08
-1.6843e-06
8.06439e-08
-1.72141e-06
7.99828e-08
-1.75812e-06
7.92946e-08
-1.79442e-06
7.85772e-08
-1.83029e-06
7.78279e-08
-1.86571e-06
7.70434e-08
-1.90067e-06
7.62201e-08
-1.93514e-06
7.53544e-08
-1.96911e-06
7.44426e-08
-2.00255e-06
7.34809e-08
-2.03543e-06
7.24657e-08
-2.06773e-06
7.13938e-08
-2.09943e-06
7.02618e-08
-2.13048e-06
6.90671e-08
-2.16087e-06
6.78068e-08
-2.19056e-06
6.64789e-08
-2.21951e-06
6.50811e-08
-2.2477e-06
6.36119e-08
-2.2751e-06
6.20697e-08
-2.30167e-06
6.04535e-08
-2.32738e-06
5.87622e-08
-2.35219e-06
5.69954e-08
-2.37607e-06
5.51526e-08
-2.39899e-06
5.32342e-08
-2.42091e-06
5.124e-08
-2.44181e-06
4.91709e-08
-2.46164e-06
4.70268e-08
-2.48038e-06
4.48091e-08
-2.498e-06
4.25183e-08
-2.51445e-06
4.01556e-08
-2.52972e-06
3.77216e-08
-2.54378e-06
3.52179e-08
-2.55658e-06
3.26452e-08
-2.56811e-06
3.00051e-08
-2.57834e-06
2.72979e-08
-2.58724e-06
2.45247e-08
-2.59478e-06
2.16854e-08
-2.60096e-06
1.87795e-08
-2.60576e-06
1.5808e-08
-2.60918e-06
1.27726e-08
-2.61122e-06
9.6771e-09
-2.61191e-06
6.5279e-09
-2.61131e-06
3.34404e-09
-2.60953e-06
1.66783e-10
-2.60664e-06
-2.95508e-09
-2.60249e-06
-6.03996e-09
-2.59688e-06
-9.13313e-09
-2.58975e-06
-1.22396e-08
-2.58109e-06
-1.53582e-08
-2.57088e-06
-1.8491e-08
-2.5591e-06
-2.16357e-08
-2.54577e-06
-2.47895e-08
-2.53087e-06
-2.79486e-08
-2.5144e-06
-3.11093e-08
-2.49636e-06
-3.42682e-08
-2.47676e-06
-3.74217e-08
-2.4556e-06
-4.05665e-08
-2.43288e-06
-4.3699e-08
-2.40862e-06
-4.68161e-08
-2.38282e-06
-4.99137e-08
-2.35549e-06
-5.29888e-08
-2.32665e-06
-5.60374e-08
-2.29631e-06
-5.90565e-08
-2.26449e-06
-6.20419e-08
-2.23121e-06
-6.49899e-08
-2.19648e-06
-6.78969e-08
-2.16033e-06
-7.07607e-08
-2.12279e-06
-7.35778e-08
-2.08388e-06
-7.6345e-08
-2.04363e-06
-7.90569e-08
-2.00206e-06
-8.17089e-08
-1.9592e-06
-8.4296e-08
-1.9151e-06
-8.68163e-08
-1.86978e-06
-8.92669e-08
-1.82327e-06
-9.16476e-08
-1.77562e-06
-9.39557e-08
-1.72686e-06
-9.61909e-08
-1.67702e-06
-9.83499e-08
-1.62616e-06
-1.00425e-07
-1.57431e-06
-1.02407e-07
-1.52152e-06
-1.04303e-07
-1.46784e-06
-1.06114e-07
-1.4133e-06
-1.07834e-07
-1.35795e-06
-1.09457e-07
-1.30185e-06
-1.10984e-07
-1.24505e-06
-1.12414e-07
-1.18759e-06
-1.13746e-07
-1.12952e-06
-1.14978e-07
-1.0709e-06
-1.1611e-07
-1.01178e-06
-1.1714e-07
-9.52198e-07
-1.1807e-07
-8.92216e-07
-1.18899e-07
-8.31881e-07
-1.19627e-07
-7.71243e-07
-1.20256e-07
-7.10351e-07
-1.20786e-07
-6.49254e-07
-1.21218e-07
-5.87999e-07
-1.21555e-07
-5.26635e-07
-1.21799e-07
-4.65205e-07
-1.21953e-07
-4.03754e-07
-1.22018e-07
-3.42324e-07
-1.21999e-07
-2.80956e-07
-1.21897e-07
-2.19689e-07
-1.21718e-07
-1.58562e-07
-1.2146e-07
-9.76089e-08
-1.2113e-07
-3.68629e-08
-1.20729e-07
2.3649e-08
-1.20266e-07
8.38988e-08
-1.19745e-07
1.4387e-07
-1.19157e-07
2.03542e-07
-1.18482e-07
2.62811e-07
-1.1773e-07
3.21636e-07
-1.16906e-07
3.80056e-07
-1.16038e-07
4.38065e-07
-1.1517e-07
4.9566e-07
-1.14307e-07
5.52831e-07
-1.13437e-07
6.09563e-07
-1.12541e-07
6.65825e-07
-1.11586e-07
7.2156e-07
-1.10524e-07
7.76672e-07
-1.0927e-07
8.30993e-07
-1.07677e-07
8.84218e-07
-1.05465e-07
9.35812e-07
-1.02099e-07
9.8471e-07
-9.63562e-08
1.02924e-06
-8.57719e-08
1.06607e-06
-6.3712e-08
-1.13368e-08
1.09561e-06
5.41925e-10
-2.0413e-08
-5.09671e-09
-1.08247e-08
-1.34272e-08
6.30244e-11
-2.34707e-08
1.00269e-08
-3.48847e-08
1.91234e-08
-4.76016e-08
2.7372e-08
-6.16946e-08
3.47389e-08
-7.72615e-08
4.12109e-08
-9.43607e-08
4.68392e-08
-1.12979e-07
5.17365e-08
-1.33053e-07
5.60489e-08
-1.54492e-07
5.99237e-08
-1.77211e-07
6.34877e-08
-2.0113e-07
6.68383e-08
-2.26194e-07
7.00442e-08
-2.52363e-07
7.31511e-08
-2.79614e-07
7.61877e-08
-3.07932e-07
7.91713e-08
-3.37317e-07
8.21115e-08
-3.6777e-07
8.50131e-08
-3.99296e-07
8.78781e-08
-4.31908e-07
9.07068e-08
-4.65606e-07
9.34999e-08
-5.00398e-07
9.62582e-08
-5.36266e-07
9.89839e-08
-5.73191e-07
1.01679e-07
-6.11116e-07
1.04345e-07
-6.49948e-07
1.06983e-07
-6.89547e-07
1.09589e-07
-7.29784e-07
1.12137e-07
-7.70509e-07
1.14621e-07
-8.11509e-07
1.17032e-07
-8.52619e-07
1.19286e-07
-8.93699e-07
1.21279e-07
-9.34555e-07
1.22984e-07
-9.74967e-07
1.24388e-07
-1.01444e-06
1.25499e-07
-1.05265e-06
1.26135e-07
-1.08993e-06
1.25952e-07
-1.12791e-06
1.24996e-07
-1.16682e-06
1.23614e-07
-1.2051e-06
1.22564e-07
-1.24263e-06
1.21942e-07
-1.27921e-06
1.2156e-07
-1.31514e-06
1.21056e-07
-1.35073e-06
1.20406e-07
-1.386e-06
1.19698e-07
-1.42096e-06
1.18956e-07
-1.45562e-06
1.18185e-07
-1.48999e-06
1.17387e-07
-1.52408e-06
1.16561e-07
-1.5579e-06
1.15708e-07
-1.59145e-06
1.14825e-07
-1.62472e-06
1.13911e-07
-1.65771e-06
1.12963e-07
-1.69039e-06
1.11976e-07
-1.72276e-06
1.10946e-07
-1.75481e-06
1.09868e-07
-1.7865e-06
1.08737e-07
-1.81783e-06
1.07547e-07
-1.84878e-06
1.06294e-07
-1.87931e-06
1.04971e-07
-1.9094e-06
1.03574e-07
-1.93904e-06
1.02098e-07
-1.96819e-06
1.00538e-07
-1.99682e-06
9.88894e-08
-2.0249e-06
9.71489e-08
-2.05241e-06
9.53128e-08
-2.07931e-06
9.33778e-08
-2.10558e-06
9.13413e-08
-2.13117e-06
8.92009e-08
-2.15605e-06
8.69545e-08
-2.1802e-06
8.46007e-08
-2.20358e-06
8.21383e-08
-2.22616e-06
7.95665e-08
-2.24789e-06
7.68849e-08
-2.26875e-06
7.40936e-08
-2.28871e-06
7.11928e-08
-2.30772e-06
6.81834e-08
-2.32577e-06
6.5066e-08
-2.3428e-06
6.1842e-08
-2.3588e-06
5.85127e-08
-2.37373e-06
5.50799e-08
-2.38755e-06
5.15453e-08
-2.40025e-06
4.79112e-08
-2.41178e-06
4.41797e-08
-2.42214e-06
4.03535e-08
-2.43127e-06
3.64351e-08
-2.43918e-06
3.24275e-08
-2.44582e-06
2.83339e-08
-2.4512e-06
2.41576e-08
-2.45529e-06
1.99035e-08
-2.4581e-06
1.5579e-08
-2.45962e-06
1.11929e-08
-2.45985e-06
6.75796e-09
-2.45881e-06
2.29231e-09
-2.45646e-06
-2.18127e-09
-2.45277e-06
-6.65414e-09
-2.44766e-06
-1.11497e-08
-2.44111e-06
-1.56878e-08
-2.43309e-06
-2.02627e-08
-2.42359e-06
-2.48685e-08
-2.41259e-06
-2.95004e-08
-2.40008e-06
-3.41525e-08
-2.38606e-06
-3.88197e-08
-2.37052e-06
-4.34955e-08
-2.35346e-06
-4.81749e-08
-2.33489e-06
-5.28519e-08
-2.31479e-06
-5.7522e-08
-2.29318e-06
-6.21791e-08
-2.27007e-06
-6.68189e-08
-2.24545e-06
-7.14354e-08
-2.21935e-06
-7.60239e-08
-2.19176e-06
-8.05787e-08
-2.1627e-06
-8.50952e-08
-2.13219e-06
-8.95673e-08
-2.10025e-06
-9.39902e-08
-2.06688e-06
-9.83578e-08
-2.03211e-06
-1.02665e-07
-1.99596e-06
-1.06909e-07
-1.95845e-06
-1.11083e-07
-1.91962e-06
-1.15182e-07
-1.87948e-06
-1.192e-07
-1.83807e-06
-1.23129e-07
-1.7954e-06
-1.26964e-07
-1.75152e-06
-1.30699e-07
-1.70646e-06
-1.34332e-07
-1.66024e-06
-1.37859e-07
-1.61292e-06
-1.41279e-07
-1.56451e-06
-1.4459e-07
-1.51507e-06
-1.47787e-07
-1.46463e-06
-1.5086e-07
-1.41323e-06
-1.538e-07
-1.36091e-06
-1.5661e-07
-1.30772e-06
-1.59291e-07
-1.25371e-06
-1.61836e-07
-1.19892e-06
-1.64239e-07
-1.14339e-06
-1.66497e-07
-1.08718e-06
-1.6861e-07
-1.03034e-06
-1.70577e-07
-9.72915e-07
-1.72395e-07
-9.14952e-07
-1.74064e-07
-8.56504e-07
-1.75582e-07
-7.9762e-07
-1.76949e-07
-7.38349e-07
-1.78166e-07
-6.7874e-07
-1.79232e-07
-6.18844e-07
-1.80149e-07
-5.58708e-07
-1.80919e-07
-4.98381e-07
-1.81544e-07
-4.37909e-07
-1.82027e-07
-3.77339e-07
-1.8237e-07
-3.16715e-07
-1.82578e-07
-2.5608e-07
-1.82655e-07
-1.95476e-07
-1.82605e-07
-1.34943e-07
-1.82433e-07
-7.4519e-08
-1.82145e-07
-1.42363e-08
-1.81747e-07
4.58708e-08
-1.8124e-07
1.05767e-07
-1.80629e-07
1.65419e-07
-1.79922e-07
2.24796e-07
-1.79126e-07
2.83879e-07
-1.78243e-07
3.42658e-07
-1.77265e-07
4.01108e-07
-1.76183e-07
4.59206e-07
-1.75008e-07
5.16944e-07
-1.73779e-07
5.74304e-07
-1.72534e-07
6.31272e-07
-1.71279e-07
6.87834e-07
-1.70003e-07
7.43969e-07
-1.6868e-07
7.99645e-07
-1.67266e-07
8.54807e-07
-1.6569e-07
9.09364e-07
-1.63831e-07
9.6316e-07
-1.61478e-07
1.01594e-06
-1.58247e-07
1.06727e-06
-1.53432e-07
1.11648e-06
-1.45574e-07
1.16267e-06
-1.3197e-07
1.20543e-06
-1.06474e-07
-5.53009e-08
1.24939e-06
-7.38483e-09
-1.3033e-08
-1.89906e-08
7.77214e-10
-3.19528e-08
1.30219e-08
-4.57439e-08
2.3816e-08
-6.02656e-08
3.36427e-08
-7.55553e-08
4.26602e-08
-9.17231e-08
5.09045e-08
-1.08899e-07
5.8385e-08
-1.27196e-07
6.51343e-08
-1.46683e-07
7.12228e-08
-1.67386e-07
7.67492e-08
-1.89287e-07
8.18242e-08
-2.12355e-07
8.65535e-08
-2.36545e-07
9.10273e-08
-2.61818e-07
9.53163e-08
-2.8814e-07
9.94723e-08
-3.15484e-07
1.03531e-07
-3.43828e-07
1.07515e-07
-3.73154e-07
1.11436e-07
-4.03443e-07
1.15301e-07
-4.34673e-07
1.19108e-07
-4.66819e-07
1.22849e-07
-4.99836e-07
1.26516e-07
-5.33672e-07
1.30091e-07
-5.68247e-07
1.33558e-07
-6.03462e-07
1.36892e-07
-6.3919e-07
1.40073e-07
-6.75285e-07
1.43078e-07
-7.11584e-07
1.45889e-07
-7.47929e-07
1.48485e-07
-7.84164e-07
1.50858e-07
-8.2013e-07
1.53002e-07
-8.55724e-07
1.54881e-07
-8.9089e-07
1.56449e-07
-9.25585e-07
1.57678e-07
-9.59747e-07
1.5855e-07
-9.93291e-07
1.59041e-07
-1.02625e-06
1.59095e-07
-1.05896e-06
1.5866e-07
-1.0918e-06
1.57834e-07
-1.12496e-06
1.5677e-07
-1.15809e-06
1.5569e-07
-1.19088e-06
1.54727e-07
-1.22319e-06
1.53877e-07
-1.25517e-06
1.5303e-07
-1.28691e-06
1.52147e-07
-1.31846e-06
1.51238e-07
-1.34981e-06
1.50306e-07
-1.38098e-06
1.49351e-07
-1.41196e-06
1.48371e-07
-1.44277e-06
1.47363e-07
-1.47338e-06
1.46324e-07
-1.50381e-06
1.45249e-07
-1.53403e-06
1.44134e-07
-1.56405e-06
1.42972e-07
-1.59383e-06
1.41757e-07
-1.62337e-06
1.40484e-07
-1.65265e-06
1.39144e-07
-1.68165e-06
1.37732e-07
-1.71034e-06
1.3624e-07
-1.73871e-06
1.34661e-07
-1.76673e-06
1.32989e-07
-1.79438e-06
1.31217e-07
-1.82162e-06
1.29339e-07
-1.84843e-06
1.27349e-07
-1.87479e-06
1.25242e-07
-1.90065e-06
1.23013e-07
-1.926e-06
1.20658e-07
-1.9508e-06
1.18172e-07
-1.97501e-06
1.15553e-07
-1.99861e-06
1.12797e-07
-2.02156e-06
1.09902e-07
-2.04383e-06
1.06866e-07
-2.06538e-06
1.03688e-07
-2.08618e-06
1.00366e-07
-2.1062e-06
9.68999e-08
-2.12539e-06
9.32905e-08
-2.14374e-06
8.95379e-08
-2.1612e-06
8.5643e-08
-2.17775e-06
8.1607e-08
-2.19334e-06
7.74318e-08
-2.20795e-06
7.31193e-08
-2.22154e-06
6.86721e-08
-2.23409e-06
6.40928e-08
-2.24557e-06
5.93847e-08
-2.25594e-06
5.45512e-08
-2.26518e-06
4.95963e-08
-2.27327e-06
4.45244e-08
-2.28019e-06
3.93403e-08
-2.2859e-06
3.4049e-08
-2.2904e-06
2.86567e-08
-2.29367e-06
2.31704e-08
-2.29569e-06
1.7599e-08
-2.29645e-06
1.19527e-08
-2.29594e-06
6.24343e-09
-2.29413e-06
4.8416e-10
-2.291e-06
-5.31423e-09
-2.28651e-06
-1.11515e-08
-2.28062e-06
-1.70397e-08
-2.27333e-06
-2.29855e-08
-2.26462e-06
-2.89833e-08
-2.25447e-06
-3.5025e-08
-2.24287e-06
-4.11032e-08
-2.22982e-06
-4.72095e-08
-2.21531e-06
-5.33366e-08
-2.19934e-06
-5.94759e-08
-2.1819e-06
-6.56209e-08
-2.16299e-06
-7.17635e-08
-2.14262e-06
-7.78975e-08
-2.12079e-06
-8.40151e-08
-2.0975e-06
-9.01101e-08
-2.07277e-06
-9.61749e-08
-2.04659e-06
-1.02203e-07
-2.01898e-06
-1.08188e-07
-1.98996e-06
-1.14122e-07
-1.95953e-06
-1.19998e-07
-1.92771e-06