/*--------------------------------*- C++ -*----------------------------------*\
  =========                 |
  \\      /  F ield         | OpenFOAM: The Open Source CFD Toolbox
   \\    /   O peration     | Website:  https://openfoam.org
    \\  /    A nd           | Version:  8
     \\/     M anipulation  |
\*---------------------------------------------------------------------------*/
FoamFile
{
    version     2.0;
    format      ascii;
    class       volVectorField;
    location    "285";
    object      U;
}
// * * * * * * * * * * * * * * * * * * * * * * * * * * * * * * * * * * * * * //

dimensions      [0 1 -1 0 0 0 0];

internalField   nonuniform List<vector> 
12225
(
(9.85699 -0.886639 0)
(9.6663 -0.740718 0)
(9.4558 -0.429421 0)
(9.22455 -0.222147 0)
(9.00655 -0.106401 0)
(8.81446 -0.0458203 0)
(8.64762 -0.0151309 0)
(8.50546 0.000483362 0)
(8.38387 0.00840895 0)
(8.28117 0.0122919 0)
(8.19287 0.0139866 0)
(8.1168 0.0149806 0)
(8.05022 0.0153824 0)
(7.99146 0.015525 0)
(7.93855 0.0155428 0)
(7.89271 0.0153008 0)
(7.84005 0.0174159 0)
(7.83103 0.00997161 0)
(10.0545 0.227708 0)
(10.1213 0.326964 0)
(10.1196 0.261651 0)
(10.0856 0.18659 0)
(10.0435 0.134693 0)
(9.99677 0.101129 0)
(9.94406 0.0792874 0)
(9.88535 0.0645614 0)
(9.82402 0.0542469 0)
(9.76155 0.0466508 0)
(9.70014 0.0408739 0)
(9.6404 0.0363055 0)
(9.58319 0.0326145 0)
(9.52891 0.0297179 0)
(9.47727 0.0271649 0)
(9.42982 0.0261296 0)
(9.38262 0.0228179 0)
(9.34778 0.0310971 0)
(10.0035 0.0581547 0)
(10.0305 0.055949 0)
(10.056 0.0337732 0)
(10.0704 0.0328842 0)
(10.077 0.0406311 0)
(10.0779 0.0465262 0)
(10.0726 0.0493373 0)
(10.0615 0.0502777 0)
(10.0463 0.0501682 0)
(10.0279 0.0494452 0)
(10.0074 0.0483881 0)
(9.98529 0.047204 0)
(9.96225 0.0459923 0)
(9.93873 0.0448773 0)
(9.91498 0.0437488 0)
(9.89175 0.0431573 0)
(9.86871 0.0420696 0)
(9.84706 0.0435541 0)
(9.99772 0.0109483 0)
(10.0111 0.0266183 0)
(10.035 0.03712 0)
(10.0525 0.0480621 0)
(10.0644 0.0554295 0)
(10.0735 0.0581596 0)
(10.0796 0.058325 0)
(10.0825 0.057577 0)
(10.0829 0.0565193 0)
(10.0814 0.0553118 0)
(10.0784 0.0540229 0)
(10.0741 0.0527697 0)
(10.0688 0.0515456 0)
(10.0628 0.0504423 0)
(10.0561 0.049359 0)
(10.0493 0.0486352 0)
(10.0424 0.0476553 0)
(10.0355 0.0474871 0)
(9.99935 0.00709947 0)
(10.009 0.0316932 0)
(10.0275 0.0439045 0)
(10.0418 0.0499034 0)
(10.0528 0.0535899 0)
(10.0629 0.0552097 0)
(10.0716 0.055483 0)
(10.0784 0.055185 0)
(10.0836 0.0546305 0)
(10.0875 0.0539118 0)
(10.0903 0.0530824 0)
(10.0923 0.0522354 0)
(10.0935 0.0513839 0)
(10.0942 0.0505925 0)
(10.0945 0.0498115 0)
(10.0945 0.0492002 0)
(10.0944 0.0484676 0)
(10.0943 0.0479185 0)
(10.0003 0.00914829 0)
(10.0083 0.0312088 0)
(10.0227 0.0409405 0)
(10.035 0.0453792 0)
(10.0451 0.049017 0)
(10.0548 0.0513442 0)
(10.0638 0.0523159 0)
(10.0715 0.0525379 0)
(10.078 0.0523896 0)
(10.0836 0.0520081 0)
(10.0885 0.0514678 0)
(10.0927 0.0508545 0)
(10.0964 0.0502005 0)
(10.0997 0.0495515 0)
(10.1026 0.0488883 0)
(10.1054 0.0482719 0)
(10.108 0.0475657 0)
(10.1106 0.04678 0)
(10.0005 0.00892242 0)
(10.0071 0.0271086 0)
(10.0191 0.0364102 0)
(10.0302 0.0413784 0)
(10.0396 0.0453915 0)
(10.0487 0.0480464 0)
(10.0573 0.0493034 0)
(10.065 0.0497587 0)
(10.0718 0.0498138 0)
(10.078 0.0496137 0)
(10.0835 0.0492349 0)
(10.0886 0.0487523 0)
(10.0933 0.0482061 0)
(10.0976 0.0476282 0)
(10.1017 0.0470121 0)
(10.1055 0.0463719 0)
(10.1093 0.0456318 0)
(10.1131 0.0447245 0)
(10.0004 0.0078992 0)
(10.006 0.0233844 0)
(10.0161 0.03273 0)
(10.0263 0.0380872 0)
(10.0352 0.0420702 0)
(10.0436 0.044741 0)
(10.0518 0.0461373 0)
(10.0593 0.0467534 0)
(10.066 0.0469536 0)
(10.0723 0.0468816 0)
(10.078 0.0466149 0)
(10.0834 0.0462211 0)
(10.0885 0.0457431 0)
(10.0932 0.0452048 0)
(10.0977 0.0446049 0)
(10.1021 0.0439372 0)
(10.1063 0.0431523 0)
(10.1105 0.0421826 0)
(10.0004 0.00694916 0)
(10.005 0.0204208 0)
(10.0137 0.0294439 0)
(10.0229 0.0348427 0)
(10.0312 0.0386813 0)
(10.0392 0.041329 0)
(10.0469 0.0428441 0)
(10.0541 0.0435976 0)
(10.0607 0.043912 0)
(10.0669 0.0439365 0)
(10.0727 0.0437506 0)
(10.0781 0.0434181 0)
(10.0832 0.0429815 0)
(10.0881 0.0424618 0)
(10.0928 0.0418597 0)
(10.0974 0.0411636 0)
(10.1018 0.040338 0)
(10.1061 0.039337 0)
(10.0004 0.00612165 0)
(10.0043 0.0178497 0)
(10.0116 0.0262618 0)
(10.0199 0.0315583 0)
(10.0277 0.0352702 0)
(10.0352 0.0378809 0)
(10.0425 0.039474 0)
(10.0494 0.0403284 0)
(10.0558 0.0407274 0)
(10.0618 0.040823 0)
(10.0675 0.0406959 0)
(10.0729 0.0404061 0)
(10.0781 0.0399946 0)
(10.083 0.0394818 0)
(10.0877 0.0388706 0)
(10.0922 0.0381507 0)
(10.0966 0.0372971 0)
(10.1009 0.036287 0)
(10.0003 0.00536329 0)
(10.0037 0.0155379 0)
(10.0099 0.0232201 0)
(10.0173 0.0283181 0)
(10.0245 0.0318871 0)
(10.0315 0.03442 0)
(10.0384 0.0360367 0)
(10.045 0.0369535 0)
(10.0513 0.0374115 0)
(10.0571 0.0375579 0)
(10.0627 0.0374733 0)
(10.068 0.0372137 0)
(10.0731 0.0368184 0)
(10.0779 0.0363082 0)
(10.0826 0.0356887 0)
(10.0871 0.0349538 0)
(10.0914 0.0340877 0)
(10.0956 0.0330861 0)
(10.0003 0.00469873 0)
(10.0032 0.0135962 0)
(10.0086 0.0205708 0)
(10.0152 0.0254024 0)
(10.0219 0.0288045 0)
(10.0286 0.0312307 0)
(10.0351 0.0328271 0)
(10.0414 0.033769 0)
(10.0474 0.0342594 0)
(10.0531 0.034436 0)
(10.0586 0.0343776 0)
(10.0638 0.034137 0)
(10.0688 0.0337518 0)
(10.0735 0.0332436 0)
(10.0781 0.0326205 0)
(10.0825 0.0318814 0)
(10.0867 0.0310172 0)
(10.0907 0.0300376 0)
(10.0003 0.00408392 0)
(10.0028 0.0118264 0)
(10.0075 0.0180693 0)
(10.0134 0.0225584 0)
(10.0197 0.0257593 0)
(10.0259 0.0280535 0)
(10.0321 0.0295972 0)
(10.0381 0.0305374 0)
(10.0439 0.0310421 0)
(10.0495 0.0312359 0)
(10.0548 0.0311942 0)
(10.0598 0.0309672 0)
(10.0647 0.0305907 0)
(10.0694 0.0300866 0)
(10.0738 0.0294656 0)
(10.0781 0.0287315 0)
(10.0822 0.0278804 0)
(10.0861 0.0269326 0)
(10.0002 0.00344874 0)
(10.0024 0.00998734 0)
(10.0064 0.0153863 0)
(10.0117 0.0194079 0)
(10.0174 0.0223239 0)
(10.0232 0.0244264 0)
(10.029 0.0258667 0)
(10.0348 0.0267676 0)
(10.0403 0.0272621 0)
(10.0457 0.0274569 0)
(10.0508 0.0274218 0)
(10.0557 0.0272033 0)
(10.0604 0.0268346 0)
(10.065 0.0263381 0)
(10.0693 0.0257266 0)
(10.0734 0.0250083 0)
(10.0774 0.0241844 0)
(10.0812 0.0232822 0)
(10.0002 0.00278917 0)
(10.002 0.00807728 0)
(10.0055 0.0125323 0)
(10.0101 0.0159566 0)
(10.0153 0.0184855 0)
(10.0206 0.0203211 0)
(10.0261 0.0215942 0)
(10.0314 0.0224047 0)
(10.0367 0.0228529 0)
(10.0418 0.0230246 0)
(10.0468 0.0229805 0)
(10.0515 0.0227622 0)
(10.0561 0.0223999 0)
(10.0604 0.021915 0)
(10.0646 0.0213223 0)
(10.0686 0.0206328 0)
(10.0724 0.019852 0)
(10.076 0.0190104 0)
(10.0002 0.0021046 0)
(10.0017 0.00609824 0)
(10.0047 0.00951594 0)
(10.0088 0.0122095 0)
(10.0134 0.0142326 0)
(10.0183 0.0157087 0)
(10.0233 0.0167363 0)
(10.0283 0.0173909 0)
(10.0333 0.0177437 0)
(10.0382 0.0178583 0)
(10.0429 0.017783 0)
(10.0475 0.0175525 0)
(10.0518 0.0171925 0)
(10.056 0.0167227 0)
(10.06 0.0161577 0)
(10.0639 0.0155101 0)
(10.0675 0.0147872 0)
(10.071 0.0140201 0)
(10.0002 0.00139215 0)
(10.0015 0.00403633 0)
(10.0041 0.00632117 0)
(10.0076 0.00815012 0)
(10.0118 0.0095371 0)
(10.0163 0.0105461 0)
(10.0209 0.0112375 0)
(10.0256 0.01166 0)
(10.0303 0.0118584 0)
(10.035 0.0118737 0)
(10.0394 0.011739 0)
(10.0438 0.0114797 0)
(10.048 0.0111153 0)
(10.052 0.0106616 0)
(10.0559 0.0101313 0)
(10.0595 0.00953598 0)
(10.063 0.00888301 0)
(10.0663 0.00820085 0)
(10.0001 0.000635527 0)
(10.0013 0.00183993 0)
(10.0036 0.00287626 0)
(10.0068 0.003699 0)
(10.0107 0.00430928 0)
(10.0148 0.00472933 0)
(10.0192 0.00498189 0)
(10.0236 0.00508683 0)
(10.0281 0.00506355 0)
(10.0325 0.00493046 0)
(10.0368 0.0047033 0)
(10.0409 0.00439502 0)
(10.045 0.00401652 0)
(10.0488 0.00357737 0)
(10.0525 0.00308611 0)
(10.056 0.00255115 0)
(10.0593 0.00197771 0)
(10.0625 0.00138959 0)
(10.0001 -0.000208243 0)
(10.0012 -0.000612563 0)
(10.0034 -0.000991612 0)
(10.0065 -0.00133571 0)
(10.0102 -0.00164353 0)
(10.0143 -0.00192914 0)
(10.0185 -0.00221042 0)
(10.0228 -0.00249941 0)
(10.0271 -0.00280329 0)
(10.0313 -0.00312748 0)
(10.0355 -0.003476 0)
(10.0395 -0.00385092 0)
(10.0434 -0.00425253 0)
(10.0471 -0.00467979 0)
(10.0507 -0.00513076 0)
(10.0541 -0.00560234 0)
(10.0573 -0.006093 0)
(10.0604 -0.00658582 0)
(10.0001 -0.00101513 0)
(10.0013 -0.00296515 0)
(10.0037 -0.00470857 0)
(10.007 -0.00616463 0)
(10.0108 -0.00732944 0)
(10.015 -0.00826281 0)
(10.0193 -0.00902611 0)
(10.0237 -0.00966125 0)
(10.028 -0.0102023 0)
(10.0323 -0.0106807 0)
(10.0364 -0.0111208 0)
(10.0404 -0.0115391 0)
(10.0442 -0.0119463 0)
(10.0479 -0.0123497 0)
(10.0514 -0.0127538 0)
(10.0547 -0.0131608 0)
(10.0579 -0.0135726 0)
(10.0609 -0.0139786 0)
(10.0002 -0.00171083 0)
(10.0015 -0.00501942 0)
(10.0041 -0.00795679 0)
(10.0078 -0.0103193 0)
(10.012 -0.0121278 0)
(10.0164 -0.0135322 0)
(10.021 -0.0146387 0)
(10.0255 -0.0155043 0)
(10.03 -0.0161855 0)
(10.0343 -0.0167407 0)
(10.0385 -0.0172142 0)
(10.0425 -0.0176344 0)
(10.0464 -0.0180201 0)
(10.0501 -0.0183849 0)
(10.0536 -0.0187378 0)
(10.0569 -0.0190842 0)
(10.06 -0.0194281 0)
(10.063 -0.0197626 0)
(10.0002 -0.00237139 0)
(10.0016 -0.00704922 0)
(10.0047 -0.011203 0)
(10.009 -0.0143826 0)
(10.0137 -0.0166885 0)
(10.0185 -0.0184313 0)
(10.0233 -0.019771 0)
(10.0281 -0.0207783 0)
(10.0328 -0.0215347 0)
(10.0373 -0.0221208 0)
(10.0416 -0.0225933 0)
(10.0456 -0.0229884 0)
(10.0495 -0.0233324 0)
(10.0532 -0.0236447 0)
(10.0567 -0.0239381 0)
(10.06 -0.0242203 0)
(10.0632 -0.0244965 0)
(10.0661 -0.0247625 0)
(10.0002 -0.0029892 0)
(10.0018 -0.00910532 0)
(10.0054 -0.0144729 0)
(10.0105 -0.0183711 0)
(10.0159 -0.021123 0)
(10.0211 -0.0231526 0)
(10.0263 -0.0246154 0)
(10.0314 -0.0256363 0)
(10.0362 -0.0263695 0)
(10.0409 -0.0269246 0)
(10.0452 -0.0273581 0)
(10.0494 -0.0277054 0)
(10.0533 -0.0279957 0)
(10.057 -0.0282512 0)
(10.0605 -0.028486 0)
(10.0639 -0.0287084 0)
(10.067 -0.0289238 0)
(10.0699 -0.0291298 0)
(10.0001 -0.00353227 0)
(10.0018 -0.0115608 0)
(10.0062 -0.0179089 0)
(10.0123 -0.0220132 0)
(10.0183 -0.0250856 0)
(10.024 -0.0275007 0)
(10.0296 -0.0291444 0)
(10.035 -0.03016 0)
(10.0401 -0.0308175 0)
(10.0448 -0.0312818 0)
(10.0493 -0.0316201 0)
(10.0536 -0.0318731 0)
(10.0575 -0.0320745 0)
(10.0613 -0.0322479 0)
(10.0648 -0.0324069 0)
(10.0681 -0.0325586 0)
(10.0712 -0.0327066 0)
(10.0741 -0.0328474 0)
(9.99991 -0.00337556 0)
(10.0016 -0.0149915 0)
(10.0073 -0.0227494 0)
(10.0142 -0.0262627 0)
(10.0206 -0.0288521 0)
(10.0268 -0.0312214 0)
(10.0331 -0.0329469 0)
(10.039 -0.0340393 0)
(10.0444 -0.0347431 0)
(10.0494 -0.0352106 0)
(10.054 -0.035512 0)
(10.0583 -0.0357014 0)
(10.0623 -0.0358248 0)
(10.0659 -0.0359131 0)
(10.0693 -0.0359842 0)
(10.0725 -0.0360481 0)
(10.0754 -0.0361095 0)
(10.0781 -0.0361667 0)
(9.99859 -0.000382373 0)
(9.99903 -0.0158011 0)
(10.0076 -0.0274445 0)
(10.0166 -0.0325043 0)
(10.0238 -0.0348834 0)
(10.0306 -0.0362427 0)
(10.0376 -0.0369983 0)
(10.0441 -0.0374692 0)
(10.0498 -0.0378215 0)
(10.0549 -0.0380718 0)
(10.0595 -0.0382195 0)
(10.0635 -0.0382897 0)
(10.0671 -0.0383122 0)
(10.0702 -0.0383083 0)
(10.073 -0.0382931 0)
(10.0754 -0.038275 0)
(10.0776 -0.0382579 0)
(10.0794 -0.0382395 0)
(9.99487 0.00140525 0)
(9.99287 -0.00812613 0)
(10.006 -0.0203361 0)
(10.0202 -0.0322711 0)
(10.0306 -0.0404806 0)
(10.0392 -0.0441573 0)
(10.0467 -0.0450739 0)
(10.0529 -0.0449337 0)
(10.0577 -0.0444704 0)
(10.0616 -0.0438771 0)
(10.0645 -0.043235 0)
(10.0667 -0.0426002 0)
(10.0681 -0.042007 0)
(10.069 -0.0414641 0)
(10.0693 -0.04098 0)
(10.0692 -0.0405527 0)
(10.0687 -0.0401787 0)
(10.0679 -0.0398316 0)
(9.9947 -0.0305776 0)
(9.99943 -0.0228517 0)
(10.0146 -0.0026229 0)
(10.0304 -0.00190567 0)
(10.0434 -0.0116597 0)
(10.0533 -0.0209278 0)
(10.0594 -0.0272889 0)
(10.0618 -0.0315185 0)
(10.0615 -0.0342957 0)
(10.059 -0.035994 0)
(10.055 -0.0369276 0)
(10.0497 -0.0373624 0)
(10.0434 -0.0374887 0)
(10.0364 -0.037427 0)
(10.0288 -0.037266 0)
(10.0209 -0.0370636 0)
(10.0127 -0.036883 0)
(10.0045 -0.0366915 0)
(10.0274 -0.183007 0)
(10.0766 -0.288325 0)
(10.0871 -0.247823 0)
(10.0777 -0.186561 0)
(10.0663 -0.140326 0)
(10.0537 -0.108246 0)
(10.0365 -0.0858996 0)
(10.0145 -0.0704417 0)
(9.98933 -0.0596708 0)
(9.96229 -0.0518947 0)
(9.9343 -0.0460721 0)
(9.90597 -0.0415742 0)
(9.87779 -0.0380176 0)
(9.85007 -0.0351409 0)
(9.82307 -0.0327773 0)
(9.79689 -0.0308531 0)
(9.77178 -0.0293335 0)
(9.74778 -0.0285164 0)
(9.93575 0.689541 0)
(9.86827 0.609594 0)
(9.76458 0.380605 0)
(9.62661 0.21741 0)
(9.48586 0.119241 0)
(9.35716 0.0631579 0)
(9.24263 0.0315455 0)
(9.14104 0.0135937 0)
(9.05136 0.00323993 0)
(8.97237 -0.00282079 0)
(8.90245 -0.00637413 0)
(8.84026 -0.00849239 0)
(8.78454 -0.00973885 0)
(8.73442 -0.0104968 0)
(8.68898 -0.0109774 0)
(8.64762 -0.0112535 0)
(8.60942 -0.0114774 0)
(8.57407 -0.0121156 0)
(0.00460843 -0.0107099 -8.31454e-19)
(0.0160987 -0.0172263 7.31353e-19)
(0.0262296 -0.0151084 0)
(0.0327833 -0.00914019 0)
(0.0348023 -0.00214097 0)
(0.0320354 0.00422314 -3.85559e-19)
(0.0255486 0.00913602 0)
(0.0162016 0.0125138 0)
(0.00470657 0.0146525 0)
(-0.00837516 0.015947 0)
(-0.0227019 0.0167822 2.3473e-19)
(-0.038104 0.0174331 0)
(-0.054475 0.0180375 0)
(-0.071761 0.0186482 0)
(-0.0899354 0.0192724 0)
(-0.108978 0.0198978 1.26513e-19)
(-0.128872 0.0205017 0)
(-0.149597 0.0210585 0)
(-0.17113 0.021539 0)
(-0.193445 0.0219162 0)
(-0.216503 0.0221674 0)
(-0.240267 0.0222835 0)
(-0.264684 0.022278 0)
(-0.289708 0.0221971 7.29053e-20)
(-0.315293 0.0221289 -6.92559e-20)
(-0.341417 0.0221839 6.59441e-20)
(-0.368112 0.0224831 6.29036e-20)
(-0.395402 0.0236137 0)
(-0.423266 0.025636 0)
(-0.45164 0.0281315 -5.61033e-20)
(-0.48045 0.0312628 -5.4628e-20)
(-0.509806 0.0356192 0)
(-0.540018 0.0398815 0)
(-0.571387 0.0439265 -5.2306e-20)
(-0.603695 0.0491002 0)
(-0.637271 0.0545527 0)
(-0.6725 0.0648585 5.03824e-20)
(-0.708959 0.0758999 0)
(-0.748225 0.083559 5.38839e-20)
(-0.788878 0.0580853 1.30046e-19)
(-0.828894 0.0246354 0)
(-0.863219 0.0232026 0)
(-0.899261 0.0256871 0)
(-0.936349 0.0334097 0)
(-0.976635 0.0357201 0)
(-1.01758 0.03475 1.14525e-19)
(-1.05797 0.0347828 1.11187e-19)
(-1.09868 0.0347356 1.08059e-19)
(-1.13944 0.0346043 0)
(-1.18021 0.0343719 -1.02366e-19)
(-1.22091 0.0340928 0)
(-1.2615 0.033778 9.73404e-20)
(-1.30197 0.033442 9.50467e-20)
(-1.34228 0.0330899 0)
(-1.38241 0.0327265 0)
(-1.42235 0.0323535 0)
(-1.46209 0.0319723 8.70658e-20)
(-1.5016 0.0315824 0)
(-1.54088 0.0311837 0)
(-1.5799 0.0307748 0)
(-1.61864 0.0303551 0)
(-1.65708 0.0299228 0)
(-1.69521 0.029477 0)
(-1.73298 0.029016 0)
(-1.77039 0.028539 0)
(-1.80739 0.0280443 -7.38914e-20)
(-1.84396 0.0275315 0)
(-1.88007 0.0269992 0)
(-1.91568 0.0264471 7.04393e-20)
(-1.95076 0.0258742 6.93594e-20)
(-1.98527 0.0252805 0)
(-2.01918 0.024665 -6.72882e-20)
(-2.05244 0.0240283 6.62917e-20)
(-2.08501 0.0233694 0)
(-2.11687 0.0226894 -6.43639e-20)
(-2.14796 0.0219874 0)
(-2.17825 0.0212648 0)
(-2.20769 0.0205212 6.16018e-20)
(-2.23625 0.0197577 0)
(-2.26389 0.0189739 -5.98226e-20)
(-2.29055 0.0181714 0)
(-2.31621 0.0173497 5.8075e-20)
(-2.34083 0.0165101 5.72087e-20)
(-2.36435 0.0156519 5.63449e-20)
(-2.38676 0.0147764 1.10964e-19)
(-2.40799 0.0138826 -1.09237e-19)
(-2.42802 0.0129709 0)
(-2.4468 0.0120388 0)
(-2.4643 0.0110846 0)
(-2.48046 0.0101035 -1.02258e-19)
(-2.49525 0.00908955 -1.00481e-19)
(-2.50862 0.00803496 9.86868e-20)
(-2.52052 0.00693052 0)
(-2.53087 0.00576604 -9.50389e-20)
(-2.5396 0.0045369 -9.31824e-20)
(-2.54665 0.0032593 -9.13044e-20)
(-2.55192 0.00198811 0)
(-2.55528 0.000812488 0)
(-2.55668 -0.000192295 0)
(-2.55665 -0.00108436 -8.3445e-20)
(-2.55509 -0.00195183 0)
(-2.55206 -0.0028071 0)
(-2.54754 -0.00365733 7.70374e-20)
(-2.54153 -0.00450332 0)
(-2.53401 -0.00534455 0)
(-2.52499 -0.00618087 7.01339e-20)
(-2.51445 -0.00701094 0)
(-2.50238 -0.00783493 0)
(-2.48879 -0.00865149 -6.26672e-20)
(-2.47368 -0.00946097 -6.00411e-20)
(-2.45703 -0.0102619 0)
(-2.43886 -0.0110547 5.45668e-20)
(-2.41916 -0.0118378 0)
(-2.39795 -0.0126118 -4.87777e-20)
(-2.37522 -0.0133748 0)
(-2.351 -0.0141277 -4.26495e-20)
(-2.32527 -0.0148687 -3.94502e-20)
(-2.29807 -0.0155984 0)
(-2.26939 -0.0163154 0)
(-2.23926 -0.0170205 0)
(-2.2077 -0.0177126 0)
(-2.17472 -0.0183919 0)
(-2.14035 -0.0190565 0)
(-2.1046 -0.0197067 0)
(-2.0675 -0.0203409 -1.01165e-20)
(-2.02906 -0.0209605 5.91668e-21)
(-1.98933 -0.0215648 0)
(-1.94833 -0.0221558 0)
(-1.90608 -0.0227315 0)
(-1.86262 -0.0232915 0)
(-1.81797 -0.0238351 -3.44944e-20)
(-1.77217 -0.0243634 0)
(-1.72527 -0.0248757 5.53199e-20)
(-1.6773 -0.0253754 -6.62909e-20)
(-1.62828 -0.025859 0)
(-1.57828 -0.0263262 0)
(-1.52731 -0.0267779 0)
(-1.47544 -0.0272145 1.14389e-19)
(-1.42269 -0.0276363 1.27592e-19)
(-1.36912 -0.0280435 0)
(-1.31477 -0.028436 1.55615e-19)
(-1.25969 -0.028814 1.70502e-19)
(-1.20392 -0.0291779 -1.86025e-19)
(-1.14751 -0.0295279 0)
(-1.0905 -0.0298649 0)
(-1.03294 -0.0301889 -2.36855e-19)
(-0.97487 -0.0305009 0)
(-0.916345 -0.0308012 0)
(-0.857406 -0.031091 0)
(-0.798097 -0.0313706 0)
(-0.738463 -0.0316415 3.39224e-19)
(-0.678546 -0.0319042 3.6301e-19)
(-0.618387 -0.0321605 0)
(-0.558028 -0.0324109 4.14686e-19)
(-0.497506 -0.0326571 0)
(-0.43686 -0.0328999 0)
(-0.376126 -0.0331402 5.04487e-19)
(-0.31534 -0.033378 0)
(-0.254539 -0.0336168 5.74582e-19)
(-0.193757 -0.0338663 0)
(-0.133028 -0.0341389 0)
(-0.0723971 -0.0343975 7.00055e-19)
(-0.0119032 -0.034406 0)
(0.0483855 -0.0338195 7.39123e-19)
(0.108532 -0.0328772 0)
(0.168466 -0.0319429 0)
(0.228154 -0.0310636 0)
(0.287592 -0.0302336 -6.71151e-19)
(0.346787 -0.0294452 0)
(0.405737 -0.028689 6.44077e-19)
(0.464424 -0.0279548 0)
(0.522812 -0.0272289 0)
(0.580829 -0.026492 0)
(0.638336 -0.025712 0)
(0.695128 -0.0248301 0)
(0.750579 -0.0237344 0)
(0.804385 -0.0221513 0)
(0.851646 -0.0194307 -1.13719e-18)
(0.898197 -0.0140018 0)
(0.890957 0.00322802 0)
(0.0047575 -0.0327641 1.93722e-18)
(0.0106594 -0.0330304 -1.09556e-18)
(0.0108755 -0.0208862 0)
(0.00812076 -0.00749472 3.44615e-19)
(0.00292234 0.00525665 0)
(-0.00439815 0.016463 1.34754e-19)
(-0.013841 0.0256654 -2.46841e-19)
(-0.0253145 0.0328529 -2.28161e-19)
(-0.0386918 0.0383156 0)
(-0.0537755 0.0424811 -1.95424e-19)
(-0.0703421 0.0457735 -9.04728e-20)
(-0.08821 0.0485243 0)
(-0.107249 0.0509501 0)
(-0.127365 0.0531755 0)
(-0.148495 0.0552635 0)
(-0.1706 0.0572433 -6.3949e-20)
(-0.193655 0.0591248 0)
(-0.217646 0.0609108 1.14312e-19)
(-0.242565 0.0625992 0)
(-0.268412 0.0641877 0)
(-0.295189 0.0656736 -9.92337e-20)
(-0.322905 0.0670568 0)
(-0.351569 0.0683429 9.15083e-20)
(-0.381199 0.0695447 -4.40807e-20)
(-0.411808 0.0706881 4.25318e-20)
(-0.443423 0.0717988 -4.11102e-20)
(-0.476085 0.0729016 -3.9817e-20)
(-0.509769 0.0740306 0)
(-0.544476 0.0752045 0)
(-0.580322 0.0763401 3.69418e-20)
(-0.617505 0.0774296 -3.60706e-20)
(-0.655963 0.0785765 0)
(-0.695678 0.0797344 0)
(-0.736504 0.0806896 3.54692e-20)
(-0.778174 0.0813928 0)
(-0.820571 0.0817429 0)
(-0.862823 0.0820015 -3.54108e-20)
(-0.904709 0.0825399 0)
(-0.944632 0.0834279 3.50341e-20)
(-0.986171 0.0845664 -7.29241e-20)
(-1.02755 0.0863316 0)
(-1.06988 0.0883217 0)
(-1.11075 0.0891245 -1.32341e-19)
(-1.15044 0.0897422 -1.29042e-19)
(-1.18902 0.0899423 -1.2603e-19)
(-1.22693 0.089552 6.14827e-20)
(-1.26456 0.0888727 -6.04363e-20)
(-1.30179 0.0880736 -1.77262e-19)
(-1.33867 0.0871741 1.15699e-19)
(-1.37522 0.0861963 5.68617e-20)
(-1.41146 0.0851622 0)
(-1.4474 0.0840889 -5.47617e-20)
(-1.48305 0.0829879 5.34989e-20)
(-1.5184 0.0818659 0)
(-1.55344 0.0807271 0)
(-1.58818 0.0795726 0)
(-1.6226 0.0784025 -5.02696e-20)
(-1.65669 0.0772151 0)
(-1.69044 0.0760088 9.71421e-20)
(-1.72383 0.0747806 0)
(-1.75683 0.0735285 9.42371e-20)
(-1.78945 0.0722492 0)
(-1.82164 0.0709406 -9.15105e-20)
(-1.85339 0.0695996 0)
(-1.88468 0.0682245 8.89338e-20)
(-1.91548 0.0668127 -4.37203e-20)
(-1.94576 0.065363 0)
(-1.97549 0.0638735 -8.52952e-20)
(-2.00465 0.0623436 -4.21846e-20)
(-2.03321 0.0607719 -4.16101e-20)
(-2.06113 0.0591586 0)
(-2.08839 0.0575027 -4.02675e-20)
(-2.11495 0.055805 -3.99351e-20)
(-2.14078 0.054065 0)
(-2.16585 0.0522841 3.88479e-20)
(-2.19014 0.0504621 -7.64306e-20)
(-2.21359 0.048601 0)
(-2.23619 0.0467014 -3.72414e-20)
(-2.25791 0.0447653 0)
(-2.2787 0.0427932 1.08372e-19)
(-2.29853 0.0407877 0)
(-2.31739 0.0387495 -1.05182e-19)
(-2.33522 0.0366812 -3.45677e-20)
(-2.35201 0.0345832 3.39103e-20)
(-2.36772 0.0324582 6.67503e-20)
(-2.38232 0.0303069 -6.56708e-20)
(-2.39579 0.0281317 0)
(-2.40808 0.0259327 0)
(-2.41918 0.0237114 0)
(-2.42906 0.0214672 1.83892e-19)
(-2.4377 0.0191985 6.01591e-20)
(-2.44509 0.0169044 -5.89719e-20)
(-2.4512 0.0145835 0)
(-2.45604 0.0122323 -5.65485e-20)
(-2.45962 0.009844 5.52992e-20)
(-2.46197 0.00741699 5.40375e-20)
(-2.46315 0.00497718 0)
(-2.46329 0.0025969 0)
(-2.46246 0.000362626 0)
(-2.46026 -0.00175586 4.87084e-20)
(-2.45666 -0.00383244 0)
(-2.45162 -0.00588004 -9.19609e-20)
(-2.44513 -0.00790671 -1.33513e-19)
(-2.43716 -0.00991317 8.6155e-20)
(-2.42772 -0.0118979 0)
(-2.41678 -0.0138593 4.02217e-20)
(-2.40435 -0.0157949 0)
(-2.39041 -0.0177033 7.38902e-20)
(-2.37497 -0.0195823 -3.55368e-20)
(-2.35802 -0.0214308 -3.3917e-20)
(-2.33956 -0.0232465 0)
(-2.31959 -0.0250286 -9.08157e-20)
(-2.29813 -0.0267746 5.72542e-20)
(-2.27516 -0.028484 2.6609e-20)
(-2.2507 -0.0301542 0)
(-2.22475 -0.0317849 2.29805e-20)
(-2.19734 -0.0333736 6.3964e-20)
(-2.16845 -0.0349195 0)
(-2.13812 -0.0364206 3.52612e-20)
(-2.10634 -0.0378771 3.13736e-20)
(-2.07316 -0.0392876 2.7422e-20)
(-2.03857 -0.0406515 0)
(-2.0026 -0.0419661 0)
(-1.96528 -0.0432301 0)
(-1.92661 -0.0444411 -5.88543e-21)
(-1.88664 -0.0455997 -2.93675e-21)
(-1.84538 -0.0467051 0)
(-1.80286 -0.0477589 2.04975e-21)
(-1.75911 -0.0487599 6.52027e-21)
(-1.71417 -0.0497102 0)
(-1.66805 -0.0506089 1.65833e-20)
(-1.62081 -0.051452 4.06504e-20)
(-1.57247 -0.052234 -2.60234e-20)
(-1.52306 -0.0529622 -2.88795e-20)
(-1.47264 -0.0536398 0)
(-1.42123 -0.0542638 0)
(-1.36888 -0.0548311 0)
(-1.31563 -0.055344 -5.07604e-20)
(-1.26152 -0.0558033 5.37835e-20)
(-1.2066 -0.0562098 1.20076e-19)
(-1.15091 -0.0565641 -6.63851e-20)
(-1.0945 -0.0568666 6.95245e-20)
(-1.03741 -0.0571184 7.7126e-20)
(-0.979692 -0.0573206 0)
(-0.921388 -0.0574744 0)
(-0.862543 -0.0575812 -9.14406e-20)
(-0.803205 -0.0576424 0)
(-0.74342 -0.0576597 0)
(-0.683231 -0.057635 2.19472e-19)
(-0.622685 -0.0575702 0)
(-0.561825 -0.0574673 1.2032e-19)
(-0.500693 -0.0573287 -1.28653e-19)
(-0.439333 -0.0571566 0)
(-0.377784 -0.0569535 1.38427e-19)
(-0.316085 -0.0567213 0)
(-0.254273 -0.0564625 0)
(-0.192386 -0.0561784 -1.59492e-19)
(-0.130458 -0.0558697 3.29301e-19)
(-0.0685239 -0.0555374 -1.72256e-19)
(-0.00661154 -0.0551826 0)
(0.0552603 -0.0548044 0)
(0.117071 -0.0544002 1.80341e-19)
(0.178806 -0.05391 0)
(0.240385 -0.0532152 1.84009e-19)
(0.301743 -0.0523689 0)
(0.362882 -0.0515056 0)
(0.423825 -0.0506646 0)
(0.484567 -0.0498491 1.93153e-19)
(0.545104 -0.0490527 0)
(0.605426 -0.0482658 -1.96074e-19)
(0.665511 -0.0474739 0)
(0.725318 -0.0466564 0)
(0.784774 -0.0457786 3.97791e-19)
(0.843743 -0.044782 -3.99998e-19)
(0.902017 -0.0435532 0)
(0.959086 -0.0418805 0)
(1.01454 -0.0392289 0)
(1.06545 -0.0346104 1.23118e-18)
(1.11492 -0.0246582 0)
(1.14121 -0.000673855 -8.54822e-19)
(0.000296563 -0.041342 -7.87222e-22)
(-0.00189878 -0.0281989 1.06523e-18)
(-0.00795969 -0.00971242 0)
(-0.0160081 0.00756483 -4.35757e-19)
(-0.0255542 0.0231974 0)
(-0.0362937 0.0370703 0)
(-0.0482166 0.0490784 3.7001e-23)
(-0.0614165 0.0592109 1.34977e-19)
(-0.0759753 0.067617 1.27012e-19)
(-0.0919148 0.0745754 1.2009e-19)
(-0.109198 0.0804149 0)
(-0.127753 0.0854423 0)
(-0.147501 0.0899052 -1.02463e-19)
(-0.168369 0.0939814 -1.95002e-19)
(-0.190298 0.0977878 1.85939e-19)
(-0.213248 0.101397 0)
(-0.237195 0.104852 1.70218e-19)
(-0.262123 0.108178 -8.1728e-20)
(-0.288029 0.111388 0)
(-0.314915 0.114492 1.51677e-19)
(-0.342787 0.117493 7.32709e-20)
(-0.371656 0.1204 -1.41847e-19)
(-0.401532 0.123219 -6.87355e-20)
(-0.43242 0.125964 0)
(-0.46432 0.12865 1.29706e-19)
(-0.497221 0.131294 1.26209e-19)
(-0.531093 0.133908 0)
(-0.565855 0.136507 1.19934e-19)
(-0.601383 0.139085 0)
(-0.637559 0.14161 1.14535e-19)
(-0.674305 0.144124 5.61466e-20)
(-0.711484 0.146693 0)
(-0.74891 0.14918 0)
(-0.786403 0.151387 0)
(-0.823795 0.153253 0)
(-0.860883 0.154731 0)
(-0.897308 0.155959 0)
(-0.932873 0.156662 1.00562e-19)
(-0.967676 0.15614 -1.48397e-19)
(-1.00255 0.153964 0)
(-1.03772 0.150645 0)
(-1.07294 0.147951 0)
(-1.10787 0.145995 1.40145e-22)
(-1.14225 0.144612 8.84403e-20)
(-1.17587 0.14305 1.72965e-19)
(-1.209 0.141283 -1.69407e-19)
(-1.24188 0.139497 -8.29488e-20)
(-1.27453 0.137699 8.14776e-20)
(-1.30696 0.135884 -1.42331e-22)
(-1.33917 0.134048 7.83396e-20)
(-1.37117 0.132195 0)
(-1.40298 0.130326 7.55948e-20)
(-1.43458 0.128443 -1.54064e-22)
(-1.46599 0.126546 0)
(-1.49718 0.124635 0)
(-1.52816 0.122706 -7.07262e-20)
(-1.55891 0.120756 0)
(-1.58942 0.118782 0)
(-1.61966 0.116778 6.7344e-20)
(-1.64964 0.114741 1.32989e-19)
(-1.67932 0.112666 -6.5672e-20)
(-1.70868 0.110548 0)
(-1.73771 0.108385 6.37852e-20)
(-1.76638 0.106172 0)
(-1.79466 0.103906 6.16809e-20)
(-1.82254 0.101584 6.11122e-20)
(-1.84997 0.099204 -1.20217e-19)
(-1.87694 0.0967643 -5.9125e-20)
(-1.90342 0.0942635 0)
(-1.92937 0.0917006 1.15257e-19)
(-1.95477 0.0890752 0)
(-1.97959 0.0863871 1.68214e-19)
(-2.00379 0.0836368 1.10479e-19)
(-2.02734 0.0808248 1.08914e-19)
(-2.05021 0.0779524 -1.07358e-19)
(-2.07237 0.0750208 1.58826e-19)
(-2.09379 0.072032 0)
(-2.11442 0.0689878 0)
(-2.13425 0.0658908 -1.01183e-19)
(-2.15323 0.0627428 -1.4955e-19)
(-2.17134 0.0595469 0)
(-2.18854 0.0563055 4.83482e-20)
(-2.2048 0.0530215 0)
(-2.22009 0.0496976 -1.40177e-19)
(-2.23438 0.0463369 -1.17647e-22)
(-2.24764 0.0429422 1.03856e-22)
(-2.25984 0.0395167 8.86182e-20)
(-2.27096 0.0360631 0)
(-2.28096 0.0325845 -8.53451e-20)
(-2.28983 0.0290837 -4.56599e-23)
(-2.29754 0.0255637 0)
(-2.30409 0.0220292 0)
(-2.30946 0.018487 0)
(-2.31364 0.0149471 7.67908e-20)
(-2.31663 0.0114231 0)
(-2.31843 0.00793411 0)
(-2.31905 0.00450267 0)
(-2.31843 0.00113784 0)
(-2.31654 -0.00219062 0)
(-2.3133 -0.00550365 6.56165e-20)
(-2.30869 -0.0087919 0)
(-2.30268 -0.0120518 6.14827e-20)
(-2.29527 -0.0152813 5.94309e-20)
(-2.28643 -0.0184773 -5.735e-20)
(-2.27615 -0.0216366 0)
(-2.26443 -0.0247552 -5.31e-20)
(-2.25125 -0.02783 0)
(-2.23661 -0.0308575 -4.87306e-20)
(-2.22052 -0.0338351 4.65009e-20)
(-2.20295 -0.0367597 1.33294e-19)
(-2.18392 -0.0396289 0)
(-2.16343 -0.0424396 1.19531e-19)
(-2.14148 -0.0451896 3.79514e-20)
(-2.11806 -0.0478761 0)
(-2.0932 -0.0504969 6.57221e-20)
(-2.06689 -0.0530495 6.08786e-20)
(-2.03915 -0.0555316 -8.35679e-20)
(-2.00998 -0.0579406 0)
(-1.9794 -0.0602748 -2.25739e-20)
(-1.94743 -0.0625328 -2.00245e-20)
(-1.91407 -0.064713 -5.32599e-20)
(-1.87935 -0.0668135 0)
(-1.84328 -0.0688315 0)
(-1.8059 -0.070764 0)
(-1.7672 -0.0726088 -7.91399e-21)
(-1.72723 -0.0743651 0)
(-1.68601 -0.0760325 0)
(-1.64356 -0.0776116 -1.27426e-21)
(-1.59991 -0.0791029 -4.03897e-21)
(-1.5551 -0.0805069 0)
(-1.50915 -0.0818228 0)
(-1.4621 -0.0830463 -2.49022e-20)
(-1.41397 -0.0841729 0)
(-1.36481 -0.0852078 3.63025e-20)
(-1.31465 -0.0861538 4.08073e-20)
(-1.26354 -0.0870089 0)
(-1.21151 -0.0877706 0)
(-1.15859 -0.0884403 -5.81726e-20)
(-1.10485 -0.0890194 -1.30594e-21)
(-1.05031 -0.0895092 -1.31989e-21)
(-0.995027 -0.0899106 0)
(-0.93904 -0.0902249 -1.64682e-19)
(-0.882393 -0.0904534 0)
(-0.825133 -0.0905978 0)
(-0.767304 -0.0906602 0)
(-0.708952 -0.0906425 1.0682e-19)
(-0.650121 -0.0905472 0)
(-0.590856 -0.0903769 -2.34756e-19)
(-0.531203 -0.0901343 -1.24763e-19)
(-0.471205 -0.0898225 0)
(-0.410905 -0.0894447 -1.36734e-19)
(-0.350346 -0.0890043 0)
(-0.289569 -0.0885047 0)
(-0.228613 -0.0879497 -4.61129e-19)
(-0.167517 -0.0873421 3.18381e-19)
(-0.106317 -0.0866851 0)
(-0.0450477 -0.085982 3.42122e-19)
(0.0162607 -0.0852378 -1.77423e-19)
(0.077577 -0.0844554 0)
(0.138866 -0.0836341 0)
(0.200097 -0.0827714 0)
(0.261246 -0.0818713 -5.68981e-19)
(0.322303 -0.0809334 0)
(0.383254 -0.0799569 -1.96557e-19)
(0.44407 -0.078949 0)
(0.504738 -0.07793 0)
(0.56525 -0.0769202 0)
(0.625589 -0.0759221 0)
(0.685744 -0.0749296 0)
(0.7457 -0.0739309 0)
(0.805431 -0.0729072 -4.28868e-19)
(0.864896 -0.0718281 0)
(0.924026 -0.0706428 -2.20059e-19)
(0.982695 -0.0692636 6.64474e-19)
(1.04071 -0.067529 0)
(1.09767 -0.0651355 0)
(1.15326 -0.0614355 -4.55051e-19)
(1.20555 -0.0551804 -4.61838e-19)
(1.25756 -0.0433713 4.67176e-19)
(1.29706 -0.0185043 4.81259e-19)
(-0.00470337 -0.0334159 -2.97629e-18)
(-0.0125845 -0.0112438 -1.28185e-18)
(-0.0225851 0.0106008 -4.64801e-19)
(-0.034204 0.0299681 -1.65683e-19)
(-0.0468192 0.0473354 0)
(-0.0600989 0.0629059 2.39866e-19)
(-0.0740874 0.0767323 -1.09644e-19)
(-0.0889199 0.0888541 0)
(-0.104719 0.099379 -9.66918e-20)
(-0.12157 0.108496 0)
(-0.139515 0.116446 1.7521e-19)
(-0.158556 0.123476 0)
(-0.178672 0.129812 8.0149e-20)
(-0.199826 0.135634 1.53704e-19)
(-0.221982 0.141076 -1.47631e-19)
(-0.245111 0.146235 0)
(-0.269185 0.151173 -1.36927e-19)
(-0.294185 0.155932 0)
(-0.320096 0.160536 0)
(-0.346905 0.164998 -1.23922e-19)
(-0.374595 0.169325 0)
(-0.403148 0.173514 -5.0405e-23)
(-0.432536 0.177562 0)
(-0.462718 0.181459 0)
(-0.493638 0.185191 5.20262e-23)
(-0.525217 0.188737 -1.04803e-19)
(-0.557355 0.192076 -1.02173e-19)
(-0.58992 0.195186 -9.95637e-20)
(-0.622767 0.198041 0)
(-0.655753 0.200611 -1.89548e-19)
(-0.688752 0.202887 0)
(-0.721631 0.204861 -9.04747e-20)
(-0.754259 0.206463 0)
(-0.786552 0.207597 0)
(-0.818468 0.208233 8.47913e-20)
(-0.849957 0.208361 0)
(-0.880949 0.207971 -8.12716e-20)
(-0.911461 0.206935 4.36616e-23)
(-0.941683 0.205058 1.5563e-19)
(-0.971915 0.202415 -1.52241e-19)
(-1.0023 0.1994 0)
(-1.0328 0.196529 0)
(-1.06324 0.193935 -7.10471e-20)
(-1.0934 0.191564 0)
(-1.12322 0.18919 -6.82484e-20)
(-1.1528 0.186756 6.689e-20)
(-1.18223 0.18431 6.55989e-20)
(-1.21153 0.181867 0)
(-1.24069 0.179427 -6.31907e-20)
(-1.26974 0.176987 -6.20638e-20)
(-1.29867 0.174543 1.21849e-19)
(-1.32747 0.172093 -5.99447e-20)
(-1.35614 0.169632 -5.89459e-20)
(-1.38468 0.167155 0)
(-1.41308 0.164659 0)
(-1.44132 0.162136 5.61575e-20)