# vtk DataFile Version 2.0
track0
ASCII
DATASET POLYDATA
POINTS 12080 float
-0.0205 0.001 1e-05
-0.02052 0.000999985 1e-05
-0.02054 0.000999974 1e-05
-0.02056 0.000999965 1e-05
-0.02058 0.000999959 1e-05
-0.0206 0.000999956 1e-05
-0.0205 0.00367778 1e-05
-0.02052 0.00367778 1e-05
-0.02054 0.00367777 1e-05
-0.02056 0.00367777 1e-05
-0.02058 0.00367777 1e-05
-0.0206 0.00367777 1e-05
-0.0205 0.00635556 1e-05
-0.02052 0.00635555 1e-05
-0.02054 0.00635555 1e-05
-0.02056 0.00635555 1e-05
-0.02058 0.00635555 1e-05
-0.0206 0.00635555 1e-05
-0.0205 0.00903333 1e-05
-0.02052 0.00903333 1e-05
-0.02054 0.00903333 1e-05
-0.02056 0.00903333 1e-05
-0.02058 0.00903333 1e-05
-0.0206 0.00903333 1e-05
-0.0205 0.0117111 1e-05
-0.02052 0.0117111 1e-05
-0.02054 0.0117111 1e-05
-0.02056 0.0117111 1e-05
-0.02058 0.0117111 1e-05
-0.0206 0.0117111 1e-05
-0.0205 0.0143889 1e-05
-0.02052 0.0143889 1e-05
-0.02054 0.0143889 1e-05
-0.02056 0.0143889 1e-05
-0.02058 0.0143889 1e-05
-0.0206 0.0143889 1e-05
-0.0205 0.0170667 1e-05
-0.02052 0.0170667 1e-05
-0.02054 0.0170667 1e-05
-0.02056 0.0170667 1e-05
-0.02058 0.0170667 1e-05
-0.0206 0.0170667 1e-05
-0.0205 0.0197444 1e-05
-0.02052 0.0197444 1e-05
-0.02054 0.0197444 1e-05
-0.02056 0.0197444 1e-05
-0.02058 0.0197444 1e-05
-0.0206 0.0197444 1e-05
-0.0205 0.0224222 1e-05
-0.02052 0.0224222 1e-05
-0.02054 0.0224222 1e-05
-0.02056 0.0224222 1e-05
-0.02058 0.0224222 1e-05
-0.0206 0.0224222 1e-05
-0.0205 0.0251 1e-05
-0.02052 0.0250998 1e-05
-0.02054 0.0250997 1e-05
-0.02056 0.0250995 1e-05
-0.02058 0.0250995 1e-05
-0.0206 0.0250994 1e-05
-0.0205 0.001 1e-05
-0.0202034 0.00100022 1e-05
-0.0199069 0.00100067 1e-05
-0.0196103 0.00100132 1e-05
-0.0193137 0.00100219 1e-05
-0.0190172 0.00100326 1e-05
-0.0187132 0.00100466 1e-05
-0.0184093 0.00100589 1e-05
-0.0181054 0.0010071 1e-05
-0.0178015 0.00100832 1e-05
-0.0174976 0.00100954 1e-05
-0.0172058 0.00101083 1e-05
-0.016914 0.00101193 1e-05
-0.0166222 0.00101303 1e-05
-0.0163305 0.00101413 1e-05
-0.0160387 0.00101523 1e-05
-0.0157586 0.00101637 1e-05
-0.0154784 0.00101745 1e-05
-0.0151983 0.00101857 1e-05
-0.0149182 0.00101973 1e-05
-0.0146381 0.00102092 1e-05
-0.0143755 0.0010221 1e-05
-0.0141128 0.00102328 1e-05
-0.0138502 0.00102449 1e-05
-0.0135876 0.00102574 1e-05
-0.0133658 0.00102682 1e-05
-0.0133513 0.00102689 1e-05
-0.0133369 0.00102696 1e-05
-0.0133224 0.00102703 1e-05
-0.0133079 0.0010271 1e-05
-0.0132934 0.00102718 1e-05
-0.0130353 0.00102847 1e-05
-0.0127771 0.00102977 1e-05
-0.0125189 0.00103109 1e-05
-0.0122607 0.00103243 1e-05
-0.0120025 0.00103378 1e-05
-0.0117547 0.0010351 1e-05
-0.0115068 0.00103641 1e-05
-0.0112589 0.00103774 1e-05
-0.0110111 0.00103906 1e-05
-0.0107632 0.0010404 1e-05
-0.0105252 0.00104168 1e-05
-0.0102873 0.00104296 1e-05
-0.0100493 0.00104424 1e-05
-0.00981133 0.00104552 1e-05
-0.00957337 0.00104681 1e-05
-0.00934491 0.00104803 1e-05
-0.00911645 0.00104926 1e-05
-0.00888799 0.00105048 1e-05
-0.00865954 0.0010517 1e-05
-0.00843108 0.00105292 1e-05
-0.00821175 0.00105409 1e-05
-0.00799242 0.00105525 1e-05
-0.00777309 0.00105641 1e-05
-0.00755376 0.00105757 1e-05
-0.00733443 0.00105872 1e-05
-0.00712387 0.00105982 1e-05
-0.0069133 0.00106092 1e-05
-0.00670273 0.00106201 1e-05
-0.00649216 0.00106311 1e-05
-0.0062816 0.00106419 1e-05
-0.00607944 0.00106523 1e-05
-0.00587729 0.00106627 1e-05
-0.00567514 0.0010673 1e-05
-0.00547298 0.00106833 1e-05
-0.00527083 0.00106936 1e-05
-0.00507675 0.00107034 1e-05
-0.00488267 0.00107132 1e-05
-0.0046886 0.0010723 1e-05
-0.00449452 0.00107327 1e-05
-0.00430044 0.00107425 1e-05
-0.00411412 0.00107517 1e-05
-0.0039278 0.0010761 1e-05
-0.00374147 0.00107703 1e-05
-0.00355515 0.00107796 1e-05
-0.00336883 0.00107889 1e-05
-0.00318995 0.00107977 1e-05
-0.00301107 0.00108066 1e-05
-0.00283219 0.00108156 1e-05
-0.00265331 0.00108245 1e-05
-0.00247443 0.00108334 1e-05
-0.0023027 0.0010842 1e-05
-0.00213097 0.00108507 1e-05
-0.00195924 0.00108593 1e-05
-0.0017875 0.00108681 1e-05
-0.00161577 0.00108769 1e-05
-0.0014509 0.00108853 1e-05
-0.00128603 0.00108938 1e-05
-0.00112116 0.00109024 1e-05
-0.00095629 0.00109112 1e-05
-0.000791418 0.00109201 1e-05
-0.000633135 0.00109287 1e-05
-0.000474851 0.00109375 1e-05
-0.000316568 0.00109465 1e-05
-0.000158284 0.00109556 1e-05
0 0.00109648 1e-05
0.000105677 0.0010971 1e-05
0.000211355 0.00109774 1e-05
0.000317032 0.00109837 1e-05
0.00042271 0.001099 1e-05
0.000528387 0.00109964 1e-05
0.000634886 0.00110027 1e-05
0.000741385 0.00110091 1e-05
0.000847885 0.00110153 1e-05
0.000954384 0.00110215 1e-05
0.00106088 0.00110277 1e-05
0.00116821 0.00110338 1e-05
0.00127554 0.00110398 1e-05
0.00138286 0.00110457 1e-05
0.00149019 0.00110515 1e-05
0.00159752 0.00110572 1e-05
0.00170568 0.00110627 1e-05
0.00181384 0.00110683 1e-05
0.001922 0.00110736 1e-05
0.00203016 0.00110789 1e-05
0.00213833 0.0011084 1e-05
0.00224733 0.0011089 1e-05
0.00235633 0.0011094 1e-05
0.00246533 0.00110989 1e-05
0.00257434 0.00111036 1e-05
0.00268334 0.00111082 1e-05
0.00279319 0.00111127 1e-05
0.00290304 0.00111172 1e-05
0.00301289 0.00111215 1e-05
0.00312274 0.00111258 1e-05
0.00323259 0.00111299 1e-05
0.00334329 0.00111339 1e-05
0.003454 0.00111379 1e-05
0.0035647 0.00111418 1e-05
0.0036754 0.00111456 1e-05
0.00378611 0.00111492 1e-05
0.00389767 0.00111527 1e-05
0.00400924 0.00111562 1e-05
0.0041208 0.00111596 1e-05
0.00423237 0.00111629 1e-05
0.00434393 0.00111661 1e-05
0.00445636 0.00111691 1e-05
0.00456879 0.00111721 1e-05
0.00468123 0.0011175 1e-05
0.00479366 0.00111779 1e-05
0.00490609 0.00111806 1e-05
0.0050194 0.00111831 1e-05
0.0051327 0.00111857 1e-05
0.00524601 0.00111881 1e-05
0.00535932 0.00111904 1e-05
0.00547262 0.00111926 1e-05
0.00558681 0.00111947 1e-05
0.005701 0.00111968 1e-05
0.00581518 0.00111987 1e-05
0.00592937 0.00112006 1e-05
0.00604356 0.00112024 1e-05
0.00615863 0.0011204 1e-05
0.00627371 0.00112056 1e-05
0.00638878 0.0011207 1e-05
0.00650386 0.00112084 1e-05
0.00661893 0.00112097 1e-05
0.0067349 0.00112109 1e-05
0.00685087 0.0011212 1e-05
0.00696684 0.0011213 1e-05
0.00708281 0.00112139 1e-05
0.00719878 0.00112147 1e-05
0.00731565 0.00112154 1e-05
0.00743252 0.00112161 1e-05
0.00754939 0.00112166 1e-05
0.00766626 0.0011217 1e-05
0.00778313 0.00112174 1e-05
0.00788544 0.00112176 1e-05
0.00798774 0.00112177 1e-05
0.00809004 0.00112178 1e-05
0.00819235 0.00112178 1e-05
0.00828877 0.00112177 1e-05
0.00830542 0.00112177 1e-05
0.00832208 0.00112176 1e-05
0.00833873 0.00112176 1e-05
0.00835538 0.00112176 1e-05
0.00837203 0.00112176 1e-05
0.00849073 0.00112173 1e-05
0.00860942 0.0011217 1e-05
0.00872812 0.00112165 1e-05
0.00884682 0.0011216 1e-05
0.00896551 0.00112153 1e-05
0.00908513 0.00112145 1e-05
0.00920475 0.00112137 1e-05
0.00932437 0.00112127 1e-05
0.00944398 0.00112116 1e-05
0.0095636 0.00112105 1e-05
0.00968415 0.00112091 1e-05
0.0098047 0.00112078 1e-05
0.00992525 0.00112063 1e-05
0.0100458 0.00112047 1e-05
0.0101663 0.0011203 1e-05
0.0102878 0.00112011 1e-05
0.0104093 0.00111992 1e-05
0.0105308 0.00111971 1e-05
0.0106523 0.0011195 1e-05
0.0107738 0.00111927 1e-05
0.0108962 0.00111903 1e-05
0.0110186 0.00111878 1e-05
0.0111411 0.00111852 1e-05
0.0112635 0.00111825 1e-05
0.0113859 0.00111797 1e-05
0.0115093 0.00111766 1e-05
0.0116327 0.00111735 1e-05
0.0117561 0.00111703 1e-05
0.0118795 0.0011167 1e-05
0.0120028 0.00111636 1e-05
0.0121272 0.001116 1e-05
0.0122515 0.00111563 1e-05
0.0123759 0.00111525 1e-05
0.0125002 0.00111486 1e-05
0.0126245 0.00111446 1e-05
0.0127498 0.00111403 1e-05
0.0128752 0.0011136 1e-05
0.0130005 0.00111316 1e-05
0.0131258 0.0011127 1e-05
0.0132511 0.00111224 1e-05
0.0133774 0.00111175 1e-05
0.0135036 0.00111126 1e-05
0.0136299 0.00111075 1e-05
0.0137562 0.00111023 1e-05
0.0138825 0.0011097 1e-05
0.0140098 0.00110915 1e-05
0.014137 0.00110859 1e-05
0.0142643 0.00110801 1e-05
0.0143915 0.00110743 1e-05
0.0145188 0.00110683 1e-05
0.0146471 0.00110621 1e-05
0.0147753 0.00110558 1e-05
0.0149036 0.00110494 1e-05
0.0150318 0.00110429 1e-05
0.0151601 0.00110362 1e-05
0.0152893 0.00110294 1e-05
0.0154186 0.00110224 1e-05
0.0155478 0.00110153 1e-05
0.0156771 0.00110081 1e-05
0.0158063 0.00110007 1e-05
0.0159366 0.00109932 1e-05
0.0160668 0.00109856 1e-05
0.0161971 0.00109777 1e-05
0.0163273 0.00109698 1e-05
0.0164576 0.00109617 1e-05
0.0165889 0.00109536 1e-05
0.0167201 0.00109452 1e-05
0.0168514 0.00109366 1e-05
0.0169827 0.00109279 1e-05
0.0171139 0.00109191 1e-05
0.0172462 0.00109103 1e-05
0.0173785 0.00109012 1e-05
0.0175108 0.00108919 1e-05
0.0176431 0.00108824 1e-05
0.0177754 0.00108729 1e-05
0.0179087 0.00108634 1e-05
0.018042 0.00108535 1e-05
0.0181753 0.00108435 1e-05
0.0183087 0.00108332 1e-05
0.018442 0.0010823 1e-05
0.0185763 0.00108127 1e-05
0.0187107 0.00108021 1e-05
0.018845 0.00107912 1e-05
0.0189794 0.00107802 1e-05
0.0191137 0.00107692 1e-05
0.0192491 0.00107582 1e-05
0.0193845 0.00107469 1e-05
0.0195199 0.00107352 1e-05
0.0196553 0.00107234 1e-05
0.0197907 0.00107116 1e-05
0.0199272 0.00106998 1e-05
0.0200636 0.00106877 1e-05
0.0202001 0.00106752 1e-05
0.0203365 0.00106626 1e-05
0.020473 0.00106501 1e-05
0.0206105 0.00106375 1e-05
0.020748 0.00106245 1e-05
0.0208855 0.00106113 1e-05
0.021023 0.00105978 1e-05
0.0211606 0.00105845 1e-05
0.0212991 0.00105711 1e-05
0.0214377 0.00105573 1e-05
0.0215763 0.00105432 1e-05
0.0217149 0.0010529 1e-05
0.0218535 0.00105148 1e-05
0.0219931 0.00105005 1e-05
0.0221328 0.0010486 1e-05
0.0222724 0.0010471 1e-05
0.0224121 0.00104559 1e-05
0.0225517 0.00104409 1e-05
0.0226925 0.00104258 1e-05
0.0228332 0.00104104 1e-05
0.022974 0.00103946 1e-05
0.0231147 0.00103786 1e-05
0.0232555 0.00103627 1e-05
0.0233973 0.00103468 1e-05
0.0235391 0.00103305 1e-05
0.023681 0.00103138 1e-05
0.0238228 0.00102969 1e-05
0.0239647 0.00102801 1e-05
0.0241076 0.00102633 1e-05
0.0242505 0.0010246 1e-05
0.0243935 0.00102284 1e-05
0.0245364 0.00102107 1e-05
0.0246794 0.0010193 1e-05
0.0248234 0.00101752 1e-05
0.0249675 0.0010157 1e-05
0.0251115 0.00101385 1e-05
0.0252556 0.00101198 1e-05
[...]
POINT_DATA 12080
 FIELD attributes 1
U 3 12080 float
10.0004 	0.00731864 	0 10.0004 	0.00585491 	0 10.0003 	0.00439118 	0 10.0002 	0.00292746 	0 10.0001 	0.00146373 	0 10 	0 	0
10.0001 	0.000881969 	0 10 	0.000705575 	0 10 	0.000529181 	0 10 	0.000352787 	0 10 	0.000176394 	0 10 	0 	0
10.0001 	0.000470467 	0 10.0001 	0.000376182 	0 10.0001 	0.000281897 	0 10 	0.000187612 	0 10 	9.3327e-05 	0 10 	0 	0
10 	0.000270559 	0 10 	0.000216448 	0 10 	0.000162336 	0 10 	0.000108224 	0 10 	5.41119e-05 	0 10 	0 	0
10 	8.45042e-05 	0 10 	6.76033e-05 	0 10 	5.07025e-05 	0 10 	3.38017e-05 	0 10 	1.69008e-05 	0 10 	0 	0
10 	-2.27249e-05 	0 10 	-1.81799e-05 	0 10 	-1.36349e-05 	0 10 	-9.08996e-06 	0 10 	-4.54498e-06 	0 10 	0 	0
10 	-0.000213891 	0 10 	-0.000171113 	0 10 	-0.000128335 	0 10 	-8.55565e-05 	0 10 	-4.27783e-05 	0 10 	0 	0
10 	-0.000376447 	0 10 	-0.000301158 	0 10 	-0.000225868 	0 10 	-0.000150579 	0 10 	-7.52895e-05 	0 10 	0 	0
9.99999 	-0.000426732 	0 9.99999 	-0.000341386 	0 9.99999 	-0.000256039 	0 10 	-0.000170693 	0 10 	-8.53464e-05 	0 10 	0 	0
9.17387 	0.0870993 	0 9.1308 	0.0696794 	0 9.08741 	0.0522593 	0 9.04368 	0.0348389 	0 8.99962 	0.0174184 	0 8.95524 	0 	0
10.0004 	0.00731864 	0 10.0024 	0.0151708 	0 10.0045 	0.0221916 	0 10.0065 	0.0291681 	0 10.0085 	0.0361007 	0 10.0135 	0.0463178 	0 10.0163 	0.0402194 	0 10.0207 	0.0401806 	0 10.0251 	0.0401419 	0 10.0296 	0.0401034 	0 10.0355 	0.0445663 	0 10.0384 	0.0379298 	0 10.0424 	0.0378885 	0 10.0464 	0.0378472 	0 10.0504 	0.0378059 	0 10.0545 	0.0409078 	0 10.0566 	0.0388351 	0 10.0591 	0.0401477 	0 10.0615 	0.0414619 	0 10.0639 	0.0427777 	0 10.0661 	0.0452368 	0 10.0676 	0.0453506 	0 10.0689 	0.0465531 	0 10.0702 	0.0477568 	0 10.0715 	0.0489616 	0 10.0726 	0.04998 	0 10.0727 	0.0500469 	0 10.0728 	0.0501138 	0 10.0729 	0.0501808 	0 10.0729 	0.0502477 	0 10.073 	0.0503046 	0 10.0735 	0.0509372 	0 10.074 	0.0515635 	0 10.0745 	0.0521902 	0 10.075 	0.0528175 	0 10.0755 	0.0532801 	0 10.0754 	0.0535839 	0 10.075 	0.0537818 	0 10.0746 	0.0539798 	0 10.0743 	0.054178 	0 10.0737 	0.0541372 	0 10.0732 	0.0542934 	0 10.0721 	0.0542808 	0 10.071 	0.0542681 	0 10.0699 	0.0542554 	0 10.0683 	0.0539734 	0 10.0679 	0.0540693 	0 10.0662 	0.0539509 	0 10.0646 	0.0538324 	0 10.0629 	0.0537139 	0 10.0603 	0.0533095 	0 10.0603 	0.0533855 	0 10.0582 	0.0532124 	0 10.0562 	0.0530393 	0 10.0541 	0.0528661 	0 10.0505 	0.0523954 	0 10.051 	0.0524801 	0 10.0487 	0.0522909 	0 10.0463 	0.0521016 	0 10.0439 	0.0519122 	0 10.0392 	0.0514191 	0 10.0406 	0.0515392 	0 10.038 	0.0513612 	0 10.0354 	0.0511831 	0 10.0328 	0.051005 	0 10.027 	0.0505124 	0 10.0294 	0.0506846 	0 10.0266 	0.0505472 	0 10.0239 	0.0504097 	0 10.0211 	0.0502722 	0 10.0141 	0.0498185 	0 10.0176 	0.0500706 	0 10.0147 	0.0499911 	0 10.0119 	0.0499116 	0 10.009 	0.0498321 	0 10.0007 	0.0494231 	0 10.0055 	0.0497853 	0 10.0025 	0.0498578 	0 9.99965 	0.0499303 	0 9.99674 	0.0500028 	0 9.98727 	0.0497779 	0 9.9934 	0.0503519 	0 9.99051 	0.0505703 	0 9.98761 	0.0507889 	0 9.98472 	0.0510074 	0 9.97399 	0.0508533 	0 9.98163 	0.0516286 	0 9.97894 	0.0523386 	0 9.97627 	0.0530488 	0 9.9736 	0.053759 	0 9.96184 	0.0542054 	0 9.97136 	0.0554492 	7.61789e-22 9.96982 	0.0564022 	5.50989e-21 9.9683 	0.0573553 	1.02571e-20 9.96677 	0.0583086 	1.50033e-20 9.95503 	0.0586166 	1.25066e-20 9.96637 	0.0594241 	9.05041e-20 9.96548 	0.0596062 	8.42901e-20 9.96459 	0.0597883 	7.80782e-20 9.96369 	0.0599704 	7.18684e-20 9.95184 	0.0594525 	-1.46474e-20 9.96342 	0.0592689 	-3.98297e-20 9.96256 	0.0586463 	-4.41992e-20 9.96169 	0.0580237 	-4.85657e-20 9.96081 	0.0574011 	-5.2929e-20 9.94881 	0.0564984 	-1.97147e-20 9.95994 	0.0558775 	-1.74757e-20 9.95847 	0.0547741 	-1.2067e-20 9.95699 	0.0536706 	-6.65906e-21 9.95551 	0.052567 	-1.25195e-21 9.94304 	0.0513293 	7.18101e-21 9.95369 	0.0507905 	-4.32953e-21 9.95163 	0.0495907 	-2.18694e-20 9.94956 	0.0483906 	-3.94122e-20 9.94748 	0.0471903 	-5.69578e-20 9.93453 	0.0456668 	-8.24467e-20 9.94472 	0.0453589 	-1.21424e-19 9.94212 	0.0442886 	-1.09828e-19 9.93951 	0.0432181 	-9.82217e-20 9.93689 	0.0421472 	-8.66065e-20 9.92352 	0.0405202 	-2.77099e-20 9.93318 	0.040343 	3.89961e-20 9.93004 	0.0393778 	5.18048e-20 9.9269 	0.0384123 	6.4602e-20 9.92375 	0.0374465 	7.73876e-20 9.91004 	0.0358178 	3.43916e-20 9.91908 	0.0356233 	-5.51755e-20 9.91539 	0.0346836 	-6.1021e-20 9.9117 	0.0337436 	-6.68485e-20 9.908 	0.0328033 	-7.26578e-20 9.89401 	0.0312297 	-2.33086e-22 9.9023 	0.030983 	6.89415e-20 9.89803 	0.0300605 	6.01798e-20 9.89375 	0.0291377 	5.14002e-20 9.88947 	0.0282145 	4.26027e-20 9.87525 	0.026734 	-2.50699e-20 9.88263 	0.0264402 	-8.34818e-20 9.87775 	0.0255347 	-1.04535e-19 9.87287 	0.0246289 	-1.25581e-19 9.86798 	0.0237227 	-1.4662e-19 9.85367 	0.022337 	-1.25292e-19 9.8599 	0.0220088 	-1.51449e-19 9.85442 	0.0211218 	-1.39706e-19 9.84894 	0.0202345 	-1.27959e-19 9.84345 	0.0193467 	-1.16206e-19 9.82924 	0.0180453 	-7.57702e-20 9.83402 	0.0176927 	-6.4765e-20 9.82796 	0.0168281 	-4.72743e-20 9.82189 	0.0159632 	-2.97858e-20 9.81581 	0.0150978 	-1.22995e-20 9.802 	0.0138743 	2.85509e-21 9.80495 	0.0134866 	0 9.79832 	0.0126407 	0 9.79169 	0.0117944 	0 9.78504 	0.0109476 	0 9.772 	0.00980233 	0 9.77269 	0.00935517 	-1.40538e-20 9.76552 	0.00852427 	-3.19969e-20 9.75833 	0.00769289 	-4.99421e-20 9.75114 	0.00686104 	-6.78894e-20 9.73932 	0.00580851 	-8.75099e-20 9.73726 	0.00527204 	-9.69116e-20 9.72956 	0.00445436 	-9.75144e-20 9.72185 	0.00363616 	-9.81108e-20 9.71413 	0.00281744 	-9.8701e-20 9.70404 	0.00188256 	-9.49199e-20 9.69978 	0.0013266 	-6.4764e-20 9.69267 	0.000625343 	-4.08261e-20 9.68556 	-7.6349e-05 	-1.6897e-20 9.67843 	-0.000778475 	7.02327e-21 9.6717 	-0.00144066 	2.95604e-20 9.67053 	-0.00155577 	3.34567e-20 9.66935 	-0.0016709 	3.73528e-20 9.66817 	-0.00178604 	4.12486e-20 9.667 	-0.00190119 	4.51443e-20 9.66489 	-0.00205853 	4.99308e-20 9.657 	-0.00282598 	5.08821e-20 9.64825 	-0.00363104 	5.18577e-20 9.63948 	-0.00443677 	5.28305e-20 9.6307 	-0.00524318 	5.38007e-20 9.61464 	-0.00635927 	5.57812e-20 9.61204 	-0.00689323 	4.41929e-20 9.60284 	-0.00769551 	3.26029e-20 9.59364 	-0.00849853 	2.10115e-20 9.58442 	-0.00930229 	9.41868e-21 9.56204 	-0.0106195 	-6.61963e-22 9.56431 	-0.0109823 	-8.92253e-21 9.55472 	-0.0117867 	-1.9993e-20 9.54512 	-0.0125918 	-3.10621e-20 9.53549 	-0.0133977 	-4.21297e-20 9.50747 	-0.0148524 	-5.32077e-20 9.51409 	-0.0151054 	-5.47288e-20 9.50413 	-0.0159144 	-6.15417e-20 9.49415 	-0.0167243 	-6.83507e-20 9.48416 	-0.017535 	-7.51558e-20 9.45125 	-0.0190599 	-9.07622e-20 9.46162 	-0.0192642 	-1.30953e-19 9.45133 	-0.0200789 	-1.21984e-19 9.44103 	-0.0208945 	-1.13031e-19 9.4307 	-0.021711 	-1.04094e-19 9.39371 	-0.0232386 	-3.83696e-20 9.40719 	-0.0234575 	-2.53123e-20 9.39661 	-0.0242789 	-1.79282e-20 9.38602 	-0.0251013 	-1.0543e-20 9.3754 	-0.0259247 	-3.15689e-21 9.33515 	-0.0273867 	0 9.35112 	-0.0276829 	0 9.34029 	-0.0285115 	0 9.32943 	-0.029341 	0 9.31856 	-0.0301717 	0 9.27585 	-0.0315024 	0 9.29372 	-0.0319312 	2.02086e-21 9.28266 	-0.0327665 	8.85742e-21 9.27158 	-0.0336028 	1.5693e-20 9.26047 	-0.0344403 	2.25276e-20 9.21606 	-0.0355818 	3.86072e-20 9.23527 	-0.0361904 	1.4225e-19 9.22402 	-0.0370317 	1.45209e-19 9.21274 	-0.0378742 	1.48187e-19 9.20144 	-0.0387179 	1.51184e-19 9.15599 	-0.0396209 	3.88291e-20 9.17606 	-0.0404468 	2.12273e-20 9.16464 	-0.041294 	1.49715e-20 9.1532 	-0.0421425 	8.71457e-21 9.14157 	-0.042991 	2.54794e-21 9.09585 	-0.0436193 	1.54564e-20 9.11478 	-0.0446827 	9.81266e-20 9.1048 	-0.0455468 	1.0379e-19 9.09322 	-0.0464011 	1.05276e-19 9.07794 	-0.0471991 	9.55273e-20 9.03582 	-0.0475781 	3.60498e-21 9.05163 	-0.0488488 	-9.40125e-20 9.04475 	-0.0497803 	-1.18938e-19 9.03306 	-0.0506411 	-1.28512e-19 9.01487 	-0.0513365 	-1.2056e-19 8.97607 	-0.0515026 	-5.68064e-20 8.98904 	-0.0529547 	-1.67656e-19 8.98472 	-0.0539979 	-2.02826e-19 8.97294 	-0.0548657 	-2.05426e-19 8.9525 	-0.0554145 	-1.63842e-19 8.91675 	-0.0553972 	-4.39817e-20 8.92717 	-0.0570001 	-2.30775e-20 8.92493 	-0.0581894 	-1.0225e-20 8.91309 	-0.0590656 	-3.47286e-21 8.89098 	-0.0594369 	0 8.858 	-0.0592731 	0 8.86613 	-0.0610092 	0 8.86554 	-0.0623757 	0 8.85366 	-0.0632617 	0 8.83038 	-0.0634281 	1.90808e-21 8.79993 	-0.063141 	5.01765e-21 8.80603 	-0.0649808 	2.07009e-21 8.80675 	-0.0665404 	0 8.79486 	-0.0674355 	0 8.77083 	-0.0673812 	2.31892e-21 8.74264 	-0.0670011 	5.43319e-21 8.74694 	-0.0689225 	2.486e-21 8.74866 	-0.0706862 	9.48832e-22 8.73676 	-0.0715895 	7.02165e-21 8.71235 	-0.0713036 	2.30554e-20 8.68622 	-0.0708534 	4.04645e-20 8.68894 	-0.072837 	1.59267e-19 8.69142 	-0.0748107 	2.76787e-19 8.67935 	-0.0757005 	2.78579e-19 8.65504 	-0.0752051 	1.59825e-19 8.63074 	-0.0747095 	4.10689e-20 8.63207 	-0.0767503 	2.39581e-20 8.63332 	-0.0787932 	6.84902e-21 8.62159 	-0.0796453 	4.67693e-22 8.59892 	-0.0791184 	3.46363e-21 8.57627 	-0.0785912 	6.45945e-21 8.5764 	-0.0806825 	3.63855e-21 8.57646 	-0.0827758 	8.18765e-22 8.56528 	-0.0835989 	9.60385e-22 8.54406 	-0.0830379 	-2.61087e-21 8.52285 	-0.0824765 	-6.18133e-21 8.52194 	-0.0845794 	-4.73902e-20 8.52097 	-0.0866844 	-8.86042e-20 8.51036 	-0.087476 	-9.03759e-20 8.49042 	-0.0869145 	-5.27357e-20 8.47048 	-0.0863526 	-1.50936e-20 8.46869 	-0.088455 	7.83851e-20 8.46682 	-0.0905594 	1.71857e-19 8.45682 	-0.0913265 	1.80602e-19 8.438 	-0.0907898 	1.02545e-19 8.4192 	-0.0902528 	2.4486e-20 8.41663 	-0.0923473 	1.35359e-20 8.41399 	-0.0944438 	2.58142e-21 8.40458 	-0.0951933 	-1.96218e-21 8.38678 	-0.0946998 	2.49451e-21 8.36899 	-0.094206 	6.95217e-21 8.36574 	-0.0962933 	1.4513e-21 8.36241 	-0.0983826 	-4.05598e-21 8.35361 	-0.099119 	-1.68536e-20 8.33672 	-0.0986741 	-6.41716e-20 8.31984 	-0.098229 	-1.11491e-19 8.31598 	-0.100307 	-2.34856e-19 8.31173 	-0.102294 	-3.48502e-19 8.30306 	-0.102995 	-3.27586e-19 8.28779 	-0.102721 	-1.99085e-19 8.27173 	-0.102328 	-5.75618e-20 8.26733 	-0.104397 	5.99289e-20 8.26193 	-0.106157 	1.4969e-19 8.25338 	-0.106884 	1.47037e-19 8.23997 	-0.106847 	8.53838e-20 8.22464 	-0.106509 	4.1918e-22 8.21976 	-0.108569 	-8.38465e-20 8.21344 	-0.110111 	-1.37873e-19 8.20499 	-0.110864 	-1.46113e-19 8.1932 	-0.111061 	-1.1059e-19 8.17855 	-0.110779 	-3.73787e-20 8.17324 	-0.112832 	-2.70166e-20 8.1662 	-0.114163 	-1.67593e-20 8.15785 	-0.114945 	-6.58125e-21 8.14747 	-0.115371 	6.86608e-21 8.13341 	-0.115147 	2.63001e-20 8.12772 	-0.117194 	5.39421e-21 8.12013 	-0.118324 	-4.02732e-21 8.11187 	-0.119136 	-9.45566e-21 8.10271 	-0.119787 	-1.16628e-20 8.0892 	-0.119621 	2.46163e-21 8.08317 	-0.121664 	-1.36045e-20 8.07518 	-0.122604 	-2.03438e-20 8.06698 	-0.123447 	-2.62695e-20 8.05876 	-0.124291 	-3.21982e-20 8.04586 	-0.124212 	-5.20674e-20 8.03936 	-0.126138 	3.96703e-20 8.03127 	-0.127014 	4.12025e-20 8.02314 	-0.127891 	4.27153e-20 8.01497 	-0.128768 	4.42087e-20 8.00338 	-0.128933 	-2.28512e-20 7.99638 	-0.130654 	3.89886e-20 7.98834 	-0.131565 	4.10308e-20 7.98026 	-0.132478 	4.30551e-20 7.97214 	-0.13339 	4.50614e-20 7.96169 	-0.133792 	5.19876e-21 7.95432 	-0.13532 	-2.77085e-22 7.94632 	-0.136269 	-2.0091e-22 7.93829 	-0.137218 	-1.24753e-22 7.93021 	-0.138168 	-4.8614e-23 7.92075 	-0.138804 	6.72915e-21 7.91312 	-0.140148 	0 7.90515 	-0.141137 	0 7.89715 	-0.142126 	0 7.88911 	-0.143115 	0 7.88052 	-0.143981 	2.76176e-21 7.87526 	-0.144818 	0 7.8699 	-0.145513 	0 7.86452 	-0.14621 	0 7.85912 	-0.146906 	0 7.85392 	-0.147574 	0 7.85119 	-0.147914 	0 7.84845 	-0.148253 	0 7.84571 	-0.148593 	0 7.84296 	-0.148933 	0 7.84056 	-0.149203 	0 7.83227 	-0.150337 	0 7.82407 	-0.15141 	0 7.81583 	-0.152483 	0 7.80755 	-0.153557 	0 7.80062 	-0.154357 	0 7.79195 	-0.155717 	0 7.78375 	-0.156835 	0 7.77551 	-0.157954 	0 7.76722 	-0.159074 	0 7.76132 	-0.159722 	0 7.75226 	-0.161305 	0 7.74404 	-0.162472 	0 7.73579 	-0.163639 	0 7.72749 	-0.164807 	0 7.72259 	-0.165311 	0 7.71313 	-0.167115 	-1.73551e-21 7.70489 	-0.168334 	-1.05255e-20 7.69662 	-0.169552 	-1.93127e-20 7.68829 	-0.170772 	-2.8097e-20 7.68437 	-0.171143 	-3.69187e-20 7.67459 	-0.173124 	-2.7244e-20 7.66624 	-0.17444 	-2.58514e-20 7.65793 	-0.175714 	-2.49692e-20 7.65046 	-0.17682 	-2.60022e-20 7.64661 	-0.177235 	-3.48763e-20 7.63682 	-0.179253 	-2.5115e-20 7.62802 	-0.180806 	-1.53235e-20 7.61967 	-0.182139 	-5.51625e-21 7.61323 	-0.183105 	0 7.60925 	-0.183601 	0 7.59945 	-0.185658 	0 7.5902 	-0.187445 	-1.73133e-21 7.5818 	-0.188839 	-5.99256e-21 7.57635 	-0.189674 	-1.02796e-20 7.57224 	-0.190252 	-1.45785e-20 7.56242 	-0.192352 	-4.57709e-20 7.55271 	-0.19437 	-7.53262e-20 7.54426 	-0.195828 	-9.35576e-20 7.53977 	-0.196543 	-8.07147e-20 7.53553 	-0.197207 	-6.57728e-20 7.52568 	-0.199354 	-4.23433e-20 7.51575 	-0.201501 	-1.8902e-20 7.50781 	-0.202977 	-1.23356e-20 7.50345 	-0.203731 	-3.41043e-20 7.49907 	-0.204485 	-5.58737e-20 7.48918 	-0.206684 	-6.82324e-20 7.47921 	-0.208883 	-8.05885e-20 7.47185 	-0.210411 	-7.12946e-20 7.46734 	-0.211257 	-4.15149e-20 7.4628 	-0.212103 	-1.17357e-20 7.45286 	-0.214358 	-8.36628e-21 7.44284 	-0.216614 	-5.00454e-21 7.43605 	-0.218199 	0 7.43137 	-0.219139 	0 7.42667 	-0.220079 	0 7.41667 	-0.222397 	0 7.40666 	-0.224704 	0 7.40046 	-0.226312 	0 7.3955 	-0.227398 	0 7.39061 	-0.228436 	0 7.38055 	-0.230822 	0 7.37159 	-0.232997 	0 7.36525 	-0.234691 	0 7.35966 	-0.236058 	-9.19209e-21 7.35457 	-0.237197 	-2.482e-20 7.34443 	-0.239657 	-7.07698e-21 7.33649 	-0.24171 	4.45256e-23 7.33 	-0.243494 	1.18602e-22 7.32378 	-0.245143 	1.06695e-21 7.31847 	-0.246386 	4.66122e-21 7.30825 	-0.248925 	3.33515e-20 7.3013 	-0.250865 	3.41507e-20 7.29464 	-0.252742 	3.20381e-20 7.28792 	-0.254619 	2.99096e-20 7.28225 	-0.256025 	1.76393e-20 7.27271 	-0.258507 	2.11025e-21 7.26593 	-0.260483 	1.04343e-20 7.25909 	-0.262458 	1.87623e-20 7.25217 	-0.264434 	2.70945e-20 7.24582 	-0.266138 	3.54141e-20 7.23729 	-0.268508 	5.94173e-20 7.23031 	-0.270588 	5.61428e-20 7.22326 	-0.272667 	5.28422e-20 7.21614 	-0.274745 	4.95154e-20 7.20912 	-0.27675 	3.8497e-20 7.20597 	-0.277658 	3.78033e-20 7.20327 	-0.278487 	3.81245e-20 7.20054 	-0.279316 	3.84471e-20 7.19781 	-0.280145 	3.8771e-20 7.19516 	-0.280948 	3.9086e-20 7.19045 	-0.282306 	3.81741e-20 7.18571 	-0.283664 	3.72585e-20 7.18094 	-0.285021 	3.63393e-20 7.17614 	-0.286378 	3.54164e-20 7.1723 	-0.287619 	3.54848e-20 7.16415 	-0.290017 	3.34257e-20 7.15643 	-0.292307 	3.22708e-20 7.14862 	-0.294596 	3.11061e-20 7.14073 	-0.296885 	2.99316e-20 7.13534 	-0.298874 	3.12953e-20 7.12612 	-0.301557 	2.53121e-20 7.11814 	-0.303961 	1.69913e-20 7.11006 	-0.306364 	8.66532e-21 7.10191 	-0.308767 	3.34249e-22 7.09785 	-0.310691 	-3.81489e-21 7.08778 	-0.313608 	-4.42979e-22 7.07926 	-0.316182 	0 7.07089 	-0.318704 	0 7.06394 	-0.321057 	0 7.05973 	-0.323093 	0 7.04939 	-0.326124 	0 7.03969 	-0.328999 	0 7.03101 	-0.331645 	0 7.02542 	-0.33394 	-2.80509e-21 7.02085 	-0.336113 	-6.58545e-21 7.01022 	-0.339265 	-3.42539e-21 6.99947 	-0.342416 	-2.68641e-22 6.99094 	-0.345154 	5.36418e-21 6.98606 	-0.347469 	8.05593e-21 6.9811 	-0.349785 	1.07414e-20 6.97015 	-0.353063 	-2.14396e-20 6.95908 	-0.35634 	-5.36302e-20 6.95103 	-0.359209 	-5.20963e-20 6.94573 	-0.361667 	-1.52776e-20 6.94035 	-0.364124 	2.15377e-20 6.92905 	-0.367529 	-1.80813e-20 6.91768 	-0.370928 	-5.71956e-20 6.91026 	-0.373895 	-5.5257e-20 6.90428 	-0.37654 	-2.89752e-20 6.89844 	-0.379139 	8.04584e-22 6.88677 	-0.382673 	-3.97877e-21 6.87685 	-0.386008 	-3.4796e-21 6.86899 	-0.389113 	3.10986e-21 6.86157 	-0.3921 	1.06384e-20 6.85522 	-0.394838 	2.01913e-20 6.84314 	-0.3985 	9.93302e-21 6.83464 	-0.401773 	1.31298e-20 6.82631 	-0.405016 	1.73255e-20 6.81786 	-0.408258 	2.15304e-20 6.81052 	-0.411233 	3.21752e-20 6.79961 	-0.414858 	3.74503e-20 6.79088 	-0.418242 	3.25007e-20 6.78203 	-0.421624 	2.75349e-20 6.77307 	-0.425004 	2.25528e-20 6.76417 	-0.428343 	1.56094e-20 6.7622 	-0.429006 	1.5121e-20 6.76056 	-0.429632 	1.46178e-20 6.75892 	-0.430259 	1.41148e-20 6.75728 	-0.430886 	1.36119e-20 6.75567 	-0.431501 	1.31178e-20 6.74767 	-0.43438 	1.01833e-20 6.73959 	-0.437258 	7.24635e-21 6.73143 	-0.440134 	4.30708e-21 6.72318 	-0.443009 	1.36543e-21 6.71581 	-0.445727 	2.85426e-21 6.70535 	-0.449549 	1.13077e-21 6.69499 	-0.453182 	3.71626e-21 6.68449 	-0.456812 	6.29808e-21 6.67387 	-0.46044 	8.87622e-21 6.66525 	-0.463722 	2.44723e-20 6.65397 	-0.46782 	3.46314e-20 6.64281 	-0.471675 	4.0998e-20 6.63163 	-0.475432 	4.58595e-20 6.6215 	-0.478994 	4.12901e-20 6.61216 	-0.482407 	2.95129e-20 6.60018 	-0.486628 	4.07306e-20 6.58805 	-0.490846 	5.19479e-20 6.57643 	-0.494691 	5.18321e-20 6.56644 	-0.498237 	4.01443e-20 6.55631 	-0.501783 	2.84505e-20 6.54359 	-0.506127 	3.95138e-20 6.5307 	-0.510468 	5.05765e-20 6.51928 	-0.514504 	4.95747e-20 6.50844 	-0.518161 	3.11899e-20 6.49746 	-0.521818 	1.28055e-20 6.48392 	-0.526265 	1.1127e-20 6.47105 	-0.530574 	8.19356e-21 6.45919 	-0.534687 	3.4756e-21 6.44726 	-0.538704 	-2.39792e-21 6.43537 	-0.54246 	-1.15403e-20 6.42112 	-0.546978 	-4.09622e-22 6.40851 	-0.551186 	-5.89363e-21 6.39574 	-0.555391 	-1.13846e-20 6.38282 	-0.559593 	-1.68827e-20 6.3698 	-0.563672 	-2.46152e-20 6.36468 	-0.565239 	-1.6998e-20 6.36001 	-0.566721 	-1.87037e-20 6.35531 	-0.568202 	-2.04153e-20 6.35059 	-0.569684 	-2.21327e-20 6.34602 	-0.571113 	-2.37956e-20 6.33755 	-0.573916 	-2.88793e-20 6.32901 	-0.576718 	-3.39954e-20 6.32041 	-0.579519 	-3.91441e-20 6.31173 	-0.582319 	-4.43253e-20 6.30288 	-0.584963 	-1.30564e-20 6.29004 	-0.589537 	-1.58871e-20 6.27623 	-0.593854 	-1.03229e-20 6.26226 	-0.598169 	-4.7515e-21 6.24808 	-0.602429 	1.60204e-21 6.23345 	-0.606398 	1.24297e-20 6.22011 	-0.611165 	4.72334e-21 6.20608 	-0.615769 	0 6.19104 	-0.620115 	0 6.17549 	-0.624165 	0 6.15972 	-0.628173 	0 6.14532 	-0.632979 	0 6.13073 	-0.63778 	0 6.11522 	-0.64221 	-1.48912e-21 6.0984 	-0.646194 	-3.83046e-21 6.08139 	-0.65018 	-6.17773e-21 6.06583 	-0.654967 	-2.1108e-20 6.04988 	-0.659597 	-2.54966e-20 6.03342 	-0.663993 	-1.42523e-20 6.01652 	-0.668302 	-1.47729e-21 5.99821 	-0.67222 	1.84521e-20 5.98178 	-0.676751 	-4.44949e-21 5.96469 	-0.680961 	6.36325e-21 5.94742 	-0.685168 	1.72566e-20 5.92998 	-0.689371 	2.82313e-20 5.914 	-0.693178 	3.82551e-20 5.91322 	-0.693373 	3.90443e-20 5.91245 	-0.693567 	3.98337e-20 5.91167 	-0.693762 	4.06234e-20 5.9109 	-0.693957 	4.14134e-20 5.91012 	-0.694138 	3.87859e-20 5.89243 	-0.698409 	1.59627e-20 5.87451 	-0.702649 	-5.68155e-21 5.8564 	-0.706886 	-2.73761e-20 5.83811 	-0.711121 	-4.91212e-20 5.81945 	-0.714984 	-3.72136e-20 5.80159 	-0.719595 	-7.86789e-20 5.78268 	-0.723817 	-1.01078e-19 5.76323 	-0.727873 	-1.15495e-19 5.74343 	-0.731606 	-8.80045e-20 5.72337 	-0.735209 	-4.32091e-20 5.70419 	-0.739635 	-5.09055e-20 5.6848 	-0.744058 	-5.85601e-20 5.66462 	-0.748001 	-5.18086e-20 5.64336 	-0.751391 	-2.87843e-20 5.62189 	-0.754785 	-5.70718e-21 5.60134 	-0.759015 	1.90021e-21 5.58046 	-0.762976 	6.20834e-21 5.55924 	-0.76666 	7.10106e-21 5.53782 	-0.77034 	8.005e-21 5.51499 	-0.773471 	1.10738e-20 5.50163 	-0.775845 	-2.03406e-21 5.48806 	-0.77789 	-1.78942e-21 5.47441 	-0.779934 	-1.52838e-21 5.46068 	-0.781976 	-1.25083e-21 5.44763 	-0.783908 	-9.72505e-22 5.43896 	-0.785291 	9.32514e-22 5.43027 	-0.786673 	2.85068e-21 5.42154 	-0.788056 	4.78204e-21 5.41278 	-0.789438 	6.72667e-21 5.4041 	-0.790601 	-1.12943e-20 5.38215 	-0.794109 	-3.52125e-20 5.35945 	-0.797231 	-4.83251e-20 5.33656 	-0.800352 	-6.14889e-20 5.3136 	-0.803268 	-6.10633e-20 5.29065 	-0.805751 	-3.15776e-20 5.26775 	-0.809152 	-2.05113e-20 5.24465 	-0.81255 	-9.42948e-21 5.2207 	-0.815193 	-2.70932e-21 5.19669 	-0.817235 	-3.26374e-22 5.17247 	-0.819279 	2.07609e-21 5.14831 	-0.822268 	4.52086e-21 5.12408 	-0.825032 	4.27883e-21 5.09998 	-0.827274 	-2.29119e-21 5.07557 	-0.829417 	-8.57942e-21 5.05012 	-0.830997 	-1.32514e-20 5.03375 	-0.832641 	-2.57666e-20 5.01763 	-0.833774 	-2.35239e-20 5.00145 	-0.834885 	-2.06334e-20 4.98519 	-0.835994 	-1.77288e-20 4.96967 	-0.837048 	-1.49545e-20 4.96087 	-0.837731 	-1.4443e-20 