# vtk DataFile Version 2.0
track0
ASCII
DATASET POLYDATA
POINTS 12080 float
-0.0205 0.001 1e-05
-0.02052 0.000999985 1e-05
-0.02054 0.000999974 1e-05
-0.02056 0.000999965 1e-05
-0.02058 0.000999959 1e-05
-0.0206 0.000999956 1e-05
-0.0205 0.00367778 1e-05
-0.02052 0.00367778 1e-05
-0.02054 0.00367777 1e-05
-0.02056 0.00367777 1e-05
-0.02058 0.00367777 1e-05
-0.0206 0.00367777 1e-05
-0.0205 0.00635556 1e-05
-0.02052 0.00635555 1e-05
-0.02054 0.00635555 1e-05
-0.02056 0.00635555 1e-05
-0.02058 0.00635555 1e-05
-0.0206 0.00635555 1e-05
-0.0205 0.00903333 1e-05
-0.02052 0.00903333 1e-05
-0.02054 0.00903333 1e-05
-0.02056 0.00903333 1e-05
-0.02058 0.00903333 1e-05
-0.0206 0.00903333 1e-05
-0.0205 0.0117111 1e-05
-0.02052 0.0117111 1e-05
-0.02054 0.0117111 1e-05
-0.02056 0.0117111 1e-05
-0.02058 0.0117111 1e-05
-0.0206 0.0117111 1e-05
-0.0205 0.0143889 1e-05
-0.02052 0.0143889 1e-05
-0.02054 0.0143889 1e-05
-0.02056 0.0143889 1e-05
-0.02058 0.0143889 1e-05
-0.0206 0.0143889 1e-05
-0.0205 0.0170667 1e-05
-0.02052 0.0170667 1e-05
-0.02054 0.0170667 1e-05
-0.02056 0.0170667 1e-05
-0.02058 0.0170667 1e-05
-0.0206 0.0170667 1e-05
-0.0205 0.0197444 1e-05
-0.02052 0.0197444 1e-05
-0.02054 0.0197444 1e-05
-0.02056 0.0197444 1e-05
-0.02058 0.0197444 1e-05
-0.0206 0.0197444 1e-05
-0.0205 0.0224222 1e-05
-0.02052 0.0224222 1e-05
-0.02054 0.0224222 1e-05
-0.02056 0.0224222 1e-05
-0.02058 0.0224222 1e-05
-0.0206 0.0224222 1e-05
-0.0205 0.0251 1e-05
-0.02052 0.0250998 1e-05
-0.02054 0.0250997 1e-05
-0.02056 0.0250995 1e-05
-0.02058 0.0250995 1e-05
-0.0206 0.0250994 1e-05
-0.0205 0.001 1e-05
-0.0202034 0.00100022 1e-05
-0.0199069 0.00100067 1e-05
-0.0196103 0.00100132 1e-05
-0.0193137 0.00100219 1e-05
-0.0190172 0.00100326 1e-05
-0.0187132 0.00100466 1e-05
-0.0184093 0.00100589 1e-05
-0.0181054 0.0010071 1e-05
-0.0178015 0.00100832 1e-05
-0.0174976 0.00100954 1e-05
-0.0172058 0.00101083 1e-05
-0.016914 0.00101193 1e-05
-0.0166222 0.00101303 1e-05
-0.0163305 0.00101413 1e-05
-0.0160387 0.00101523 1e-05
-0.0157586 0.00101637 1e-05
-0.0154784 0.00101745 1e-05
-0.0151983 0.00101857 1e-05
-0.0149182 0.00101973 1e-05
-0.0146381 0.00102092 1e-05
-0.0143755 0.0010221 1e-05
-0.0141128 0.00102328 1e-05
-0.0138502 0.00102449 1e-05
-0.0135876 0.00102574 1e-05
-0.0133658 0.00102682 1e-05
-0.0133513 0.00102689 1e-05
-0.0133369 0.00102696 1e-05
-0.0133224 0.00102703 1e-05
-0.0133079 0.0010271 1e-05
-0.0132934 0.00102718 1e-05
-0.0130353 0.00102847 1e-05
-0.0127771 0.00102977 1e-05
-0.0125189 0.00103109 1e-05
-0.0122607 0.00103243 1e-05
-0.0120025 0.00103378 1e-05
-0.0117547 0.0010351 1e-05
-0.0115068 0.00103641 1e-05
-0.0112589 0.00103774 1e-05
-0.0110111 0.00103906 1e-05
-0.0107632 0.0010404 1e-05
-0.0105252 0.00104168 1e-05
-0.0102873 0.00104296 1e-05
-0.0100493 0.00104424 1e-05
-0.00981133 0.00104552 1e-05
-0.00957337 0.00104681 1e-05
-0.00934491 0.00104803 1e-05
-0.00911645 0.00104926 1e-05
-0.00888799 0.00105048 1e-05
-0.00865954 0.0010517 1e-05
-0.00843108 0.00105292 1e-05
-0.00821175 0.00105409 1e-05
-0.00799242 0.00105525 1e-05
-0.00777309 0.00105641 1e-05
-0.00755376 0.00105757 1e-05
-0.00733443 0.00105872 1e-05
-0.00712387 0.00105982 1e-05
-0.0069133 0.00106092 1e-05
-0.00670273 0.00106201 1e-05
-0.00649216 0.00106311 1e-05
-0.0062816 0.00106419 1e-05
-0.00607944 0.00106523 1e-05
-0.00587729 0.00106627 1e-05
-0.00567514 0.0010673 1e-05
-0.00547298 0.00106833 1e-05
-0.00527083 0.00106936 1e-05
-0.00507675 0.00107034 1e-05
-0.00488267 0.00107132 1e-05
-0.0046886 0.0010723 1e-05
-0.00449452 0.00107327 1e-05
-0.00430044 0.00107425 1e-05
-0.00411412 0.00107517 1e-05
-0.0039278 0.0010761 1e-05
-0.00374147 0.00107703 1e-05
-0.00355515 0.00107796 1e-05
-0.00336883 0.00107889 1e-05
-0.00318995 0.00107977 1e-05
-0.00301107 0.00108066 1e-05
-0.00283219 0.00108156 1e-05
-0.00265331 0.00108245 1e-05
-0.00247443 0.00108334 1e-05
-0.0023027 0.0010842 1e-05
-0.00213097 0.00108507 1e-05
-0.00195924 0.00108593 1e-05
-0.0017875 0.00108681 1e-05
-0.00161577 0.00108769 1e-05
-0.0014509 0.00108853 1e-05
-0.00128603 0.00108938 1e-05
-0.00112116 0.00109024 1e-05
-0.00095629 0.00109112 1e-05
-0.000791418 0.00109201 1e-05
-0.000633135 0.00109287 1e-05
-0.000474851 0.00109375 1e-05
-0.000316568 0.00109465 1e-05
-0.000158284 0.00109556 1e-05
0 0.00109648 1e-05
0.000105677 0.0010971 1e-05
0.000211355 0.00109774 1e-05
0.000317032 0.00109837 1e-05
0.00042271 0.001099 1e-05
0.000528387 0.00109964 1e-05
0.000634886 0.00110027 1e-05
0.000741385 0.00110091 1e-05
0.000847885 0.00110153 1e-05
0.000954384 0.00110215 1e-05
0.00106088 0.00110277 1e-05
0.00116821 0.00110338 1e-05
0.00127554 0.00110398 1e-05
0.00138286 0.00110457 1e-05
0.00149019 0.00110515 1e-05
0.00159752 0.00110572 1e-05
0.00170568 0.00110627 1e-05
0.00181384 0.00110683 1e-05
0.001922 0.00110736 1e-05
0.00203016 0.00110789 1e-05
0.00213833 0.0011084 1e-05
0.00224733 0.0011089 1e-05
0.00235633 0.0011094 1e-05
0.00246533 0.00110989 1e-05
0.00257434 0.00111036 1e-05
0.00268334 0.00111082 1e-05
0.00279319 0.00111127 1e-05
0.00290304 0.00111172 1e-05
0.00301289 0.00111215 1e-05
0.00312274 0.00111258 1e-05
0.00323259 0.00111299 1e-05
0.00334329 0.00111339 1e-05
0.003454 0.00111379 1e-05
0.0035647 0.00111418 1e-05
0.0036754 0.00111456 1e-05
0.00378611 0.00111492 1e-05
0.00389767 0.00111527 1e-05
0.00400924 0.00111562 1e-05
0.0041208 0.00111596 1e-05
0.00423237 0.00111629 1e-05
0.00434393 0.00111661 1e-05
0.00445636 0.00111691 1e-05
0.00456879 0.00111721 1e-05
0.00468123 0.0011175 1e-05
0.00479366 0.00111779 1e-05
0.00490609 0.00111806 1e-05
0.0050194 0.00111831 1e-05
0.0051327 0.00111857 1e-05
0.00524601 0.00111881 1e-05
0.00535932 0.00111904 1e-05
0.00547262 0.00111926 1e-05
0.00558681 0.00111947 1e-05
0.005701 0.00111968 1e-05
0.00581518 0.00111987 1e-05
0.00592937 0.00112006 1e-05
0.00604356 0.00112024 1e-05
0.00615863 0.0011204 1e-05
0.00627371 0.00112056 1e-05
0.00638878 0.0011207 1e-05
0.00650386 0.00112084 1e-05
0.00661893 0.00112097 1e-05
0.0067349 0.00112109 1e-05
0.00685087 0.0011212 1e-05
0.00696684 0.0011213 1e-05
0.00708281 0.00112139 1e-05
0.00719878 0.00112147 1e-05
0.00731565 0.00112154 1e-05
0.00743252 0.00112161 1e-05
0.00754939 0.00112166 1e-05
0.00766626 0.0011217 1e-05
0.00778313 0.00112174 1e-05
0.00788544 0.00112176 1e-05
0.00798774 0.00112177 1e-05
0.00809004 0.00112178 1e-05
0.00819235 0.00112178 1e-05
0.00828877 0.00112177 1e-05
0.00830542 0.00112177 1e-05
0.00832208 0.00112176 1e-05
0.00833873 0.00112176 1e-05
0.00835538 0.00112176 1e-05
0.00837203 0.00112176 1e-05
0.00849073 0.00112173 1e-05
0.00860942 0.0011217 1e-05
0.00872812 0.00112165 1e-05
0.00884682 0.0011216 1e-05
0.00896551 0.00112153 1e-05
0.00908513 0.00112145 1e-05
0.00920475 0.00112137 1e-05
0.00932437 0.00112127 1e-05
0.00944398 0.00112116 1e-05
0.0095636 0.00112105 1e-05
0.00968415 0.00112091 1e-05
0.0098047 0.00112078 1e-05
0.00992525 0.00112063 1e-05
0.0100458 0.00112047 1e-05
0.0101663 0.0011203 1e-05
0.0102878 0.00112011 1e-05
0.0104093 0.00111992 1e-05
0.0105308 0.00111971 1e-05
0.0106523 0.0011195 1e-05
0.0107738 0.00111927 1e-05
0.0108962 0.00111903 1e-05
0.0110186 0.00111878 1e-05
0.0111411 0.00111852 1e-05
0.0112635 0.00111825 1e-05
0.0113859 0.00111797 1e-05
0.0115093 0.00111766 1e-05
0.0116327 0.00111735 1e-05
0.0117561 0.00111703 1e-05
0.0118795 0.0011167 1e-05
0.0120028 0.00111636 1e-05
0.0121272 0.001116 1e-05
0.0122515 0.00111563 1e-05
0.0123759 0.00111525 1e-05
0.0125002 0.00111486 1e-05
0.0126245 0.00111446 1e-05
0.0127498 0.00111403 1e-05
0.0128752 0.0011136 1e-05
0.0130005 0.00111316 1e-05
0.0131258 0.0011127 1e-05
0.0132511 0.00111224 1e-05
0.0133774 0.00111175 1e-05
0.0135036 0.00111126 1e-05
0.0136299 0.00111075 1e-05
0.0137562 0.00111023 1e-05
0.0138825 0.0011097 1e-05
0.0140098 0.00110915 1e-05
0.014137 0.00110859 1e-05
0.0142643 0.00110801 1e-05
0.0143915 0.00110743 1e-05
0.0145188 0.00110683 1e-05
0.0146471 0.00110621 1e-05
0.0147753 0.00110558 1e-05
0.0149036 0.00110494 1e-05
0.0150318 0.00110429 1e-05
0.0151601 0.00110362 1e-05
0.0152893 0.00110294 1e-05
0.0154186 0.00110224 1e-05
0.0155478 0.00110153 1e-05
0.0156771 0.00110081 1e-05
0.0158063 0.00110007 1e-05
0.0159366 0.00109932 1e-05
0.0160668 0.00109856 1e-05
0.0161971 0.00109777 1e-05
0.0163273 0.00109698 1e-05
0.0164576 0.00109617 1e-05
0.0165889 0.00109536 1e-05
0.0167201 0.00109452 1e-05
0.0168514 0.00109366 1e-05
0.0169827 0.00109279 1e-05
0.0171139 0.00109191 1e-05
0.0172462 0.00109103 1e-05
0.0173785 0.00109012 1e-05
0.0175108 0.00108919 1e-05
0.0176431 0.00108824 1e-05
0.0177754 0.00108729 1e-05
0.0179087 0.00108634 1e-05
0.018042 0.00108535 1e-05
0.0181753 0.00108435 1e-05
0.0183087 0.00108332 1e-05
0.018442 0.0010823 1e-05
0.0185763 0.00108127 1e-05
0.0187107 0.00108021 1e-05
0.018845 0.00107912 1e-05
0.0189794 0.00107802 1e-05
0.0191137 0.00107692 1e-05
0.0192491 0.00107582 1e-05
0.0193845 0.00107469 1e-05
0.0195199 0.00107352 1e-05
0.0196553 0.00107234 1e-05
0.0197907 0.00107116 1e-05
0.0199272 0.00106998 1e-05
0.0200636 0.00106877 1e-05
0.0202001 0.00106752 1e-05
0.0203365 0.00106626 1e-05
0.020473 0.00106501 1e-05
0.0206105 0.00106375 1e-05
0.020748 0.00106245 1e-05
0.0208855 0.00106113 1e-05
0.021023 0.00105978 1e-05
0.0211606 0.00105845 1e-05
0.0212991 0.00105711 1e-05
0.0214377 0.00105573 1e-05
0.0215763 0.00105432 1e-05
0.0217149 0.0010529 1e-05
0.0218535 0.00105148 1e-05
0.0219931 0.00105005 1e-05
0.0221328 0.0010486 1e-05
0.0222724 0.0010471 1e-05
0.0224121 0.00104559 1e-05
0.0225517 0.00104409 1e-05
0.0226925 0.00104258 1e-05
0.0228332 0.00104104 1e-05
0.022974 0.00103946 1e-05
0.0231147 0.00103786 1e-05
0.0232555 0.00103627 1e-05
0.0233973 0.00103468 1e-05
0.0235391 0.00103305 1e-05
0.023681 0.00103138 1e-05
0.0238228 0.00102969 1e-05
0.0239647 0.00102801 1e-05
0.0241076 0.00102633 1e-05
0.0242505 0.0010246 1e-05
0.0243935 0.00102284 1e-05
0.0245364 0.00102107 1e-05
0.0246794 0.0010193 1e-05
0.0248234 0.00101752 1e-05
0.0249675 0.0010157 1e-05
0.0251115 0.00101385 1e-05
0.0252556 0.00101198 1e-05
[...]
POINT_DATA 12080
 FIELD attributes 2
p 1 12080 float
-5.46032 -5.45701 -5.45369 -5.45038 -5.44706 -5.44375
-5.61296 -5.61293 -5.61291 -5.61289 -5.61287 -5.61285
-5.78765 -5.78752 -5.7874 -5.78728 -5.78716 -5.78705
-5.88167 -5.88162 -5.88157 -5.88151 -5.88146 -5.88141
-5.92749 -5.92737 -5.92726 -5.92715 -5.92703 -5.92692
-5.93468 -5.93452 -5.93436 -5.9342 -5.93403 -5.93387
-5.90829 -5.90822 -5.90815 -5.90808 -5.90801 -5.90794
-5.8391 -5.83906 -5.83902 -5.83898 -5.83894 -5.8389
-5.71802 -5.71803 -5.71804 -5.71804 -5.71805 -5.71806
-3.5055 -3.52483 -3.54404 -3.56311 -3.58204 -3.60084
-5.46032 -5.4596 -5.45597 -5.45226 -5.44847 -5.44007 -5.45388 -5.46881 -5.48374 -5.49867 -5.52304 -5.54475 -5.57461 -5.60448 -5.63434 -5.66701 -5.68257 -5.70417 -5.72577 -5.74738 -5.77059 -5.78929 -5.80998 -5.83069 -5.85139 -5.86888 -5.87002 -5.87115 -5.87229 -5.87343 -5.87456 -5.89605 -5.91753 -5.93901 -5.96049 -5.9817 -6.00023 -6.01858 -6.03692 -6.05526 -6.07302 -6.08836 -6.10341 -6.11846 -6.13351 -6.148 -6.1614 -6.17455 -6.18769 -6.20083 -6.21351 -6.22575 -6.2377 -6.24964 -6.26159 -6.27309 -6.28427 -6.29511 -6.30595 -6.31678 -6.32717 -6.33733 -6.34715 -6.35696 -6.36678 -6.3762 -6.38548 -6.39436 -6.40325 -6.41213 -6.42066 -6.4291 -6.43718 -6.44525 -6.45333 -6.46122 -6.46897 -6.4761 -6.48324 -6.49037 -6.49739 -6.50463 -6.51184 -6.51905 -6.52626 -6.53423 -6.54267 -6.55033 -6.55799 -6.56564 -6.57402 -6.58481 -6.59879 -6.61276 -6.62674 -6.64343 -6.66081 -6.6828 -6.70479 -6.72678 -6.74855 -6.76854 -6.78915 -6.80977 -6.83038 -6.84845 -6.86195 -6.87495 -6.88795 -6.90096 -6.9136 -6.92388 -6.93344 -6.94301 -6.95258 -6.96194 -6.97159 -6.97975 -6.98791 -6.99607 -7.00293 -7.01128 -7.01806 -7.02484 -7.03163 -7.03685 -7.04346 -7.04875 -7.05403 -7.05932 -7.0634 -7.0683 -7.07219 -7.07609 -7.07998 -7.08314 -7.08683 -7.08979 -7.09275 -7.09572 -7.09828 -7.10121 -7.10361 -7.106 -7.1084 -7.11055 -7.11304 -7.11512 -7.1172 -7.11927 -7.12118 -7.12342 -7.12535 -7.12727 -7.12919 -7.13097 -7.13306 -7.13492 -7.13677 -7.13862 -7.14037 -7.14237 -7.14422 -7.14606 -7.14791 -7.14971 -7.15144 -7.15311 -7.15478 -7.15644 -7.15802 -7.15829 -7.15856 -7.15883 -7.1591 -7.15941 -7.16148 -7.16359 -7.1657 -7.16781 -7.17027 -7.17229 -7.17466 -7.17704 -7.17941 -7.18251 -7.18441 -7.18701 -7.18961 -7.1922 -7.19589 -7.19765 -7.20041 -7.20318 -7.20595 -7.21016 -7.21179 -7.21474 -7.21768 -7.22063 -7.22536 -7.22693 -7.23009 -7.23325 -7.23641 -7.24163 -7.24319 -7.24657 -7.24994 -7.25332 -7.25896 -7.26057 -7.26414 -7.26772 -7.27129 -7.27726 -7.27898 -7.28274 -7.2865 -7.29026 -7.29649 -7.29837 -7.30231 -7.30626 -7.31021 -7.31661 -7.31881 -7.32284 -7.32696 -7.33134 -7.33761 -7.34026 -7.34427 -7.34857 -7.3533 -7.35944 -7.36252 -7.36656 -7.37102 -7.37604 -7.38205 -7.38553 -7.38965 -7.39425 -7.39949 -7.4054 -7.40924 -7.41346 -7.4182 -7.42359 -7.42939 -7.43353 -7.43788 -7.44272 -7.44821 -7.45391 -7.4583 -7.46278 -7.46773 -7.47326 -7.47887 -7.4835 -7.48813 -7.49318 -7.4987 -7.50422 -7.50904 -7.51387 -7.51896 -7.52431 -7.52966 -7.53457 -7.53949 -7.54454 -7.54971 -7.55487 -7.55981 -7.56475 -7.56978 -7.57489 -7.58001 -7.58502 -7.59004 -7.59511 -7.60023 -7.60534 -7.61041 -7.61548 -7.62058 -7.62568 -7.63078 -7.63585 -7.64092 -7.64602 -7.65107 -7.65612 -7.66115 -7.66619 -7.67124 -7.67624 -7.68124 -7.68621 -7.69119 -7.69618 -7.70114 -7.70607 -7.71097 -7.71588 -7.7208 -7.72569 -7.73055 -7.73537 -7.7402 -7.74503 -7.74984 -7.75462 -7.75934 -7.76408 -7.76882 -7.77354 -7.77821 -7.78284 -7.78746 -7.79209 -7.79672 -7.80127 -7.80579 -7.8103 -7.8148 -7.81931 -7.82375 -7.82814 -7.83251 -7.83689 -7.84127 -7.84558 -7.84983 -7.85407 -7.85831 -7.86255 -7.86674 -7.87083 -7.87491 -7.87899 -7.88307 -7.88712 -7.88977 -7.8924 -7.89504 -7.89768 -7.90021 -7.9015 -7.9028 -7.90409 -7.90538 -7.90667 -7.91041 -7.91415 -7.91788 -7.92162 -7.92533 -7.92891 -7.93243 -7.93596 -7.93949 -7.94297 -7.94638 -7.94968 -7.95298 -7.95628 -7.9595 -7.96275 -7.9658 -7.96885 -7.97191 -7.97484 -7.97789 -7.98069 -7.98348 -7.98623 -7.98887 -7.99167 -7.99427 -7.99678 -7.99922 -8.00157 -8.00413 -8.00655 -8.00878 -8.01086 -8.01287 -8.01515 -8.01738 -8.01927 -8.0209 -8.02252 -8.02445 -8.02639 -8.0279 -8.02908 -8.03027 -8.03182 -8.03337 -8.03452 -8.03526 -8.036 -8.03714 -8.03828 -8.03904 -8.0393 -8.03957 -8.04026 -8.04096 -8.04126 -8.04104 -8.04077 -8.04098 -8.04106 -8.04082 -8.04022 -8.03936 -8.03903 -8.03839 -8.03756 -8.03656 -8.03504 -8.03409 -8.03264 -8.03114 -8.02965 -8.02749 -8.02574 -8.0235 -8.02127 -8.01905 -8.0164 -8.01367 -8.01062 -8.00758 -8.00455 -8.00139 -7.99999 -7.99849 -7.997 -7.9955 -7.99406 -7.99167 -7.98928 -7.9869 -7.98452 -7.98197 -7.97741 -7.97261 -7.96782 -7.96304 -7.95777 -7.95262 -7.94677 -7.94094 -7.93511 -7.9284 -7.92251 -7.91566 -7.90868 -7.90135 -7.89336 -7.8863 -7.87876 -7.8705 -7.8614 -7.85201 -7.84364 -7.83529 -7.82555 -7.81463 -7.80373 -7.79394 -7.78417 -7.77306 -7.76053 -7.74801 -7.7367 -7.72538 -7.71259 -7.69849 -7.68422 -7.67121 -7.65747 -7.64287 -7.62778 -7.61161 -7.59677 -7.58031 -7.56375 -7.5472 -7.52941 -7.51181 -7.49313 -7.47446 -7.45582 -7.43697 -7.43343 -7.42971 -7.42599 -7.42227 -7.41861 -7.40168 -7.38477 -7.36787 -7.35099 -7.3334 -7.31136 -7.28846 -7.26558 -7.24272 -7.21813 -7.19437 -7.16944 -7.14406 -7.11762 -7.09036 -7.064 -7.03767 -7.00934 -6.97919 -6.94906 -6.91987 -6.89071 -6.85972 -6.82673 -6.79374 -6.76175 -6.72885 -6.69465 -6.65998 -6.62393 -6.58875 -6.55142 -6.51412 -6.47685 -6.43893 -6.42545 -6.41139 -6.39733 -6.38328 -6.36972 -6.34344 -6.31717 -6.29092 -6.26469 -6.23755 -6.19517 -6.15179 -6.10845 -6.06484 -6.01945 -5.97438 -5.9287 -5.88207 -5.83365 -5.78497 -5.73658 -5.68824 -5.63817 -5.58632 -5.53445 -5.48283 -5.43041 -5.37681 -5.32299 -5.26791 -5.2141 -5.15876 -5.10345 -5.04819 -4.99812 -4.99561 -4.99309 -4.99058 -4.98806 -4.98548 -4.92608 -4.86665 -4.80727 -4.74794 -4.68701 -4.62594 -4.56404 -4.5018 -4.4384 -4.37446 -4.31054 -4.24667 -4.18163 -4.1154 -4.0491 -3.9827 -3.91579 -3.84834 -3.78094 -3.71279 -3.67114 -3.62897 -3.58682 -3.54469 -3.50485 -3.47728 -3.44972 -3.42217 -3.39463 -3.36676 -3.29619 -3.2254 -3.15468 -3.08385 -3.0126 -2.94078 -2.86903 -2.7971 -2.72509 -2.653 -2.58018 -2.50752 -2.43517 -2.36288 -2.29057 -2.24338 -2.19675 -2.15017 -2.10362 -2.05939 -2.03312 -2.00686 -1.98061 -1.95437 -1.92836 -1.85585 -1.78371 -1.71162 -1.63998 -1.56886 -1.4968 -1.4248 -1.35382 -1.28386 -1.21381 -1.14268 -1.07255 -1.00324 -0.933977 -0.865158 -0.843891 -0.82321 -0.80261 -0.782016 -0.761771 -0.714207 -0.666664 -0.619142 -0.571751 -0.525541 -0.458207 -0.391676 -0.325576 -0.261371 -0.197416 -0.132495 -0.067616 -0.00507881 0.0564752 0.117627 0.167446 0.215501 0.263278 0.311042 0.357764 0.370059 0.382353 0.394646 0.406899 0.41877 0.477203 0.535075 0.592935 0.650087 0.705788 0.762066 0.818334 0.872729 0.925327 0.97795 1.03114 1.08318 1.13421 1.18526 1.23531 1.2514 1.26688 1.2823 1.29771 1.3132 1.34659 1.37998 1.41339 1.44673 1.47897 1.52662 1.57315 1.61934 1.66428 1.70884 1.75353 1.79825 1.84172 1.88346 1.92512 1.96689 2.00747 2.04788 2.08833 2.12844 2.13315 2.13771 2.14227 2.14683 2.15142 2.18542 2.21944 2.25349 2.28758 2.32079 2.35825 2.39485 2.43097 2.46643 2.50169 2.53666 2.57167 2.60597 2.63892 2.67184 2.70447 2.73676 2.76886 2.801 2.83207 2.84914 2.86597 2.8828 2.89966 2.9174 2.93067 2.94395 2.95723 2.97052 2.98367 3.01288 3.0415 3.07014 3.09877 3.1271 3.15499 3.18249 3.20922 3.23573 3.2622 3.28827 3.31437 3.34003 3.36479 3.38952 3.41391 3.43826 3.46253 3.4865 3.50964 3.53245 3.5552 3.57797 3.60076 3.62313 3.63228 3.64142 3.65056 3.6597 3.66935 3.68165 3.69396 3.70627 3.71859 3.73088 3.75168 3.77206 3.79246 3.81287 3.83326 3.85344 3.87286 3.89212 3.91141 3.9307 3.94982 3.96883 3.9871 4.00548 4.02384 4.04207 4.06031 4.07821 4.09579 4.11335 4.13082 4.14829 4.16596 4.18296 4.1999 4.21676 4.23373 4.25084 4.26772 4.28415 4.30055 4.31721 4.3339 4.35059 4.36678 4.38297 4.39938 4.4158 4.43222 4.44846 4.4592 4.47004 4.48088 4.49172 4.50308 4.50842 4.51377 4.51911 4.52446 4.52985 4.54621 4.56251 4.57881 4.59512 4.61161 4.62824 4.6447 4.66115 4.6776 4.69444 4.7114 4.72815 4.7449 4.76176 4.77899 4.7963 4.81354 4.83071 4.84821 4.86592 4.8837 4.90149 4.91922 4.93752 4.95582 4.9742 4.99259 5.01123 5.03025 5.04928 5.06838 5.08749 5.10714 5.12699 5.14685 5.16678 5.18688 5.20752 5.22825 5.24905 5.26992 5.29128 5.31289 5.33452 5.35636 5.37834 5.40102 5.42369 5.44638 5.46922 5.48976 5.51064 5.53153 5.55242 5.57146 5.57477 5.57807 5.58138 5.58469 5.58805 5.61296 5.6379 5.66285 5.68781 5.71329 5.7392 5.76543 5.79167 5.81805 5.84517 5.87229 5.89963 5.92721 5.95544 5.98392 6.0124 6.0409 6.07004 6.09987 6.12975 6.15963 6.18955 6.22034 6.25149 6.2828 6.31411 6.34606 6.37827 6.41049 6.44313 6.4682 6.49375 6.51932 6.54489 6.56848 6.57691 6.58535 6.59378 6.60221 6.61081 6.64552 6.68037 6.71523 6.7501 6.7858 6.82162 6.85768 6.89395 6.93086 6.96798 7.00519 7.04241 7.08025 7.11868 7.15717 7.19575 7.23473 7.27406 7.31341 7.35318 7.37701 7.40124 7.42547 7.44971 7.47287 7.4894 7.50593 7.52246 7.539 7.55579 7.59721 7.63885 7.68051 7.72239 7.76474 7.80724 7.84975 7.89272 7.93617 7.97968 8.02333 8.06721 8.11143 8.15567 8.20026 8.22416 8.24831 8.27249 8.29667 8.32025 8.34138 8.3625 8.38363 8.40478 8.42615 8.47197 8.51802 8.56408 8.6104 8.65696 8.70367 8.75039 8.79744 8.84481 8.89223 8.93979 8.98766 9.03559 9.08352 9.13149 9.13295 9.13442 9.13589 9.13736 9.13883 9.18588 9.23292 9.27996 9.32705 9.3744 9.42338 9.47235 9.52155 9.57093 9.62032 9.66985 9.71945 9.76916 9.81886 9.86865 9.88496 9.90129 9.91762 9.93395 9.95035 9.98405 10.0177 10.0514 10.0851 10.1189 10.1691 10.2194 10.2697 10.32 10.3703 10.4207 10.4711 10.5214 10.5718 10.6221 10.6519 10.6817 10.7115 10.7412 10.7717 10.7921 10.8125 10.8328 10.8532 10.8735 10.9237 10.9739 11.024 11.0741 11.1239 11.1738 11.2237 11.2734 11.3229 11.3723 11.4217 11.4708 11.5199 11.5689 11.6178 11.6189 11.6199 11.6209 11.6219 11.6229 11.6705 11.7181 11.7656 11.8131 11.8602 11.9082 11.9562 12.0039 12.0513 12.0986 12.1458 12.1929 12.2393 12.2855 12.3311 12.3739 12.4173 12.4606 12.5039 12.5555 12.5566 12.5577 12.5588 12.5599 12.561 12.6029 12.6446 12.6861 12.7276 12.7636 12.7984 12.8381 12.8801 12.9299 12.9834 13.0367 13.0899 13.1257 13.1445 13.1631 13.1784 13.1963 13.2149 13.2335 13.2553 13.2577 13.26 13.2624 13.2648 13.2676 13.2913 13.315 13.3387 13.3626 13.3873 13.4111 13.4347 13.4553 13.473 13.4905 13.5067 13.5211 13.5339 13.5465 13.5575 13.5612 13.5638 13.5663 13.5689 13.5717 13.5759 13.5802 13.5844 13.5885 13.5914 13.5939 13.5947 13.5953 13.5944 13.5921 13.5873 13.5823 13.5743 13.5633 13.5522 13.5383 13.5231 13.5049 13.4859 13.4647 13.4399 13.4113 13.3827 13.354 13.3248 13.3207 13.316 13.3114 13.3068 13.302 13.2682 13.2344 13.2004 13.1664 13.1291 13.0816 13.0308 12.9799 12.9273 12.8713 12.8114 12.7506 12.6863 12.6163 12.5462 12.4718 12.3973 12.3174 12.2322 12.1469 12.057 11.9661 11.8697 11.7699 11.6685 11.562 11.4511 11.3379 11.2244 11.1058 10.9808 10.8491 10.7174 10.5857 10.4508 10.3069 10.1599 10.0129 9.86585 9.698 9.69005 9.6819 9.67375 9.6656 9.65731 9.49279 9.3282 9.16355 8.99883 8.83011 8.6371 8.44193 8.24672 8.05145 7.85195 7.63973 7.411 7.18218 6.95326 6.70142 6.44116 6.19152 5.94353 5.69908 5.46391 5.22076 4.93336 4.61108 4.24022 3.83183 3.40894 3.02317 2.74042 2.57002 2.42985 2.2846 2.13952 1.64957 0.824206 0