/*--------------------------------*- C++ -*----------------------------------*\
  =========                 |
  \\      /  F ield         | OpenFOAM: The Open Source CFD Toolbox
   \\    /   O peration     | Website:  https://openfoam.org
    \\  /    A nd           | Version:  8
     \\/     M anipulation  |
\*---------------------------------------------------------------------------*/
FoamFile
{
    version     2.0;
    format      ascii;
    class       volScalarField;
    location    "280";
    object      epsilon;
}
// * * * * * * * * * * * * * * * * * * * * * * * * * * * * * * * * * * * * * //

dimensions      [0 2 -3 0 0 0 0];

internalField   nonuniform List<scalar> 
12225
(
285.525
270.7
257.922
243.802
232.472
223.073
216.825
212.694
212.739
213.959
217.228
220.904
228.061
232.739
241.396
246.106
255.906
257.765
52.4933
91.8809
106.974
114.746
124.841
136.778
152.683
169.898
191.085
210.923
235.176
255.463
280.952
299.294
324.523
339.411
363.162
378.344
20.5287
34.8724
44.6751
50.4693
55.3942
59.6078
64.6607
69.6439
76.3087
83.1827
91.4192
99.3102
108.143
116.91
125.489
135.227
142.395
153.737
16.0023
19.4865
24.0811
27.5641
30.4956
32.87
35.1533
37.2941
39.4995
41.9177
44.3315
47.1995
49.6728
53.0311
55.3946
59.2255
61.3435
65.6314
15.0385
15.7124
17.3989
19.0787
20.6388
22.0262
23.2453
24.4312
25.4429
26.5943
27.5218
28.7565
29.6294
30.9817
31.8065
33.2637
34.0321
35.6479
14.7897
14.8256
15.2495
15.8677
16.5674
17.2871
17.9234
18.5841
19.1187
19.7336
20.1927
20.798
21.2073
21.8208
22.1952
22.8255
23.1562
23.8609
14.7657
14.6146
14.6409
14.7258
14.935
15.22
15.4915
15.8088
16.0708
16.3824
16.6179
16.9198
17.1303
17.4262
17.6144
17.9125
18.0689
18.4084
14.7687
14.5866
14.466
14.3801
14.3677
14.3896
14.4394
14.5334
14.6184
14.7365
14.8307
14.9563
15.0474
15.1759
15.2602
15.3924
15.4616
15.6219
14.768
14.591
14.4349
14.2963
14.185
14.1044
14.0399
14.0066
13.9814
13.9785
13.9808
13.9917
14.0036
14.0298
14.046
14.0808
14.0964
14.1507
14.7665
14.594
14.432
14.282
14.143
14.0219
13.9115
13.8194
13.737
13.6698
13.6102
13.5633
13.5181
13.4872
13.4515
13.4342
13.4016
13.4008
14.7659
14.5945
14.4322
14.2803
14.1362
14.0032
13.8782
13.7644
13.6582
13.5629
13.4736
13.3952
13.3198
13.2561
13.1916
13.1408
13.0838
13.0451
14.7657
14.5943
14.4321
14.2798
14.1353
13.9999
13.8715
13.7518
13.6385
13.5337
13.4341
13.343
13.2557
13.1771
13.1003
13.0328
12.9647
12.9074
14.7657
14.5941
14.432
14.2794
14.1349
13.9989
13.8699
13.7485
13.6332
13.525
13.422
13.3257
13.2338
13.1484
13.0663
12.9906
12.9172
12.8502
14.7657
14.5939
14.4318
14.279
14.1346
13.9983
13.8691
13.7472
13.6315
13.5223
13.4184
13.3204
13.227
13.139
13.055
12.9759
12.9002
12.8291
14.7657
14.5938
14.4317
14.2787
14.1342
13.9977
13.8686
13.7464
13.6307
13.5211
13.4171
13.3185
13.2248
13.136
13.0516
12.9714
12.8951
12.8227
14.7657
14.5937
14.4315
14.2785
14.1339
13.9973
13.8681
13.7458
13.63
13.5202
13.4161
13.3174
13.2236
13.1346
13.05
12.9696
12.8931
12.8204
14.7657
14.5937
14.4315
14.2783
14.1337
13.997
13.8677
13.7453
13.6294
13.5195
13.4154
13.3165
13.2227
13.1336
13.0489
12.9684
12.8918
12.819
14.7657
14.5937
14.4314
14.2782
14.1335
13.9968
13.8674
13.7449
13.629
13.5191
13.4148
13.3159
13.222
13.1328
13.0481
12.9675
12.8908
12.8179
14.7657
14.5937
14.4314
14.2782
14.1335
13.9967
13.8673
13.7448
13.6288
13.5189
13.4146
13.3156
13.2217
13.1325
13.0477
12.967
12.8904
12.8174
14.7657
14.5937
14.4314
14.2782
14.1336
13.9968
13.8674
13.745
13.629
13.519
13.4148
13.3158
13.2219
13.1327
13.0479
12.9673
12.8906
12.8177
14.7657
14.5937
14.4315
14.2784
14.1337
13.997
13.8677
13.7453
13.6294
13.5195
13.4154
13.3166
13.2229
13.1338
13.0493
12.9689
12.8926
12.8199
14.7657
14.5937
14.4316
14.2785
14.1341
13.9974
13.8685
13.7464
13.6312
13.522
13.419
13.3213
13.2293
13.1418
13.0594
12.981
12.9073
12.8368
14.7659
14.5937
14.4318
14.2788
14.1353
14.0002
13.8742
13.756
13.6463
13.5435
13.4485
13.3591
13.277
13.1992
13.1282
13.0601
12.9988
12.9386
14.7661
14.5928
14.4329
14.2844
14.1515
14.0321
13.9289
13.8375
13.7593
13.6893
13.6306
13.5769
13.5328
13.4905
13.4574
13.423
13.3989
13.3693
14.7641
14.5936
14.461
14.3603
14.3029
14.2767
14.2796
14.294
14.3202
14.3529
14.3959
14.4346
14.4825
14.5217
14.572
14.609
14.6617
14.6939
14.757
14.6921
14.758
14.9172
15.1828
15.4611
15.7475
16.0121
16.2724
16.5038
16.7361
16.9387
17.1508
17.3311
17.5311
17.6938
17.889
18.0362
14.9575
15.4344
16.5693
17.6884
18.7053
19.5678
20.3373
20.997
21.6196
22.1662
22.7191
23.2111
23.7403
24.2047
24.7332
25.1832
25.7257
26.1667
16.2579
20.9389
25.015
27.7588
29.7845
31.3586
32.7769
34.0586
35.3597
36.6168
37.9761
39.2981
40.7627
42.1471
43.7195
45.1757
46.886
48.361
29.9428
47.2251
54.8706
58.6738
61.6142
64.4327
67.5805
70.9804
74.7398
78.7166
82.9884
87.3484
91.91
96.456
101.107
105.63
110.183
114.585
165.79
160.073
154.899
149.564
144.479
139.678
135.613
132.11
129.27
126.974
125.32
124.045
123.34
122.83
122.826
122.983
123.27
123.828
0.161498
0.206075
0.384796
0.542817
0.69439
0.86539
1.0639
1.30049
1.58075
1.90351
2.26237
2.64889
3.05425
3.47052
3.89032
4.30719
4.71473
5.10737
5.47947
5.8267
6.14526
6.43362
6.69189
6.92344
7.13421
7.30655
7.45366
7.68684
7.90437
8.13194
8.35726
8.73635
8.93795
9.09773
9.15011
9.11461
8.97579
9.00881
8.81644
40.1498
41.2547
41.674
42.3665
46.6516
49.4152
53.0898
56.6317
60.4909
64.448
68.6139
72.9325
77.4373
82.1145
86.9762
92.0207
97.2539
102.677
108.295
114.108
120.121
126.334
132.75
139.37
146.197
153.228
160.466
167.91
175.559
183.41
191.464
199.716
208.165
216.804
225.632
234.642
243.83
253.186
262.707
272.383
282.208
292.169
302.261
312.469
322.786
333.196
343.69
354.25
364.866
375.517
386.189
396.861
407.509
418.109
428.636
439.064
449.37
459.544
469.613
479.645
489.495
499.222
508.784
518.182
527.392
536.401
545.192
553.752
562.065
570.115
577.89
585.374
592.556
599.42
605.957
612.151
617.995
623.474
628.582
633.306
637.642
641.579
645.112
648.23
650.931
653.21
655.065
656.486
657.465
658.077
658.278
657.978
657.166
655.961
654.436
652.509
650.127
647.356
644.191
640.647
636.729
632.45
627.82
622.852
617.557
611.951
606.046
599.86
593.406
586.702
579.763
572.605
565.246
557.702
549.991
542.13
534.136
526.026
517.82
509.537
501.201
492.855
484.614
477.439
473.37
470.053
466.768
463.46
460.127
456.778
453.421
450.061
446.703
443.341
439.963
436.535
432.98
429.141
424.573
418.378
393.677
0.82848
0.515612
0.522225
0.589912
0.69452
0.830592
1.00017
1.20552
1.44688
1.72192
2.02624
2.35454
2.70141
3.06185
3.43127
3.80557
4.1811
4.55482
4.92437
5.28846
5.64696
6.00139
6.35456
6.71082
7.07512
7.45224
7.85887
8.31206
8.80778
9.35735
9.95401
10.6106
11.3323
12.1976
13.2707
14.5564
16.0928
18.1173
20.2577
24.2811
24.9705
26.2394
27.7201
29.5077
31.1365
32.9107
34.7143
36.598
38.5382
40.549
42.6253
44.7721
46.9889
49.2779
51.6398
54.0757
56.5864
59.1727
61.8352
64.5743
67.3904
70.2837
73.2541
76.3016
79.4258
82.6263
85.9023
89.2532
92.6778
96.1751
99.7434
103.381
107.087
110.858
114.693
118.589
122.543
126.553
130.614
134.725
138.881
143.078
147.312
151.579
155.874
160.191
164.526
168.872
173.222
177.571
181.911
186.233
190.531
194.799
199.032
203.233
207.412
211.598
215.842
220.016
224.141
228.205
232.204
236.131
239.981
243.747
247.423
251.003
254.483
257.855
261.116
264.259
267.278
270.17
272.93
275.552
278.033
280.367
282.553
284.585
286.461
288.177
289.731
291.119
292.34
293.392
294.274
294.986
295.533
295.904
296.083
296.076
295.907
295.593
295.112
294.454
293.631
292.646
291.501
290.199
288.744
287.139
285.389
283.499
281.473
279.316
277.035
274.634
272.12
269.498
266.775
263.957
261.05
258.061
254.997
251.864
248.67
245.421
242.127
238.796
235.444
232.119
229.026
226.529
224.248
222.007
219.77
217.533
215.298
213.069
210.849
208.643
206.453
204.282
202.129
199.999
197.877
195.819
193.775
190.433
1.77274
0.917577
0.827478
0.862004
0.949532
1.07726
1.24258
1.44467
1.68195
1.95134
2.24864
2.56927
2.90882
3.26347
3.63002
4.00589
4.38911
4.77836
5.1731
5.57376
5.98196
6.40076
6.83468
7.28989
7.77379
8.29526
8.85736
9.46112
10.1086
10.7984
11.5377
12.3372
13.2113
14.1805
15.2514
16.4258
17.6996
19.0699
20.4864
21.9235
23.0456
24.3001
25.6359
27.0312
28.4499
29.9276
31.4554
33.0379
34.6729
36.3625
38.1066
39.9065
41.7625
43.6753
45.6456
47.6738
49.7605
51.9059
54.1105
56.3746
58.6982
61.0816
63.5245
66.0267
68.588
71.2081
73.8864
76.6223
79.4151
82.2638
85.1675
88.1249
91.1346
94.1953
97.3052
100.462
103.665
106.911
110.197
113.522
116.882
120.275
123.698
127.146
130.617
134.107
137.611
141.126
144.648
148.172
151.694
155.21
158.717
162.212
165.695
169.167
172.63
176.09
179.536
182.941
186.304
189.619
192.882
196.086
199.229
202.303
205.305
208.23
211.073
213.829
216.494
219.063
221.533
223.898
226.156
228.302
230.332
232.244
234.035
235.7
237.238
238.646
239.922
241.062
242.067
242.935
243.664
244.254
244.705
245.011
245.157
245.174
245.05
244.798
244.408
243.879
243.215
242.418
241.49
240.434
239.254
237.952
236.531
234.996
233.351
231.599
229.746
227.794
225.751
223.619
221.405
219.113
216.748
214.317
211.824
209.274
206.674
204.029
201.347
198.634
195.902
193.182
190.554
188.137
185.83
183.562
181.309
179.064
176.831
174.61
172.406
170.223
168.066
165.94
163.852
161.819
159.856
158.053
156.444
154.892
2.86107
1.3712
1.17421
1.1757
1.25474
1.38274
1.55131
1.75703
1.99722
2.26874
2.56787
2.89076
3.23384
3.59413
3.96936
4.35795
4.759
5.17224
5.59805
6.03758
6.49271
6.96618
7.46136
7.98216
8.53239
9.11538
9.73326
10.3873
11.0788
11.809
12.5813
13.4012
14.2759
15.2123
16.209
17.264
18.3694
19.5175
20.7113
21.8992
23.0806
24.317
25.6065
26.9407
28.3156
29.7379
31.2084
32.7286
34.2989
35.9203
37.5934
39.319
41.0979
42.9306
44.8179
46.7602
48.7579
50.8116
52.9217
55.0886
57.3126
59.5938
61.9324
64.3284
66.7817
69.2923
71.8598
74.4837
77.1637
79.899
82.6889
85.5323
88.4282
91.3752
94.3721
97.417
100.508
103.644
106.822
110.04
113.295
116.584
119.906
123.256
126.631
130.029
133.444
136.874
140.316
143.764
147.216
150.669
154.118
157.562
160.998
164.425
167.841
171.241
174.614
177.95
181.245
184.492
187.688
190.826
193.902
196.911
199.847
202.706
205.483
208.173
210.771
213.274
215.677
217.976
220.166
222.245
224.208
226.052
227.775
229.373
230.844
232.185
233.394
234.469
235.408
236.211
236.876
237.402
237.79
238.027
238.116
238.082
237.907
237.598
237.154
236.574
235.862
235.019
234.049
232.953
231.736
230.4
228.95
227.388
225.719
223.948
222.078
220.115
218.063
215.927
213.712
211.423
209.065
206.644
204.165
201.634
199.056
196.436
193.781
191.099
188.4
185.705
183.056
180.504
178.019
175.569
173.137
170.721
168.321
165.941
163.584
161.255
158.959
156.705
154.503
152.369
150.333
148.481
146.856
145.457
3.95969
1.83752
1.5287
1.49683
1.56407
1.68934
1.85861
2.06592
2.30754
2.58019
2.88049
3.20514
3.55115
3.91609
4.29816
4.69628
5.10996
5.5393
5.98492
6.44793
6.92985
7.43263
7.95844
8.50964
9.08846
9.69696
10.3368
11.0094
11.7161
12.4586
13.239
14.0602
14.9251
15.8362
16.7932
17.7953
18.8401
19.9244
21.0467
22.2062
23.4003
24.6398
25.9262
27.2584
28.6355
30.0598
31.5325
33.055
34.6282
36.2532
37.9309
39.6622
41.4482
43.2897
45.1878
47.143
49.1558
51.227
53.3572
55.5471
57.7972
60.108
62.4799
64.9132
67.4082
69.9649
72.5834
75.2634
78.0048
80.807
83.6695
86.5915
89.5722
92.6103
95.7045
98.8534
102.055
105.308
108.61
111.958
115.35
118.784
122.255
125.762
129.3
132.866
136.456
140.067
143.695
147.335
150.984
154.638
158.292
161.943
165.586
169.217
172.829
176.418
179.975
183.493
186.967
190.391
193.76
197.066
200.306
203.472
206.56
209.565
212.48
215.301
218.024
220.642
223.151
225.548
227.827
229.984
232.017
233.921
235.694
237.331
238.831
240.191
241.409
242.482
243.409
244.19
244.823
245.307
245.641
245.809
245.839
245.725
245.463
245.057
244.508
243.816
242.984
242.015
240.912
239.678
238.317
236.832
235.228
233.509
231.679
229.744
227.708
225.575
223.352
221.044
218.656
216.194
213.662
211.068
208.416
205.713
202.964
200.175
197.353
194.506
191.642
188.777
185.937
183.148
180.403
177.689
174.996
172.324
169.675
167.051
164.457
161.9
159.385
156.922
154.524
152.214
150.023
148.027
146.259
144.682
5.01084
2.29117
1.87169
1.80598
1.85933
1.97931
2.14655
2.35269
2.59301
2.86393
3.16231
3.48522
3.83007
4.19479
4.57786
4.97839
5.39604
5.83099
6.28383
6.75551
7.24727
7.76058
8.29706
8.85843
9.44642
10.0628
10.7091
11.3871
12.0984
12.8448
13.6282
14.4504
15.3133
16.2183
17.166
18.1569
19.191
20.2681
21.388
22.5505
23.7565
25.0086
26.3081
27.6556
29.0516
30.4973
31.9941
33.5432
35.1461
36.8039
38.5178
40.2891
42.1188
44.0079
45.9575
47.969
50.0436
52.1824
54.3864
56.6566
58.9939
61.3992
63.8731
66.4164
69.0295
71.713
74.467
77.2916
80.1868
83.1525
86.188
89.2929
92.4663
95.7071
99.014
102.385
105.82
109.315
112.868
116.477
120.14
123.852
127.611
131.413
135.255
139.131
143.039
146.973
150.93
154.904
158.89
162.884
166.881
170.874
174.859
178.828
182.776
186.696
190.58
194.421
198.214
201.95
205.625
209.23
212.76
216.208
219.569
222.835
226.001
229.061
232.009
234.841
237.551
240.133
242.583
244.898
247.072
249.102
250.984
252.715
254.293
255.714
256.977
258.079
259.019
259.796
260.409
260.859
261.133
261.237
261.19
260.98
260.609
260.079
259.391
258.549
257.555
256.412
255.123
253.694
252.127
250.428
248.601
246.652
244.584
242.405
240.118
237.731
235.249
232.678
230.023
227.292
224.49
221.624
218.699
215.723
212.701
209.641
206.548
203.431
200.297
197.161
194.039
190.947
187.887
184.856
181.849
178.867
175.913
172.992
170.108
167.269
164.481
161.757
159.11
156.564
154.154
151.941
149.943
148.07
5.97592
2.7147
2.18939
2.08969
2.12752
2.23996
2.40262
2.6049
2.84104
3.1072
3.40028
3.71762
4.05695
4.41645
4.79483
5.19132
5.60566
6.03804
6.48904
6.95957
7.45075
7.96393
8.50056
9.06223
9.65058
10.2673
10.9142
11.593
12.3055
13.0535
13.8386
14.6626
15.5268
16.4325
17.3808
18.3727
19.4089
20.4901
21.6168
22.7899
24.0102
25.2795
26.5989
27.9695
29.3926
30.8693
32.4013
33.9899
35.6369
37.3437
39.1118
40.943
42.8385
44.8001
46.8293
48.9276
51.0967
53.338
55.653
58.0432
60.5097
63.0539
65.6769
68.3797
71.1632
74.0282
76.9751
80.0045
83.1163
86.3108
89.5874
92.9459
96.3852
99.9045
103.502
107.177
110.927
114.749
118.642
122.602
126.626
130.711
134.852
139.046
143.289
147.575
151.899
156.257
160.643
165.051
169.476
173.91
178.349
182.784
187.21
191.618
196
200.35
204.66
208.92
213.125
217.266
221.336
225.328
229.233
233.045
236.756
240.359
243.848
247.216
250.456
253.562
256.529
259.351
262.022
264.538
266.895
269.087
271.112
272.965
274.645
276.147
277.47
278.613
279.572
280.349
280.941
281.348
281.555
281.588
281.443
281.116
280.61
279.928
279.072
278.045
276.851
275.493
273.976
272.305
270.485
268.521
266.418
264.183
261.821
259.338
256.742
254.038
251.233
248.334
245.348
242.282
239.142
235.936
232.671
229.354
225.991
222.589
219.157
215.701
212.23
208.755
205.289
201.844
198.425
195.034
191.67
188.337
185.037
181.777
178.562
175.4
172.3
169.273
166.336
163.512
160.834
158.354
156.072
153.855
6.8276
3.09478
2.47155
2.33839
2.3595
2.46244
2.61823
2.81418
3.0436
3.30229
3.58715
3.89573
4.226
4.5764
4.94583
5.33366
5.73973
6.16427
6.60792
7.0716
7.55649
8.0639
8.59531
9.15224
9.73625
10.3492
10.993
11.6693
12.3799
13.1267
13.9112
14.7351
15.5997
16.5064
17.4566
18.4515
19.4923
20.5802
21.7163
22.9018
24.138
25.4265
26.769
28.1667
29.6214
31.1347
32.7085
34.3446
36.0451
37.8118
39.6467
41.5519
43.5293
45.581
47.7089
49.9153
52.202
54.5712
57.0247
59.5644
62.1921
64.9096
67.7183
70.6197
73.6151
76.7057
79.8921
83.1752
86.5554
90.0327
93.6071
97.2781
101.045
104.906
108.861
112.907
117.043
121.265
125.571
129.957
134.42
138.956
143.559
148.226
152.951
157.728
162.552
167.415
172.313
177.237
182.182
187.138
192.099
197.056
202.001
206.925
211.82
216.676
221.485
226.238
230.926
235.54
240.071
244.512
248.853
253.086
257.203
261.195
265.055
268.776
272.35
275.77
279.029
282.122
285.043
287.786
290.347
292.72
294.902
296.889
298.677
300.265
301.65
302.829
303.803
304.569
305.129
305.474
305.606
305.542
305.273
304.803
304.134
303.269
302.211
300.964
299.532
297.921
296.135
294.179
292.061
289.786
287.361
284.792
282.087
279.252
276.295
273.223
270.044
266.766
263.396
259.942
256.412
252.814
249.156
245.444
241.688
237.893
234.069
230.223
226.363
222.499
218.643
214.804
210.99
207.203
203.449
199.729
196.05
192.418
188.838
185.32
181.874
178.512
175.25
172.114
169.131
166.345
163.74
161.157
7.54934
3.4228
2.7117
2.54627
2.54991
2.6417
2.78861
2.97613
3.19668
3.4457
3.7201
4.01753
4.33621
4.67479
5.0324
5.40858
5.80323
6.21646
6.64919
7.10248
7.57759
8.07596
8.59924
9.14937
9.72767
10.3355
10.9744
11.6463
12.3529
13.0961
13.8774
14.6987
15.5614
16.4671
17.4174
18.4138
19.4578
20.5511
21.6953
22.8923
24.1444
25.4542
26.8225
28.2509
29.7411
31.2958
32.9173
34.6081
36.3707
38.2074
40.1207
42.1131
44.1873
46.3457
48.591
50.9257
53.3526
55.874
58.4925
61.2106
64.0306
66.9545
69.9846
73.1227
76.3705
79.7293
83.2005
86.7849
90.4832
94.2956
98.2221
102.262
106.415
110.679
115.054
119.535
124.123
128.812
133.599
138.482
143.454
148.512
153.65
158.861
164.141
169.482
174.877
180.318
185.799
191.31
196.843
202.39
207.94
213.485
219.014
224.517
229.985
235.407
240.773
246.073
251.296
256.432
261.473
266.407
271.225
275.918
280.476
284.89
289.151
293.25
297.181
300.935
304.504
307.882
311.063
314.04
316.809
319.364
321.701
323.817
325.708
327.37
328.803
330.005
330.974
331.71
332.214
332.474
332.507
332.312
331.89
331.244
330.378
329.294
327.997
326.491
324.782
322.876
320.778
318.497
316.037
313.408
310.616
307.669
304.575
301.343
297.98
294.496
290.898
287.196
283.397
279.512
275.548
271.515
267.42
263.272
259.079
254.85
250.593
246.316
242.027
237.736
233.453
229.188
224.947
220.737
216.563
212.43
208.344
204.312
200.341
196.441
192.622
188.897
185.284
181.805
178.487
175.365
172.41
169.447
8.13219
3.69425
2.90715
2.71016
2.69698
2.77622
2.91259
3.08991
3.29986
3.53755
3.79981
4.08445
4.38981
4.71461
5.05838
5.42117
5.80347
6.20645
6.62972
7.07397
7.54029
8.03002
8.54459
9.0854
9.65412
10.2526
10.8824
11.5457
12.2444
12.9802
13.7551
14.571
15.4295
16.3326
17.2822
18.2802
19.3285
20.4292
21.5844
22.7962
24.0664
25.3973
26.7915
28.252
29.7827
31.3849
33.0618
34.8166
36.6521
38.5713
40.5773
42.6732
44.8621
47.1472
49.5318
52.0191
54.6123
57.3146
60.1291
63.0587
66.1065
69.275
72.5669
75.9844
79.5296
83.2044
87.0101
90.9479
95.0186
99.2224
103.559
108.028
112.629
117.36
122.218
127.201
132.307
137.531
142.869
148.316
153.867
159.515
165.256
171.081
176.983
182.954
188.985
195.069
201.195
207.353
213.535
219.728
225.923
232.108
238.271
244.403
250.489
256.52
262.483
268.366
274.159
279.85
285.427
290.879
296.197
301.368
306.382
311.23
315.901
320.386
324.676
328.764
332.64
336.298
339.73
342.931
345.894
348.615
351.089
353.312
355.282
356.994
358.448
359.642
360.576
361.249
361.66
361.807
361.699
361.335
360.721
359.859
358.754
357.409
355.831
354.024
351.995
349.751
347.299
344.648
341.804
338.777
335.576
332.209
328.685
325.014
321.204
317.267
313.21
309.045
304.78
300.426
295.992
291.486
286.92
282.301
277.638
272.942
268.219
263.479
258.73
253.982
249.245
244.527
239.836
235.18
230.565
225.997
221.483
217.03
212.647
208.343
204.13
200.022
196.036
192.192
188.514
185.032
181.708
178.36
8.57516
3.90756
3.05721
2.83097
2.8013
2.86721
2.99178
3.15755
3.35558
3.5807
3.82953
4.1004
4.39237
4.7054
5.03809
5.38983
5.76053
6.15009
6.55922
6.98935
7.44181
7.91796
8.41926
8.94724
9.50361
10.0903
10.7094
11.3627
12.0522
12.7797
13.5475
14.3575
15.2119
16.1129
17.0628
18.0639
19.1187
20.2296
21.3992
22.6301
23.9253
25.2876
26.7202
28.2262
29.8064
31.4661
33.2105
35.0435
36.9686
38.9891
41.1087
43.3312
45.6604
48.1002
50.6545
53.3272
56.1222
59.0434
62.0944
65.279
68.6004
72.0619
75.6666
79.4171
83.3158
87.3647
91.5655
95.9191
100.426
105.088
109.902
114.87
119.988
125.255
130.669
136.226
141.921
147.751
153.71
159.792
165.991
172.299
178.708
185.211
191.798
198.459
205.186
211.966
218.79
225.646
232.522
239.406
246.286
253.148
259.98
266.769
273.501
280.164
286.744
293.227
299.602
305.856
311.975
317.948
323.762
329.407
334.87
340.14
345.206
350.059
354.69
359.088
363.246
367.155
370.809
374.2
377.324
380.174
382.747
385.038
387.045
388.765
390.196
391.338
392.19
392.753
393.027
393.013
392.716
392.134
391.279
390.153
388.761
387.108
385.201
383.045
380.65
378.022
375.171
372.106
368.835
365.369
361.716
357.888
353.895
349.747
345.454
341.028
336.478
331.816
327.053
322.198
317.262
312.256
307.19
302.073
296.915
291.725
286.512
281.286
276.056
270.829
265.617
260.429
255.271
250.154
245.082
240.064
235.107
230.22
225.41
220.689
216.068
211.562
207.186
202.961
198.906
195.048
191.343
187.608
8.88401
4.06438
3.16381
2.91159
2.86588
2.91802
3.02991
3.18304
3.36833
3.58106
3.81899
4.07888
4.35896
4.65766
4.97457
5.31011
5.66461
6.03863
6.43347
6.84993
7.28913
7.75238
8.24119
8.75718
9.30213
9.87798
10.4868
11.1306
11.8115
12.532
13.2943
14.1008
14.9542
15.8569
16.8119
17.8218
18.8897
20.0188
21.2119
22.4725
23.8043
25.211
26.6949
28.2581
29.9055
31.6444
33.4789
35.4144
37.4564
39.6085
41.875
44.2602
46.7688
49.4054
52.1747
55.0813
58.1297
61.3244
64.6698
68.17
71.8288
75.6499
79.6366
83.7917
88.1177
92.6168
97.2902
102.139
107.164
112.364
117.738
123.286
129.004
134.891
140.941
147.15
153.514
160.027
166.681
173.47
180.385
187.418
194.559
201.799
209.126
216.529
223.997
231.518
239.078
246.665
254.265
261.864
269.448
277.003
284.514
291.967
299.346
306.637
313.826
320.898
327.839
334.636
341.273
347.739
354.02
360.103
365.976
371.628
377.047
382.222
387.143
391.802
396.188
400.294
404.113
407.638
410.863
413.783
416.394
418.692
420.674
422.339
423.686
424.713
425.422
425.814
425.89
425.657
425.107
424.25
423.096
421.649
419.915
417.899
415.61
413.055
410.244
407.185
403.888
400.364
396.623
392.675
388.533
384.206
379.708
375.048
370.239
365.293
360.221
355.035
349.746
344.367
338.908
333.379
327.793
322.159
316.488
310.788
305.071
299.344
293.617
287.901
282.203
276.533
270.9
265.312
259.777
254.302
248.896
243.566
238.323
233.178
228.141
223.227
218.453
213.836
209.395
205.153
201.06
196.941
9.07127
4.16945
3.23082
2.95615
2.89518
2.93342
3.03288
3.17542
3.35047
3.55194
3.7756
4.01989
4.28386
4.56695
4.86927
5.19067
5.53143
5.89216
6.27378
6.67733
7.10403
7.55531
8.03275
8.53812
9.07335
9.64052
10.2418
10.8797
11.5565
12.2749
13.0378
13.8482
14.7089
15.623
16.594
17.6252
18.7209
19.8847
21.1196
22.4292
23.8162
25.2826
26.8366
28.4853
30.2347
32.0898
34.0559
36.1388
38.3449
40.6791
43.1466
45.7527
48.503
51.4028
54.4575
57.6724
61.0525
64.6028
68.3282
72.2329
76.3212
80.5966
85.0625
89.7217
94.5762
99.6276
104.877
110.325
115.97
121.811
127.848
134.075
140.491
147.091
153.87
160.821
167.938
175.212
182.637
190.203
197.899
205.715
213.641
221.664
229.771
237.95
246.187
254.468
262.779
271.105
279.43
287.739
296.017
304.247
312.414
320.502
328.494
336.374
344.128
351.739
359.192
366.473
373.567
380.46
387.138
393.587
399.796
405.752
411.443
416.858
421.987
426.821
431.35
435.567
439.465
443.036
446.275
449.178
451.741
453.96
455.833
457.359
458.538
459.37
459.856
459.999
459.808
459.273
458.397
457.196
455.676
453.844
451.705
449.267
446.538
443.529
440.25
436.71
432.921
428.894
424.64
420.173
415.504
410.645
405.61
400.41
395.058
389.568
383.951
378.221
372.389
366.469
360.471
354.408
348.291
342.13
335.937
329.721
323.492
317.26
311.034
304.824
298.639
292.487
286.379
280.322
274.324
268.393
262.538
256.768
251.093
245.523
240.07
234.749
229.575
224.564
219.734
215.104
210.625
206.132
9.13063
4.22224
3.26067
2.96838
2.89473
2.92283
3.01195
3.14168
3.30241
3.48907
3.69873
3.92963
4.18052
4.45078
4.74029
5.04917
5.37785
5.72703
6.09765
6.49088
6.90808
7.35085
7.82098
8.32051
8.85166
9.4168
10.0184
10.6593
11.3422
12.0705
12.8476
13.678
14.5642
15.5101
16.5192
17.5953
18.7406
19.9587
21.2568
22.6409
24.1175
25.6935
27.3744
29.1669
31.0777
33.1131
35.2798
37.5852
40.035
42.6359
45.3944
48.3171
51.4105
54.6805
58.1329
61.7733
65.607
69.639
73.874
78.3162
82.9694
87.8367
92.9208
98.2234
103.746
109.488
115.45
121.631
128.028
134.639
141.46
148.486
155.712
163.131
170.736
178.519
186.472
194.584
202.845
211.244
219.769
228.407
237.146
245.972
254.869
263.825
272.823
281.847
290.882
299.912
308.919
317.888
326.8
335.64
344.391
353.034
361.553
369.933
378.155
386.204
394.065
401.722
409.159
416.363
423.32
430.016
436.438
442.575
448.414
453.944
459.156
464.041
468.589
472.793
476.646
480.142
483.277
486.045
488.444
490.471
492.124
493.405
494.312
494.847
495.013
494.82
494.261
493.332
492.051
490.427
488.465
486.175
483.562
480.637
477.409
473.889
470.088
466.019
461.691
457.12
452.316
447.294
442.067
436.648
431.051
425.29
419.377
413.326
407.152
400.866
394.483
388.015
381.475
374.875
368.226
361.54
354.828
348.1
341.366
334.635
327.917
321.221
314.557
307.934
301.36
294.844
288.394
282.019
275.726
269.526
263.428
257.443
251.583
245.861
240.294
234.895
229.68
224.67
219.813
214.961
9.1116
4.23213
3.26031
2.95848
2.87504
2.89011
2.96561
3.08254
3.23125
3.40625
3.60442
3.82398
4.0639
4.3237
4.60334
4.90312
5.22368
5.56591
5.93092
6.32006
6.73494
7.17744
7.64975
8.15439
8.69453
9.27298
9.8924
10.556
11.2673
12.0297
12.8462
13.718
14.652
15.6542
16.7299
17.8851
19.1264
20.4603
21.8925
23.43
25.0805
26.8519
28.7516
30.787
32.9658
35.296
37.785
40.441
43.2714
46.2838
49.4863
52.8865
56.4919
60.3083
64.3409
68.5946
73.074
77.7831
82.7255
87.9042
93.3214
98.9786
104.876
111.015
117.392
124.007
130.857
137.938
145.245
152.773
160.515
168.465
176.614
184.953
193.473
202.163
211.011
220.007
229.137
238.388
247.747
257.199
266.729
276.323
285.964
295.636
305.322
315.007
324.673
334.303
343.88
353.386
362.804
372.116
381.305
390.353
399.244
407.96
416.486
424.804
432.899
440.756
448.361
455.698
462.754
469.517
475.974
482.112
487.922
493.392
498.513
503.276
507.674
511.699
515.346
518.609
521.484
523.967
526.056
527.75
529.048
529.952
530.46
530.576
530.32
529.667
528.627
527.213
525.434
523.297
520.812
517.985
514.827
511.348
507.56
503.473
499.101
494.455
489.549
484.397
479.012
473.408
467.6
461.602
455.429
449.094
442.611
435.996
429.262
422.422
415.491
408.483
401.409
394.282
387.115
379.918
372.703
365.48
358.258
351.047
343.857
336.697
329.576
322.502
315.485
308.533
301.653
294.854
288.146
281.536
275.035
268.654
262.404
256.3
250.354
244.582
238.997
233.62
228.4
223.211
9.05061
4.22141
3.24326
2.92877
2.83302
2.83718
2.90231
3.00918
3.14814
3.31397
3.50375
3.71584
3.94938
4.2041
4.48019
4.77827
5.09946
5.44557
5.81772
6.21749
6.64696
7.1085
7.60462
8.13772
8.70941
9.32272
9.98331
10.6961
11.4662
12.2986
13.1993
14.1756
15.2327
16.3773
17.6166
18.9588
20.4121
21.9852
23.6866
25.525
27.5098
29.6503
31.9556
34.4347
37.0968
39.9504
43.0035
46.2631
49.7364
53.4333
57.363
61.535
65.9602
70.6389
75.5728
80.7636
86.2131
91.9224
97.8917
104.121
110.608
117.351
124.347
131.591
139.08
146.807
154.766
162.949
171.348
179.954
188.758
197.75
206.917
216.25
225.735
235.361
245.113
254.978
264.942
274.991
285.109
295.281
305.492
315.726
325.965
336.195
346.399
356.559
366.658
376.68
386.608
396.424
406.111
415.653
425.032
434.232
443.237
452.03
460.595
468.917
476.98
484.772
492.277
499.482
506.375
512.944
519.177
525.063
530.592
535.755
540.543
544.949
548.966
552.588
555.81
558.627
561.036
563.036
564.622
565.8
566.561
566.923
566.866
566.437
565.573
564.32
562.679
560.656
558.261
555.504
552.393
548.937
545.147
541.035
536.613
531.895
526.891
521.617
516.087
510.313
504.312
498.097
491.684
485.089
478.324
471.406
464.35
457.168
449.877
442.489
435.02
427.482
419.888
412.252
404.585
396.899
389.203
381.509
373.825
366.161
358.526
350.93
343.379
335.884
328.453
321.092
313.811
306.618
299.52
292.528
285.65
278.898
272.282
265.817
259.515
253.39
247.454
241.73
236.166
230.666
8.92571
4.18594
3.2055
2.88389
2.78158
2.77948
2.83891
2.94113
3.0768
3.24106
3.43158
3.64714
3.88694
4.15103
4.43996
4.75456
5.09565
5.46325
5.86041
6.29063
6.75732
7.26415
7.8152
8.41515
9.06984
9.78498
10.5661
11.4198
12.3538
13.3761
14.4954
15.7215
17.0634
18.531
20.1346
21.8852
23.7941
25.8729
28.1328
30.585
33.2407
36.1105
39.2045
42.5323
46.1033
49.9252
54.0051
58.3486
62.9622
67.8516
73.0229
78.4832
84.2341
90.27
96.5866
103.179
110.044
117.175
124.566
132.212
140.104
148.235
156.596
165.178
173.972
182.968
192.155
201.522
211.058
220.751
230.59
240.562
250.655
260.855
271.151
281.529
291.974
302.474
313.015
323.582
334.161
344.737
355.297
365.825
376.306
386.726
397.068
407.317
417.458
427.476
437.355
447.079
456.634
466.003
475.171
484.123
492.845
501.322
509.539
517.483
525.14
532.497
539.541
546.261
552.646
558.685
564.369
569.686
574.628
579.188
583.358
587.132
590.504
593.468
596.024
598.165
599.889
601.2
602.082
602.564
602.604
602.285
601.518
600.347
598.774
596.808
594.455
591.724
588.625
585.168
581.362
577.215
572.741
567.954
562.864
557.486
551.834
545.92
539.759
533.367
526.757
519.946
512.948
505.779
498.453
490.986
483.393
475.686
467.882
459.994
452.036
444.021
435.963
427.874
419.765
411.646
403.53
395.424
387.338
379.281
371.262
363.288
355.368
347.51
339.721
332.009
324.383
316.848
309.414
302.089
294.884
287.807
280.871
274.088
267.47
261.032
254.783
248.747
242.873
237.105
8.79973
4.13073
3.15909
2.83936
2.73793
2.73765
2.80146
2.91048
3.05548
3.23166
3.43602
3.66688
3.92554
4.21324
4.53163
4.88291
5.27001
5.69717
6.16795
6.68705
7.26012
7.89364
8.59499
9.37247
10.2354
11.1933
12.2565
13.4365
14.7458
16.1974
17.8053
19.5836
21.5466
23.709
26.0858
28.6915
31.5396
34.6433
38.0148
41.6658
45.6063
49.8437
54.3842
59.233
64.3949
69.8712
75.6606
81.7612
88.1736
94.8947
101.922
109.259
116.868
124.74
132.865
141.231
149.824
158.632
167.642
176.843
186.222
195.767
205.465
215.305
225.274
235.362
245.556
255.846
266.22
276.667
287.176
297.735
308.335
318.963
329.609
340.261
350.909
361.542
372.147
382.713
393.23
403.684
414.065
424.36
434.557
444.643
454.606
464.433
474.111
483.627
492.968
502.121
511.073
519.811
528.32
536.588
544.603
552.352
559.822
567.002
573.879
580.441
586.678
592.58
598.138
603.343
608.184
612.655
616.747
620.452
623.768
626.688
629.203