/*--------------------------------*- C++ -*----------------------------------*\
  =========                 |
  \\      /  F ield         | OpenFOAM: The Open Source CFD Toolbox
   \\    /   O peration     | Website:  https://openfoam.org
    \\  /    A nd           | Version:  8
     \\/     M anipulation  |
\*---------------------------------------------------------------------------*/
FoamFile
{
    version     2.0;
    format      ascii;
    class       volScalarField;
    location    "280";
    object      k;
}
// * * * * * * * * * * * * * * * * * * * * * * * * * * * * * * * * * * * * * //

dimensions      [0 2 -2 0 0 0 0];

internalField   nonuniform List<scalar> 
12225
(
0.362816
0.343986
0.327751
0.309809
0.295411
0.283467
0.275529
0.270278
0.27034
0.271865
0.276069
0.280649
0.28986
0.295717
0.306627
0.313465
0.322843
0.335725
0.440186
0.468697
0.461606
0.448368
0.450346
0.458307
0.474579
0.498485
0.524415
0.55206
0.580735
0.606103
0.633777
0.653814
0.679598
0.693151
0.717128
0.728175
0.39054
0.417873
0.420232
0.416827
0.411628
0.407802
0.408021
0.410033
0.414566
0.42138
0.430721
0.439699
0.451149
0.461139
0.472777
0.48352
0.493378
0.505918
0.377546
0.386982
0.391407
0.391343
0.390221
0.387895
0.385664
0.384079
0.382884
0.382895
0.383385
0.38432
0.386288
0.388462
0.390893
0.394231
0.396474
0.400951
0.374562
0.37609
0.378412
0.378666
0.378263
0.377204
0.37549
0.373737
0.37201
0.370455
0.369258
0.368105
0.367379
0.366802
0.36644
0.366327
0.366336
0.366688
0.373814
0.372709
0.372645
0.372384
0.371761
0.370816
0.369554
0.368082
0.366572
0.364977
0.363529
0.362063
0.360755
0.359529
0.358397
0.357426
0.356436
0.355779
0.373782
0.371742
0.370386
0.369287
0.368234
0.367114
0.365915
0.364587
0.363239
0.361808
0.360423
0.359024
0.357679
0.356384
0.355122
0.353967
0.352795
0.351803
0.37382
0.37156
0.369634
0.367976
0.366501
0.365108
0.363776
0.36243
0.361108
0.359767
0.358451
0.357145
0.355865
0.354624
0.353403
0.352252
0.351101
0.350054
0.373832
0.371553
0.369449
0.367525
0.365777
0.364154
0.362645
0.361199
0.359818
0.358474
0.35717
0.355904
0.354668
0.353477
0.352309
0.351198
0.350099
0.349075
0.373831
0.37156
0.369418
0.367405
0.365529
0.363773
0.362133
0.360585
0.359122
0.357728
0.356395
0.355119
0.353889
0.352712
0.351571
0.350483
0.349422
0.348422
0.373829
0.37156
0.369413
0.367378
0.365458
0.363645
0.361937
0.360324
0.358799
0.357353
0.355979
0.354673
0.353425
0.352236
0.351095
0.35001
0.348961
0.34797
0.373828
0.371558
0.369409
0.36737
0.365439
0.363609
0.361876
0.360234
0.358678
0.357202
0.3558
0.354469
0.353201
0.351995
0.350843
0.349748
0.348696
0.347701
0.373827
0.371556
0.369405
0.367365
0.36543
0.363593
0.361851
0.360197
0.358626
0.357134
0.355716
0.354368
0.353085
0.351865
0.350701
0.349595
0.348536
0.347532
0.373826
0.371555
0.369401
0.367359
0.365422
0.363583
0.361837
0.360178
0.3586
0.357101
0.355674
0.354317
0.353025
0.351795
0.350622
0.349506
0.34844
0.347427
0.373826
0.371553
0.369398
0.367355
0.365416
0.363575
0.361826
0.360164
0.358584
0.357081
0.355651
0.35429
0.352993
0.351758
0.35058
0.349458
0.348388
0.347368
0.373826
0.371552
0.369396
0.367351
0.36541
0.363567
0.361817
0.360153
0.358571
0.357067
0.355634
0.35427
0.352971
0.351734
0.350554
0.349429
0.348356
0.347333
0.373825
0.371551
0.369394
0.367348
0.365406
0.363562
0.36181
0.360145
0.358561
0.357055
0.355621
0.354256
0.352955
0.351716
0.350534
0.349408
0.348333
0.347308
0.373825
0.371551
0.369393
0.367346
0.365403
0.363558
0.361805
0.360139
0.358554
0.357047
0.355612
0.354245
0.352943
0.351703
0.35052
0.349392
0.348316
0.347289
0.373825
0.37155
0.369393
0.367345
0.365402
0.363557
0.361804
0.360137
0.358552
0.357043
0.355608
0.35424
0.352938
0.351696
0.350513
0.349384
0.348307
0.34728
0.373825
0.371551
0.369393
0.367347
0.365404
0.363559
0.361806
0.360139
0.358554
0.357046
0.355611
0.354244
0.352941
0.3517
0.350516
0.349388
0.348311
0.347284
0.373825
0.371551
0.369395
0.367349
0.365407
0.363563
0.361811
0.360145
0.358562
0.357055
0.355621
0.354255
0.352954
0.351715
0.350533
0.349407
0.348332
0.347307
0.373826
0.371552
0.369397
0.367352
0.365412
0.363571
0.361822
0.360161
0.358583
0.357083
0.355656
0.354298
0.353006
0.351774
0.350602
0.349483
0.348416
0.347397
0.373826
0.371554
0.369399
0.367359
0.365428
0.363602
0.361875
0.36024
0.35869
0.35722
0.355823
0.354493
0.353227
0.352018
0.350865
0.349762
0.34871
0.3477
0.373828
0.371551
0.369412
0.367417
0.365556
0.363819
0.362189
0.360651
0.359189
0.357793
0.356456
0.355171
0.353935
0.352745
0.3516
0.350495
0.349435
0.348409
0.373823
0.371554
0.369604
0.367893
0.366339
0.364892
0.363495
0.362122
0.360761
0.359413
0.35808
0.356769
0.355488
0.354237
0.353028
0.351855
0.350733
0.349644
0.373788
0.371991
0.371113
0.370266
0.36936
0.368311
0.367048
0.365629
0.36412
0.362575
0.36103
0.359522
0.358073
0.356682
0.355381
0.354141
0.353009
0.351923
0.374355
0.375572
0.377775
0.377857
0.377288
0.375886
0.373835
0.371641
0.369505
0.367482
0.365664
0.364084
0.36271
0.361535
0.36061
0.359818
0.359289
0.358801
0.379125
0.394296
0.398249
0.396573
0.392538
0.387603
0.383646
0.380448
0.378268
0.376853
0.376498
0.376742
0.377416
0.378692
0.380443
0.382425
0.384829
0.387141
0.408394
0.427541
0.422416
0.411056
0.402226
0.397925
0.398627
0.400965
0.406072
0.413059
0.421004
0.429835
0.438843
0.448199
0.457317
0.466563
0.475334
0.484194
0.36605
0.353416
0.341988
0.33021
0.318982
0.308382
0.299411
0.291671
0.285404
0.280334
0.276682
0.273868
0.272313
0.271176
0.271213
0.271475
0.272191
0.273393
0.000559489
0.00325965
0.00608969
0.00858612
0.0109724
0.0136599
0.0167766
0.020489
0.0248828
0.0299341
0.0355348
0.041544
0.0478168
0.054225
0.0606564
0.0670186
0.0732351
0.0792507
0.0850283
0.0905581
0.0958492
0.100939
0.105872
0.110703
0.115461
0.120162
0.124865
0.129572
0.133967
0.13795
0.14137
0.144101
0.14573
0.146372
0.146459
0.145458
0.143989
0.141192
0.135638
0.130951
0.139743
0.145637
0.151393
0.159941
0.16639
0.1745
0.182094
0.190213
0.198339
0.206716
0.215213
0.223896
0.232726
0.241723
0.250874
0.260187
0.269654
0.27928
0.289059
0.298993
0.309076
0.31931
0.329687
0.340208
0.350866
0.361659
0.37258
0.383625
0.394787
0.406061
0.417438
0.428915
0.440478
0.452126
0.463843
0.475626
0.48746
0.499342
0.511254
0.523193
0.535141
0.547094
0.559032
0.570951
0.582832
0.594667
0.606437
0.618134
0.629736
0.641233
0.652602
0.663825
0.674878
0.685738
0.696385
0.706799
0.716976
0.726948
0.736791
0.74636
0.755722
0.764837
0.773711
0.782326
0.790674
0.798743
0.806525
0.81401
0.821187
0.82805
0.834587
0.840793
0.846658
0.852177
0.85734
0.862144
0.866579
0.870645
0.874333
0.877642
0.880565
0.883101
0.885244
0.886995
0.888349
0.889308
0.889867
0.890018
0.889843
0.88927
0.888256
0.886782
0.884936
0.882799
0.880306
0.877395
0.87413
0.870506
0.866534
0.86222
0.857573
0.852602
0.847317
0.841725
0.83584
0.829671
0.823231
0.81653
0.809583
0.802401
0.794998
0.787386
0.779579
0.771591
0.763436
0.755127
0.74668
0.738109
0.729433
0.720672
0.711863
0.703113
0.69528
0.690464
0.686447
0.682457
0.678435
0.674379
0.670298
0.666197
0.662083
0.657958
0.653819
0.649653
0.645425
0.641059
0.636401
0.631006
0.623985
0.598304
0.00287314
0.0119076
0.0180703
0.0226485
0.0266763
0.0306086
0.0348048
0.0394707
0.0446903
0.050448
0.0566644
0.0632321
0.0700374
0.0769754
0.0839535
0.0908939
0.0977331
0.104425
0.110943
0.117282
0.12346
0.129519
0.135515
0.141513
0.147573
0.153755
0.16007
0.166443
0.172797
0.179007
0.184835
0.190156
0.195187
0.200195
0.205568
0.211713
0.219087
0.227385
0.238408
0.247606
0.258678
0.272414
0.28643
0.298514
0.31066
0.323591
0.336829
0.350439
0.364361
0.378614
0.393182
0.408069
0.42327
0.438789
0.454623
0.470776
0.487247
0.504037
0.521146
0.538575
0.556321
0.574385
0.592764
0.611455
0.630456
0.649761
0.669366
0.689265
0.70945
0.729915
0.75065
0.771647
0.792895
0.814382
0.836097
0.858026
0.880155
0.90247
0.924954
0.947592
0.970365
0.993257
1.01625
1.03932
1.06245
1.08561
1.10879
1.13196
1.1551
1.17818
1.20117
1.22405
1.24677
1.26931
1.29161
1.31364
1.33534
1.35663
1.37745
1.398
1.41824
1.43814
1.4577
1.47688
1.49567
1.51404
1.53198
1.54945
1.56645
1.58295
1.59893
1.61438
1.62927
1.64359
1.65732
1.67044
1.68295
1.69482
1.70604
1.71659
1.72648
1.73568
1.74419
1.75198
1.75907
1.76544
1.77109
1.77601
1.78022
1.78369
1.78644
1.78829
1.78932
1.78978
1.78962
1.78865
1.78694
1.78452
1.78138
1.77755
1.77303
1.76784
1.76198
1.75547
1.74833
1.74058
1.73223
1.7233
1.71382
1.7038
1.69327
1.68224
1.67074
1.6588
1.64644
1.63369
1.62056
1.60709
1.59331
1.57924
1.56493
1.55043
1.53598
1.52193
1.50794
1.49384
1.47965
1.46539
1.45109
1.43678
1.42247
1.40819
1.39394
1.37973
1.36553
1.35133
1.33694
1.32235
1.30616
1.26988
0.00615153
0.0205784
0.0288061
0.0349022
0.0402903
0.0455247
0.0509139
0.056637
0.0627755
0.0693342
0.0762655
0.0834941
0.0909365
0.0985124
0.106151
0.113792
0.121391
0.128915
0.136353
0.143712
0.151023
0.15834
0.165734
0.173291
0.181096
0.189219
0.19768
0.206456
0.21549
0.224694
0.233998
0.243451
0.253219
0.263518
0.274507
0.286298
0.298867
0.312296
0.326609
0.341031
0.356254
0.372094
0.388189
0.404357
0.420808
0.437698
0.454994
0.472689
0.490772
0.509244
0.5281
0.547342
0.566968
0.586979
0.607374
0.628155
0.64932
0.670871
0.692805
0.715122
0.73782
0.760897
0.784349
0.808172
0.832361
0.85691
0.881813
0.907061
0.932645
0.958557
0.984784
1.01132
1.03814
1.06524
1.0926
1.12021
1.14805
1.1761
1.20434
1.23275
1.26131
1.29
1.31879
1.34767
1.3766
1.40555
1.43451
1.46345
1.49233
1.52112
1.5498
1.57834
1.60669
1.63482
1.66271
1.69032
1.71762
1.74459
1.77122
1.79748
1.82336
1.84881
1.87382
1.89835
1.92238
1.94586
1.96879
1.99112
2.01284
2.03392
2.05433
2.07404
2.09305
2.11131
2.12881
2.14553
2.16146
2.17656
2.19083
2.20424
2.21679
2.22846
2.23923
2.24909
2.25804
2.26606
2.27315
2.27931
2.28454
2.28882
2.29214
2.29444
2.29566
2.29609
2.29565
2.29424
2.29188
2.2886
2.28442
2.27934
2.27339
2.26657
2.2589
2.2504
2.2411
2.23102
2.22018
2.2086
2.19631
2.18333
2.1697
2.15544
2.14059
2.12517
2.10921
2.09275
2.07583
2.05846
2.0407
2.02257
2.00413
1.98545
1.96667
1.94799
1.92927
1.91044
1.89151
1.87249
1.85344
1.83438
1.81535
1.79637
1.77747
1.75868
1.74002
1.72152
1.70311
1.68491
1.66564
1.63422
0.0099346
0.0288208
0.0389847
0.0463866
0.0528285
0.0589802
0.0651841
0.071632
0.0784187
0.0855684
0.0930568
0.100831
0.108829
0.116985
0.125247
0.133567
0.141915
0.150272
0.15864
0.167036
0.1755
0.184091
0.192885
0.201967
0.211412
0.22128
0.231597
0.24236
0.253537
0.265093
0.277009
0.289327
0.302134
0.315535
0.329601
0.34437
0.359829
0.375954
0.392691
0.409906
0.427637
0.445832
0.464433
0.483387
0.502708
0.522446
0.542612
0.563211
0.584242
0.605707
0.627609
0.649947
0.672724
0.69594
0.719597
0.743695
0.768236
0.793219
0.818645
0.844511
0.870816
0.897559
0.924734
0.952339
0.980368
1.00881
1.03767
1.06693
1.09658
1.12661
1.15701
1.18777
1.21887
1.2503
1.28203
1.31405
1.34635
1.37889
1.41166
1.44464
1.47779
1.5111
1.54454
1.57808
1.61168
1.64533
1.67898
1.71261
1.74619
1.77968
1.81304
1.84625
1.87926
1.91206
1.94459
1.97683
2.00874
2.0403
2.07148
2.10222
2.13251
2.1623
2.19157
2.22026
2.24836
2.27582
2.30261
2.32869
2.35405
2.37864
2.40244
2.42541
2.44754
2.46878
2.48913
2.50854
2.52701
2.5445
2.56101
2.5765
2.59096
2.60438
2.61674
2.62803
2.63823
2.64734
2.65535
2.66226
2.66807
2.67276
2.67632
2.67869
2.67983
2.68003
2.67915
2.67714
2.67404
2.66987
2.66463
2.65834
2.65103
2.64271
2.6334
2.62313
2.61192
2.5998
2.5868
2.57294
2.55825
2.54278
2.52654
2.50957
2.49192
2.47361
2.45467
2.43516
2.41511
2.39455
2.37354
2.3521
2.33031
2.30823
2.28597
2.26366
2.24126
2.21873
2.19609
2.17338
2.15062
2.12788
2.10518
2.08257
2.0601
2.03782
2.01579
1.99408
1.97275
1.95196
1.93063
1.90179
0.0137543
0.0365587
0.0485081
0.0571127
0.0644901
0.0714108
0.0782629
0.0852636
0.0925299
0.10011
0.108006
0.116188
0.124613
0.133236
0.142015
0.150918
0.159925
0.169027
0.178234
0.187568
0.197071
0.206799
0.216819
0.227202
0.238016
0.249313
0.261122
0.27345
0.28629
0.299628
0.313461
0.327806
0.342706
0.358207
0.374334
0.391099
0.408494
0.426503
0.445095
0.464222
0.48386
0.503989
0.524586
0.545628
0.567114
0.589059
0.611473
0.634363
0.657734
0.681588
0.705931
0.730766
0.756095
0.781921
0.808246
0.835074
0.862405
0.89024
0.91858
0.947425
0.976774
1.00662
1.03697
1.06782
1.09915
1.13097
1.16327
1.19603
1.22925
1.26292
1.29702
1.33154
1.36646
1.40176
1.43744
1.47345
1.50979
1.54644
1.58335
1.62051
1.6579
1.69547
1.73321
1.77107
1.80903
1.84704
1.88509
1.92312
1.9611
1.999
2.03678
2.07439
2.1118
2.14897
2.18586
2.22243
2.25864
2.29445
2.32981
2.36469
2.39904
2.43283
2.466
2.49852
2.53035
2.56144
2.59177
2.62129
2.64996
2.67775
2.70462
2.73055
2.7555
2.77943
2.80233
2.82416
2.84489
2.86451
2.88299
2.90031
2.91644
2.93138
2.9451
2.9576
2.96885
2.97886
2.98761
2.99509
3.00132
3.00628
3.00995
3.01226
3.01324
3.01311
3.01171
3.00906
3.00518
3.00007
2.99376
2.98628
2.97763
2.96785
2.95695
2.94498
2.93195
2.91789
2.90284
2.88683
2.8699
2.85208
2.83341
2.81393
2.79368
2.77269
2.75102
2.7287
2.70577
2.68229
2.65829
2.63384
2.60898
2.58379
2.55836
2.53279
2.50708
2.48122
2.45525
2.42919
2.40311
2.37705
2.35106
2.3252
2.29954
2.27415
2.24911
2.22458
2.20066
2.17755
2.15432
2.12612
0.0174091
0.0436036
0.0571602
0.0668631
0.075085
0.0826817
0.0900841
0.0975359
0.105177
0.113081
0.121273
0.129749
0.138485
0.147455
0.156632
0.165994
0.17553
0.185242
0.195141
0.205253
0.215616
0.226279
0.237299
0.248736
0.260644
0.27307
0.286044
0.299581
0.313685
0.328354
0.343587
0.359392
0.375785
0.392782
0.410394
0.428624
0.447471
0.466924
0.486964
0.507567
0.528716
0.550399
0.572605
0.595325
0.618556
0.642303
0.666571
0.691367
0.716698
0.74257
0.768987
0.795956
0.82348
0.851565
0.880214
0.909431
0.939219
0.969581
1.00052
1.03203
1.06412
1.09679
1.13003
1.16384
1.19821
1.23315
1.26864
1.30467
1.34124
1.37832
1.41592
1.454
1.49256
1.53158
1.57102
1.61088
1.65113
1.69173
1.73267
1.7739
1.8154
1.85714
1.89908
1.94119
1.98342
2.02574
2.0681
2.11047
2.1528
2.19505
2.23718
2.27914
2.32088
2.36236
2.40354
2.44436
2.48478
2.52474
2.5642
2.60311
2.64143
2.6791
2.71608
2.75232
2.78778
2.8224
2.85616
2.88899
2.92087
2.95175
2.98159
3.01036
3.03801
3.06452
3.08985
3.11398
3.13686
3.15849
3.17882
3.19785
3.21554
3.23188
3.24686
3.26045
3.27264
3.28343
3.29281
3.30078
3.30733
3.31246
3.31616
3.31833
3.31909
3.31854
3.31658
3.31323
3.30851
3.30243
3.29503
3.28631
3.27631
3.26506
3.25258
3.23891
3.22407
3.20811
3.19105
3.17294
3.15382
3.13372
3.11269
3.09077
3.06801
3.04444
3.02013
2.9951
2.96942
2.94313
2.91629
2.88894
2.86115
2.83299
2.80454
2.77587
2.74703
2.71802
2.68889
2.65968
2.63044
2.60124
2.57213
2.5432
2.51451
2.48618
2.45832
2.4311
2.40469
2.3793
2.35407
2.32527
0.0207648
0.049832
0.0647908
0.0754654
0.084436
0.092627
0.100504
0.108335
0.116278
0.124429
0.132836
0.141516
0.150468
0.15968
0.16914
0.178839
0.188775
0.198952
0.209388
0.220107
0.231143
0.242539
0.254342
0.266599
0.279357
0.292655
0.306522
0.320976
0.336028
0.351681
0.367938
0.384802
0.402278
0.420371
0.439085
0.458422
0.478381
0.498957
0.520139
0.541919
0.564287
0.587236
0.610763
0.634864
0.659539
0.68479
0.710622
0.737043
0.764059
0.791678
0.819907
0.848753
0.878223
0.908323
0.939059
0.970436
1.00246
1.03514
1.06847
1.10245
1.1371
1.1724
1.20836
1.24498
1.28225
1.32016
1.35872
1.3979
1.4377
1.47811
1.51911
1.56069
1.60281
1.64548
1.68865
1.7323
1.77641
1.82095
1.86588
1.91117
1.95679
2.00268
2.04883
2.09518
2.14169
2.18832
2.23501
2.28173
2.32842
2.37504
2.42153
2.46784
2.51392
2.55972
2.60517
2.65023
2.69484
2.73894
2.78249
2.82541
2.86767
2.9092
2.94996
2.98989
3.02893
3.06705
3.10419
3.14029
3.17533
3.20924
3.24198
3.27353
3.30382
3.33284
3.36053
3.38688
3.41184
3.43539
3.4575
3.47816
3.49732
3.51498
3.53112
3.54572
3.55877
3.57026
3.58019
3.58856
3.59535
3.60057
3.60422
3.60619
3.60666
3.60562
3.60304
3.59894
3.59332
3.58623
3.57768
3.5677
3.55633
3.54358
3.5295
3.51412
3.49748
3.47961
3.46056
3.44036
3.41907
3.39672
3.37337
3.34906
3.32383
3.29775
3.27085
3.24319
3.21483
3.18581
3.15619
3.12604
3.0954
3.06435
3.03297
3.00133
2.96946
2.93742
2.90524
2.87298
2.8407
2.80847
2.77636
2.74445
2.71284
2.68166
2.65105
2.6212
2.59231
2.56457
2.53719
2.50696
0.0237266
0.0551658
0.071307
0.0828098
0.0924222
0.101123
0.109404
0.117551
0.125738
0.134079
0.142639
0.151456
0.160546
0.169915
0.179563
0.189493
0.199708
0.210221
0.221049
0.232216
0.243753
0.255696
0.268083
0.280954
0.294346
0.308293
0.322821
0.33795
0.353692
0.370056
0.387047
0.404667
0.42292
0.441808
0.461335
0.481501
0.502308
0.523754
0.545838
0.568556
0.591907
0.615889
0.640503
0.66575
0.691633
0.718156
0.745325
0.773149
0.801635
0.830793
0.860632
0.891161
0.922389
0.954325
0.986976
1.02035
1.05446
1.0893
1.12488
1.16121
1.19829
1.23612
1.2747
1.31403
1.35411
1.39493
1.43649
1.47876
1.52176
1.56545
1.60982
1.65486
1.70054
1.74684
1.79373
1.84118
1.88916
1.93765
1.98659
2.03596
2.0857
2.13579
2.18617
2.23679
2.28761
2.33858
2.38963
2.44073
2.4918
2.54281
2.59368
2.64436
2.69478
2.7449
2.79463
2.84393
2.89273
2.94096
2.98857
3.03549
3.08166
3.12703
3.17153
3.21511
3.2577
3.29927
3.33973
3.37906
3.41718
3.45406
3.48965
3.5239
3.55676
3.58821
3.61819
3.64667
3.67362
3.69901
3.72282
3.745
3.76555
3.78444
3.80165
3.81717
3.83098
3.84308
3.85347
3.86214
3.86909
3.87432
3.87784
3.87955
3.87964
3.87805
3.87478
3.86986
3.8633
3.85514
3.84541
3.83413
3.82134
3.80708
3.79138
3.77428
3.75582
3.73605
3.71501
3.69275
3.66931
3.64474
3.6191
3.59244
3.5648
3.53625
3.50683
3.47661
3.44563
3.41396
3.38164
3.34875
3.31535
3.2815
3.24728
3.21275
3.17797
3.14299
3.10787
3.07266
3.03743
3.00226
2.96722
2.93243
2.89798
2.86401
2.83069
2.79823
2.76684
2.73668
2.70702
2.67509
0.0262369
0.059576
0.0766735
0.0888515
0.0989902
0.10811
0.116723
0.125125
0.133505
0.141986
0.150651
0.159553
0.168722
0.178179
0.187937
0.198007
0.2084
0.219133
0.230225
0.241698
0.253581
0.265904
0.278699
0.291999
0.305835
0.320235
0.335225
0.350822
0.367041
0.383894
0.401387
0.419527
0.438319
0.457767
0.477875
0.498647
0.520085
0.542195
0.564977
0.588435
0.612573
0.637394
0.662903
0.689106
0.716009
0.743618
0.771942
0.800992
0.830779
0.861313
0.892606
0.92467
0.957515
0.991154
1.0256
1.06085
1.09693
1.13384
1.17158
1.21018
1.24962
1.28991
1.33105
1.37305
1.4159
1.45959
1.50412
1.54948
1.59565
1.64262
1.69037
1.73887
1.78812
1.83807
1.8887
1.93997
1.99185
2.04431
2.09729
2.15076
2.20467
2.25896
2.3136
2.36852
2.42366
2.47898
2.53441
2.58989
2.64535
2.70074
2.75598
2.81101
2.86576
2.92016
2.97415
3.02765
3.08059
3.1329
3.18452
3.23537
3.2854
3.33453
3.3827
3.42985
3.47591
3.52082
3.56453
3.60697
3.64809
3.68783
3.72615
3.76299
3.79831
3.83206
3.86421
3.89471
3.92353
3.95064
3.97601
3.99961
4.02142
4.04142
4.05958
4.0759
4.09037
4.10297
4.1137
4.12257
4.12958
4.13472
4.138
4.1394
4.13901
4.1368
4.13277
4.12697
4.11941
4.11014
4.09918
4.08656
4.07233
4.05653
4.0392
4.02038
4.00011
3.97845
3.95544
3.93113
3.90558
3.87884
3.85096
3.82201
3.79202
3.76107
3.72921
3.6965
3.66299
3.62875
3.59383
3.55831
3.52223
3.48568
3.44871
3.41141
3.37383
3.33604
3.29808
3.26002
3.22195
3.18394
3.14609
3.10849
3.07128
3.03459
2.99862
2.96357
2.92966
2.89703
2.86498
2.83124
0.0282645
0.06307
0.0809047
0.0936036
0.104149
0.113595
0.122464
0.131061
0.139581
0.148158
0.156886
0.165827
0.175028
0.184517
0.19432
0.204453
0.214937
0.225789
0.237031
0.248687
0.26078
0.273338
0.286388
0.299957
0.314073
0.328759
0.344037
0.359927
0.376444
0.393602
0.411411
0.429882
0.449022
0.468839
0.489341
0.510535
0.532428
0.555028
0.578341
0.602377
0.627142
0.652645
0.678895
0.705902
0.733675
0.762227
0.791568
0.821712
0.852672
0.884463
0.917099
0.950594
0.984962
1.02022
1.05637
1.09344
1.13142
1.17035
1.21021
1.25103
1.2928
1.33554
1.37923
1.42389
1.46951
1.51608
1.56359
1.61204
1.66141
1.71168
1.76283
1.81483
1.86766
1.9213
1.97569
2.03081
2.08662
2.14307
2.20011
2.25769
2.31577
2.37428
2.43317
2.49237
2.55183
2.61148
2.67124
2.73106
2.79086
2.85057
2.91012
2.96943
3.02843
3.08703
3.14517
3.20276
3.25973
3.316
3.37151
3.42616
3.4799
3.53265
3.58434
3.6349
3.68427
3.73237
3.77915
3.82453
3.86847
3.9109
3.95177
3.99103
4.02863
4.06452
4.09865
4.131
4.16152
4.19018
4.21694
4.24179
4.26469
4.28564
4.3046
4.32157
4.33654
4.3495
4.36045
4.36939
4.37632
4.38127
4.38422
4.38519
4.38424
4.38131
4.37645
4.3697
4.36109
4.35065
4.33842
4.32444
4.30876
4.29141
4.27244
4.2519
4.22985
4.20632
4.18138
4.15508
4.12748
4.09863
4.06859
4.03742
4.00518
3.97193
3.93772
3.90263
3.86671
3.83002
3.79262
3.75458
3.71596
3.67683
3.63727
3.59733
3.55709
3.51661
3.47595
3.4352
3.39441
3.35369
3.31313
3.27285
3.23297
3.19366
3.15509
3.1175
3.08107
3.04595
3.01147
2.9757
0.0298061
0.0656874
0.0840531
0.0971253
0.107961
0.117638
0.126686
0.135414
0.144023
0.152651
0.1614
0.170341
0.179529
0.189003
0.198796
0.208934
0.219438
0.23033
0.241632
0.253365
0.265553
0.27822
0.291391
0.305089
0.319339
0.334163
0.349581
0.365614
0.382277
0.399588
0.417562
0.436211
0.455548
0.475586
0.496335
0.517809
0.540018
0.562974
0.586689
0.611176
0.636446
0.662512
0.68939
0.717093
0.745636
0.775033
0.8053
0.836454
0.868513
0.901493
0.935413
0.970289
1.00614
1.04298
1.08082
1.11968
1.15957
1.20051
1.2425
1.28556
1.32969
1.37489
1.42117
1.46852
1.51695
1.56644
1.61699
1.66858
1.72119
1.77481
1.8294
1.88495
1.94141
1.99875
2.05694
2.11593
2.17567
2.23611
2.2972
2.35888
2.4211
2.48378
2.54687
2.6103
2.67399
2.73788
2.80188
2.86593
2.92994
2.99384
3.05754
3.12096
3.18403
3.24665
3.30874
3.37023
3.43102
3.49104
3.5502
3.60843
3.66564
3.72176
3.77672
3.83044
3.88286
3.93389
3.98347
4.03154
4.07804
4.12289
4.16606
4.20747
4.24709
4.28486
4.32073
4.35468
4.38665
4.41662
4.44455
4.47042
4.49421
4.51589
4.53545
4.55287
4.56816
4.5813
4.5923
4.60115
4.60788
4.61249
4.61499
4.61541
4.61381
4.61007
4.6043
4.59653
4.58681
4.57516
4.56163
4.54627
4.52912
4.51023
4.48965
4.46743
4.44363
4.41829
4.39149
4.36327
4.3337
4.30283
4.27073
4.23747
4.20309
4.16767
4.13126
4.09393
4.05575
4.01676
3.97704
3.93665
3.89566
3.85413
3.81213
3.76974
3.72701
3.68403
3.64085
3.59756
3.55423
3.51096
3.46785
3.42502
3.38261
3.34078
3.29973
3.25965
3.22076
3.18318
3.14628
3.1084
0.0308818
0.0674978
0.086202
0.0995103
0.110526
0.120343
0.129493
0.138287
0.146929
0.155562
0.164292
0.173199
0.182342
0.191766
0.201508
0.211597
0.222058
0.232916
0.244192
0.255909
0.26809
0.280757
0.293933
0.307641
0.321903
0.336742
0.352179
0.368234
0.384925
0.402271
0.420292
0.439005
0.458429
0.47858
0.499473
0.521128
0.543561
0.566788
0.590825
0.615688
0.641394
0.66796
0.695407
0.723754
0.75302
0.783225
0.814391
0.846537
0.879685
0.913856
0.949071
0.985349
1.02271
1.06117
1.10075
1.14146
1.18333
1.22635
1.27055
1.31593
1.3625
1.41026
1.45921
1.50936
1.56069
1.6132
1.66686
1.72167
1.77761
1.83464
1.89273
1.95186
2.01199
2.07307
2.13505
2.1979
2.26155
2.32594
2.39103
2.45673
2.523
2.58975
2.65691
2.72441
2.79217
2.86011
2.92815
2.9962
3.06419
3.13202
3.19961
3.26687
3.33371
3.40004
3.46577
3.53082
3.5951
3.65851
3.72097
3.78241
3.84273
3.90186
3.95971
4.01622
4.0713
4.12488
4.1769
4.22728
4.27595
4.32287
4.36796
4.41117
4.45246
4.49176
4.52904
4.56425
4.59736
4.62833
4.65714
4.68374
4.70813
4.73029
4.75019
4.76784
4.78322
4.79633
4.80717
4.81576
4.82211
4.82623
4.82814
4.8279
4.82552
4.82087
4.81411
4.80527
4.79438
4.7815
4.76666
4.74991
4.73131
4.7109
4.68875
4.6649
4.63942
4.61236
4.58379
4.55376
4.52234
4.48959
4.45557
4.42036
4.38401
4.34659
4.30816
4.26879
4.22853
4.18745
4.14562
4.10309
4.05993
4.01622
3.97201
3.92738
3.88239
3.83712
3.79164
3.74603
3.70036
3.65474
3.60928
3.56409
3.51932
3.47513
3.43171
3.38928
3.34801
3.30805
3.2688
3.22885
0.0315349
0.0685816
0.0874521
0.100871
0.111965
0.121833
0.131009
0.139808
0.148435
0.157034
0.165715
0.174555
0.183617
0.19295
0.202593
0.212581
0.222942
0.2337
0.244879
0.256502
0.268592
0.281169
0.294258
0.307881
0.322061
0.336822
0.352189
0.368186
0.384828
0.402136
0.420133
0.438842
0.458286
0.478487
0.499467
0.521264
0.543893
0.567372
0.591722
0.616962
0.643109
0.67018
0.698208
0.727221
0.757244
0.788305
0.820428
0.853639
0.887963
0.923424
0.960045
0.997848
1.03685
1.07708
1.11854
1.16127
1.20526
1.25054
1.29711
1.34498
1.39417
1.44466
1.49645
1.54955
1.60393
1.65959
1.7165
1.77465
1.834
1.89452
1.95618
2.01893
2.08274
2.14754
2.21329
2.27994
2.34741
2.41565
2.48459
2.55415
2.62427
2.69486
2.76585
2.83715
2.90868
2.98035
3.05208
3.12378
3.19535
3.26671
3.33776
3.40841
3.47857
3.54814
3.61703
3.68515
3.75241
3.8187
3.88396
3.94808
4.01099
4.0726
4.13282
4.19159
4.24882
4.30444
4.35838
4.41056
4.46092
4.50941
4.55595
4.60049
4.64299
4.68338
4.72164
4.7577
4.79154
4.82313
4.85243
4.87942
4.90408
4.92639
4.94634
4.96392
4.97912
4.99196
5.00242
5.01054
5.01631
5.01977
5.02094
5.01994
5.01664
5.01099
5.00316
4.99319
4.98111
4.96697
4.95082
4.93271
4.91269
4.89083
4.86717
4.84179
4.81473
4.78607
4.75585
4.72416
4.69106
4.6566
4.62086
4.5839
4.54579
4.50659
4.46637
4.42518
4.3831
4.34018
4.29649
4.25209
4.20704
4.1614
4.11525
4.06865
4.02168
3.9744
3.92688
3.87921
3.83146
3.78374
3.73616
3.68884
3.64193
3.59558
3.54999
3.50536
3.46187
3.41965
3.37817
3.33627
0.0317439
0.0689634
0.0878744
0.101306
0.112392
0.122239
0.131382
0.140133
0.148696
0.157218
0.165809
0.174555
0.183527
0.192765
0.202309
0.212191
0.222441
0.233086
0.244149
0.255653
0.267621
0.280076
0.293042
0.306542
0.3206
0.335243
0.350495
0.366378
0.382918
0.400146
0.41809
0.436779
0.456243
0.476508
0.497603
0.519553
0.54239
0.566139
0.590827
0.616478
0.643124
0.670789
0.699513
0.729331
0.76027
0.792361
0.825634
0.86012
0.895848
0.932842
0.971127
1.01072
1.05165
1.09393
1.13757
1.1826
1.22902
1.27685
1.32609
1.37675
1.42882
1.4823
1.53719
1.59346
1.6511
1.7101
1.77041
1.83202
1.89488
1.95896
2.02421
2.09058
2.15801
2.22646
2.29586
2.36614
2.43723
2.50907
2.58158
2.65468
2.72829
2.80234
2.87672
2.95137
3.02618
3.10107
3.17594
3.25071
3.32528
3.39955
3.47343
3.54683
3.61964
3.69177
3.76313
3.83363
3.90316
3.97164
4.03898
4.10508
4.16987
4.23326
4.29516
4.3555
4.4142
4.47118
4.52638
4.57972
4.63113
4.68056
4.72795
4.77324
4.81638
4.85732
4.89602
4.93243
4.96652
4.99826
5.02762
5.05458
5.07911
5.1012
5.12084
5.13803
5.15276
5.16504
5.17488
5.18229
5.18728
5.1899
5.19019
5.18831
5.18394
5.17722
5.16828
5.15714
5.14385
5.12847
5.11104
5.09161
5.07026
5.04702
5.02198
4.99518
4.9667
4.93659
4.90493
4.87177
4.83719
4.80126
4.76403
4.72558
4.68597
4.64526
4.60353
4.56084
4.51723
4.47278
4.42754
4.38158
4.33496
4.28773
4.23997
4.19174
4.1431
4.09413
4.0449
3.99549
3.94597
3.89646
3.84705
3.79788
3.74909
3.70084
3.65331
3.60669
3.56117
3.51689
3.47335
3.4297
0.0316787
0.0688819
0.0877294
0.101108
0.112138
0.121924
0.130995
0.139665
0.148139
0.156565
0.165049
0.173674
0.182502
0.191583
0.200957
0.210661
0.220726
0.23118
0.242049
0.253357
0.26513
0.277391
0.290168
0.303486
0.317374
0.331862
0.34698
0.362759
0.379237
0.396445
0.414417
0.43319
0.452793
0.473261
0.494627
0.516925
0.540192
0.564476
0.589792
0.616165
0.643611
0.672184
0.701932
0.732893
0.765106
0.798606
0.833428
0.869613
0.907194
0.946188
0.986616
1.0285
1.07185
1.11668
1.163
1.21082
1.26016
1.311
1.36335
1.41721
1.47256
1.5294
1.58769
1.64742
1.70857
1.77109
1.83494
1.9001
1.96651
2.03411
2.10287
2.17271
2.24359
2.31542
2.38815
2.4617
2.536
2.61097
2.68653
2.76261
2.8391
2.91594
2.99304
3.07029
3.14762
3.22493
3.30213
3.37912
3.45581
3.53211
3.60791
3.68313
3.75767
3.83144
3.90433
3.97626
4.04713
4.11686
4.18535
4.25251
4.31826
4.38253
4.44521
4.50625
4.56556
4.62308
4.67871
4.73241
4.7841
4.83373
4.88124
4.92658
4.96969
5.01052
5.04904
5.08521
5.11899
5.15034
5.17926
5.2057
5.22966
5.25112
5.27007
5.28652
5.30045
5.31188
5.32083
5.32729
5.3313
5.33291
5.33224
5.32929
5.32376
5.31592
5.30583
5.29352
5.27905
5.26246
5.24382
5.22318
5.2006
5.17614
5.14987
5.12185
5.09214
5.06082
5.02794
4.99358
4.95779
4.92066
4.88225
4.84262
4.80184
4.75997
4.71708
4.67323
4.62847
4.58286
4.53646
4.48932
4.44151
4.39308
4.3441
4.29462
4.24472
4.19445
4.14388
4.0931
4.04219
3.99123
3.94035
3.88967
3.83932
3.78946
3.74028
3.69196
3.64466
3.59856
3.5532
3.50803
0.0314662
0.0685435
0.087203
0.100425
0.111301
0.120927
0.129834
0.138334
0.146634
0.154879
0.163176
0.171608
0.180238
0.189119
0.198298
0.207808
0.21768
0.227942
0.238622
0.249748
0.261349
0.273454
0.286095
0.299306
0.313121
0.327574
0.342703
0.358546
0.375143
0.392535
0.410766
0.42989
0.449945
0.470964
0.492986
0.516047
0.540172
0.565359
0.59169
0.619235
0.648062
0.678219
0.709733
0.742641
0.776977
0.812775
0.850063
0.888862
0.929189
0.971074
1.01454
1.05962
1.10629
1.15456
1.20442
1.25586
1.30888
1.36348
1.41963
1.47731
1.53649
1.59716
1.65927
1.72278
1.78766
1.85385
1.92131
1.98999
2.05983
2.13077
2.20274
2.27569
2.34954
2.42423
2.49968
2.57582
2.65258
2.72986
2.80761
2.88572
2.96412
3.04273
3.12146
3.20022
3.27893
3.35749
3.43582
3.51382
3.59141
3.66849
3.74497
3.82076
3.89578
3.96992
4.04309
4.11522
4.1862
4.25595
4.32439
4.39143
4.45698
4.52098
4.58334
4.64398
4.70284
4.75984
4.81491
4.86799
4.91901
4.96793
5.01468
5.05921
5.10148
5.14144
5.17904
5.21426
5.24706
5.2774
5.30528
5.33066
5.35353
5.37388
5.39169
5.40699
5.41976
5.43001
5.43775
5.44301
5.44581
5.44621
5.4445
5.44024
5.4335
5.42448
5.4132
5.39973
5.38411
5.36639
5.34663
5.32489
5.30123
5.27571
5.2484
5.21937
5.18867
5.15639
5.12257
5.08729
5.05062
5.01262
4.97336
4.93291
4.89133
4.84868
4.80502
4.7604
4.71489
4.66853
4.62139
4.5735
4.52493
4.47573
4.42595
4.37565
4.3249
4.27375
4.22227
4.17053
4.11861
4.06661
4.01463
3.9628
3.91124
3.86012
3.80961
3.75988
3.7111
3.66345
3.61653
3.57013
0.0310375
0.0678298
0.0861981
0.0991859
0.109839
0.119249
0.127943
0.136236
0.144333
0.15238
0.160485
0.168728
0.177176
0.18588
0.194887
0.204235
0.213959
0.224092
0.234666
0.245714
0.257274
0.269383
0.28208
0.295405
0.309404
0.32413
0.339637
0.355962
0.373152
0.391252
0.410302
0.430317
0.451338
0.473457
0.496744
0.521257
0.547061
0.574241
0.602826
0.632869
0.664425
0.697536
0.732233
0.768543
0.806492
0.846096
0.887368
0.930312
0.974933
1.02122
1.0692
1.11879
1.16999
1.22279
1.27718
1.33313
1.39061
1.44958
1.51002
1.57187
1.6351
1.69966
1.7655
1.83258
1.90083
1.97021
2.04065
2.1121
2.18449