/*--------------------------------*- C++ -*----------------------------------*\
  =========                 |
  \\      /  F ield         | OpenFOAM: The Open Source CFD Toolbox
   \\    /   O peration     | Website:  https://openfoam.org
    \\  /    A nd           | Version:  8
     \\/     M anipulation  |
\*---------------------------------------------------------------------------*/
FoamFile
{
    version     2.0;
    format      ascii;
    class       volScalarField;
    location    "280";
    object      nut;
}
// * * * * * * * * * * * * * * * * * * * * * * * * * * * * * * * * * * * * * //

dimensions      [0 2 -1 0 0 0 0];

internalField   nonuniform List<scalar> 
12225
(
4.14927e-05
3.93401e-05
3.74838e-05
3.54318e-05
3.37852e-05
3.24192e-05
3.15114e-05
3.09109e-05
3.09182e-05
3.10899e-05
3.15762e-05
3.20899e-05
3.31564e-05
3.38163e-05
3.50536e-05
3.59335e-05
3.66559e-05
3.93538e-05
0.000332209
0.00021518
0.00017927
0.000157679
0.00014621
0.000138209
0.00013276
0.000131631
0.000129528
0.000130044
0.000129064
0.000129422
0.000128672
0.000128544
0.000128086
0.000127401
0.000127449
0.000126132
0.000668672
0.000450661
0.000355758
0.000309832
0.000275289
0.000251095
0.000231722
0.000217269
0.000202701
0.000192113
0.000182641
0.00017521
0.000169388
0.000163702
0.000160306
0.000155599
0.000153854
0.000149839
0.00080168
0.000691657
0.000572561
0.00050005
0.000449393
0.000411975
0.000380798
0.000355994
0.00033403
0.000314778
0.0002984
0.000281638
0.000270363
0.0002561
0.000248251
0.000236176
0.000230624
0.000220451
0.000839623
0.000810184
0.000740715
0.000676403
0.000623945
0.000581374
0.000545887
0.000514552
0.000489536
0.000464435
0.000445889
0.000424083
0.000409966
0.000390842
0.000379954
0.000363087
0.000354905
0.00033947
0.000850344
0.000843276
0.000819554
0.000786521
0.000750784
0.000715877
0.000685768
0.000656131
0.00063256
0.000607527
0.000589014
0.000567269
0.000552309
0.000533136
0.000520848
0.000503726
0.000493787
0.000477436
0.000851579
0.000851018
0.0008433
0.000833474
0.000817118
0.000796948
0.000777876
0.000756738
0.000738907
0.000719156
0.000703545
0.00068564
0.000672145
0.000655955
0.000644363
0.000629524
0.000619947
0.000605098
0.000851582
0.000851815
0.000850038
0.00084746
0.000841403
0.000833751
0.000824825
0.000813436
0.000802814
0.000790478
0.000779723
0.000767553
0.000757443
0.000745805
0.000736586
0.000725508
0.000717551
0.000705957
0.000851673
0.00085153
0.000851016
0.000850343
0.000848875
0.000846171
0.000843027
0.000838306
0.000833404
0.000827365
0.000821223
0.000814776
0.000808442
0.000801519
0.000795316
0.000788351
0.00078256
0.000775001
0.000851754
0.000851386
0.000851043
0.000850633
0.000850247
0.000849368
0.000848405
0.000846781
0.000844957
0.000842532
0.000839926
0.000836803
0.000833801
0.000830159
0.000826986
0.000822933
0.000819944
0.000815314
0.000851784
0.000851358
0.000851012
0.000850613
0.000850329
0.000849905
0.000849526
0.000848929
0.000848303
0.000847394
0.000846467
0.000845179
0.000843993
0.000842355
0.000841001
0.000839039
0.00083765
0.000835374
0.000851788
0.000851359
0.000850995
0.000850605
0.000850292
0.000849938
0.000849646
0.00084928
0.000848955
0.000848505
0.000848099
0.000847509
0.000846999
0.000846246
0.000845644
0.000844724
0.000844062
0.000842981
0.000851786
0.000851363
0.000850985
0.000850604
0.000850269
0.000849926
0.00084963
0.000849313
0.000849042
0.000848729
0.000848462
0.000848126
0.000847844
0.000847466
0.000847157
0.000846727
0.000846388
0.000845904
0.000851783
0.000851364
0.000850978
0.000850602
0.000850256
0.000849916
0.000849607
0.0008493
0.000849022
0.000848741
0.000848488
0.000848224
0.000847989
0.000847735
0.000847508
0.000847258
0.000847033
0.000846783
0.000851781
0.000851364
0.000850972
0.000850598
0.000850246
0.000849908
0.000849591
0.000849286
0.000849
0.000848723
0.000848463
0.000848211
0.000847975
0.000847744
0.000847527
0.000847316
0.000847114
0.000846918
0.00085178
0.000851363
0.000850969
0.000850594
0.000850239
0.000849901
0.00084958
0.000849274
0.000848984
0.000848707
0.000848443
0.000848191
0.000847951
0.000847721
0.000847502
0.000847292
0.000847092
0.0008469
0.000851779
0.000851362
0.000850967
0.000850591
0.000850234
0.000849894
0.000849572
0.000849265
0.000848973
0.000848694
0.000848428
0.000848174
0.000847932
0.000847701
0.00084748
0.000847268
0.000847066
0.000846873
0.000851779
0.000851362
0.000850965
0.000850588
0.00085023
0.00084989
0.000849567
0.000849258
0.000848965
0.000848685
0.000848418
0.000848163
0.000847919
0.000847686
0.000847464
0.000847251
0.000847047
0.000846853
0.000851779
0.000851362
0.000850965
0.000850588
0.000850229
0.000849889
0.000849565
0.000849256
0.000848962
0.000848681
0.000848413
0.000848157
0.000847913
0.000847679
0.000847456
0.000847242
0.000847038
0.000846842
0.000851779
0.000851362
0.000850965
0.000850589
0.000850231
0.000849891
0.000849567
0.000849259
0.000848965
0.000848684
0.000848417
0.000848161
0.000847916
0.000847683
0.000847459
0.000847245
0.000847039
0.000846843
0.000851779
0.000851363
0.000850967
0.000850592
0.000850235
0.000849896
0.000849573
0.000849266
0.000848972
0.000848693
0.000848423
0.000848168
0.000847919
0.000847682
0.00084745
0.00084723
0.000847011
0.000846805
0.000851778
0.000851366
0.000850968
0.000850599
0.00085024
0.000849907
0.00084958
0.000849274
0.000848964
0.000848671
0.000848364
0.000848071
0.000847755
0.000847454
0.000847122
0.00084681
0.000846456
0.000846134
0.000851773
0.000851376
0.000850971
0.000850615
0.00085024
0.000849889
0.000849478
0.000849053
0.000848529
0.000847977
0.0008473
0.000846603
0.000845765
0.000844938
0.000843953
0.000843027
0.000841915
0.000840937
0.000851767
0.000851415
0.000850964
0.000850548
0.000849861
0.000848966
0.00084761
0.000845975
0.000843904
0.000841635
0.000838953
0.000836212
0.000833114
0.00083011
0.000826759
0.000823676
0.000820179
0.000817173
0.000851859
0.00085138
0.000850195
0.000848243
0.000844469
0.000839353
0.000832764
0.000825657
0.00081796
0.000810009
0.000801614
0.000793623
0.000785326
0.000777701
0.000769737
0.000762693
0.000755115
0.000748785
0.000852108
0.000847667
0.000839902
0.000827146
0.000808707
0.000789644
0.000769973
0.00075141
0.000733301
0.00071689
0.000700928
0.000686773
0.000672822
0.000660662
0.000648368
0.00063793
0.000626942
0.000618008
0.000843241
0.000822506
0.000775184
0.000726457
0.000684894
0.000649849
0.000618458
0.000592015
0.000568376
0.000548306
0.000529682
0.000513983
0.000498743
0.000486007
0.000473191
0.000462697
0.000451611
0.000442793
0.000795685
0.000668241
0.000570625
0.000509903
0.000465603
0.000431181
0.000404143
0.000382477
0.000364195
0.000349064
0.000335936
0.000325056
0.0003145
0.00030623
0.000297952
0.00029136
0.000284273
0.000278923
0.000501314
0.000348357
0.000292673
0.00025918
0.000236321
0.000221176
0.00021162
0.000203853
0.000198563
0.000195074
0.00019222
0.000190367
0.000188581
0.000187437
0.000186165
0.000185471
0.000184554
0.000184142
7.27385e-05
7.02256e-05
6.79542e-05
6.56138e-05
6.33828e-05
6.12762e-05
5.94944e-05
5.79552e-05
5.67109e-05
5.57033e-05
5.49777e-05
5.44182e-05
5.41098e-05
5.38815e-05
5.3898e-05
5.39332e-05
5.4092e-05
5.43247e-05
1.74445e-07
4.64042e-06
8.67364e-06
1.22232e-05
1.56043e-05
1.94055e-05
2.38094e-05
2.90519e-05
3.52514e-05
4.23662e-05
5.02327e-05
5.86401e-05
6.73752e-05
7.62514e-05
8.5116e-05
9.3851e-05
0.000102382
0.000110675
0.000118749
0.00012667
0.000134549
0.00014253
0.000150749
0.000159308
0.000168177
0.000177854
0.000188258
0.000196571
0.000204349
0.000210617
0.000215224
0.000213919
0.000213845
0.000211947
0.000210984
0.000208921
0.000207889
0.000199156
0.000187807
3.84394e-05
4.26021e-05
4.5806e-05
4.86893e-05
4.93507e-05
5.0424e-05
5.16203e-05
5.26957e-05
5.38313e-05
5.49353e-05
5.60503e-05
5.71558e-05
5.82617e-05
5.93624e-05
6.04612e-05
6.15558e-05
6.26477e-05
6.37358e-05
6.4821e-05
6.59022e-05
6.69803e-05
6.80542e-05
6.91244e-05
7.01901e-05
7.12517e-05
7.23081e-05
7.33597e-05
7.44055e-05
7.54458e-05
7.64794e-05
7.75066e-05
7.85263e-05
7.95386e-05
8.05424e-05
8.15378e-05
8.25237e-05
8.35001e-05
8.4466e-05
8.54212e-05
8.63647e-05
8.72966e-05
8.82156e-05
8.91218e-05
9.00139e-05
9.08921e-05
9.1755e-05
9.26027e-05
9.34339e-05
9.42485e-05
9.50453e-05
9.58239e-05
9.65832e-05
9.73223e-05
9.80399e-05
9.87349e-05
9.94062e-05
0.000100053
0.000100676
0.000101277
0.000101862
0.000102422
0.000102961
0.000103478
0.000103972
0.000104444
0.000104893
0.000105319
0.000105721
0.0001061
0.000106455
0.000106785
0.000107091
0.000107372
0.000107628
0.00010786
0.000108066
0.000108247
0.000108403
0.000108533
0.000108638
0.000108718
0.000108772
0.0001088
0.000108803
0.00010878
0.000108732
0.000108658
0.000108559
0.000108434
0.000108291
0.000108119
0.000107921
0.000107696
0.000107446
0.000107176
0.000106887
0.00010657
0.000106231
0.00010587
0.000105486
0.000105081
0.000104655
0.000104208
0.000103741
0.000103254
0.000102748
0.000102223
0.00010168
0.00010112
0.000100542
9.99483e-05
9.93388e-05
9.87143e-05
9.80755e-05
9.74229e-05
9.67575e-05
9.60796e-05
9.53904e-05
9.46903e-05
9.39806e-05
9.32621e-05
9.25373e-05
9.18115e-05
9.11265e-05
9.06409e-05
9.02214e-05
8.98031e-05
8.93813e-05
8.89555e-05
8.85263e-05
8.80939e-05
8.76588e-05
8.72209e-05
8.67802e-05
8.63354e-05
8.58845e-05
8.54223e-05
8.49383e-05
8.4403e-05
8.37573e-05
8.18364e-05
8.96757e-07
2.47497e-05
5.62747e-05
7.82588e-05
9.22163e-05
0.000101518
0.000109005
0.000116311
0.000124233
0.00013302
0.000142617
0.000152831
0.000163422
0.000174165
0.00018487
0.000195385
0.000205606
0.000215468
0.000224952
0.000234086
0.00024293
0.000251571
0.000260095
0.000268571
0.000277028
0.000285507
0.000293429
0.000299961
0.000305103
0.000308199
0.000308897
0.000306706
0.000302569
0.000295716
0.000286589
0.00027713
0.000268438
0.000256846
0.000252519
0.000227246
0.000241176
0.000254535
0.000266369
0.000271792
0.000278961
0.00028635
0.000294139
0.000302001
0.000310038
0.000318168
0.00032641
0.000334736
0.000343149
0.000351642
0.000360215
0.000368867
0.000377597
0.000386408
0.000395299
0.000404273
0.000413329
0.000422468
0.000431692
0.000441
0.000450391
0.000459867
0.000469423
0.000479061
0.000488777
0.000498568
0.000508433
0.000518368
0.000528369
0.000538432
0.000548552
0.000558726
0.000568947
0.00057921
0.000589511
0.000599842
0.000610198
0.000620573
0.000630962
0.000641357
0.000651753
0.000662144
0.000672523
0.000682887
0.000693229
0.000703545
0.00071383
0.000724072
0.000734259
0.00074437
0.000754369
0.000764195
0.000773734
0.000782802
0.000791151
0.000799473
0.00080764
0.000815681
0.000823581
0.00083134
0.00083895
0.000846407
0.000853703
0.000860835
0.000867797
0.000874584
0.000881192
0.000887616
0.000893851
0.000899894
0.00090574
0.000911386
0.000916828
0.000922061
0.000927084
0.000931892
0.000936483
0.000940855
0.000945003
0.000948927
0.000952623
0.000956093
0.000959335
0.000962349
0.000965123
0.000967682
0.000970079
0.000972109
0.000973787
0.000975326
0.000976741
0.000977855
0.000978725
0.000979358
0.000979757
0.000979923
0.00097986
0.000979568
0.000979052
0.000978315
0.000977359
0.000976189
0.000974808
0.000973221
0.000971432
0.000969447
0.00096727
0.000964907
0.000962362
0.000959643
0.000956755
0.000953704
0.000950496
0.000947136
0.000943627
0.00093997
0.000936145
0.000932043
0.000927098
0.000920261
0.000912601
0.000904658
0.000896583
0.000888431
0.000880222
0.000871972
0.00086369
0.000855382
0.000847048
0.000838683
0.000830263
0.000821739
0.000812958
0.000803677
0.000792388
0.000762121
1.92116e-06
4.1536e-05
9.02515e-05
0.000127186
0.000153863
0.000173148
0.000187755
0.000199836
0.000210868
0.00022172
0.000232797
0.000244199
0.000255859
0.000267636
0.00027937
0.000290917
0.00030216
0.00031302
0.000323461
0.000333489
0.000343153
0.000352527
0.000361699
0.000370743
0.00037969
0.000388457
0.000397068
0.000405468
0.000413434
0.000420793
0.000427116
0.000432365
0.000436806
0.000440727
0.000444671
0.000449112
0.000454189
0.000460285
0.000468634
0.000477442
0.000495649
0.000512791
0.00052903
0.000544387
0.000560185
0.000576129
0.000592321
0.000608669
0.00062519
0.00064186
0.00065868
0.000675642
0.000692745
0.000709988
0.000727371
0.000744896
0.000762564
0.000780375
0.000798331
0.000816432
0.000834678
0.000853069
0.000871606
0.000890288
0.000909113
0.000928077
0.000947176
0.000966407
0.000985763
0.00100524
0.00102483
0.00104452
0.00106432
0.0010842
0.00110416
0.00112419
0.00114428
0.00116441
0.00118459
0.00120479
0.001225
0.00124521
0.00126542
0.00128559
0.00130574
0.00132583
0.00134586
0.00136581
0.00138567
0.00140542
0.00142504
0.00144451
0.0014638
0.00148286
0.00150164
0.00152008
0.00153809
0.00155559
0.00157266
0.0015895
0.00160607
0.00162236
0.00163836
0.00165405
0.00166943
0.00168448
0.00169919
0.00171355
0.00172755
0.00174118
0.00175443
0.0017673
0.00177976
0.00179182
0.00180347
0.0018147
0.0018255
0.00183586
0.00184578
0.00185525
0.00186427
0.00187282
0.00188092
0.00188854
0.00189569
0.00190237
0.00190857
0.0019143
0.00191954
0.00192433
0.00192878
0.00193251
0.00193554
0.00193827
0.00194061
0.00194242
0.00194373
0.00194455
0.00194489
0.00194476
0.00194415
0.00194308
0.00194154
0.00193956
0.00193712
0.00193425
0.00193095
0.00192722
0.00192309
0.00191855
0.00191362
0.00190831
0.00190263
0.00189659
0.00189021
0.00188349
0.00187646
0.00186911
0.00186147
0.00185352
0.00184525
0.00183651
0.00182677
0.00181527
0.00180265
0.00178948
0.00177598
0.00176228
0.00174841
0.00173442
0.00172032
0.00170614
0.00169188
0.00167752
0.00166304
0.0016483
0.00163305
0.00161657
0.00159606
0.00155179
3.10467e-06
5.45197e-05
0.000116489
0.000164715
0.000200182
0.000226421
0.000246506
0.000262832
0.000277111
0.000290459
0.000303504
0.000316535
0.000329617
0.000342699
0.000355675
0.000368433
0.000380874
0.000392937
0.000404604
0.000415909
0.000426942
0.000437838
0.000448769
0.000459919
0.000471446
0.00048345
0.000495965
0.000508931
0.000522198
0.000535583
0.000548917
0.000562179
0.000575488
0.000589035
0.000603202
0.000618232
0.000634366
0.00065176
0.000670096
0.00069053
0.000713092
0.000735657
0.00075812
0.00078059
0.000803245
0.000826066
0.000849082
0.000872282
0.000895669
0.00091924
0.000942995
0.000966932
0.000991052
0.00101536
0.00103985
0.00106453
0.0010894
0.00111446
0.00113972
0.00116517
0.00119082
0.00121665
0.00124268
0.00126889
0.00129528
0.00132184
0.00134858
0.00137548
0.00140253
0.00142972
0.00145705
0.00148449
0.00151205
0.00153971
0.00156745
0.00159527
0.00162313
0.00165104
0.00167897
0.00170691
0.00173484
0.00176275
0.00179061
0.0018184
0.00184612
0.00187374
0.00190123
0.00192859
0.00195578
0.00198278
0.00200956
0.0020361
0.00206236
0.0020883
0.00211387
0.00213901
0.00216368
0.00218789
0.00221169
0.00223513
0.00225819
0.00228085
0.00230311
0.00232494
0.00234633
0.00236726
0.00238772
0.00240769
0.00242716
0.00244611
0.00246454
0.00248242
0.00249975
0.00251652
0.00253271
0.00254832
0.00256333
0.00257774
0.00259153
0.00260471
0.00261725
0.00262916
0.00264043
0.00265104
0.00266101
0.00267031
0.00267896
0.00268695
0.00269427
0.00270107
0.00270726
0.00271245
0.00271675
0.0027207
0.00272399
0.00272658
0.00272848
0.00272972
0.00273029
0.00273021
0.00272947
0.00272809
0.00272607
0.00272343
0.00272016
0.00271629
0.00271183
0.00270677
0.00270115
0.00269496
0.00268823
0.00268096
0.00267318
0.00266489
0.00265612
0.00264688
0.00263719
0.00262706
0.00261651
0.00260553
0.00259411
0.00258212
0.00256921
0.00255492
0.00253956
0.00252351
0.002507
0.00249015
0.00247305
0.00245574
0.00243826
0.00242064
0.00240289
0.00238502
0.00236698
0.00234872
0.00232987
0.00230948
0.00228428
0.00223786
4.2999e-06
6.54625e-05
0.000138532
0.000196126
0.000239316
0.000271677
0.000296596
0.000316706
0.000333931
0.000349583
0.000364479
0.000379069
0.000393552
0.000407976
0.000422308
0.000436488
0.000450459
0.000464195
0.000477709
0.000491067
0.000504388
0.000517842
0.000531628
0.000545956
0.000561004
0.000576894
0.000593665
0.000611274
0.00062961
0.000648541
0.000667963
0.000687839
0.000708218
0.000729219
0.000750978
0.000773588
0.000797131
0.000821677
0.000847161
0.000873413
0.000900453
0.000927784
0.000955292
0.000982961
0.00101083
0.0010389
0.00106718
0.00109567
0.00112438
0.00115329
0.00118243
0.00121177
0.00124134
0.00127111
0.00130109
0.0013313
0.00136173
0.00139238
0.00142326
0.00145436
0.00148568
0.00151721
0.00154895
0.0015809
0.00161305
0.00164538
0.0016779
0.00171058
0.00174343
0.00177642
0.00180954
0.00184278
0.00187613
0.00190956
0.00194307
0.00197662
0.00201022
0.00204383
0.00207744
0.00211102
0.00214457
0.00217805
0.00221145
0.00224474
0.0022779
0.00231091
0.00234375
0.00237639
0.0024088
0.00244096
0.00247285
0.00250442
0.00253565
0.0025665
0.00259695
0.00262697
0.00265656
0.0026857
0.0027144
0.00274266
0.00277047
0.00279781
0.00282465
0.00285099
0.0028768
0.00290207
0.00292677
0.00295089
0.00297442
0.00299734
0.00301963
0.00304127
0.00306227
0.0030826
0.00310225
0.0031212
0.00313945
0.00315699
0.00317381
0.00318989
0.00320522
0.00321981
0.00323364
0.0032467
0.00325899
0.0032705
0.00328123
0.00329119
0.00330039
0.00330905
0.00331673
0.00332338
0.00332907
0.0033343
0.0033387
0.00334229
0.00334507
0.00334706
0.00334826
0.00334868
0.00334834
0.00334722
0.00334536
0.00334274
0.00333939
0.00333531
0.00333052
0.00332502
0.00331884
0.00331198
0.00330447
0.0032963
0.00328751
0.00327811
0.00326812
0.00325755
0.00324643
0.00323476
0.00322258
0.00320988
0.00319664
0.00318279
0.00316812
0.00315238
0.00313569
0.00311827
0.0031003
0.00308191
0.00306318
0.00304417
0.00302494
0.00300551
0.00298591
0.00296617
0.00294626
0.00292607
0.00290529
0.00288296
0.00285588
0.00281194
5.44357e-06
7.46846e-05
0.000157107
0.000222793
0.000272892
0.000310847
0.00034025
0.00036392
0.000383958
0.000401847
0.000418569
0.000434728
0.000450654
0.000466502
0.000482324
0.000498123
0.000513892
0.000529638
0.000545401
0.00056126
0.000577338
0.000593796
0.000610816
0.000628582
0.000647248
0.000666919
0.000687628
0.000709345
0.000731984
0.000755438
0.000779611
0.000804451
0.00082995
0.000856132
0.000883027
0.000910653
0.000939022
0.000968104
0.000997853
0.00102819
0.00105902
0.00109021
0.00112167
0.00115337
0.00118531
0.00121748
0.00124987
0.00128249
0.00131534
0.00134841
0.00138172
0.00141525
0.00144902
0.00148302
0.00151727
0.00155175
0.00158646
0.00162139
0.00165654
0.00169191
0.0017275
0.00176329
0.00179929
0.00183549
0.00187187
0.00190843
0.00194515
0.00198204
0.00201906
0.00205622
0.00209349
0.00213087
0.00216832
0.00220585
0.00224343
0.00228104
0.00231866
0.00235628
0.00239387
0.00243142
0.0024689
0.00250629
0.00254356
0.00258071
0.0026177
0.0026545
0.00269111
0.00272748
0.0027636
0.00279943
0.00283496
0.00287015
0.00290497
0.00293941
0.00297343
0.00300702
0.00304017
0.00307284
0.00310505
0.00313678
0.003168
0.00319871
0.00322888
0.00325849
0.00328752
0.00331596
0.00334377
0.00337096
0.00339749
0.00342335
0.00344852
0.003473
0.00349675
0.00351978
0.00354207
0.00356359
0.00358435
0.00360433
0.00362351
0.00364189
0.00365945
0.0036762
0.00369211
0.00370719
0.00372141
0.00373479
0.00374732
0.00375899
0.00376996
0.00378014
0.00378928
0.0037973
0.00380445
0.00381094
0.00381653
0.00382123
0.00382506
0.00382801
0.0038301
0.00383134
0.00383172
0.00383126
0.00382997
0.00382786
0.00382493
0.0038212
0.00381667
0.00381137
0.0038053
0.00379847
0.00379091
0.00378262
0.00377362
0.00376394
0.00375358
0.00374257
0.00373092
0.00371866
0.0037058
0.00369235
0.00367831
0.00366362
0.00364818
0.00363186
0.00361468
0.00359679
0.00357831
0.00355934
0.00353997
0.00352027
0.00350028
0.00348007
0.00345966
0.0034391
0.00341839
0.00339746
0.00337605
0.00335325
0.00332625
0.00328643
6.49373e-06
8.23259e-05
0.000172562
0.000245277
0.000301595
0.000344728
0.000378379
0.000405496
0.000428313
0.000448454
0.000467047
0.000484831
0.000502262
0.000519601
0.000536986
0.000554486
0.000572141
0.000589991
0.000608087
0.00062651
0.000645365
0.000664782
0.000684904
0.000705869
0.000727795
0.000750753
0.000774768
0.000799817
0.000825834
0.000852735
0.000880439
0.000908881
0.000938023
0.000967841
0.000998318
0.00102944
0.00106118
0.00109351
0.00112639
0.00115976
0.00119356
0.00122772
0.00126219
0.00129694
0.00133194
0.00136719
0.00140268
0.00143839
0.00147434
0.00151051
0.00154691
0.00158353
0.00162038
0.00165746
0.00169477
0.0017323
0.00177005
0.00180801
0.00184618
0.00188456
0.00192315
0.00196192
0.00200089
0.00204004
0.00207937
0.00211885
0.00215849
0.00219827
0.00223818
0.00227821
0.00231833
0.00235854
0.00239883
0.00243916
0.00247953
0.00251992
0.00256032
0.00260069
0.00264102
0.00268129
0.00272148
0.00276157
0.00280153
0.00284135
0.002881
0.00292045
0.00295969
0.00299869
0.00303742
0.00307585
0.00311397
0.00315175
0.00318916
0.00322617
0.00326278
0.00329895
0.00333467
0.00336992
0.00340468
0.00343894
0.00347268
0.00350588
0.00353851
0.00357056
0.00360201
0.00363283
0.003663
0.00369252
0.00372134
0.00374947
0.00377688
0.00380356
0.00382948
0.00385464
0.00387901
0.00390259
0.00392537
0.00394732
0.00396844
0.00398871
0.00400813
0.00402669
0.00404437
0.00406117
0.00407708
0.00409209
0.0041062
0.00411944
0.00413201
0.00414352
0.00415409
0.00416347
0.00417206
0.00417981
0.00418664
0.00419253
0.00419749
0.00420154
0.00420468
0.00420692
0.00420826
0.00420872
0.00420829
0.00420699
0.00420483
0.00420181
0.00419795
0.00419326
0.00418776
0.00418144
0.00417434
0.00416645
0.0041578
0.00414841
0.00413829
0.00412745
0.00411592
0.00410372
0.00409086
0.00407736
0.00406321
0.0040484
0.00403287
0.00401655
0.00399946
0.00398167
0.00396326
0.00394433
0.00392495
0.00390519
0.0038851
0.00386476
0.00384421
0.00382351
0.0038027
0.00378174
0.00376043
0.00373802
0.00371212
0.00367642
7.42073e-06
8.85018e-05
0.000185156
0.00026393
0.000325818
0.000373744
0.000411437
0.000441917
0.000467509
0.000489945
0.00051047
0.000529942
0.000548927
0.000567784
0.000586732
0.000605902
0.000625379
0.000645228
0.000665509
0.000686291
0.000707657
0.0007297
0.000752522
0.000776222
0.000800882
0.000826538
0.000853201
0.000880852
0.000909441
0.000938906
0.000969178
0.0010002
0.00103191
0.00106428
0.00109727
0.00113085
0.00116498
0.00119963
0.00123477
0.00127034
0.00130631
0.00134264
0.00137928
0.00141621
0.00145341
0.00149086
0.00152853
0.00156643
0.00160454
0.00164286
0.0016814
0.00172014
0.00175909
0.00179825
0.00183762
0.00187719
0.00191695
0.00195691
0.00199707
0.00203741
0.00207793
0.00211863
0.00215951
0.00220054
0.00224174
0.00228308
0.00232456
0.00236617
0.0024079
0.00244973
0.00249166
0.00253366
0.00257573
0.00261785
0.00266
0.00270217
0.00274433
0.00278648
0.00282859
0.00287064
0.00291262
0.00295449
0.00299625
0.00303787
0.00307932
0.00312059
0.00316165
0.00320247
0.00324304
0.00328332
0.0033233
0.00336295
0.00340224
0.00344116
0.00347967
0.00351777
0.00355542
0.0035926
0.0036293
0.0036655
0.00370117
0.0037363
0.00377085
0.00380481
0.00383816
0.00387087
0.00390293
0.00393431
0.00396499
0.00399496
0.0040242
0.00405268
0.0040804
0.00410733
0.00413346
0.00415878
0.00418326
0.0042069
0.00422969
0.00425161
0.00427265
0.0042928
0.00431205
0.00433039
0.00434782
0.00436432
0.00437988
0.00439465
0.00440857
0.00442144
0.00443336
0.00444412
0.00445411
0.00446314
0.00447122
0.00447835
0.00448452
0.00448976
0.00449406
0.00449743
0.00449988
0.00450141
0.00450204
0.00450176
0.0045006
0.00449855
0.00449563
0.00449185
0.00448721
0.00448174
0.00447544
0.00446833
0.00446041
0.00445171
0.00444224
0.00443201
0.00442105
0.00440937
0.00439698
0.00438391
0.00437015
0.00435571
0.00434056
0.00432467
0.00430805
0.00429074
0.0042728
0.00425431
0.00423533
0.00421592
0.00419617
0.00417613
0.00415587
0.00413547
0.00411499
0.00409444
0.00407369
0.00405211
0.0040278
0.00399641
8.20648e-06
9.33262e-05
0.000195115
0.000279041
0.000345861
0.00039819
0.00043971
0.000473456
0.000501807
0.00052657
0.000549078
0.000570283
0.000590849
0.000611216
0.000631674
0.000652408
0.00067355
0.00069521
0.000717426
0.00074025
0.000763738
0.000787947
0.000812929
0.000838712
0.000865379
0.000892997
0.000921577
0.000951101
0.000981527
0.0010128
0.00104487
0.00107767
0.00111116
0.00114529
0.00118002
0.00121531
0.00125112
0.00128741
0.00132415
0.00136129
0.00139875
0.00143648
0.0014745
0.0015128
0.00155139
0.00159022
0.00162925
0.00166848
0.0017079
0.0017475
0.00178729
0.00182725
0.0018674
0.00190772
0.00194823
0.0019889
0.00202976
0.00207078
0.00211198
0.00215334
0.00219487
0.00223656
0.00227841
0.00232041
0.00236256
0.00240485
0.00244727
0.00248983
0.0025325
0.00257527
0.00261815
0.00266111
0.00270415
0.00274725
0.0027904
0.00283358
0.00287678
0.00291998
0.00296316
0.00300631
0.00304941
0.00309243
0.00313536
0.00317817
0.00322085
0.00326337
0.0033057
0.00334783
0.00338973
0.00343138
0.00347275
0.00351381
0.00355455
0.00359493
0.00363494
0.00367454
0.00371373
0.00375246
0.00379073
0.0038285
0.00386575
0.00390246
0.00393861
0.00397417
0.00400912
0.00404344
0.0040771
0.00411008
0.00414237
0.00417393
0.00420476
0.00423483
0.00426413
0.00429263
0.00432032
0.00434718
0.00437321
0.00439838
0.00442268
0.0044461
0.00446862
0.00449025
0.00451096
0.00453074
0.0045496
0.00456751
0.00458448
0.00460067
0.00461586
0.00463009
0.00464334
0.00465553
0.00466686
0.00467721
0.00468658
0.00469498
0.00470242
0.0047089
0.00471444
0.00471904
0.00472271
0.00472544
0.00472726
0.00472816
0.00472815
0.00472725
0.00472546
0.00472279
0.00471926
0.00471486
0.00470962
0.00470354
0.00469663
0.00468891
0.0046804
0.00467109
0.00466102
0.00465019
0.00463862
0.00462633
0.00461333
0.00459962
0.00458519
0.00457004
0.00455417
0.00453762
0.00452042
0.00450264
0.00448435
0.00446559
0.00444646
0.00442701
0.00440733
0.00438751
0.00436764
0.00434777
0.00432783
0.00430731
0.00428473
0.00425757
8.84136e-06
9.69085e-05
0.000202639
0.00029096
0.000361973
0.000418316
0.000463425
0.000500311
0.000531373
0.000558461
0.000582971
0.000605928
0.000628072
0.000649938
0.000671838
0.000693966
0.000716433
0.000739272
0.000762709
0.000786837
0.000811714
0.000837385
0.000863893
0.000891285
0.000919581
0.000948777
0.000978874
0.00100983
0.00104162
0.00107417
0.00110746
0.00114144
0.00117605
0.00121125
0.001247
0.00128326
0.00131998
0.00135713
0.00139467
0.00143257
0.00147083
0.00150942
0.00154829
0.00158739
0.00162662
0.00166606
0.00170566
0.0017454
0.00178529
0.00182531
0.00186549
0.0019058
0.00194626
0.00198688
0.00202764
0.00206855
0.00210962
0.00215083
0.00219221
0.00223374
0.00227543
0.00231727
0.00235927
0.00240143
0.00244374
0.00248621
0.00252882
0.00257158
0.00261448
0.00265752
0.00270067
0.00274395
0.00278734
0.00283082
0.00287439
0.00291803
0.00296173
0.00300548
0.00304925
0.00309303
0.00313681
0.00318056
0.00322426
0.00326789
0.00331143
0.00335485
0.00339814
0.00344127
0.0034842
0.00352693
0.00356941
0.00361163
0.00365356
0.00369517
0.00373644
0.00377733
0.00381783
0.00385791
0.00389753
0.00393669
0.00397534
0.00401346
0.00405104
0.00408804
0.00412444
0.00416021
0.00419534
0.00422979
0.00426354
0.00429658
0.00432888
0.00436043
0.00439119
0.00442116
0.00445032
0.00447864
0.00450612
0.00453274
0.00455848
0.00458334
0.00460729
0.00463033
0.00465245
0.00467363
0.00469388
0.00471317
0.00473156
0.00474904
0.00476556
0.00478114
0.00479574
0.00480936
0.00482207
0.00483375
0.00484444
0.00485415
0.00486291
0.0048707
0.00487755
0.00488346
0.00488842
0.00489246
0.00489557
0.00489777
0.00489905
0.00489944
0.00489893
0.00489754
0.00489527
0.00489213
0.00488813
0.00488329
0.00487761
0.00487109
0.00486376
0.00485562
0.00484669
0.00483698
0.00482649
0.00481526
0.00480328
0.00479057
0.00477713
0.00476296
0.00474807
0.00473249
0.00471626
0.00469941
0.00468201
0.00466412
0.00464581
0.00462717
0.00460828
0.00458924
0.00457016
0.00455113
0.00453212
0.00451275
0.00449186
0.00446811
9.32419e-06
9.93803e-05
0.000207981
0.000299897
0.000374472
0.000434392
0.000482807
0.000522663
0.000556337
0.000585702
0.000612215
0.000636877
0.000660406
0.000683256
0.000705981
0.000728927
0.00075232
0.000776358
0.00080112
0.000826606
0.000852838
0.000879846
0.000907655
0.000936285
0.000965737
0.000995989
0.00102701
0.00105878
0.00109128
0.00112447
0.00115831
0.00119277
0.0012278
0.00126336
0.0012994
0.00133588
0.00137278
0.00141004
0.00144764
0.00148555
0.00152373
0.00156215
0.00160079
0.00163961
0.00167875
0.00171806
0.00175745
0.00179688
0.00183638
0.00187596
0.00191565
0.00195544
0.00199535
0.00203538
0.00207554
0.00211583
0.00215627
0.00219686
0.00223761
0.00227852
0.00231961
0.00236087
0.00240231
0.00244394
0.00248575
0.00252776
0.00256996
0.00261235
0.00265493
0.0026977
0.00274066
0.00278379
0.00282709
0.00287055
0.00291416
0.00295791
0.00300178
0.00304577
0.00308985
0.003134
0.00317821
0.00322246
0.00326672
0.00331098
0.0033552
0.00339937
0.00344346
0.00348743
0.00353128
0.00357496
0.00361844
0.00366171
0.00370473
0.00374747
0.0037899
0.003832
0.00387373
0.00391507
0.00395598
0.00399644
0.00403643
0.0040759
0.00411484
0.00415322
0.00419101
0.00422819
0.00426472
0.00430059
0.00433577
0.00437024
0.00440397
0.00443695
0.00446915
0.00450055
0.00453114
0.0045609
0.0045898
0.00461785
0.00464501
0.00467128
0.00469664
0.00472109
0.0047446
0.00476718
0.00478882
0.00480951
0.00482926
0.00484807
0.00486594
0.0048829
0.00489889
0.00491393
0.00492809
0.00494112
0.00495316
0.00496424
0.00497436
0.00498353
0.00499176
0.00499905
0.0050054
0.00501082
0.00501533
0.00501892
0.00502161
0.0050234
0.0050243
0.00502432
0.00502346
0.00502173
0.00501915
0.00501571
0.00501143
0.0050063
0.00500035
0.00499358
0.00498599
0.00497761
0.00496843
0.00495848
0.00494775
0.00493627
0.00492404
0.00491107
0.00489736
0.00488295
0.00486785
0.00485211
0.00483579
0.00481894
0.00480164
0.00478396
0.00476601
0.0047479
0.00472975
0.00471166
0.00469365
0.00467544
0.00465614
0.00463518
9.66139e-06
0.000100885
0.000211382
0.00030609
0.000383632
0.000446678
0.000498084
0.000540709
0.000576826
0.000608192
0.000636105
0.000661901
0.000686487
0.000710591
0.000734636
0.000758853
0.000783442
0.000808541
0.00083418
0.000860454
0.000887417
0.000915099
0.000943516
0.000972672
0.00100256
0.00103316
0.00106446
0.00109641
0.00112898
0.00116214
0.00119586
0.00123009
0.00126481
0.00129997
0.00133552
0.00137145
0.00140771
0.00144426
0.00148109
0.00151814
0.00155538
0.00159277
0.00163039
0.00166832
0.00170649
0.00174469
0.00178294
0.00182119
0.00185939
0.00189762
0.00193591