/*--------------------------------*- C++ -*----------------------------------*\
  =========                 |
  \\      /  F ield         | OpenFOAM: The Open Source CFD Toolbox
   \\    /   O peration     | Website:  https://openfoam.org
    \\  /    A nd           | Version:  8
     \\/     M anipulation  |
\*---------------------------------------------------------------------------*/
FoamFile
{
    version     2.0;
    format      ascii;
    class       volScalarField;
    location    "280";
    object      p;
}
// * * * * * * * * * * * * * * * * * * * * * * * * * * * * * * * * * * * * * //

dimensions      [0 2 -2 0 0 0 0];

internalField   nonuniform List<scalar> 
12225
(
-1.38981
-3.57842
-4.67853
-4.99933
-5.1808
-5.35011
-5.48198
-5.5776
-5.65481
-5.72297
-5.78394
-5.84007
-5.89154
-5.9402
-5.98659
-6.02703
-6.0776
-6.06083
-4.55324
-5.32173
-5.48227
-5.39018
-5.37785
-5.44597
-5.52386
-5.59007
-5.65027
-5.70846
-5.76403
-5.81618
-5.86568
-5.91292
-5.95902
-6.00112
-6.04953
-6.08722
-4.95437
-4.93941
-5.06685
-5.14536
-5.24045
-5.36087
-5.46845
-5.55373
-5.62613
-5.69221
-5.75325
-5.80935
-5.86204
-5.91176
-5.96009
-6.00519
-6.05598
-6.10109
-4.83243
-4.77556
-5.01725
-5.1757
-5.27763
-5.38407
-5.4821
-5.56257
-5.63187
-5.69565
-5.7551
-5.81023
-5.86226
-5.91162
-5.95971
-6.00588
-6.05532
-6.1035
-4.82208
-4.84655
-5.0747
-5.21639
-5.30018
-5.39247
-5.48402
-5.56214
-5.63021
-5.69309
-5.75202
-5.80702
-5.85907
-5.90868
-5.95706
-6.0042
-6.05304
-6.10257
-4.88002
-4.929
-5.10336
-5.22739
-5.30907
-5.39712
-5.48547
-5.56236
-5.62981
-5.69212
-5.75064
-5.80548
-5.85744
-5.90713
-5.95553
-6.00294
-6.05112
-6.10011
-4.94032
-4.9846
-5.11987
-5.23631
-5.32021
-5.40456
-5.48875
-5.56374
-5.63027
-5.69181
-5.74974
-5.80424
-5.85596
-5.90552
-5.95372
-6.00098
-6.04834
-6.09596
-4.99382
-5.0315
-5.14153
-5.24993
-5.33307
-5.41286
-5.49253
-5.56532
-5.63075
-5.69144
-5.74867
-5.80273
-5.85412
-5.90342
-5.95126
-5.99807
-6.04444
-6.09041
-5.0435
-5.07666
-5.16765
-5.2657
-5.3459
-5.42144
-5.49682
-5.56721
-5.63135
-5.69103
-5.74745
-5.80093
-5.85185
-5.90073
-5.94804
-5.99413
-6.03937
-6.08364
-5.09048
-5.11976
-5.19533
-5.28262
-5.35893
-5.43062
-5.50191
-5.56964
-5.63221
-5.69073
-5.74617
-5.79891
-5.84921
-5.89747
-5.94407
-5.98926
-6.03326
-6.07585
-5.13471
-5.16022
-5.22346
-5.3007
-5.37247
-5.4404
-5.50777
-5.57264
-5.63341
-5.69059
-5.74493
-5.79675
-5.84625
-5.89373
-5.93947
-5.98362
-6.02633
-6.0673
-5.17264
-5.19499
-5.24923
-5.31811
-5.38529
-5.44976
-5.5137
-5.57587
-5.63483
-5.69064
-5.74384
-5.79468
-5.84332
-5.88995
-5.93477
-5.97789
-6.01939
-6.05897
-5.20764
-5.22737
-5.27422
-5.33564
-5.39818
-5.45924
-5.51991
-5.57941
-5.63646
-5.69083
-5.7428
-5.79257
-5.84025
-5.88596
-5.9298
-5.97186
-6.01216
-6.05045
-5.2443
-5.26149
-5.30153
-5.35556
-5.41291
-5.4701
-5.52725
-5.58376
-5.63855
-5.69116
-5.74164
-5.7901
-5.83658
-5.88113
-5.9238
-5.96461
-6.00359
-6.04052
-5.28134
-5.29612
-5.33012
-5.37722
-5.4291
-5.48208
-5.53553
-5.58882
-5.64103
-5.69157
-5.74029
-5.78718
-5.83221
-5.87538
-5.91668
-5.9561
-5.99365
-6.02917
-5.31678
-5.32941
-5.35834
-5.39928
-5.44582
-5.4945
-5.54419
-5.59418
-5.64361
-5.69184
-5.73857
-5.78367
-5.82705
-5.86864
-5.90841
-5.94634
-5.98241
-6.01652
-5.34774
-5.35861
-5.38355
-5.41947
-5.4613
-5.50596
-5.55213
-5.59895
-5.64562
-5.69147
-5.7361
-5.77929
-5.82089
-5.86082
-5.899
-5.93539
-5.96999
-6.00274
-5.36984
-5.37948
-5.40172
-5.43414
-5.47252
-5.51407
-5.55741
-5.60163
-5.64593
-5.68963
-5.73231
-5.77368
-5.81358
-5.85189
-5.88854
-5.92347
-5.9567
-5.98819
-5.37619
-5.38534
-5.40652
-5.43761
-5.47463
-5.5148
-5.55672
-5.59951
-5.6424
-5.68471
-5.72602
-5.76603
-5.8046
-5.84161
-5.877
-5.91074
-5.94284
-5.97331
-5.35972
-5.36948
-5.39204
-5.42506
-5.46397
-5.50555
-5.54838
-5.59173
-5.63492
-5.67728
-5.7184
-5.75808
-5.79618
-5.83265
-5.86744
-5.90055
-5.93201
-5.96188
-5.33264
-5.34342
-5.36865
-5.4056
-5.44828
-5.49268
-5.53763
-5.5827
-5.62715
-5.67031
-5.71186
-5.75174
-5.78988
-5.82626
-5.86086
-5.89373
-5.92492
-5.95451
-5.29726
-5.30906
-5.33837
-5.38189
-5.43007
-5.47794
-5.52561
-5.57318
-5.61955
-5.66395
-5.70628
-5.74663
-5.78504
-5.8215
-5.85608
-5.88885
-5.91989
-5.9493
-5.2566
-5.26847
-5.30289
-5.35609
-5.41154
-5.46338
-5.51413
-5.56442
-5.61276
-5.65846
-5.7017
-5.74269
-5.78149
-5.81815
-5.8528
-5.88557
-5.91655
-5.9459
-5.21281
-5.22377
-5.2655
-5.32985
-5.39194
-5.4485
-5.50399
-5.55769
-5.60779
-5.65444
-5.69838
-5.73988
-5.77896
-5.81573
-5.8504
-5.88312
-5.91404
-5.94329
-5.16583
-5.17132
-5.23393
-5.31207
-5.37392
-5.43205
-5.49306
-5.55127
-5.60363
-5.65152
-5.69636
-5.73845
-5.77781
-5.81468
-5.84933
-5.88199
-5.91283
-5.94205
-5.12249
-5.08614
-5.19564
-5.30654
-5.36869
-5.42387
-5.48594
-5.54553
-5.5986
-5.64715
-5.6927
-5.73533
-5.77503
-5.81209
-5.84685
-5.87958
-5.91046
-5.93969
-5.13669
-4.97772
-5.1066
-5.26061
-5.35062
-5.42187
-5.49067
-5.55143
-5.60408
-5.6522
-5.69731
-5.73941
-5.77853
-5.81503
-5.84925
-5.88148
-5.91195
-5.94091
-5.25987
-5.07947
-5.0936
-5.16566
-5.25394
-5.35305
-5.44361
-5.51724
-5.57879
-5.63376
-5.68391
-5.72952
-5.77116
-5.80949
-5.84503
-5.87822
-5.90952
-5.93956
-4.96724
-5.55831
-5.6471
-5.52278
-5.46836
-5.4954
-5.54225
-5.58535
-5.62675
-5.66877
-5.71011
-5.74928
-5.78607
-5.82064
-5.85305
-5.88346
-5.91208
-5.9407
-1.97791
-3.7412
-4.74585
-5.04492
-5.19401
-5.33752
-5.45142
-5.53224
-5.59632
-5.65302
-5.70412
-5.75
-5.79152
-5.82959
-5.86473
-5.89674
-5.92546
-5.94914
-6.80876
-6.80879
-6.80915
-6.80991
-6.8109
-6.81204
-6.81336
-6.81487
-6.81662
-6.81865
-6.82102
-6.82375
-6.82692
-6.83055
-6.8347
-6.83941
-6.84474
-6.85072
-6.85739
-6.8648
-6.87298
-6.88196
-6.89179
-6.9025
-6.91415
-6.92683
-6.94063
-6.95557
-6.97129
-6.98733
-7.00424
-7.02335
-7.04411
-7.06575
-7.08904
-7.11312
-7.1368
-7.16052
-7.18542
-7.21384
-7.24453
-7.27056
-7.29202
-7.31616
-7.34332
-7.37133
-7.40015
-7.42951
-7.45926
-7.48925
-7.51936
-7.54948
-7.57951
-7.60934
-7.63888
-7.66803
-7.69669
-7.72474
-7.75208
-7.7786
-7.80417
-7.82867
-7.85196
-7.87391
-7.89437
-7.91321
-7.93024
-7.94532
-7.95828
-7.96895
-7.97714
-7.98269
-7.98539
-7.98506
-7.98151
-7.97456
-7.96398
-7.9496
-7.93121
-7.90862
-7.88163
-7.85004
-7.81366
-7.77232
-7.7258
-7.67396
-7.61659
-7.55354
-7.48462
-7.4097
-7.32865
-7.24134
-7.14761
-7.04734
-6.94051
-6.82723
-6.70755
-6.58119
-6.4476
-6.30672
-6.15876
-6.00378
-5.84181
-5.67287
-5.49699
-5.31421
-5.12459
-4.92821
-4.72515
-4.51551
-4.29943
-4.07702
-3.84845
-3.61388
-3.37348
-3.12745
-2.87599
-2.61932
-2.35768
-2.09133
-1.82051
-1.54549
-1.26656
-0.983995
-0.698091
-0.409164
-0.117529
0.176492
0.472587
0.77044
1.06971
1.37001
1.67101
1.97238
2.2738
2.57492
2.8754
3.1749
3.4731
3.76968
4.06433
4.35676
4.64668
4.9338
5.21786
5.49859
5.77576
6.04914
6.31851
6.58368
6.84446
7.10068
7.3522
7.59886
7.84056
8.07718
8.30863
8.53483
8.75572
8.97124
9.18138
9.38611
9.58555
9.77968
9.96824
10.1511
10.3284
10.5
10.6662
10.8268
10.9821
11.1319
11.2765
11.4159
11.5504
11.6805
11.8075
11.9327
12.0677
12.2091
-6.80768
-6.80796
-6.80845
-6.80914
-6.8098
-6.81038
-6.811
-6.81181
-6.8129
-6.81434
-6.81616
-6.8184
-6.82107
-6.82421
-6.82785
-6.83202
-6.83675
-6.84209
-6.84809
-6.85479
-6.86222
-6.87044
-6.87949
-6.88938
-6.90015
-6.9118
-6.9243
-6.93752
-6.95148
-6.96678
-6.9841
-7.0021
-7.01985
-7.03852
-7.05758
-7.07653
-7.09656
-7.11886
-7.1434
-7.16863
-7.19249
-7.22079
-7.25579
-7.28962
-7.32001
-7.34983
-7.37954
-7.40933
-7.43922
-7.4692
-7.49921
-7.52917
-7.55901
-7.58866
-7.61801
-7.64698
-7.67547
-7.70339
-7.73061
-7.75704
-7.78256
-7.80703
-7.83034
-7.85234
-7.87289
-7.89185
-7.90905
-7.92435
-7.93756
-7.94853
-7.95707
-7.963
-7.96614
-7.96631
-7.9633
-7.95693
-7.947
-7.93331
-7.91566
-7.89387
-7.86772
-7.83704
-7.80161
-7.76127
-7.71582
-7.66509
-7.6089
-7.54708
-7.47947
-7.40592
-7.32631
-7.2405
-7.14835
-7.04974
-6.94455
-6.83263
-6.71377
-6.5879
-6.45522
-6.31578
-6.16943
-6.01612
-5.85586
-5.68865
-5.5145
-5.33347
-5.1456
-4.95096
-4.74964
-4.54174
-4.32737
-4.10668
-3.8798
-3.64689
-3.40814
-3.16372
-2.91385
-2.65873
-2.39861
-2.13371
-1.86432
-1.59068
-1.31306
-1.03176
-0.74706
-0.459276
-0.168721
0.124283
0.419428
0.716404
1.01487
1.31446
1.6148
1.91561
2.21654
2.51725
2.8174
3.11666
3.4147
3.7112
4.00586
4.29838
4.58846
4.87582
5.1602
5.44133
5.71896
5.99287
6.26284
6.52868
6.79018
7.04718
7.29953
7.54708
7.78971
8.02731
8.25978
8.48705
8.70903
8.92572
9.13709
9.3431
9.5435
9.73808
9.92693
10.1102
10.2878
10.4599
10.6265
10.7877
10.9435
11.0939
11.2391
11.3792
11.5146
11.6458
11.7744
11.9014
12.0393
12.1753
-6.80395
-6.80486
-6.80617
-6.80729
-6.80799
-6.80843
-6.80882
-6.80936
-6.81017
-6.81134
-6.81291
-6.81491
-6.81738
-6.82032
-6.82378
-6.82778
-6.83236
-6.83756
-6.84342
-6.84999
-6.85731
-6.86543
-6.87438
-6.8842
-6.89491
-6.90654
-6.91907
-6.93247
-6.94674
-6.96209
-6.97868
-6.99623
-7.01451
-7.03381
-7.05407
-7.07516
-7.09736
-7.12105
-7.14586
-7.17043
-7.19416
-7.21925
-7.24712
-7.27605
-7.30492
-7.33395
-7.36313
-7.39245
-7.42186
-7.45134
-7.48082
-7.51026
-7.53958
-7.56871
-7.59757
-7.62607
-7.65412
-7.68162
-7.70848
-7.73457
-7.75978
-7.784
-7.80709
-7.82893
-7.84936
-7.86824
-7.88542
-7.90074
-7.91404
-7.92514
-7.93388
-7.94006
-7.94352
-7.94405
-7.94148
-7.93561
-7.92624
-7.91317
-7.89622
-7.87518
-7.84986
-7.82007
-7.78561
-7.74629
-7.70194
-7.65237
-7.5974
-7.53687
-7.47061
-7.39847
-7.32031
-7.23601
-7.14543
-7.04845
-6.94499
-6.83489
-6.71795
-6.59407
-6.46333
-6.32578
-6.18137
-6.03006
-5.87182
-5.70665
-5.53459
-5.35564
-5.16988
-4.97736
-4.77817
-4.5724
-4.36016
-4.14159
-3.91682
-3.68602
-3.44935
-3.207
-2.95916
-2.70605
-2.4479
-2.18495
-1.91744
-1.64565
-1.36984
-1.09028
-0.807268
-0.521111
-0.232123
0.059379
0.353089
0.648702
0.945877
1.24425
1.54347
1.84324
2.14321
2.44304
2.74241
3.04097
3.3384
3.63438
3.92861
4.22078
4.51061
4.7978
5.08208
5.3632
5.6409
5.91496
6.18515
6.45127
6.71312
6.97054
7.22336
7.47144
7.71465
7.95288
8.18601
8.41396
8.63666
8.85402
9.066
9.27258
9.47372
9.6694
9.85961
10.0443
10.2233
10.3968
10.5648
10.7273
10.8844
11.0362
11.1828
11.3243
11.4614
11.5943
11.7252
11.8539
11.994
12.1181
-6.7978
-6.79948
-6.80203
-6.8041
-6.80541
-6.80626
-6.80694
-6.80766
-6.80855
-6.80972
-6.81126
-6.81322
-6.81562
-6.81852
-6.82193
-6.82588
-6.83042
-6.83558
-6.8414
-6.84791
-6.85516
-6.86318
-6.87201
-6.88169
-6.89223
-6.90366
-6.91597
-6.92917
-6.94327
-6.95837
-6.9745
-6.99162
-7.00968
-7.02874
-7.04882
-7.06994
-7.09218
-7.11562
-7.14012
-7.16514
-7.19032
-7.216
-7.24257
-7.26987
-7.29763
-7.32579
-7.35426
-7.38295
-7.41182
-7.44078
-7.46979
-7.49877
-7.52766
-7.55638
-7.58486
-7.61301
-7.64074
-7.66796
-7.69456
-7.72044
-7.74548
-7.76956
-7.79255
-7.81433
-7.83474
-7.85365
-7.8709
-7.88633
-7.89978
-7.91109
-7.92007
-7.92654
-7.93033
-7.93125
-7.9291
-7.92371
-7.91486
-7.90237
-7.88603
-7.86566
-7.84105
-7.81202
-7.77837
-7.73991
-7.69646
-7.64783
-7.59385
-7.53435
-7.46916
-7.39813
-7.32112
-7.23798
-7.14858
-7.0528
-6.95054
-6.84166
-6.72606
-6.60364
-6.4744
-6.33835
-6.19545
-6.04567
-5.88898
-5.72538
-5.5549
-5.37756
-5.1934
-5.0025
-4.80492
-4.60078
-4.39016
-4.17321
-3.95005
-3.72085
-3.48576
-3.24498
-2.99869
-2.74711
-2.49046
-2.22898
-1.96292
-1.69253
-1.41808
-1.13984
-0.858118
-0.573199
-0.285402
0.00495897
0.297586
0.592167
0.888351
1.18579
1.48416
1.78313
2.08238
2.38155
2.68031
2.97833
3.27529
3.57088
3.86477
4.15668
4.4463
4.73336
5.01757
5.29868
5.57643
5.8506
6.12095
6.38729
6.64941
6.90715
7.16033
7.40882
7.65247
7.89115
8.12478
8.35327
8.57654
8.79451
9.00713
9.21437
9.41621
9.61271
9.80383
9.98943
10.1695
10.344
10.5129
10.6764
10.8344
10.9872
11.1347
11.2773
11.4154
11.5495
11.6813
11.8099
11.9482
12.0584
-6.79068
-6.79318
-6.79719
-6.80047
-6.80262
-6.80412
-6.80532
-6.80645
-6.80767
-6.8091
-6.81085
-6.81298
-6.81554
-6.81859
-6.82214
-6.82624
-6.83093
-6.83623
-6.84219
-6.84884
-6.85621
-6.86435
-6.87329
-6.88305
-6.89367
-6.90517
-6.91757
-6.93089
-6.94513
-6.96035
-6.97657
-6.99377
-7.01194
-7.03108
-7.05119
-7.07225
-7.09429
-7.11727
-7.14112
-7.16568
-7.19083
-7.21657
-7.24289
-7.26971
-7.29694
-7.32455
-7.35248
-7.38066
-7.40905
-7.43757
-7.46616
-7.49475
-7.52328
-7.55167
-7.57985
-7.60773
-7.63521
-7.66222
-7.68863
-7.71436
-7.73928
-7.76327
-7.78621
-7.80796
-7.82839
-7.84734
-7.86467
-7.88021
-7.89381
-7.90529
-7.91448
-7.9212
-7.92527
-7.9265
-7.9247
-7.91968
-7.91124
-7.89919
-7.88333
-7.86346
-7.83939
-7.81093
-7.77787
-7.74004
-7.69724
-7.6493
-7.59604
-7.53728
-7.47285
-7.40261
-7.32642
-7.24412
-7.15558
-7.06067
-6.9593
-6.85134
-6.7367
-6.6153
-6.48712
-6.35212
-6.21027
-6.06155
-5.90593
-5.74342
-5.57402
-5.39777
-5.21471
-5.02492
-4.82845
-4.62541
-4.4159
-4.20005
-3.97798
-3.74987
-3.51586
-3.27614
-3.0309
-2.78035
-2.52471
-2.26423
-1.99914
-1.72969
-1.45615
-1.17881
-0.897933
-0.61384
-0.326835
-0.0372266
0.254693
0.548595
0.844125
1.14095
1.43877
1.73725
2.03603
2.33479
2.63318
2.93088
3.22757
3.52293
3.81665
4.10843
4.39797
4.68499
4.96921
5.25037
5.52822
5.80253
6.07306
6.33962
6.602
6.86003
7.11354
7.36237
7.6064
7.84552
8.07961
8.30857
8.53234
8.75082
8.96397
9.17174
9.37409
9.57105
9.76262
9.94869
10.1292
10.3042
10.4737
10.6377
10.7963
10.9496
11.0977
11.2408
11.3794
11.5137
11.6454
11.7725
11.9073
12.0047
-6.78403
-6.78731
-6.7927
-6.79717
-6.80023
-6.80246
-6.80429
-6.80595
-6.80763
-6.80947
-6.81158
-6.81405
-6.81693
-6.82028
-6.82413
-6.82853
-6.83352
-6.83912
-6.84537
-6.85232
-6.85999
-6.86842
-6.87764
-6.88768
-6.89858
-6.91035
-6.92303
-6.93662
-6.95114
-6.96661
-6.98303
-7.00039
-7.01869
-7.03791
-7.05805
-7.07908
-7.10098
-7.1237
-7.14717
-7.17131
-7.19607
-7.22142
-7.24732
-7.2737
-7.3005
-7.32767
-7.35518
-7.38295
-7.41095
-7.4391
-7.46736
-7.49564
-7.52389
-7.55203
-7.57998
-7.60766
-7.63498
-7.66185
-7.68816
-7.7138
-7.73867
-7.76263
-7.78558
-7.80736
-7.82784
-7.84688
-7.86432
-7.88
-7.89376
-7.90543
-7.91483
-7.92178
-7.9261
-7.9276
-7.9261
-7.92139
-7.91329
-7.90159
-7.88611
-7.86663
-7.84298
-7.81494
-7.78233
-7.74496
-7.70264
-7.6552
-7.60244
-7.54421
-7.48032
-7.41064
-7.33501
-7.2533
-7.16536
-7.07107
-6.97032
-6.86301
-6.74904
-6.62835
-6.50088
-6.3666
-6.22547
-6.07747
-5.92258
-5.76079
-5.59212
-5.41661
-5.2343
-5.04524
-4.84952
-4.64723
-4.43847
-4.22336
-4.00204
-3.77466
-3.54138
-3.30239
-3.05787
-2.80803
-2.55309
-2.29329
-2.02886
-1.76006
-1.48715
-1.21042
-0.930134
-0.64661
-0.360153
-0.0710613
0.220368
0.513793
0.808865
1.10527
1.40271
1.70085
1.99932
2.29778
2.59592
2.89341
3.18991
3.48513
3.77873
4.07043
4.35993
4.64693
4.93117
5.21238
5.49032
5.76474
6.03541
6.30214
6.56471
6.82297
7.07673
7.32585
7.57019
7.80962
8.04405
8.27337
8.49749
8.71635
8.92988
9.13801
9.34071
9.53799
9.72983
9.9162
10.097
10.2724
10.4422
10.6066
10.7655
10.9191
11.0675
11.2109
11.3495
11.4837
11.6147
11.7396
11.8711
11.957
-6.77893
-6.78293
-6.78944
-6.79495
-6.79885
-6.80181
-6.80428
-6.80652
-6.80873
-6.81104
-6.8136
-6.81649
-6.81977
-6.82352
-6.82776
-6.83255
-6.83792
-6.84391
-6.85055
-6.85788
-6.86594
-6.87474
-6.88433
-6.89474
-6.90598
-6.91808
-6.93106
-6.94494
-6.95972
-6.9754
-6.99199
-7.00947
-7.02783
-7.04707
-7.06715
-7.08808
-7.10981
-7.13231
-7.15551
-7.17938
-7.20384
-7.22888
-7.25444
-7.28047
-7.30694
-7.33379
-7.36097
-7.38845
-7.41616
-7.44405
-7.47206
-7.50013
-7.52819
-7.55617
-7.58398
-7.61155
-7.63879
-7.6656
-7.69188
-7.71751
-7.7424
-7.76641
-7.78942
-7.81129
-7.83188
-7.85104
-7.86862
-7.88446
-7.8984
-7.91026
-7.91986
-7.92703
-7.93158
-7.93333
-7.93208
-7.92763
-7.9198
-7.90838
-7.89319
-7.87401
-7.85065
-7.82292
-7.79063
-7.75358
-7.71159
-7.66448
-7.61206
-7.55417
-7.49064
-7.42132
-7.34606
-7.26472
-7.17716
-7.08326
-6.98291
-6.87601
-6.76247
-6.64222
-6.5152
-6.38138
-6.2407
-6.09315
-5.93871
-5.77738
-5.60918
-5.43413
-5.25229
-5.06371
-4.86847
-4.66665
-4.45838
-4.24375
-4.02292
-3.79602
-3.56323
-3.32471
-3.08067
-2.83131
-2.57684
-2.3175
-2.05353
-1.78517
-1.5127
-1.23638
-0.956513
-0.673388
-0.387315
-0.0985835
0.192491
0.485564
0.780305
1.07641
1.37358
1.67146
1.96969
2.26795
2.5659
2.86321
3.15958
3.45467
3.74818
4.03981
4.32926
4.61624
4.90048
5.18171
5.45969
5.73417
6.00494
6.27177
6.53449
6.79289
7.04683
7.29614
7.54069
7.78035
8.015
8.24456
8.46894
8.68805
8.90183
9.11021
9.31316
9.51067
9.70274
9.88932
10.0704
10.246
10.416
10.5806
10.7398
10.8936
11.0421
11.1856
11.3241
11.4578
11.5877
11.7103
11.8387
11.9146
-6.77614
-6.78068
-6.788
-6.7943
-6.79892
-6.80254
-6.80562
-6.80841
-6.81113
-6.81394
-6.81696
-6.82028
-6.824
-6.82817
-6.83283
-6.83803
-6.84381
-6.85021
-6.85726
-6.865
-6.87345
-6.88265
-6.89262
-6.90339
-6.91497
-6.92739
-6.94066
-6.95479
-6.96978
-6.98564
-7.00235
-7.01991
-7.03831
-7.05753
-7.07755
-7.09836
-7.11994
-7.14224
-7.16523
-7.18886
-7.21309
-7.23789
-7.26321
-7.28901
-7.31524
-7.34187
-7.36884
-7.39612
-7.42365
-7.45138
-7.47925
-7.50721
-7.53517
-7.56308
-7.59085
-7.6184
-7.64564
-7.67247
-7.69879
-7.72449
-7.74946
-7.77357
-7.7967
-7.8187
-7.83943
-7.85875
-7.8765
-7.89252
-7.90664
-7.91869
-7.92849
-7.93586
-7.94061
-7.94256
-7.94152
-7.93728
-7.92965
-7.91844
-7.90344
-7.88446
-7.86131
-7.83378
-7.80168
-7.76483
-7.72303
-7.6761
-7.62388
-7.56618
-7.50284
-7.4337
-7.35864
-7.27749
-7.19013
-7.09643
-6.99629
-6.8896
-6.77628
-6.65626
-6.52948
-6.39589
-6.25545
-6.10814
-5.95394
-5.79285
-5.6249
-5.45011
-5.26852
-5.08021
-4.88524
-4.6837
-4.4757
-4.26137
-4.04082
-3.81422
-3.58172
-3.34351
-3.09977
-2.85071
-2.59654
-2.3375
-2.07383
-1.80576
-1.53358
-1.25755
-0.977956
-0.695105
-0.409294
-0.120817
0.169997
0.462813
0.757314
1.0532
1.35017
1.64786
1.94591
2.244
2.5418
2.83898
3.13523
3.43022
3.72365
4.0152
4.30459
4.59153
4.87574
5.15697
5.43496
5.70947
5.98028
6.24718
6.50997
6.76847
7.02251
7.27194
7.51662
7.75642
7.99122
8.22094
8.44548
8.66476
8.87872
9.08728
9.29041
9.48809
9.68032
9.86707
10.0483
10.2241
10.3943
10.559
10.7183
10.8722
11.0208
11.1641
11.3023
11.4353
11.564
11.6842
11.8097
11.877
-6.77598
-6.78086
-6.78867
-6.7955
-6.80067
-6.80483
-6.80842
-6.81171
-6.81489
-6.81815
-6.82159
-6.82534
-6.82946
-6.83402
-6.83907
-6.84466
-6.85083
-6.8576
-6.86503
-6.87314
-6.88195
-6.8915
-6.9018
-6.91288
-6.92476
-6.93744
-6.95095
-6.96528
-6.98043
-6.99641
-7.01321
-7.03082
-7.04923
-7.06843
-7.0884
-7.10912
-7.13057
-7.15273
-7.17555
-7.19902
-7.22308
-7.24771
-7.27287
-7.29852
-7.32461
-7.35111
-7.37797
-7.40515
-7.4326
-7.46027
-7.48809
-7.51602
-7.54399
-7.57191
-7.59972
-7.62733
-7.65464
-7.68156
-7.70799
-7.73382
-7.75893
-7.78319
-7.80647
-7.82864
-7.84954
-7.86904
-7.88697
-7.90316
-7.91746
-7.92969
-7.93966
-7.9472
-7.95211
-7.95422
-7.95332
-7.94922
-7.94173
-7.93064
-7.91576
-7.89689
-7.87383
-7.84639
-7.81437
-7.77759
-7.73586
-7.68899
-7.63682
-7.57917
-7.51587
-7.44678
-7.37175
-7.29064
-7.20332
-7.10966
-7.00956
-6.90293
-6.78966
-6.6697
-6.54298
-6.40945
-6.26908
-6.12184
-5.96771
-5.80671
-5.63884
-5.46414
-5.28266
-5.09445
-4.8996
-4.69818
-4.49032
-4.27612
-4.05572
-3.82928
-3.59694
-3.3589
-3.11533
-2.86645
-2.61247
-2.35361
-2.09012
-1.82225
-1.55025
-1.27441
-0.995013
-0.712352
-0.42672
-0.138431
0.152186
0.444812
0.739132
1.03485
1.33167
1.6292
1.92711
2.22506
2.52272
2.81978
3.11591
3.4108
3.70414
3.99561
4.28493
4.57182
4.85599
5.13719
5.41516
5.68966
5.96048
6.22739
6.49021
6.74875
7.00283
7.25232
7.49706
7.73693
7.97183
8.20163
8.42627
8.64565
8.85971
9.06839
9.27164
9.46944
9.66179
9.84865
10.03
10.2058
10.3762
10.541
10.7003
10.8542
11.0027
11.1458
11.2835
11.4157
11.543
11.6609
11.7838
11.8436
-6.77846
-6.78349
-6.79149
-6.79861
-6.80413
-6.80868
-6.81267
-6.81635
-6.81992
-6.82355
-6.82736
-6.83145
-6.83591
-6.84081
-6.84619
-6.8521
-6.85859
-6.86568
-6.87341
-6.88181
-6.89091
-6.90072
-6.91128
-6.92259
-6.93468
-6.94755
-6.96122
-6.97568
-6.99094
-7.007
-7.02385
-7.04149
-7.0599
-7.07907
-7.099
-7.11966
-7.14103
-7.16309
-7.18582
-7.20918
-7.23315
-7.25769
-7.28277
-7.30835
-7.33439
-7.36085
-7.38769
-7.41486
-7.44232
-7.47001
-7.49788
-7.52587
-7.55391
-7.58193
-7.60985
-7.63758
-7.66503
-7.6921
-7.71869
-7.74469
-7.76997
-7.7944
-7.81786
-7.84021
-7.86129
-7.88096
-7.89905
-7.91541
-7.92986
-7.94222
-7.95233
-7.95998
-7.965
-7.9672
-7.96638
-7.96234
-7.9549
-7.94384
-7.92898
-7.91011
-7.88705
-7.85958
-7.82753
-7.7907
-7.74892
-7.70199
-7.64974
-7.59201
-7.52862
-7.45944
-7.38432
-7.30312
-7.2157
-7.12194
-7.02176
-6.91503
-6.80168
-6.68164
-6.55485
-6.42125
-6.28082
-6.13352
-5.97934
-5.81829
-5.65039
-5.47567
-5.29418
-5.10597
-4.91112
-4.70973
-4.50189
-4.28773
-4.06739
-3.84101
-3.60874
-3.37078
-3.12731
-2.87853
-2.62466
-2.36592
-2.10255
-1.8348
-1.56294
-1.28724
-1.00798
-0.725457
-0.439969
-0.151837
0.138619
0.431089
0.725257
1.02083
1.3175
1.61488
1.91264
2.21045
2.50798
2.80491
3.10092
3.3957
3.68893
3.98031
4.26954
4.55634
4.84045
5.12158
5.39949
5.67395
5.94472
6.21161
6.4744
6.73292
6.987
7.23649
7.48124
7.72113
7.95605
8.18589
8.41057
8.63
8.84411
9.05285
9.25617
9.45404
9.64645
9.83338
10.0148
10.1907
10.3611
10.5259
10.6852
10.839
10.9873
11.1301
11.2673
11.3986
11.5244
11.64
11.7605
11.814
-6.7834
-6.78841
-6.79632
-6.80348
-6.80918
-6.81396
-6.81821
-6.82217
-6.82602
-6.82992
-6.834
-6.83836
-6.84308
-6.84822
-6.85384
-6.85998
-6.86669
-6.87399
-6.88192
-6.89051
-6.89978
-6.90976
-6.92047
-6.93192
-6.94412
-6.9571
-6.97085
-6.98539
-7.00071
-7.01681
-7.03368
-7.05133
-7.06974
-7.08891
-7.10881
-7.12945
-7.15078
-7.17281
-7.1955
-7.21883
-7.24278
-7.2673
-7.29238
-7.31798
-7.34404
-7.37054
-7.39743
-7.42468
-7.45222
-7.48002
-7.508
-7.53612
-7.56431
-7.59248
-7.62056
-7.64846
-7.67608
-7.70334
-7.73011
-7.75629
-7.78175
-7.80636
-7.82999
-7.8525
-7.87373
-7.89354
-7.91176
-7.92823
-7.94277
-7.95522
-7.96538
-7.97308
-7.97812
-7.98032
-7.97949
-7.97542
-7.96792
-7.95679
-7.94184
-7.92287
-7.89968
-7.87208
-7.83988
-7.80289
-7.76093
-7.71382
-7.66138
-7.60345
-7.53986
-7.47048
-7.39515
-7.31373
-7.22611
-7.13216
-7.03177
-6.92485
-6.81131
-6.69109
-6.56413
-6.43037
-6.28977
-6.14232
-5.98801
-5.82684
-5.65883
-5.484
-5.30242
-5.11414
-4.91923
-4.71779
-4.50993
-4.29576
-4.07541
-3.84904
-3.61681
-3.37889
-3.13548
-2.88676
-2.63297
-2.37431
-2.11103
-1.84339
-1.57164
-1.29605
-1.01693
-0.73454
-0.449202
-0.161229
0.129067
0.421376
0.715383
1.0108
1.30731
1.60454
1.90213
2.19978
2.49716
2.79394
3.0898
3.38444
3.67753
3.96877
4.25788
4.54457
4.82855
5.10958
5.38739
5.66175
5.93244
6.19924
6.46196
6.72041
6.97444
7.22387
7.46858
7.70844
7.94333
8.17315
8.39781
8.61723
8.83135
9.0401
9.24344
9.44134
9.63378
9.82073
10.0022
10.1781
10.3485
10.5133
10.6725
10.8262
10.9743
11.1166
11.2532
11.3834
11.5078
11.6212
11.7396
11.7877
-6.79045
-6.79528
-6.80289
-6.80989
-6.81558
-6.82044
-6.82482
-6.82892
-6.83294
-6.837
-6.84124
-6.84574
-6.8506
-6.85587
-6.86161
-6.86786
-6.87466
-6.88206
-6.89007
-6.89873
-6.90808
-6.91812
-6.92888
-6.94039
-6.95264
-6.96565
-6.97944
-6.994
-7.00933
-7.02545
-7.04233
-7.05998
-7.0784
-7.09757
-7.11748
-7.13812
-7.15947
-7.18151
-7.20422
-7.22759
-7.25157
-7.27615
-7.30128
-7.32693
-7.35308
-7.37969
-7.4067
-7.43408
-7.46178
-7.48973
-7.51789
-7.54618
-7.57454
-7.60289
-7.63115
-7.65924
-7.68705
-7.71448
-7.74142
-7.76776
-7.79337
-7.81812
-7.84188
-7.86449
-7.88582
-7.90569
-7.92396
-7.94046
-7.955
-7.96743
-7.97755
-7.98519
-7.99015
-7.99224
-7.99128
-7.98706
-7.97939
-7.96808
-7.95292
-7.93373
-7.9103
-7.88245
-7.84999
-7.81272
-7.77048
-7.72308
-7.67034
-7.61211
-7.54823
-7.47854
-7.40291
-7.3212
-7.23329
-7.13905
-7.03838
-6.9312
-6.8174
-6.69694
-6.56973
-6.43574
-6.29493
-6.14729
-5.99279
-5.83144
-5.66328
-5.48832
-5.30661
-5.11823
-4.92324
-4.72173
-4.51382
-4.29962
-4.07926
-3.85289
-3.62068
-3.38281
-3.13945
-2.89081
-2.6371
-2.37854
-2.11537
-1.84785
-1.57624
-1.3008
-1.02182
-0.739597
-0.454438
-0.166647
0.123469
0.415589
0.709402
1.00464
1.30095
1.59797
1.89536
2.1928
2.48998
2.78657
3.08224
3.37668
3.66959
3.96065
4.24958
4.53609
4.81991
5.10078
5.37844
5.65265
5.9232
6.18987
6.45246
6.71079
6.9647
7.21404
7.45865
7.69842
7.93323
8.16298
8.38758
8.60695
8.82103
9.02975
9.23307
9.43097
9.6234
9.81035
9.99178
10.1677
10.338
10.5028
10.6619
10.8154
10.9632
11.105
11.2409
11.3701
11.4931
11.6045
11.7208
11.7644
-6.7992
-6.80376
-6.81089
-6.81756
-6.82309
-6.82787
-6.83223
-6.83634
-6.84037
-6.84446
-6.84871
-6.85324
-6.8581
-6.86336
-6.86908
-6.87531
-6.8821
-6.88947
-6.89746
-6.9061
-6.91542
-6.92544
-6.93618
-6.94766
-6.95989
-6.97288
-6.98665
-7.00119
-7.01651
-7.03261
-7.04949
-7.06715
-7.08558
-7.10476
-7.1247
-7.14538
-7.16677
-7.18887
-7.21164
-7.23507
-7.25912
-7.28378
-7.30901
-7.33479
-7.36107
-7.38783
-7.41501
-7.44257
-7.47044
-7.49858
-7.52691
-7.55537
-7.5839
-7.61242
-7.64084
-7.66907
-7.69702
-7.72457
-7.75163
-7.77806
-7.80374
-7.82854
-7.85232
-7.87493
-7.89623
-7.91606
-7.93426
-7.95066
-7.96508
-7.97736
-7.98731
-7.99475
-7.9995
-8.00135
-8.00013
-7.99563
-7.98767
-7.97605
-7.96056
-7.94103
-7.91726
-7.88905
-7.85622
-7.81858
-7.77596
-7.72818
-7.67507
-7.61646
-7.5522
-7.48214
-7.40615
-7.32409
-7.23583
-7.14126
-7.04027
-6.93277
-6.81869
-6.69794
-6.57047
-6.43623
-6.29519
-6.14734
-5.99265
-5.83114
-5.66282
-5.48773
-5.30592
-5.11745
-4.92239
-4.72085
-4.51291
-4.2987
-4.07836
-3.85204
-3.61989
-3.38209
-3.13882
-2.89029
-2.6367
-2.37829
-2.11528
-1.84793
-1.5765
-1.30125
-1.02248
-0.740487
-0.455562
-0.168
0.121878
0.413745
0.707312
1.00231
1.29836
1.59509
1.89221
2.1894
2.48631
2.78263
3.07805
3.37224
3.66489
3.95571
4.2444
4.53068
4.81427
5.09491
5.37236
5.64636
5.91671
6.18318
6.44558
6.70374
6.95748
7.20666
7.45112
7.69075
7.92543
8.15506
8.37956
8.59883
8.81283
9.02148
9.22475
9.4226
9.615
9.80191
9.98331
10.1592
10.3294
10.4941
10.6531
10.8064
10.9538
11.0952
11.2303
11.3585
11.48
11.5895
11.7038
11.7438
-6.80925
-6.81345
-6.82
-6.82621
-6.83143
-6.83599
-6.84016
-6.84412
-6.848
-6.85195
-6.85606
-6.86044
-6.86516
-6.87028
-6.87587
-6.88197
-6.88862
-6.89587
-6.90374
-6.91227
-6.92148
-6.9314
-6.94204
-6.95343
-6.96558
-6.97851
-6.99221
-7.00671
-7.022
-7.03808
-7.05496
-7.07262
-7.09106
-7.11027
-7.13023
-7.15094
-7.17238
-7.19453
-7.21737
-7.24088
-7.26503
-7.28981
-7.31517
-7.3411
-7.36754
-7.39445
-7.42179
-7.4495
-7.47752
-7.50579
-7.53425
-7.56282
-7.59144
-7.62004
-7.64852
-7.6768
-7.70478
-7.73234
-7.75937
-7.78575
-7.81136
-7.83606
-7.85971
-7.88217
-7.90329
-7.92291
-7.94087
-7.957
-7.97115
-7.98312
-7.99275
-7.99984
-8.00422
-8.0057
-8.00408
-7.99918
-7.9908
-7.97875
-7.96283
-7.94287
-7.91865
-7.89
-7.85673
-7.81865
-7.77559
-7.72738
-7.67384
-7.61481
-7.55014
-7.47969
-7.40333
-7.3209
-7.23228
-7.13737
-7.03607
-6.92827
-6.8139
-6.69288
-6.56517
-6.43071
-6.28948
-6.14144
-5.9866
-5.82495
-5.65653
-5.48135
-5.29948
-5.11098
-4.91591
-4.71437
-4.50648
-4.29233
-4.07208
-3.84586
-3.61384
-3.37619
-3.13309
-2.88475
-2.63137
-2.37317
-2.1104
-1.8433
-1.57214
-1.29717
-1.01871
-0.737025
-0.452403
-0.165153
0.124391
0.415914
0.709166
1.00384
1.29952
1.59589
1.89266
2.18949
2.48606
2.78203
3.07711
3.37096
3.66328
3.95377
4.24215
4.52811
4.8114
5.09175
5.36891
5.64264
5.91271
6.17893
6.44108
6.699
6.95252
7.20148
7.44574
7.68518
7.91968
8.14915
8.37349
8.59263
8.80651
9.01506
9.21825
9.41603
9.60836
9.79522
9.97656
10.1524
10.3226
10.4871
10.6459
10.7989
10.946
11.0868
11.2212
11.3483
11.4685
11.5762
11.6886
11.7258
-6.82024
-6.82405
-6.82995
-6.83559
-6.84036
-6.84453
-6.84834
-6.85195
-6.85551
-6.85914
-6.86295
-6.86703
-6.87146
-6.87632
-6.88164
-6.88749
-6.89391
-6.90094
-6.9086
-6.91693
-6.92597
-6.93572
-6.94622
-6.95748
-6.96951
-6.98233
-6.99595
-7.01036
-7.02558
-7.0416
-7.05843
-7.07606
-7.09448
-7.11369
-7.13366
-7.15439
-7.17585
-7.19805
-7.22096
-7.24456
-7.26882
-7.2937
-7.31917
-7.34518
-7.37171
-7.39869
-7.42608
-7.45383
-7.48187
-7.51013
-7.53856
-7.56708
-7.59564
-7.62415
-7.65253
-7.68067
-7.70849
-7.73586
-7.76268
-7.78881
-7.81415
-7.83855
-7.86187
-7.88398
-7.90473
-7.92395
-7.9415
-7.95721
-7.97091
-7.98242
-7.99158
-7.99819
-8.00208
-8.00306
-8.00095
-7.99554
-7.98665
-7.9741
-7.95768
-7.93721
-7.9125
-7.88336
-7.84961
-7.81106
-7.76754
-7.71888
-7.66491
-7.60546
-7.5404
-7.46957
-7.39285
-7.31007
-7.22114
-7.12592
-7.02434
-6.91628
-6.80169
-6.68047
-6.55257
-6.41796
-6.27659
-6.12845
-5.97354
-5.81184
-5.6434
-5.46823
-5.2864
-5.09795
-4.90297
-4.70155
-4.49379
-4.27982
-4.05975
-3.83375
-3.60197
-3.36458
-3.12176
-2.87372
-2.62066
-2.3628
-2.10038
-1.83364
-1.56287
-1.28831
-1.01027
-0.728987
-0.44478
-0.157967
0.131122
0.422201
0.715039
1.00926
1.30446
1.60036
1.89666
2.19304
2.48915
2.78468
3.07931
3.37273
3.66462
3.9547
4.24266
4.52823
4.81113
5.0911
5.36789
5.64127
5.911
6.17688
6.43872
6.69634
6.94957
7.19825
7.44226
7.68145
7.91573
8.14499
8.36914
8.58811
8.80184
9.01026
9.21334
9.41102
9.60327
9.79005
9.97133
10.147
10.3171
10.4816
10.6402
10.793
10.9396
11.0799
11.2135
11.3397
11.4585
11.5645
11.675
11.7101
-6.83235
-6.83576
-6.84102
-6.84601
-6.85016
-6.85374
-6.85696
-6.86
-6.863
-6.8661
-6.8694
-6.873
-6.87699
-6.88141
-6.88635
-6.89183
-6.8979
-6.90461
-6.91197
-6.92003
-6.9288
-6.9383
-6.94857
-6.95961
-6.97144
-6.98407
-6.99751
-7.01176
-7.02683
-7.04272
-7.05941
-7.07692
-7.09523
-7.11435
-7.13426
-7.15494
-7.17638
-7.19856
-7.22144
-7.245
-7.26922
-7.29404
-7.31944
-7.34535
-7.37175
-7.39859
-7.42581
-7.45336
-7.48117
-7.50919
-7.53736
-7.56561
-7.59387
-7.62207
-7.65011
-7.67788
-7.70529
-7.73223
-7.75858
-7.78424
-7.80907
-7.83294
-7.85573
-7.87728
-7.89746
-7.91611
-7.93307
-7.94819
-7.9613
-7.97222
-7.98078
-7.9868
-7.9901
-7.9905
-7.98781
-7.98184
-7.9724
-7.9593
-7.94236
-7.92137
-7.89616
-7.86653
-7.83231
-7.79331
-7.74937
-7.7003
-7.64595
-7.58617
-7.52077
-7.44964
-7.37262
-7.28958
-7.2004
-7.10498
-7.00321
-6.895
-6.78028
-6.65896
-6.531
-6.39635
-6.25497
-6.10686
-5.952
-5.7904
-5.62206
-5.44705
-5.26538
-5.07714
-4.88239
-4.68123
-4.47376
-4.26011
-4.04039
-3.81475
-3.58336
-3.34639
-3.104
-2.85642
-2.60383
-2.34647
-2.08456
-1.81836
-1.54814
-1.27414
-0.996642
-0.715923
-0.4323
-0.146088
0.142395
0.432909
0.725184
1.01878
1.31335
1.60864
1.90435
2.20013
2.49566