/*--------------------------------*- C++ -*----------------------------------*\
  =========                 |
  \\      /  F ield         | OpenFOAM: The Open Source CFD Toolbox
   \\    /   O peration     | Website:  https://openfoam.org
    \\  /    A nd           | Version:  8
     \\/     M anipulation  |
\*---------------------------------------------------------------------------*/
FoamFile
{
    version     2.0;
    format      ascii;
    class       surfaceScalarField;
    location    "280";
    object      phi;
}
// * * * * * * * * * * * * * * * * * * * * * * * * * * * * * * * * * * * * * //

dimensions      [0 3 -1 0 0 0 0];

internalField   nonuniform List<scalar> 
24170
(
3.12901e-06
5.94001e-08
3.04663e-06
8.23769e-08
2.97354e-06
7.30884e-08
2.90491e-06
6.86267e-08
2.84059e-06
6.43193e-08
2.78329e-06
5.73087e-08
2.73398e-06
4.93073e-08
2.69205e-06
4.19309e-08
2.6564e-06
3.56462e-08
2.62599e-06
3.04095e-08
2.59984e-06
2.61499e-08
2.57712e-06
2.27249e-08
2.55716e-06
1.99538e-08
2.53941e-06
1.77549e-08
2.52351e-06
1.5898e-08
2.50849e-06
1.50168e-08
2.49497e-06
1.35179e-08
1.7678e-08
2.4773e-06
3.45306e-06
2.35848e-08
3.45701e-06
7.84353e-08
3.45055e-06
7.95473e-08
3.43909e-06
8.00799e-08
3.42432e-06
7.90923e-08
3.40708e-06
7.4554e-08
3.38787e-06
6.85156e-08
3.36735e-06
6.24437e-08
3.34622e-06
5.67769e-08
3.32506e-06
5.15709e-08
3.30436e-06
4.68559e-08
3.28438e-06
4.26972e-08
3.26534e-06
3.89967e-08
3.24727e-06
3.58222e-08
3.23027e-06
3.29037e-08
3.21429e-06
3.09922e-08
3.19966e-06
2.81545e-08
2.92388e-08
3.1881e-06
3.66816e-06
1.79412e-08
3.6792e-06
6.73924e-08
3.68543e-06
7.33169e-08
3.68947e-06
7.60414e-08
3.69108e-06
7.74885e-08
3.69012e-06
7.55125e-08
3.68699e-06
7.16422e-08
3.68216e-06
6.72717e-08
3.67603e-06
6.29114e-08
3.66891e-06
5.86881e-08
3.66109e-06
5.46753e-08
3.65282e-06
5.09691e-08
3.64428e-06
4.75357e-08
3.63564e-06
4.44584e-08
3.62697e-06
4.15751e-08
3.61865e-06
3.93144e-08
3.61011e-06
3.669e-08
3.56659e-08
3.60369e-06
3.92585e-06
1.748e-08
3.93592e-06
5.73201e-08
3.94258e-06
6.66622e-08
3.94812e-06
7.04957e-08
3.95254e-06
7.30674e-08
3.9555e-06
7.25557e-08
3.95718e-06
6.99618e-08
3.95783e-06
6.66244e-08
3.95763e-06
6.31076e-08
3.95674e-06
5.95799e-08
3.95529e-06
5.61276e-08
3.9534e-06
5.2858e-08
3.95117e-06
4.97689e-08
3.94869e-06
4.69295e-08
3.94602e-06
4.42508e-08
3.9434e-06
4.19373e-08
3.94053e-06
3.95562e-08
3.76945e-08
3.9385e-06
4.2082e-06
1.64068e-08
4.21599e-06
4.95326e-08
4.22169e-06
6.09603e-08
4.2268e-06
6.5385e-08
4.23156e-06
6.83118e-08
4.23554e-06
6.85748e-08
4.23872e-06
6.67824e-08
4.24121e-06
6.41334e-08
4.24311e-06
6.11989e-08
4.24453e-06
5.81647e-08
4.24553e-06
5.51251e-08
4.2462e-06
5.21853e-08
4.24661e-06
4.93678e-08
4.24681e-06
4.67243e-08
4.24685e-06
4.42109e-08
4.24687e-06
4.19138e-08
4.24679e-06
3.96372e-08
3.7499e-08
4.24699e-06
4.51071e-06
1.47832e-08
4.51689e-06
4.3357e-08
4.52214e-06
5.57076e-08
4.52696e-06
6.05623e-08
4.53168e-06
6.35917e-08
4.53594e-06
6.43164e-08
4.53963e-06
6.3097e-08
4.5428e-06
6.09578e-08
4.54554e-06
5.8459e-08
4.54791e-06
5.57981e-08
4.54995e-06
5.30795e-08
4.55174e-06
5.04011e-08
4.5533e-06
4.78028e-08
4.5547e-06
4.53215e-08
4.55598e-06
4.29396e-08
4.55721e-06
4.06841e-08
4.55838e-06
3.84598e-08
3.62458e-08
4.55964e-06
4.83433e-06
1.31721e-08
4.83963e-06
3.80566e-08
4.84476e-06
5.05785e-08
4.84947e-06
5.58524e-08
4.85411e-06
5.89507e-08
4.85844e-06
5.99889e-08
4.86232e-06
5.92126e-08
4.8658e-06
5.74782e-08
4.86893e-06
5.53266e-08
4.87177e-06
5.29664e-08
4.87433e-06
5.05103e-08
4.87669e-06
4.805e-08
4.87885e-06
4.56351e-08
4.88088e-06
4.32945e-08
4.8828e-06
4.1024e-08
4.88466e-06
3.88248e-08
4.88647e-06
3.66457e-08
3.44393e-08
4.88828e-06
5.18105e-06
1.17047e-08
5.18576e-06
3.33479e-08
5.19076e-06
4.55721e-08
5.19542e-06
5.11949e-08
5.20001e-06
5.43569e-08
5.20438e-06
5.56198e-08
5.20839e-06
5.52046e-08
5.21206e-06
5.38135e-08
5.21542e-06
5.19574e-08
5.21854e-06
4.98557e-08
5.22142e-06
4.76262e-08
5.22411e-06
4.53574e-08
5.22664e-06
4.31034e-08
5.22905e-06
4.08907e-08
5.23135e-06
3.8722e-08
5.23358e-06
3.6591e-08
5.23576e-06
3.44668e-08
3.23122e-08
5.23789e-06
5.55269e-06
1.03484e-08
5.55689e-06
2.9149e-08
5.5617e-06
4.07609e-08
5.56632e-06
4.65804e-08
5.57089e-06
4.97848e-08
5.5753e-06
5.12051e-08
5.57942e-06
5.10884e-08
5.58323e-06
4.99998e-08
5.58678e-06
4.84076e-08
5.5901e-06
4.65389e-08
5.59321e-06
4.45151e-08
5.59615e-06
4.24227e-08
5.59893e-06
4.03177e-08
5.60159e-06
3.82277e-08
5.60416e-06
3.61598e-08
5.60664e-06
3.41089e-08
5.60905e-06
3.2056e-08
2.99819e-08
5.61138e-06
5.95104e-06
9.0844e-09
5.95479e-06
2.53994e-08
5.95937e-06
3.61841e-08
5.96393e-06
4.20197e-08
5.96848e-06
4.52306e-08
5.97293e-06
4.67519e-08
5.97715e-06
4.68749e-08
5.98109e-06
4.60523e-08
5.9848e-06
4.46999e-08
5.98829e-06
4.30465e-08
5.99159e-06
4.12154e-08
5.99473e-06
3.92915e-08
5.99771e-06
3.73314e-08
6.00057e-06
3.53648e-08
6.00333e-06
3.34031e-08
6.00599e-06
3.14458e-08
6.00857e-06
2.94824e-08
2.75108e-08
6.01104e-06
6.37798e-06
7.91244e-09
6.38135e-06
2.2034e-08
6.38568e-06
3.18522e-08
6.39017e-06
3.75292e-08
6.3947e-06
4.07e-08
6.39918e-06
4.22721e-08
6.40348e-06
4.25765e-08
6.40755e-06
4.19817e-08
6.4114e-06
4.08467e-08
6.41506e-06
3.93935e-08
6.41853e-06
3.7746e-08
6.42183e-06
3.59867e-08
6.42499e-06
3.41718e-08
6.42802e-06
3.23336e-08
6.43094e-06
3.04875e-08
6.43374e-06
2.86382e-08
6.43644e-06
2.67828e-08
2.49309e-08
6.43902e-06
5.74176e-06
6.98558e-09
5.74435e-06
1.94494e-08
5.74782e-06
2.83802e-08
5.75155e-06
3.37976e-08
5.75536e-06
3.68927e-08
5.75915e-06
3.84744e-08
5.76284e-06
3.88879e-08
5.76637e-06
3.84538e-08
5.76973e-06
3.7485e-08
5.77293e-06
3.61904e-08
5.77599e-06
3.46919e-08
5.7789e-06
3.307e-08
5.7817e-06
3.13801e-08
5.78437e-06
2.9656e-08
5.78695e-06
2.79162e-08
5.78941e-06
2.61697e-08
5.79178e-06
2.44183e-08
2.26805e-08
5.79403e-06
6.99914e-06
6.00128e-09
7.00187e-06
1.67143e-08
7.00564e-06
2.46131e-08
7.00981e-06
2.96267e-08
7.01414e-06
3.25677e-08
7.0185e-06
3.41146e-08
7.02278e-06
3.46082e-08
7.02691e-06
3.43229e-08
7.03087e-06
3.35222e-08
7.03466e-06
3.23961e-08
7.03829e-06
3.10616e-08
7.04177e-06
2.95958e-08
7.0451e-06
2.80523e-08
7.04829e-06
2.64661e-08
7.05134e-06
2.48583e-08
7.05427e-06
2.32422e-08
7.05707e-06
2.16237e-08
2.00273e-08
7.05972e-06
8.53188e-06
4.96719e-09
8.53474e-06
1.38563e-08
8.53877e-06
2.05785e-08
8.54338e-06
2.50241e-08
8.54824e-06
2.77069e-08
8.55319e-06
2.91561e-08
8.55812e-06
2.96842e-08
8.56292e-06
2.95219e-08
8.56756e-06
2.88824e-08
8.57203e-06
2.79301e-08
8.57631e-06
2.67731e-08
8.58043e-06
2.5483e-08
8.58437e-06
2.41104e-08
8.58814e-06
2.26901e-08
8.59176e-06
2.12451e-08
8.59521e-06
1.97919e-08
8.59849e-06
1.83395e-08
1.69157e-08
8.6016e-06
1.04003e-05
3.89257e-09
1.04033e-05
1.0895e-08
1.04075e-05
1.6299e-08
1.04126e-05
1.9999e-08
1.0418e-05
2.22948e-08
1.04236e-05
2.35628e-08
1.04292e-05
2.40632e-08
1.04347e-05
2.39832e-08
1.04401e-05
2.34871e-08
1.04453e-05
2.27079e-08
1.04504e-05
2.17391e-08
1.04552e-05
2.06444e-08
1.04599e-05
1.94693e-08
1.04643e-05
1.82465e-08
1.04685e-05
1.69994e-08
1.04726e-05
1.57456e-08
1.04764e-05
1.44958e-08
1.32783e-08
1.04801e-05
1.26779e-05
2.78243e-09
1.2681e-05
7.82517e-09
1.26855e-05
1.17732e-08
1.26909e-05
1.45466e-08
1.26969e-05
1.63051e-08
1.27032e-05
1.72875e-08
1.27096e-05
1.76832e-08
1.27159e-05
1.76317e-08
1.27222e-05
1.72503e-08
1.27283e-05
1.66368e-08
1.27341e-05
1.58641e-08
1.27398e-05
1.49841e-08
1.27452e-05
1.40344e-08
1.27504e-05
1.30432e-08
1.27554e-05
1.20315e-08
1.27601e-05
1.10161e-08
1.27646e-05
1.00074e-08
9.03179e-09
1.27689e-05
1.54543e-05
1.62624e-09
1.54576e-05
4.60119e-09
1.54624e-05
6.94461e-09
1.54683e-05
8.60813e-09
1.5475e-05
9.66564e-09
1.5482e-05
1.02418e-08
1.54892e-05
1.04459e-08
1.54965e-05
1.0362e-08
1.55037e-05
1.00606e-08
1.55107e-05
9.60153e-09
1.55176e-05
9.03183e-09
1.55242e-05
8.38646e-09
1.55305e-05
7.69175e-09
1.55366e-05
6.96822e-09
1.55424e-05
6.23184e-09
1.55479e-05
5.49583e-09
1.55531e-05
4.76835e-09
4.07191e-09
1.55581e-05
1.88389e-05
3.84116e-10
1.88424e-05
1.09914e-09
1.88477e-05
1.64033e-09
1.88543e-05
1.99396e-09
1.88618e-05
2.18015e-09
1.88698e-05
2.22624e-09
1.88781e-05
2.15405e-09
1.88865e-05
1.98341e-09
1.88948e-05
1.73457e-09
1.8903e-05
1.42607e-09
1.89109e-05
1.07344e-09
1.89186e-05
6.89655e-10
1.8926e-05
2.85832e-10
1.89331e-05
-1.28469e-10
1.89399e-05
-5.45107e-10
1.89464e-05
-9.56688e-10
1.89525e-05
-1.35892e-09
-1.7349e-09
1.89583e-05
2.29648e-05
-1.04487e-09
2.29688e-05
-2.96961e-09
2.2975e-05
-4.5584e-09
2.29828e-05
-5.77131e-09
2.29916e-05
-6.62836e-09
2.3001e-05
-7.21617e-09
2.30108e-05
-7.62211e-09
2.30207e-05
-7.90071e-09
2.30305e-05
-8.08857e-09
2.30402e-05
-8.21676e-09
2.30496e-05
-8.3089e-09
2.30586e-05
-8.37932e-09
2.30673e-05
-8.43586e-09
2.30757e-05
-8.48269e-09
2.30837e-05
-8.52186e-09
2.30913e-05
-8.55342e-09
2.30985e-05
-8.57807e-09
-8.58558e-09
2.31053e-05
1.68118e-05
-2.16639e-09
1.6815e-05
-6.13757e-09
1.68198e-05
-9.38311e-09
1.68258e-05
-1.17615e-08
1.68325e-05
-1.33308e-08
1.68396e-05
-1.43195e-08
1.68469e-05
-1.49148e-08
1.68542e-05
-1.52206e-08
1.68615e-05
-1.53158e-08
1.68685e-05
-1.52723e-08
1.68753e-05
-1.51426e-08
1.68819e-05
-1.49598e-08
1.68882e-05
-1.47444e-08
1.68943e-05
-1.45104e-08
1.69e-05
-1.42662e-08
1.69055e-05
-1.40167e-08
1.69107e-05
-1.37653e-08
-1.35056e-08
1.69156e-05
1.46356e-05
-3.24354e-09
1.46387e-05
-9.22172e-09
1.46434e-05
-1.40926e-08
1.46492e-05
-1.74983e-08
1.46555e-05
-1.96091e-08
1.4662e-05
-2.0875e-08
1.46687e-05
-2.1566e-08
1.46753e-05
-2.18182e-08
1.46817e-05
-2.17623e-08
1.46879e-05
-2.15151e-08
1.4694e-05
-2.11519e-08
1.46997e-05
-2.07175e-08
1.47052e-05
-2.0242e-08
1.47104e-05
-1.97466e-08
1.47154e-05
-1.92445e-08
1.47202e-05
-1.87434e-08
1.47246e-05
-1.82481e-08
-1.77549e-08
1.47289e-05
1.27411e-05
-4.25225e-09
1.27443e-05
-1.2347e-08
1.27491e-05
-1.89188e-08
1.27547e-05
-2.31383e-08
1.27607e-05
-2.55821e-08
1.27669e-05
-2.70244e-08
1.2773e-05
-2.7728e-08
1.2779e-05
-2.78421e-08
1.27849e-05
-2.75738e-08
1.27904e-05
-2.70884e-08
1.27957e-05
-2.64755e-08
1.28008e-05
-2.57866e-08
1.28056e-05
-2.50588e-08
1.28102e-05
-2.43176e-08
1.28145e-05
-2.35787e-08
1.28186e-05
-2.28503e-08
1.28225e-05
-2.21374e-08
-2.14373e-08
1.28262e-05
1.10918e-05
-5.09502e-09
1.1095e-05
-1.55666e-08
1.11001e-05
-2.40408e-08
1.11057e-05
-2.87573e-08
1.11115e-05
-3.13107e-08
1.11173e-05
-3.283e-08
1.1123e-05
-3.34467e-08
1.11285e-05
-3.33431e-08
1.11337e-05
-3.28215e-08
1.11387e-05
-3.20793e-08
1.11435e-05
-3.12082e-08
1.11479e-05
-3.02649e-08
1.11522e-05
-2.92925e-08
1.11562e-05
-2.83195e-08
1.116e-05
-2.73614e-08
1.11635e-05
-2.64261e-08
1.11669e-05
-2.55178e-08
-2.46343e-08
1.11701e-05
9.65582e-06
-5.70117e-09
9.65924e-06
-1.89885e-08
9.66458e-06
-2.93825e-08
9.67008e-06
-3.42488e-08
9.67563e-06
-3.68622e-08
9.68118e-06
-3.83812e-08
9.6865e-06
-3.87703e-08
9.69152e-06
-3.83607e-08
9.69625e-06
-3.75552e-08
9.70072e-06
-3.65479e-08
9.70493e-06
-3.54177e-08
9.70889e-06
-3.42242e-08
9.71261e-06
-3.30149e-08
9.71611e-06
-3.18192e-08
9.7194e-06
-3.06524e-08
9.7225e-06
-2.95215e-08
9.72541e-06
-2.84288e-08
-2.73706e-08
9.72814e-06
8.40532e-06
-5.67076e-09
8.40963e-06
-2.33013e-08
8.41487e-06
-3.46139e-08
8.41989e-06
-3.92715e-08
8.42525e-06
-4.22217e-08
8.43065e-06
-4.37815e-08
8.43572e-06
-4.38472e-08
8.44042e-06
-4.30572e-08
8.44478e-06
-4.19141e-08
8.44883e-06
-4.05942e-08
8.45258e-06
-3.91669e-08
8.45605e-06
-3.76947e-08
8.45926e-06
-3.62271e-08
8.46223e-06
-3.47921e-08
8.46498e-06
-3.34046e-08
8.46753e-06
-3.2071e-08
8.4699e-06
-3.07931e-08
-2.95675e-08
8.47209e-06
7.31455e-06
-2.93199e-09
7.32119e-06
-2.99427e-08
7.32673e-06
-4.01618e-08
7.33168e-06
-4.42184e-08
7.33707e-06
-4.76136e-08
7.34239e-06
-4.90955e-08
7.34726e-06
-4.87174e-08
7.35166e-06
-4.74616e-08
7.35563e-06
-4.5883e-08
7.35918e-06
-4.41403e-08
7.36232e-06
-4.23137e-08
7.3651e-06
-4.04759e-08
7.36756e-06
-3.86796e-08
7.36971e-06
-3.69491e-08
7.37161e-06
-3.52995e-08
7.37327e-06
-3.37335e-08
7.37473e-06
-3.22515e-08
-3.08443e-08
7.37601e-06
6.36245e-06
4.68482e-09
6.37189e-06
-3.93827e-08
6.37931e-06
-4.7586e-08
6.38595e-06
-5.08553e-08
6.39223e-06
-5.38908e-08
6.39753e-06
-5.44026e-08
6.40182e-06
-5.30054e-08
6.4053e-06
-5.0935e-08
6.40809e-06
-4.86751e-08
6.41026e-06
-4.63171e-08
6.41189e-06
-4.39379e-08
6.41303e-06
-4.16148e-08
6.41375e-06
-3.93984e-08
6.4141e-06
-3.7307e-08
6.41416e-06
-3.53545e-08
6.41396e-06
-3.35368e-08
6.41357e-06
-3.18551e-08
-3.02893e-08
6.41301e-06
5.5412e-06
8.94783e-09
5.55032e-06
-4.85044e-08
5.55834e-06
-5.5602e-08
5.56604e-06
-5.8554e-08
5.5725e-06
-6.03482e-08
5.57682e-06
-5.87226e-08
5.57905e-06
-5.52415e-08
5.5796e-06
-5.14884e-08
5.57884e-06
-4.79152e-08
5.57705e-06
-4.45254e-08
5.57445e-06
-4.13374e-08
5.57123e-06
-3.83943e-08
5.56754e-06
-3.57041e-08
5.56349e-06
-3.32586e-08
5.55919e-06
-3.10548e-08
5.55473e-06
-2.90759e-08
5.5502e-06
-2.73233e-08
-2.57482e-08
5.54565e-06
4.86004e-06
-2.34881e-08
4.86538e-06
-5.38458e-08
4.86524e-06
-5.54551e-08
4.86217e-06
-5.54821e-08
4.85699e-06
-5.51748e-08
4.84949e-06
-5.12183e-08
4.83979e-06
-4.55407e-08
4.82839e-06
-4.00899e-08
4.81581e-06
-3.5336e-08
4.80252e-06
-3.12406e-08
4.78892e-06
-2.77327e-08
4.77527e-06
-2.47496e-08
4.76178e-06
-2.22134e-08
4.74858e-06
-2.00528e-08
4.73574e-06
-1.82219e-08
4.72336e-06
-1.66874e-08
4.71152e-06
-1.54871e-08
-1.51406e-08
4.70091e-06
4.17919e-06
4.12534e-06
4.06989e-06
4.01441e-06
3.95923e-06
3.90801e-06
3.86247e-06
3.82238e-06
3.78705e-06
3.7558e-06
3.72807e-06
3.70332e-06
3.68111e-06
3.66106e-06
3.64283e-06
3.62615e-06
3.61066e-06
3.59552e-06
1.10303e-08
-1.10387e-08
2.42963e-08
-1.32781e-08
3.39617e-08
-9.67594e-09
3.85023e-08
-4.55129e-09
3.77932e-08
7.00438e-10
3.24336e-08
5.34826e-09
2.33753e-08
9.05172e-09
1.15374e-08
1.1826e-08
-2.32512e-09
1.38575e-08
-1.77485e-08
1.54129e-08
-3.44333e-08
1.66817e-08
-5.22092e-08
1.77687e-08
-7.09739e-08
1.87633e-08
-9.06885e-08
1.97114e-08
-1.11322e-07
2.06345e-08
-1.32864e-07
2.1541e-08
-1.55293e-07
2.24332e-08
-1.78606e-07
2.33094e-08
-2.02767e-07
2.41662e-08
-2.27774e-07
2.49969e-08
-2.53562e-07
2.57945e-08
-2.80129e-07
2.65503e-08
-3.07382e-07
2.72626e-08
-3.35333e-07
2.79369e-08
-3.63928e-07
2.86065e-08
-3.93136e-07
2.92122e-08
-4.22739e-07
2.96207e-08
-4.52793e-07
3.00795e-08
-4.833e-07
3.05283e-08
-5.138e-07
3.05395e-08
-5.44639e-07
3.0854e-08
-5.7686e-07
3.22607e-08
-6.10823e-07
3.39702e-08
-6.46356e-07
3.55608e-08
-6.84386e-07
3.80234e-08
-7.24511e-07
4.01346e-08
-7.65032e-07
4.05051e-08
-8.10426e-07
4.53874e-08
-8.51971e-07
4.15254e-08
-8.8777e-07
3.57846e-08
-9.33123e-07
4.53365e-08
-9.78952e-07
4.58163e-08
-1.01966e-06
4.06946e-08
-1.06045e-06
4.07894e-08
-1.10382e-06
4.33571e-08
-1.14749e-06
4.36653e-08
-1.19132e-06
4.38316e-08
-1.23525e-06
4.3916e-08
-1.27918e-06
4.39265e-08
-1.32304e-06
4.38549e-08
-1.36677e-06
4.37215e-08
-1.41032e-06
4.35413e-08
-1.45365e-06
4.33277e-08
-1.49675e-06
4.30874e-08
-1.53958e-06
4.28261e-08
-1.58213e-06
4.25452e-08
-1.62439e-06
4.22466e-08
-1.66633e-06
4.19289e-08
-1.70792e-06
4.15925e-08
-1.74917e-06
4.12346e-08
-1.79003e-06
4.08547e-08
-1.83049e-06
4.04499e-08
-1.87051e-06
4.00194e-08
-1.91008e-06
3.95598e-08
-1.94915e-06
3.90705e-08
-1.98771e-06
3.85483e-08
-2.0257e-06
3.79929e-08
-2.06311e-06
3.74013e-08
-2.09989e-06
3.67735e-08
-2.136e-06
3.61066e-08
-2.1714e-06
3.54014e-08
-2.20607e-06
3.46551e-08
-2.23994e-06
3.38685e-08
-2.27298e-06
3.30394e-08
-2.30515e-06
3.21689e-08
-2.33642e-06
3.12552e-08
-2.36672e-06
3.02998e-08
-2.39603e-06
2.93013e-08
-2.4243e-06
2.82614e-08
-2.45148e-06
2.71786e-08
-2.47754e-06
2.60548e-08
-2.50244e-06
2.4889e-08
-2.52612e-06
2.36833e-08
-2.54857e-06
2.24359e-08
-2.56972e-06
2.11492e-08
-2.58955e-06
1.98218e-08
-2.608e-06
1.84556e-08
-2.62505e-06
1.70484e-08
-2.64064e-06
1.56003e-08
-2.65474e-06
1.41083e-08
-2.6673e-06
1.25674e-08
-2.67827e-06
1.09725e-08
-2.68759e-06
9.31808e-09
-2.69519e-06
7.59593e-09
-2.70098e-06
5.79159e-09
-2.70487e-06
3.8872e-09
-2.70676e-06
1.88682e-09
-2.70664e-06
-1.23517e-10
-2.7047e-06
-1.94385e-09
-2.70112e-06
-3.57757e-09
-2.69596e-06
-5.17332e-09
-2.6892e-06
-6.75955e-09
-2.68087e-06
-8.349e-09
-2.67094e-06
-9.94451e-09
-2.65941e-06
-1.1544e-08
-2.64628e-06
-1.31476e-08
-2.63154e-06
-1.47515e-08
-2.6152e-06
-1.63561e-08
-2.59725e-06
-1.79575e-08
-2.57771e-06
-1.95563e-08
-2.55656e-06
-2.11486e-08
-2.53384e-06
-2.2735e-08
-2.50953e-06
-2.43111e-08
-2.48366e-06
-2.58779e-08
-2.45622e-06
-2.74308e-08
-2.42726e-06
-2.89706e-08
-2.39676e-06
-3.04928e-08
-2.36476e-06
-3.19979e-08
-2.33127e-06
-3.34815e-08
-2.29632e-06
-3.49442e-08
-2.25993e-06
-3.63828e-08
-2.22214e-06
-3.77969e-08
-2.18295e-06
-3.91821e-08
-2.14242e-06
-4.05378e-08
-2.10055e-06
-4.18592e-08
-2.0574e-06
-4.31477e-08
-2.01299e-06
-4.44002e-08
-1.96736e-06
-4.56176e-08
-1.92055e-06
-4.67963e-08
-1.87259e-06
-4.79373e-08
-1.82353e-06
-4.90391e-08
-1.77341e-06
-5.00958e-08
-1.72228e-06
-5.11024e-08
-1.67019e-06
-5.20656e-08
-1.61718e-06
-5.29847e-08
-1.5633e-06
-5.38541e-08
-1.5086e-06
-5.4673e-08
-1.45313e-06
-5.54405e-08
-1.39696e-06
-5.6158e-08
-1.34013e-06
-5.6823e-08
-1.28269e-06
-5.74354e-08
-1.2247e-06
-5.79926e-08
-1.16621e-06
-5.84953e-08
-1.10728e-06
-5.89427e-08
-1.04795e-06
-5.93366e-08
-9.88288e-07
-5.9676e-08
-9.28342e-07
-5.99631e-08
-8.68165e-07
-6.01971e-08
-8.07807e-07
-6.03805e-08
-7.47319e-07
-6.05129e-08
-6.8675e-07
-6.05972e-08
-6.26148e-07
-6.06333e-08
-5.65559e-07
-6.06243e-08
-5.05025e-07
-6.05704e-08
-4.4459e-07
-6.04748e-08
-3.84293e-07
-6.03376e-08
-3.24176e-07
-6.01606e-08
-2.64276e-07
-5.99443e-08
-2.04632e-07
-5.96899e-08
-1.45279e-07
-5.93987e-08
-8.62446e-08
-5.90818e-08
-2.7595e-08
-5.8696e-08
3.06518e-08
-5.82926e-08
8.85072e-08
-5.78991e-08
1.45894e-07
-5.74283e-08
2.02761e-07
-5.69068e-08
2.59121e-07
-5.63969e-08
3.14982e-07
-5.58969e-08
3.70347e-07
-5.53989e-08
4.25207e-07
-5.48918e-08
4.79537e-07
-5.43595e-08
5.33287e-07
-5.37784e-08
5.86368e-07
-5.31063e-08
6.38614e-07
-5.22697e-08
6.89717e-07
-5.11243e-08
7.3907e-07
-4.93719e-08
7.85373e-07
-4.6318e-08
8.25467e-07
-4.01079e-08
8.51283e-07
-2.58265e-08
1.89532e-08
8.32318e-07
9.05623e-09
-2.01012e-08
1.22643e-08
-1.6494e-08
1.07767e-08
-8.19406e-09
6.07612e-09
1.4404e-10
-1.1585e-09
7.9308e-09
-1.07183e-08
1.4903e-08
-2.25629e-08
2.08927e-08
-3.66066e-08
2.58647e-08
-5.26721e-08
2.99202e-08
-7.05093e-08
3.32456e-08
-8.98743e-08
3.60445e-08
-1.106e-07
3.84908e-08
-1.32553e-07
4.07156e-08
-1.5565e-07
4.28068e-08
-1.79834e-07
4.48187e-08
-2.05077e-07
4.67829e-08
-2.31359e-07
4.87167e-08
-2.58679e-07
5.06281e-08
-2.87029e-07
5.25191e-08
-3.16425e-07
5.43876e-08
-3.46858e-07
5.62291e-08
-3.78354e-07
5.80378e-08
-4.10901e-07
5.98113e-08
-4.44523e-07
6.15535e-08
-4.79193e-07
6.32812e-08
-5.14971e-07
6.4993e-08
-5.52012e-07
6.66714e-08
-5.90292e-07
6.83763e-08
-6.29887e-07
7.01372e-08
-6.71235e-07
7.1911e-08
-7.14301e-07
7.39328e-08
-7.58386e-07
7.63692e-08
-8.03305e-07
7.88974e-08
-8.48992e-07
8.12617e-08
-8.94465e-07
8.34952e-08
-9.39602e-07
8.52728e-08
-9.85538e-07
8.64333e-08
-1.02778e-06
8.76226e-08
-1.07296e-06
8.66992e-08
-1.12239e-06
8.5196e-08
-1.16372e-06
8.66586e-08
-1.20453e-06
8.66217e-08
-1.24891e-06
8.5074e-08
-1.29274e-06
8.46089e-08
-1.33421e-06
8.48244e-08
-1.37518e-06
8.46306e-08
-1.41562e-06
8.42735e-08
-1.45556e-06
8.38506e-08
-1.49503e-06
8.33891e-08
-1.53407e-06
8.289e-08
-1.5727e-06
8.23547e-08
-1.61095e-06
8.17861e-08
-1.64882e-06
8.11877e-08
-1.6863e-06
8.05613e-08
-1.72338e-06
7.99075e-08
-1.76007e-06
7.92253e-08
-1.79634e-06
7.85132e-08
-1.83218e-06
7.77683e-08
-1.86758e-06
7.69877e-08
-1.90252e-06
7.61677e-08
-1.93698e-06
7.5305e-08
-1.97093e-06
7.43955e-08
-2.00435e-06
7.3436e-08
-2.03721e-06
7.24225e-08
-2.0695e-06
7.13521e-08
-2.10118e-06
7.02213e-08
-2.13222e-06
6.90276e-08
-2.16259e-06
6.77682e-08
-2.19226e-06
6.6441e-08
-2.2212e-06
6.50437e-08
-2.24937e-06
6.3575e-08
-2.27675e-06
6.2033e-08
-2.3033e-06
6.04171e-08
-2.32899e-06
5.87259e-08
-2.35379e-06
5.69592e-08
-2.37765e-06
5.51163e-08
-2.40055e-06
5.31978e-08
-2.42246e-06
5.12033e-08
-2.44334e-06
4.91338e-08
-2.46315e-06
4.69892e-08
-2.48187e-06
4.47708e-08
-2.49946e-06
4.2479e-08
-2.5159e-06
4.0115e-08
-2.53114e-06
3.76793e-08
-2.54517e-06
3.51737e-08
-2.55795e-06
3.25985e-08
-2.56945e-06
2.99555e-08
-2.57965e-06
2.72449e-08
-2.58851e-06
2.44678e-08
-2.59602e-06
2.16237e-08
-2.60216e-06
1.87124e-08
-2.60692e-06
1.57349e-08
-2.6103e-06
1.2693e-08
-2.61229e-06
9.59023e-09
-2.61294e-06
6.43331e-09
-2.61229e-06
3.24295e-09
-2.61047e-06
6.12124e-11
-2.60753e-06
-3.06712e-09
-2.60331e-06
-6.16251e-09
-2.59763e-06
-9.26774e-09
-2.59042e-06
-1.23875e-08
-2.58166e-06
-1.55208e-08
-2.57135e-06
-1.86695e-08
-2.55948e-06
-2.18317e-08
-2.54603e-06
-2.50043e-08
-2.531e-06
-2.81838e-08
-2.5144e-06
-3.13663e-08
-2.49621e-06
-3.45485e-08
-2.47645e-06
-3.77267e-08
-2.45512e-06
-4.08979e-08
-2.43221e-06
-4.40582e-08
-2.40775e-06
-4.72045e-08
-2.38173e-06
-5.03327e-08
-2.35417e-06
-5.344e-08
-2.32508e-06
-5.6522e-08
-2.29447e-06
-5.95756e-08
-2.26237e-06
-6.25966e-08
-2.22878e-06
-6.55812e-08
-2.19373e-06
-6.85255e-08
-2.15725e-06
-7.14266e-08
-2.11935e-06
-7.42807e-08
-2.08006e-06
-7.70843e-08
-2.03941e-06
-7.9832e-08
-1.99743e-06
-8.25194e-08
-1.95415e-06
-8.51414e-08
-1.9096e-06
-8.76959e-08
-1.86381e-06
-9.01794e-08
-1.81683e-06
-9.25911e-08
-1.76869e-06
-9.49277e-08
-1.71943e-06
-9.71887e-08
-1.66908e-06
-9.93702e-08
-1.6177e-06
-1.01462e-07
-1.56533e-06
-1.03457e-07
-1.51202e-06
-1.05364e-07
-1.45781e-06
-1.0718e-07
-1.40275e-06
-1.08898e-07
-1.34689e-06
-1.10515e-07
-1.29029e-06
-1.12029e-07
-1.233e-06
-1.1344e-07
-1.17507e-06
-1.14748e-07
-1.11656e-06
-1.15948e-07
-1.05752e-06
-1.1704e-07
-9.97992e-07
-1.18022e-07
-9.38045e-07
-1.18895e-07
-8.77728e-07
-1.19659e-07
-8.17097e-07
-1.20316e-07
-7.56202e-07
-1.20866e-07
-6.95099e-07
-1.21312e-07
-6.33837e-07
-1.21654e-07
-5.72469e-07
-1.21896e-07
-5.11041e-07
-1.2204e-07
-4.49603e-07
-1.22089e-07
-3.882e-07
-1.22045e-07
-3.26876e-07
-1.21915e-07
-2.65673e-07
-1.21698e-07
-2.04632e-07
-1.21401e-07
-1.43791e-07
-1.21024e-07
-8.31866e-08
-1.20572e-07
-2.28498e-08
-1.2005e-07
3.71944e-08
-1.19467e-07
9.69155e-08
-1.18826e-07
1.56309e-07
-1.18113e-07
2.15319e-07
-1.17325e-07
2.73852e-07
-1.16454e-07
3.31909e-07
-1.15506e-07
3.89513e-07
-1.14531e-07
4.4666e-07
-1.13563e-07
5.03348e-07
-1.12604e-07
5.59571e-07
-1.11641e-07
6.15317e-07
-1.10655e-07
6.70558e-07
-1.09617e-07
7.25242e-07
-1.08479e-07
7.7928e-07
-1.07159e-07
8.3251e-07
-1.05513e-07
8.84637e-07
-1.03264e-07
9.35136e-07
-9.98813e-08
9.82958e-07
-9.41498e-08
1.02646e-06
-8.36142e-08
1.06235e-06
-6.17244e-08
-9.72323e-09
1.09102e-06
4.38193e-10
-2.05436e-08
-5.30213e-09
-1.07585e-08
-1.37472e-08
2.47695e-10
-2.39026e-08
1.02966e-08
-3.54219e-08
1.94477e-08
-4.82442e-08
2.77226e-08
-6.24434e-08
3.509e-08
-7.81219e-08
4.15405e-08
-9.53336e-08
4.71301e-08
-1.14067e-07
5.19762e-08
-1.34253e-07
5.62293e-08
-1.55805e-07
6.00407e-08
-1.78632e-07
6.35413e-08
-2.02659e-07
6.68329e-08
-2.27829e-07
6.99887e-08
-2.54106e-07
7.30589e-08
-2.81465e-07
7.60767e-08
-3.09901e-07
7.90629e-08
-3.3941e-07
8.20298e-08
-3.7001e-07
8.49838e-08
-4.01707e-07
8.79271e-08
-4.34534e-07
9.08589e-08
-4.68499e-07
9.37773e-08
-5.03627e-07
9.66773e-08
-5.39892e-07
9.95488e-08
-5.7727e-07
1.02372e-07
-6.15717e-07
1.05124e-07
-6.5512e-07
1.07788e-07
-6.9532e-07
1.10346e-07
-7.36177e-07
1.12782e-07
-7.77405e-07
1.15168e-07
-8.18567e-07
1.17545e-07
-8.59411e-07
1.19746e-07
-8.99821e-07
1.21679e-07
-9.39631e-07
1.23305e-07
-9.78848e-07
1.2449e-07
-1.01755e-06
1.25133e-07
-1.05529e-06
1.25353e-07
-1.09353e-06
1.24934e-07
-1.13255e-06
1.24206e-07
-1.16975e-06
1.23859e-07
-1.20632e-06
1.23185e-07
-1.24349e-06
1.22238e-07
-1.28043e-06
1.21546e-07
-1.31659e-06
1.20984e-07
-1.35228e-06
1.20321e-07
-1.38761e-06
1.19595e-07
-1.4226e-06
1.18837e-07
-1.45727e-06
1.1806e-07
-1.49164e-06
1.17263e-07
-1.52573e-06
1.16443e-07
-1.55955e-06
1.15596e-07
-1.59308e-06
1.14722e-07
-1.62634e-06
1.13815e-07
-1.65931e-06
1.12874e-07
-1.69198e-06
1.11893e-07
-1.72434e-06
1.10868e-07
-1.75637e-06
1.09795e-07
-1.78805e-06
1.08668e-07
-1.81937e-06
1.07482e-07
-1.8503e-06
1.06231e-07
-1.88082e-06
1.04911e-07
-1.9109e-06
1.03516e-07
-1.94053e-06
1.02042e-07
-1.96966e-06
1.00483e-07
-1.99828e-06
9.88353e-08
-2.02635e-06
9.70956e-08
-2.05384e-06
9.52599e-08
-2.08073e-06
9.33253e-08
-2.10698e-06
9.12888e-08
-2.13255e-06
8.91484e-08
-2.15742e-06
8.69018e-08
-2.18155e-06
8.45477e-08
-2.20491e-06
8.20849e-08
-2.22747e-06
7.95125e-08
-2.24919e-06
7.68301e-08
-2.27003e-06
7.4038e-08
-2.28996e-06
7.11362e-08
-2.30896e-06
6.81256e-08
-2.32698e-06
6.50068e-08
-2.34399e-06
6.17811e-08
-2.35996e-06
5.84498e-08
-2.37486e-06
5.50146e-08
-2.38866e-06
5.14771e-08
-2.40133e-06
4.78397e-08
-2.41284e-06
4.41042e-08
-2.42316e-06
4.02736e-08
-2.43226e-06
3.63501e-08
-2.44013e-06
3.23367e-08
-2.44674e-06
2.82366e-08
-2.45208e-06
2.40528e-08
-2.45613e-06
1.97907e-08
-2.4589e-06
1.54574e-08
-2.46037e-06
1.10618e-08
-2.46056e-06
6.61671e-09
-2.45946e-06
2.14065e-09
-2.45705e-06
-2.34408e-09
-2.45329e-06
-6.83086e-09
-2.44811e-06
-1.13433e-08
-2.44149e-06
-1.59e-08
-2.43338e-06
-2.04953e-08
-2.42379e-06
-2.51233e-08
-2.41268e-06
-2.97792e-08
-2.40007e-06
-3.44573e-08
-2.38593e-06
-3.91525e-08
-2.37026e-06
-4.38585e-08
-2.35306e-06
-4.85702e-08
-2.33434e-06
-5.32818e-08
-2.31408e-06
-5.79885e-08
-2.2923e-06
-6.26844e-08
-2.269e-06
-6.73652e-08
-2.24418e-06
-7.20249e-08
-2.21786e-06
-7.66588e-08
-2.19004e-06
-8.12609e-08
-2.16073e-06
-8.58265e-08
-2.12996e-06
-9.03496e-08
-2.09773e-06
-9.48249e-08
-2.06406e-06
-9.92463e-08
-2.02898e-06
-1.03609e-07
-1.99249e-06
-1.07907e-07
-1.95464e-06
-1.12135e-07
-1.91543e-06
-1.16288e-07
-1.87491e-06
-1.20359e-07
-1.83309e-06
-1.2434e-07
-1.79001e-06
-1.28225e-07
-1.74569e-06
-1.3201e-07
-1.70018e-06
-1.35689e-07
-1.6535e-06
-1.3926e-07
-1.6057e-06
-1.42721e-07
-1.55682e-06
-1.46068e-07
-1.50688e-06
-1.49296e-07
-1.45594e-06
-1.52392e-07
-1.40404e-06
-1.55348e-07
-1.35123e-06
-1.58169e-07
-1.29754e-06
-1.60853e-07
-1.24304e-06
-1.63392e-07
-1.18776e-06
-1.6578e-07
-1.13177e-06
-1.68015e-07
-1.07511e-06
-1.70096e-07
-1.01783e-06
-1.7202e-07
-9.59997e-07
-1.73785e-07
-9.01648e-07
-1.75388e-07
-8.42843e-07
-1.76828e-07
-7.83633e-07
-1.78106e-07
-7.24073e-07
-1.79221e-07
-6.64216e-07
-1.80176e-07
-6.04113e-07
-1.80972e-07
-5.43818e-07
-1.81611e-07
-4.8338e-07
-1.82097e-07
-4.22848e-07
-1.82432e-07
-3.62273e-07
-1.82621e-07
-3.01698e-07
-1.82668e-07
-2.41171e-07
-1.82579e-07
-1.80734e-07
-1.82358e-07
-1.20427e-07
-1.82011e-07
-6.02898e-08
-1.81545e-07
-3.54512e-10
-1.80966e-07
5.9344e-08
-1.80277e-07
1.1877e-07
-1.79482e-07
1.7789e-07
-1.78593e-07
2.36675e-07
-1.77617e-07
2.95113e-07
-1.76556e-07
3.53189e-07
-1.75406e-07
4.1088e-07
-1.7415e-07
4.68174e-07
-1.72806e-07
5.25062e-07
-1.71423e-07
5.81527e-07
-1.70034e-07
6.3756e-07
-1.68642e-07
6.93151e-07
-1.67235e-07
7.48282e-07
-1.6579e-07
8.02926e-07
-1.64265e-07
8.57035e-07
-1.62591e-07
9.10523e-07
-1.60651e-07
9.63244e-07
-1.58237e-07
1.01495e-06
-1.54972e-07
1.06522e-06
-1.50153e-07
1.1134e-06
-1.42335e-07
1.15861e-06
-1.28829e-07
1.20045e-06
-1.03567e-07
-5.28032e-08
1.24353e-06
-7.53779e-09
-1.30092e-08
-1.92684e-08
9.68808e-10
-3.23568e-08
1.33339e-08
-4.62666e-08
2.42045e-08
-6.08983e-08
3.40779e-08
-7.62951e-08
4.31177e-08
-9.25693e-08
5.13629e-08
-1.09856e-07
5.88256e-08
-1.28269e-07
6.55417e-08
-1.47879e-07
7.15847e-08
-1.68708e-07
7.70569e-08
-1.90741e-07
8.20723e-08
-2.1394e-07
8.67403e-08
-2.38264e-07
9.11554e-08
-2.63668e-07
9.53927e-08
-2.90119e-07
9.95089e-08
-3.17586e-07
1.03544e-07
-3.46051e-07
1.07527e-07
-3.75495e-07
1.11474e-07
-4.05907e-07
1.15393e-07
-4.37265e-07
1.19286e-07
-4.69555e-07
1.23145e-07
-5.02732e-07
1.26954e-07
-5.36745e-07
1.30687e-07
-5.71502e-07
1.34306e-07
-6.06894e-07
1.37765e-07
-6.42786e-07
1.41017e-07
-6.79013e-07
1.4402e-07
-7.15409e-07
1.46745e-07
-7.51803e-07
1.49184e-07
-7.88003e-07
1.51372e-07
-8.23789e-07
1.53338e-07
-8.59084e-07
1.55043e-07
-8.93856e-07
1.56455e-07
-9.28092e-07
1.57539e-07
-9.61841e-07
1.58238e-07
-9.95217e-07
1.58505e-07
-1.02826e-06
1.58394e-07
-1.06129e-06
1.57962e-07
-1.09442e-06
1.57326e-07
-1.12719e-06
1.56626e-07
-1.15976e-06
1.55751e-07
-1.19229e-06
1.54761e-07
-1.22457e-06
1.53831e-07
-1.25654e-06
1.52952e-07
-1.28828e-06
1.52058e-07
-1.31983e-06
1.51138e-07
-1.35119e-06
1.50195e-07
-1.38236e-06
1.49234e-07
-1.41335e-06
1.48252e-07
-1.44416e-06
1.47246e-07
-1.47477e-06
1.4621e-07
-1.50519e-06
1.45141e-07
-1.53541e-06
1.44031e-07
-1.56542e-06
1.42875e-07
-1.59519e-06
1.41665e-07
-1.62472e-06
1.40396e-07
-1.65399e-06
1.39061e-07
-1.68298e-06
1.37652e-07
-1.71166e-06
1.36163e-07
-1.74002e-06
1.34587e-07
-1.76803e-06
1.32916e-07
-1.79566e-06
1.31146e-07
-1.82289e-06
1.29269e-07
-1.84969e-06
1.2728e-07
-1.87603e-06
1.25174e-07
-1.90188e-06
1.22945e-07
-1.92721e-06
1.2059e-07
-1.95199e-06
1.18104e-07
-1.97619e-06
1.15484e-07
-1.99977e-06
1.12728e-07
-2.0227e-06
1.09832e-07
-2.04495e-06
1.06795e-07
-2.06648e-06
1.03615e-07
-2.08726e-06
1.00292e-07
-2.10726e-06
9.68245e-08
-2.12644e-06
9.32135e-08
-2.14476e-06
8.94591e-08
-2.1622e-06
8.55621e-08
-2.17872e-06
8.15238e-08
-2.19428e-06
7.73459e-08
-2.20887e-06
7.30304e-08
-2.22243e-06
6.85796e-08
-2.23495e-06
6.39964e-08
-2.2464e-06
5.92836e-08
-2.25674e-06
5.4445e-08
-2.26595e-06
4.94842e-08
-2.27401e-06
4.44056e-08
-2.28089e-06
3.9214e-08
-2.28656e-06
3.39142e-08
-2.29102e-06
2.85124e-08
-2.29424e-06
2.30157e-08
-2.29622e-06
1.74328e-08
-2.29693e-06
1.1774e-08
-2.29637e-06
6.05091e-09
-2.29451e-06
2.76561e-10
-2.29132e-06
-5.53879e-09
-2.28675e-06
-1.13959e-08
-2.28079e-06
-1.73066e-08
-2.27342e-06
-2.32773e-08
-2.26462e-06
-2.9302e-08
-2.25437e-06
-3.53731e-08
-2.24268e-06
-4.1483e-08
-2.22952e-06
-4.76236e-08
-2.21489e-06
-5.37876e-08
-2.19879e-06
-5.99666e-08
-2.18121e-06
-6.61539e-08
-2.16216e-06
-7.23417e-08
-2.14163e-06
-7.85237e-08
-2.11962e-06
-8.46922e-08
-2.09615e-06
-9.08409e-08
-2.07122e-06
-9.69622e-08
-2.04483e-06
-1.0305e-07
-2.01699e-06
-1.09096e-07
-1.98773e-06
-1.15094e-07
-1.95704e-06
-1.21037e-07