/*--------------------------------*- C++ -*----------------------------------*\
  =========                 |
  \\      /  F ield         | OpenFOAM: The Open Source CFD Toolbox
   \\    /   O peration     | Website:  https://openfoam.org
    \\  /    A nd           | Version:  8
     \\/     M anipulation  |
\*---------------------------------------------------------------------------*/
FoamFile
{
    version     2.0;
    format      ascii;
    class       volVectorField;
    location    "280";
    object      U;
}
// * * * * * * * * * * * * * * * * * * * * * * * * * * * * * * * * * * * * * //

dimensions      [0 1 -1 0 0 0 0];

internalField   nonuniform List<vector> 
12225
(
(9.85697 -0.886449 0)
(9.66665 -0.740747 0)
(9.45573 -0.429483 0)
(9.22456 -0.222216 0)
(9.00655 -0.106462 0)
(8.81446 -0.045876 0)
(8.64762 -0.0151803 0)
(8.50546 0.00043985 0)
(8.38387 0.00837791 0)
(8.28116 0.0122604 0)
(8.19285 0.0139739 0)
(8.11679 0.0149579 0)
(8.05019 0.015317 0)
(7.99139 0.0155362 0)
(7.9385 0.0154547 0)
(7.89244 0.015553 0)
(7.83989 0.015967 0)
(7.83047 0.00900876 0)
(10.0545 0.227568 0)
(10.121 0.32691 0)
(10.1196 0.261569 0)
(10.0856 0.186537 0)
(10.0435 0.134662 0)
(9.99676 0.101106 0)
(9.94406 0.0792718 0)
(9.88535 0.0645495 0)
(9.82402 0.0542367 0)
(9.76155 0.0466434 0)
(9.70014 0.040866 0)
(9.64038 0.036306 0)
(9.58318 0.0326264 0)
(9.52891 0.0297197 0)
(9.47722 0.0271942 0)
(9.42987 0.0261601 0)
(9.38251 0.0232323 0)
(9.34819 0.0313379 0)
(10.0035 0.0579182 0)
(10.0303 0.056006 0)
(10.0561 0.0337766 0)
(10.0704 0.0328909 0)
(10.077 0.0406372 0)
(10.0779 0.0465307 0)
(10.0726 0.0493409 0)
(10.0615 0.0502806 0)
(10.0463 0.050171 0)
(10.0279 0.0494477 0)
(10.0074 0.0483913 0)
(9.98528 0.0472082 0)
(9.96223 0.0459963 0)
(9.93871 0.044887 0)
(9.91495 0.0437659 0)
(9.89177 0.0432291 0)
(9.86871 0.0420688 0)
(9.84695 0.0435772 0)
(9.99779 0.0110532 0)
(10.011 0.0266067 0)
(10.035 0.0371468 0)
(10.0525 0.0480788 0)
(10.0644 0.0554414 0)
(10.0735 0.0581691 0)
(10.0796 0.0583326 0)
(10.0825 0.0575835 0)
(10.0829 0.0565254 0)
(10.0814 0.0553175 0)
(10.0784 0.0540297 0)
(10.0741 0.0527771 0)
(10.0687 0.0515535 0)
(10.0628 0.0504564 0)
(10.0561 0.0493779 0)
(10.0493 0.0486776 0)
(10.0424 0.0476595 0)
(10.0354 0.0474976 0)
(9.99935 0.00719744 0)
(10.009 0.0316522 0)
(10.0275 0.0439169 0)
(10.0418 0.0499137 0)
(10.0528 0.0535976 0)
(10.0629 0.0552164 0)
(10.0716 0.0554889 0)
(10.0784 0.0551904 0)
(10.0836 0.054636 0)
(10.0875 0.0539176 0)
(10.0903 0.0530892 0)
(10.0923 0.0522433 0)
(10.0935 0.0513933 0)
(10.0942 0.0506069 0)
(10.0944 0.0498322 0)
(10.0945 0.0492322 0)
(10.0944 0.04848 0)
(10.0943 0.0479343 0)
(10.0003 0.00917738 0)
(10.0083 0.0311668 0)
(10.0227 0.0409364 0)
(10.035 0.0453809 0)
(10.0451 0.0490197 0)
(10.0548 0.0513476 0)
(10.0638 0.0523196 0)
(10.0715 0.052542 0)
(10.078 0.0523942 0)
(10.0836 0.0520134 0)
(10.0885 0.0514745 0)
(10.0927 0.0508625 0)
(10.0964 0.0502106 0)
(10.0997 0.049566 0)
(10.1026 0.048908 0)
(10.1054 0.048298 0)
(10.108 0.0475851 0)
(10.1106 0.0468036 0)
(10.0005 0.00894345 0)
(10.0071 0.0270812 0)
(10.0191 0.0364036 0)
(10.0302 0.0413751 0)
(10.0396 0.0453912 0)
(10.0487 0.0480476 0)
(10.0573 0.0493056 0)
(10.065 0.0497617 0)
(10.0718 0.0498177 0)
(10.078 0.0496187 0)
(10.0835 0.0492414 0)
(10.0886 0.0487605 0)
(10.0933 0.0482168 0)
(10.0976 0.0476426 0)
(10.1017 0.0470308 0)
(10.1055 0.0463949 0)
(10.1093 0.045654 0)
(10.1131 0.0447513 0)
(10.0004 0.00791426 0)
(10.006 0.0233739 0)
(10.0161 0.0327237 0)
(10.0263 0.0380824 0)
(10.0352 0.0420685 0)
(10.0436 0.0447409 0)
(10.0518 0.0461385 0)
(10.0593 0.0467557 0)
(10.066 0.0469571 0)
(10.0723 0.0468865 0)
(10.078 0.0466214 0)
(10.0834 0.0462295 0)
(10.0884 0.045754 0)
(10.0932 0.0452191 0)
(10.0977 0.0446229 0)
(10.1021 0.0439586 0)
(10.1063 0.0431754 0)
(10.1105 0.0422097 0)
(10.0004 0.00695819 0)
(10.0051 0.0204207 0)
(10.0137 0.0294398 0)
(10.0229 0.0348389 0)
(10.0312 0.0386795 0)
(10.0392 0.0413285 0)
(10.0469 0.042845 0)
(10.0541 0.0435997 0)
(10.0607 0.0439154 0)
(10.0669 0.0439413 0)
(10.0727 0.0437572 0)
(10.0781 0.0434267 0)
(10.0832 0.0429926 0)
(10.0881 0.0424759 0)
(10.0928 0.0418769 0)
(10.0974 0.041184 0)
(10.1018 0.0403609 0)
(10.1061 0.0393634 0)
(10.0004 0.00612694 0)
(10.0043 0.0178542 0)
(10.0116 0.02626 0)
(10.0199 0.0315559 0)
(10.0277 0.0352689 0)
(10.0352 0.0378807 0)
(10.0425 0.039475 0)
(10.0494 0.0403306 0)
(10.0558 0.0407309 0)
(10.0618 0.040828 0)
(10.0675 0.0407027 0)
(10.0729 0.0404149 0)
(10.0781 0.0400057 0)
(10.083 0.0394956 0)
(10.0877 0.0388872 0)
(10.0922 0.0381703 0)
(10.0966 0.0373193 0)
(10.1009 0.0363121 0)
(10.0003 0.00536658 0)
(10.0037 0.0155438 0)
(10.0099 0.0232199 0)
(10.0173 0.028317 0)
(10.0245 0.0318866 0)
(10.0315 0.0344204 0)
(10.0384 0.0360381 0)
(10.045 0.036956 0)
(10.0513 0.0374152 0)
(10.0571 0.0375632 0)
(10.0627 0.0374803 0)
(10.068 0.0372226 0)
(10.0731 0.0368295 0)
(10.0779 0.0363217 0)
(10.0826 0.0357047 0)
(10.0871 0.0349725 0)
(10.0914 0.034109 0)
(10.0956 0.0331095 0)
(10.0003 0.00470095 0)
(10.0032 0.0136014 0)
(10.0086 0.0205713 0)
(10.0152 0.0254022 0)
(10.0219 0.0288047 0)
(10.0286 0.0312316 0)
(10.0351 0.0328289 0)
(10.0414 0.0337719 0)
(10.0474 0.0342636 0)
(10.0531 0.0344416 0)
(10.0586 0.0343848 0)
(10.0638 0.0341459 0)
(10.0688 0.0337629 0)
(10.0735 0.0332568 0)
(10.0781 0.032636 0)
(10.0825 0.0318992 0)
(10.0867 0.0310374 0)
(10.0907 0.0300595 0)
(10.0003 0.00408573 0)
(10.0028 0.0118313 0)
(10.0075 0.0180703 0)
(10.0134 0.0225587 0)
(10.0197 0.0257598 0)
(10.0259 0.0280547 0)
(10.0321 0.0295992 0)
(10.0381 0.0305405 0)
(10.0439 0.0310464 0)
(10.0495 0.0312416 0)
(10.0548 0.0312014 0)
(10.0598 0.0309762 0)
(10.0647 0.0306015 0)
(10.0694 0.0300994 0)
(10.0738 0.0294804 0)
(10.0781 0.0287484 0)
(10.0822 0.0278994 0)
(10.0861 0.026953 0)
(10.0002 0.00345021 0)
(10.0024 0.00999151 0)
(10.0064 0.0153876 0)
(10.0117 0.0194087 0)
(10.0174 0.0223248 0)
(10.0232 0.0244278 0)
(10.029 0.025869 0)
(10.0348 0.0267709 0)
(10.0403 0.0272666 0)
(10.0457 0.0274627 0)
(10.0508 0.027429 0)
(10.0557 0.027212 0)
(10.0604 0.026845 0)
(10.065 0.0263502 0)
(10.0693 0.0257406 0)
(10.0734 0.0250241 0)
(10.0774 0.024202 0)
(10.0812 0.0233008 0)
(10.0002 0.00279038 0)
(10.002 0.00808064 0)
(10.0055 0.0125337 0)
(10.0101 0.0159576 0)
(10.0153 0.0184867 0)
(10.0206 0.0203228 0)
(10.0261 0.0215967 0)
(10.0314 0.0224081 0)
(10.0367 0.0228574 0)
(10.0418 0.0230303 0)
(10.0468 0.0229875 0)
(10.0515 0.0227706 0)
(10.0561 0.0224098 0)
(10.0604 0.0219264 0)
(10.0646 0.0213352 0)
(10.0686 0.0206473 0)
(10.0724 0.0198679 0)
(10.076 0.0190271 0)
(10.0002 0.00210559 0)
(10.0017 0.00610089 0)
(10.0047 0.00951726 0)
(10.0088 0.0122106 0)
(10.0134 0.014234 0)
(10.0183 0.0157106 0)
(10.0233 0.0167389 0)
(10.0283 0.0173943 0)
(10.0333 0.0177482 0)
(10.0382 0.0178638 0)
(10.0429 0.0177896 0)
(10.0475 0.0175603 0)
(10.0518 0.0172016 0)
(10.056 0.016733 0)
(10.06 0.0161693 0)
(10.0639 0.015523 0)
(10.0675 0.0148013 0)
(10.071 0.0140347 0)
(10.0002 0.00139296 0)
(10.0015 0.00403837 0)
(10.0041 0.00632238 0)
(10.0076 0.00815134 0)
(10.0118 0.00953864 0)
(10.0163 0.0105481 0)
(10.0209 0.0112402 0)
(10.0256 0.0116634 0)
(10.0303 0.0118626 0)
(10.035 0.0118788 0)
(10.0394 0.0117451 0)
(10.0438 0.0114868 0)
(10.048 0.0111234 0)
(10.052 0.0106707 0)
(10.0559 0.0101413 0)
(10.0595 0.00954702 0)
(10.063 0.00889492 0)
(10.0663 0.00821309 0)
(10.0001 0.00063615 0)
(10.0013 0.00184141 0)
(10.0036 0.0028773 0)
(10.0068 0.00370018 0)
(10.0107 0.00431083 0)
(10.0148 0.00473133 0)
(10.0192 0.00498443 0)
(10.0236 0.00508999 0)
(10.0281 0.00506739 0)
(10.0325 0.00493502 0)
(10.0368 0.00470862 0)
(10.0409 0.00440112 0)
(10.045 0.00402338 0)
(10.0488 0.00358499 0)
(10.0525 0.00309446 0)
(10.056 0.00256019 0)
(10.0593 0.00198738 0)
(10.0625 0.00139942 0)
(10.0001 -0.000207845 0)
(10.0012 -0.000611685 0)
(10.0034 -0.000990788 0)
(10.0065 -0.00133466 0)
(10.0102 -0.00164207 0)
(10.0143 -0.00192728 0)
(10.0185 -0.00220811 0)
(10.0228 -0.00249663 0)
(10.0271 -0.0028 0)
(10.0313 -0.00312366 0)
(10.0355 -0.00347163 0)
(10.0395 -0.00384601 0)
(10.0434 -0.00424707 0)
(10.0471 -0.00467381 0)
(10.0507 -0.00512429 0)
(10.0541 -0.00559541 0)
(10.0573 -0.00608567 0)
(10.0604 -0.00657845 0)
(10.0001 -0.00101499 0)
(10.0013 -0.00296492 0)
(10.0037 -0.00470799 0)
(10.007 -0.00616373 0)
(10.0108 -0.00732809 0)
(10.015 -0.00826111 0)
(10.0193 -0.00902407 0)
(10.0237 -0.00965885 0)
(10.028 -0.0101996 0)
(10.0323 -0.0106775 0)
(10.0364 -0.0111172 0)
(10.0404 -0.0115352 0)
(10.0442 -0.011942 0)
(10.0479 -0.012345 0)
(10.0514 -0.0127489 0)
(10.0548 -0.0131555 0)
(10.0579 -0.0135671 0)
(10.0609 -0.0139731 0)
(10.0002 -0.00171098 0)
(10.0015 -0.00502002 0)
(10.0041 -0.00795636 0)
(10.0078 -0.0103184 0)
(10.012 -0.0121265 0)
(10.0164 -0.0135306 0)
(10.021 -0.0146368 0)
(10.0255 -0.0155021 0)
(10.03 -0.0161831 0)
(10.0343 -0.0167381 0)
(10.0385 -0.0172113 0)
(10.0425 -0.0176312 0)
(10.0464 -0.0180166 0)
(10.0501 -0.0183812 0)
(10.0536 -0.0187339 0)
(10.0569 -0.01908 0)
(10.06 -0.0194238 0)
(10.063 -0.0197583 0)
(10.0002 -0.00237198 0)
(10.0016 -0.00705097 0)
(10.0047 -0.0112025 0)
(10.009 -0.0143815 0)
(10.0137 -0.016687 0)
(10.0185 -0.0184296 0)
(10.0233 -0.0197691 0)
(10.0281 -0.0207764 0)
(10.0328 -0.0215325 0)
(10.0373 -0.0221185 0)
(10.0416 -0.0225908 0)
(10.0457 -0.0229857 0)
(10.0495 -0.0233296 0)
(10.0532 -0.0236417 0)
(10.0567 -0.0239349 0)
(10.06 -0.024217 0)
(10.0632 -0.0244931 0)
(10.0661 -0.0247591 0)
(10.0002 -0.00299068 0)
(10.0018 -0.00910793 0)
(10.0054 -0.0144712 0)
(10.0105 -0.0183687 0)
(10.0159 -0.0211206 0)
(10.0211 -0.0231504 0)
(10.0263 -0.0246133 0)
(10.0314 -0.0256343 0)
(10.0362 -0.0263675 0)
(10.0409 -0.0269226 0)
(10.0452 -0.027356 0)
(10.0494 -0.0277032 0)
(10.0533 -0.0279934 0)
(10.057 -0.0282488 0)
(10.0605 -0.0284835 0)
(10.0639 -0.0287058 0)
(10.067 -0.0289211 0)
(10.07 -0.0291272 0)
(10.0001 -0.00353606 0)
(10.0018 -0.0115602 0)
(10.0062 -0.0179035 0)
(10.0123 -0.0220084 0)
(10.0183 -0.0250822 0)
(10.024 -0.0274981 0)
(10.0296 -0.0291424 0)
(10.035 -0.0301583 0)
(10.0401 -0.030816 0)
(10.0448 -0.0312803 0)
(10.0493 -0.0316187 0)
(10.0536 -0.0318717 0)
(10.0575 -0.0320729 0)
(10.0613 -0.0322463 0)
(10.0648 -0.0324052 0)
(10.0681 -0.0325568 0)
(10.0712 -0.0327048 0)
(10.0741 -0.0328457 0)
(9.99991 -0.00338411 0)
(10.0016 -0.0149754 0)
(10.0073 -0.022739 0)
(10.0142 -0.0262567 0)
(10.0206 -0.0288492 0)
(10.0268 -0.0312199 0)
(10.0331 -0.0329462 0)
(10.039 -0.0340389 0)
(10.0444 -0.0347429 0)
(10.0494 -0.0352104 0)
(10.054 -0.0355118 0)
(10.0583 -0.035701 0)
(10.0623 -0.0358243 0)
(10.0659 -0.0359125 0)
(10.0693 -0.0359835 0)
(10.0725 -0.0360472 0)
(10.0754 -0.0361084 0)
(10.0781 -0.0361657 0)
(9.9986 -0.000400608 0)
(9.99908 -0.015762 0)
(10.0075 -0.0274395 0)
(10.0166 -0.0325051 0)
(10.0238 -0.0348858 0)
(10.0306 -0.0362456 0)
(10.0376 -0.0370013 0)
(10.0441 -0.0374715 0)
(10.0498 -0.0378233 0)
(10.0549 -0.0380734 0)
(10.0595 -0.0382208 0)
(10.0635 -0.0382906 0)
(10.0671 -0.0383128 0)
(10.0702 -0.0383086 0)
(10.073 -0.0382933 0)
(10.0754 -0.038275 0)
(10.0776 -0.0382575 0)
(10.0794 -0.0382391 0)
(9.99488 0.00133381 0)
(9.99288 -0.00809658 0)
(10.006 -0.0203585 0)
(10.0202 -0.0322866 0)
(10.0306 -0.0404915 0)
(10.0392 -0.0441657 0)
(10.0467 -0.0450807 0)
(10.0529 -0.0449386 0)
(10.0577 -0.0444739 0)
(10.0616 -0.0438803 0)
(10.0646 -0.0432373 0)
(10.0667 -0.0426019 0)
(10.0682 -0.0420083 0)
(10.069 -0.0414648 0)
(10.0693 -0.0409809 0)
(10.0692 -0.0405531 0)
(10.0687 -0.0401786 0)
(10.0679 -0.0398318 0)
(9.99473 -0.0305625 0)
(9.99925 -0.0228747 0)
(10.0147 -0.00264047 0)
(10.0304 -0.00191673 0)
(10.0434 -0.0116682 0)
(10.0533 -0.0209337 0)
(10.0594 -0.0272924 0)
(10.0618 -0.0315218 0)
(10.0615 -0.0342981 0)
(10.059 -0.0359957 0)
(10.055 -0.0369286 0)
(10.0497 -0.0373629 0)
(10.0434 -0.0374891 0)
(10.0364 -0.0374268 0)
(10.0288 -0.0372665 0)
(10.0209 -0.0370633 0)
(10.0127 -0.0368822 0)
(10.0045 -0.0366918 0)
(10.0273 -0.182759 0)
(10.0763 -0.288315 0)
(10.0871 -0.247758 0)
(10.0777 -0.186524 0)
(10.0663 -0.140302 0)
(10.0537 -0.108229 0)
(10.0365 -0.0858898 0)
(10.0145 -0.0704307 0)
(9.98934 -0.0596626 0)
(9.96229 -0.0518893 0)
(9.93431 -0.0460675 0)
(9.90598 -0.0415703 0)
(9.87779 -0.0380145 0)
(9.85007 -0.0351394 0)
(9.82307 -0.0327728 0)
(9.79689 -0.0308515 0)
(9.77179 -0.0293343 0)
(9.74778 -0.028514 0)
(9.93574 0.689319 0)
(9.8686 0.609604 0)
(9.76452 0.380621 0)
(9.62662 0.217439 0)
(9.48586 0.119264 0)
(9.35717 0.0631827 0)
(9.24263 0.0315707 0)
(9.14106 0.0136106 0)
(9.05136 0.00325714 0)
(8.97237 -0.00280435 0)
(8.90245 -0.00635999 0)
(8.84026 -0.00847936 0)
(8.78454 -0.00973015 0)
(8.73442 -0.0104762 0)
(8.68898 -0.0109792 0)
(8.64763 -0.0112481 0)
(8.60942 -0.0114546 0)
(8.57408 -0.0121146 0)
(0.00471473 -0.0109913 -8.3638e-19)
(0.0163387 -0.0174928 7.30616e-19)
(0.0265241 -0.0152662 0)
(0.0330589 -0.0091566 0)
(0.0349848 -0.0020582 0)
(0.0321025 0.00434152 -3.8369e-19)
(0.0254971 0.00924177 0)
(0.0160418 0.0125772 0)
(0.00446392 0.014659 0)
(-0.00866866 0.015892 0)
(-0.0230125 0.0166717 2.31171e-19)
(-0.0383913 0.0172779 0)
(-0.054696 0.0178534 0)
(-0.0718718 0.0184576 0)
(-0.0898927 0.0191066 0)
(-0.108743 0.0197942 1.25535e-19)
(-0.128412 0.0205022 0)
(-0.148891 0.0212018 0)
(-0.170165 0.0218535 0)
(-0.192223 0.0224061 0)
(-0.215036 0.0227995 0)
(-0.238578 0.0229721 0)
(-0.262806 0.0228772 0)
(-0.287683 0.0225049 7.68155e-20)
(-0.313167 0.0219335 -7.36793e-20)
(-0.339222 0.0210187 7.08432e-20)
(-0.365888 0.0196137 6.79453e-20)
(-0.393062 0.0191046 0)
(-0.420543 0.0197683 0)
(-0.448258 0.0205137 -5.84415e-20)
(-0.476092 0.0235979 -5.60691e-20)
(-0.504297 0.0308354 0)
(-0.53412 0.038945 0)
(-0.565703 0.0464111 -5.30693e-20)
(-0.599056 0.0557841 0)
(-0.634568 0.0623396 0)
(-0.672294 0.061949 5.16218e-20)
(-0.709727 0.0734309 0)
(-0.747379 0.0514105 6.63547e-20)
(-0.788636 0.0220018 1.41786e-19)
(-0.822872 0.0455654 0)
(-0.864686 0.0430933 0)
(-0.906401 0.0253324 0)
(-0.942755 0.025857 0)
(-0.979941 0.0341447 0)
(-1.0207 0.0347642 1.14559e-19)
(-1.06117 0.0347757 1.11301e-19)
(-1.10175 0.0346642 1.08211e-19)
(-1.14239 0.0345191 0)
(-1.18305 0.0343016 -1.0255e-19)
(-1.22367 0.0340342 0)
(-1.2642 0.0337289 9.75398e-20)
(-1.30461 0.0333999 9.52509e-20)
(-1.34487 0.0330529 0)
(-1.38496 0.0326938 0)
(-1.42486 0.0323241 0)
(-1.46456 0.0319459 8.72792e-20)
(-1.50404 0.0315584 0)
(-1.54329 0.031162 0)
(-1.58227 0.030755 0)
(-1.62099 0.0303372 0)
(-1.65941 0.0299064 0)
(-1.69751 0.0294623 0)
(-1.73526 0.0290025 0)
(-1.77264 0.0285267 0)
(-1.80962 0.0280331 -7.40969e-20)
(-1.84618 0.0275213 0)
(-1.88226 0.0269898 0)
(-1.91786 0.0264387 7.06387e-20)
(-1.95291 0.0258664 6.95567e-20)
(-1.98741 0.0252735 0)
(-2.02129 0.0246587 -6.74813e-20)
(-2.05453 0.0240227 6.64826e-20)
(-2.08709 0.0233646 0)
(-2.11893 0.0226852 -6.45506e-20)
(-2.15 0.0219839 0)
(-2.18027 0.0212619 0)
(-2.2097 0.020519 6.17825e-20)
(-2.23824 0.0197562 0)
(-2.26586 0.0189732 -5.99994e-20)
(-2.29251 0.0181713 0)
(-2.31816 0.0173503 5.82482e-20)
(-2.34275 0.0165114 5.73801e-20)
(-2.36626 0.0156538 5.65147e-20)
(-2.38865 0.0147788 1.11301e-19)
(-2.40986 0.0138854 -1.09571e-19)
(-2.42987 0.012974 0)
(-2.44863 0.0120419 0)
(-2.4661 0.0110871 0)
(-2.48224 0.0101046 -1.02581e-19)
(-2.49701 0.00908787 -1.00803e-19)
(-2.51035 0.00802909 9.90074e-20)
(-2.5222 0.0069187 0)
(-2.53251 0.00574689 -9.5357e-20)
(-2.5412 0.00451087 -9.34995e-20)
(-2.54819 0.0032313 -9.1621e-20)
(-2.5534 0.00196645 0)
(-2.5567 0.000799739 0)
(-2.55804 -0.000201947 0)
(-2.55795 -0.00109526 -8.37562e-20)
(-2.55633 -0.00196508 0)
(-2.55323 -0.00282338 0)
(-2.54863 -0.00367711 7.73432e-20)
(-2.54254 -0.00452708 0)
(-2.53494 -0.00537273 0)
(-2.52581 -0.00621399 7.04317e-20)
(-2.51516 -0.00704944 0)
(-2.50297 -0.00787936 0)
(-2.48925 -0.0087023 -6.29533e-20)
(-2.47398 -0.00951873 -6.03222e-20)
(-2.45718 -0.0103271 0)
(-2.43883 -0.0111279 5.48363e-20)
(-2.41895 -0.0119196 0)
(-2.39753 -0.0127026 -4.90322e-20)
(-2.37458 -0.0134754 0)
(-2.35011 -0.0142385 -4.28852e-20)
(-2.32413 -0.0149903 -3.96747e-20)
(-2.29665 -0.0157315 0)
(-2.26768 -0.0164603 0)
(-2.23724 -0.0171776 0)
(-2.20534 -0.0178821 0)
(-2.17201 -0.0185741 0)
(-2.13726 -0.0192519 0)
(-2.10112 -0.0199158 0)
(-2.0636 -0.0205643 -1.01896e-20)
(-2.02474 -0.0211987 5.96011e-21)
(-1.98456 -0.0218183 0)
(-1.94309 -0.0224242 0)
(-1.90036 -0.0230153 0)
(-1.8564 -0.0235911 0)
(-1.81124 -0.0241501 -3.48057e-20)
(-1.76492 -0.0246924 0)
(-1.71749 -0.0252197 5.58468e-20)
(-1.66897 -0.0257333 -6.69385e-20)
(-1.61942 -0.02623 0)
(-1.56886 -0.0267091 0)
(-1.51735 -0.027172 0)
(-1.46494 -0.0276184 1.15624e-19)
(-1.41166 -0.0280489 1.29001e-19)
(-1.35757 -0.0284628 0)
(-1.30272 -0.0288601 1.57407e-19)
(-1.24715 -0.0292402 1.72506e-19)
(-1.19091 -0.0296034 -1.88253e-19)
(-1.13405 -0.0299501 0)
(-1.07662 -0.0302812 0)
(-1.01867 -0.0305968 -2.39838e-19)
(-0.960248 -0.030898 0)
(-0.901403 -0.0311849 0)
(-0.842185 -0.0314588 0)
(-0.782639 -0.0317203 0)
(-0.722813 -0.0319706 3.43737e-19)
(-0.662752 -0.0322105 3.6787e-19)
(-0.6025 -0.0324417 0)
(-0.542099 -0.0326649 4.2028e-19)
(-0.481591 -0.0328819 0)
(-0.421014 -0.0330935 0)
(-0.360406 -0.0333006 5.11276e-19)
(-0.299806 -0.0335035 0)
(-0.23925 -0.0337054 5.82227e-19)
(-0.178775 -0.0339193 0)
(-0.118413 -0.034153 0)
(-0.058226 -0.034356 7.09074e-19)
(0.0017788 -0.0342097 0)
(0.0615492 -0.0334797 7.33223e-19)
(0.121103 -0.0325092 0)
(0.18037 -0.0315634 0)
(0.239329 -0.0306731 0)
(0.297983 -0.0298312 -6.67638e-19)
(0.35634 -0.0290293 0)
(0.414398 -0.0282584 6.4138e-19)
(0.472141 -0.0275085 0)
(0.529534 -0.0267669 0)
(0.586509 -0.0260144 0)
(0.642932 -0.0252202 0)
(0.698604 -0.0243256 0)
(0.752907 -0.0232205 0)
(0.80555 -0.0216326 0)
(0.851643 -0.0189114 -1.13542e-18)
(0.897051 -0.0135142 0)
(0.888894 0.00359997 0)
(0.00480139 -0.0332645 1.94477e-18)
(0.0106571 -0.0331959 -1.09116e-18)
(0.0108313 -0.02087 0)
(0.00799361 -0.00731096 3.43322e-19)
(0.00271072 0.00554817 0)
(-0.00470622 0.0167967 1.33947e-19)
(-0.0142506 0.0259864 -2.45233e-19)
(-0.0258254 0.0331214 -2.26532e-19)
(-0.0392956 0.0385083 0)
(-0.0544584 0.042585 -1.93837e-19)
(-0.071089 0.0457821 -8.97153e-20)
(-0.0890055 0.0484334 0)
(-0.108078 0.0507593 0)
(-0.128216 0.0528872 0)
(-0.14936 0.0548848 0)
(-0.171476 0.0567838 -6.35908e-20)
(-0.194546 0.0585972 0)
(-0.218566 0.0603279 1.14226e-19)
(-0.243535 0.0619739 0)
(-0.26946 0.0635305 0)
(-0.296348 0.0649951 -1.00615e-19)
(-0.324211 0.0663679 0)
(-0.35306 0.067664 9.40745e-20)
(-0.382899 0.0689183 -4.56244e-20)
(-0.413719 0.0701991 4.4317e-20)
(-0.445568 0.0715425 -4.31301e-20)
(-0.478558 0.0729289 -4.20172e-20)
(-0.512617 0.0743557 0)
(-0.547742 0.0757736 0)
(-0.584312 0.0770033 3.90857e-20)
(-0.622478 0.0782092 -3.81217e-20)
(-0.662027 0.0795979 0)
(-0.702523 0.0809547 0)
(-0.743828 0.0819132 3.75518e-20)
(-0.78547 0.0826604 0)
(-0.826812 0.0832474 0)
(-0.867948 0.0835925 -3.67808e-20)
(-0.907655 0.084412 0)
(-0.950255 0.0854982 3.73441e-20)
(-0.99249 0.0862697 -7.36584e-20)
(-1.03332 0.0885462 0)
(-1.07152 0.0897195 0)
(-1.11069 0.0893208 -1.32584e-19)
(-1.15102 0.089235 -1.29364e-19)
(-1.19068 0.0893791 -1.26231e-19)
(-1.22881 0.0891422 6.15515e-20)
(-1.26648 0.0885941 -6.04933e-20)
(-1.30374 0.0878553 -1.77446e-19)
(-1.34063 0.086995 1.1583e-19)
(-1.37716 0.0860477 5.69323e-20)
(-1.41338 0.0850369 0)
(-1.44929 0.083981 -5.48391e-20)
(-1.48491 0.0828934 5.35785e-20)
(-1.52023 0.0817818 0)
(-1.55525 0.0806516 0)
(-1.58996 0.079504 0)
(-1.62436 0.0783399 -5.03561e-20)
(-1.65843 0.0771575 0)
(-1.69216 0.0759557 9.73179e-20)
(-1.72553 0.0747313 0)
(-1.75852 0.0734826 9.44141e-20)
(-1.79112 0.0722061 0)
(-1.8233 0.0709001 -9.16874e-20)
(-1.85504 0.0695613 0)
(-1.88631 0.0681881 8.91095e-20)
(-1.91709 0.0667779 -4.38075e-20)
(-1.94736 0.0653296 0)
(-1.97708 0.0638412 -8.54681e-20)
(-2.00622 0.0623125 -4.22707e-20)
(-2.03477 0.0607417 -4.16956e-20)
(-2.06267 0.0591292 0)
(-2.08992 0.0574741 -4.03511e-20)
(-2.11647 0.055777 -4.00186e-20)
(-2.14228 0.0540376 0)
(-2.16734 0.052257 3.89301e-20)
(-2.19161 0.0504354 -7.65929e-20)
(-2.21505 0.0485746 0)
(-2.23764 0.0466752 -3.73214e-20)
(-2.25933 0.0447393 0)
(-2.28011 0.0427672 1.08607e-19)
(-2.29993 0.0407615 0)
(-2.31876 0.038723 -1.05413e-19)
(-2.33658 0.0366541 -3.46443e-20)
(-2.35334 0.0345553 3.39857e-20)
(-2.36903 0.0324291 6.68999e-20)
(-2.38361 0.0302763 -6.58193e-20)
(-2.39705 0.0280994 0)
(-2.40932 0.0258984 0)
(-2.42039 0.0236746 0)
(-2.43024 0.0214273 1.84329e-19)
(-2.43885 0.0191551 6.03047e-20)
(-2.44619 0.0168571 -5.91169e-20)
(-2.45227 0.0145317 0)
(-2.45707 0.0121749 -5.66914e-20)
(-2.4606 0.00977915 5.54424e-20)
(-2.46291 0.00734468 5.41803e-20)
(-2.46406 0.00490093 0)
(-2.46415 0.00252034 0)
(-2.46327 0.000283341 0)
(-2.461 -0.00184159 4.88469e-20)
(-2.45733 -0.00392597 0)
(-2.45221 -0.00598248 -9.22322e-20)
(-2.44563 -0.00801895 -1.33916e-19)
(-2.43757 -0.010036 8.64201e-20)
(-2.42802 -0.0120322 0)
(-2.41697 -0.014006 4.035e-20)
(-2.40441 -0.0159546 0)
(-2.39034 -0.017877 7.41373e-20)
(-2.37475 -0.0197706 -3.56574e-20)
(-2.35764 -0.0216345 -3.40345e-20)
(-2.33901 -0.0234664 0)
(-2.31886 -0.0252655 -9.11456e-20)
(-2.29719 -0.0270292 5.74658e-20)
(-2.27401 -0.0287569 2.67095e-20)
(-2.24931 -0.030446 0)
(-2.22312 -0.0320961 2.307e-20)
(-2.19543 -0.0337047 6.42159e-20)
(-2.16626 -0.0352708 0)
(-2.13563 -0.0367924 3.54024e-20)
(-2.10353 -0.0382692 3.14993e-20)
(-2.07 -0.0396995 2.75308e-20)
(-2.03506 -0.0410827 0)
(-1.99871 -0.0424161 0)
(-1.96099 -0.0436986 0)
(-1.92191 -0.0449277 -5.90142e-21)
(-1.8815 -0.0461041 -2.93199e-21)
(-1.83979 -0.0472264 0)
(-1.79681 -0.0482959 2.10779e-21)
(-1.75258 -0.0493114 6.60971e-21)
(-1.70714 -0.0502745 0)
(-1.66052 -0.0511845 1.67545e-20)
(-1.61276 -0.0520353 4.10439e-20)
(-1.5639 -0.0528235 -2.62748e-20)
(-1.51397 -0.0535569 -2.9142e-20)
(-1.46302 -0.054237 0)
(-1.41108 -0.0548595 0)
(-1.3582 -0.0554232 0)
(-1.30443 -0.0559298 -5.12453e-20)
(-1.24982 -0.0563802 5.4281e-20)
(-1.19441 -0.0567749 1.21216e-19)
(-1.13825 -0.0571138 -6.703e-20)
(-1.08139 -0.0573972 7.01829e-20)
(-1.02387 -0.0576255 7.78837e-20)
(-0.965746 -0.0578007 0)
(-0.907069 -0.0579238 0)
(-0.847887 -0.057997 -9.23281e-20)
(-0.78825 -0.0580215 0)
(-0.728206 -0.0579998 0)
(-0.667805 -0.0579333 2.21628e-19)
(-0.607094 -0.0578248 0)
(-0.54612 -0.057676 1.21483e-19)
(-0.484928 -0.0574899 -1.29902e-19)
(-0.423562 -0.0572686 0)
(-0.362066 -0.0570152 1.3973e-19)
(-0.300478 -0.0567314 0)
(-0.23884 -0.0564204 0)
(-0.177189 -0.0560827 -1.6092e-19)
(-0.115559 -0.0557192 3.32181e-19)
(-0.0539897 -0.0553313 -1.7372e-19)
(0.00749932 -0.0549217 0)
(0.0688859 -0.0544898 0)
(0.130152 -0.0540311 1.80826e-19)
(0.191273 -0.0534541 0)
(0.25215 -0.052667 1.84545e-19)
(0.312751 -0.0517641 0)
(0.373091 -0.0508589 0)
(0.433183 -0.0499807 0)
(0.493024 -0.04913 1.93629e-19)
(0.552612 -0.0482998 0)
(0.611939 -0.0474807 -1.96497e-19)
(0.670988 -0.046659 0)
(0.729721 -0.0458147 0)
(0.78807 -0.0449143 3.98447e-19)
(0.845908 -0.0439004 -4.00567e-19)
(0.903032 -0.0426606 0)
(0.958944 -0.0409849 0)
(1.01325 -0.038341 0)
(1.06303 -0.0337445 1.23151e-18)
(1.11143 -0.0238638 0)
(1.13686 -5.46829e-05 -8.54484e-19)
(0.000233807 -0.0417041 -7.97679e-22)
(-0.00205531 -0.0281688 1.05991e-18)
(-0.00818876 -0.00947692 0)
(-0.0163403 0.00795916 -4.33361e-19)
(-0.0259844 0.0236947 0)
(-0.0368179 0.0376153 0)
(-0.0488351 0.0496206 3.62215e-23)
(-0.0621329 0.0597086 1.34255e-19)
(-0.0767926 0.0680391 1.2632e-19)
(-0.0928344 0.0749006 1.19422e-19)
(-0.110219 0.0806299 0)
(-0.128875 0.085541 0)
(-0.14872 0.0898879 -1.01888e-19)
(-0.169682 0.0938552 -1.9395e-19)
(-0.191704 0.097567 1.8502e-19)
(-0.214746 0.101103 0)
(-0.238785 0.104512 1.69733e-19)
(-0.26381 0.107824 -8.16428e-20)
(-0.289821 0.11106 0)
(-0.316829 0.114229 1.52495e-19)
(-0.344846 0.117341 7.39789e-20)
(-0.373895 0.120404 -1.44009e-19)
(-0.403997 0.123428 -7.01795e-20)
(-0.435168 0.126424 0)
(-0.467421 0.129404 1.34039e-19)
(-0.500733 0.132363 1.30953e-19)
(-0.535056 0.135253 0)
(-0.570289 0.138041 1.24668e-19)
(-0.606296 0.140665 0)
(-0.643 0.143073 1.18582e-19)
(-0.680264 0.145499 5.80689e-20)
(-0.717778 0.148127 0)
(-0.755149 0.15062 0)
(-0.792223 0.152839 0)
(-0.828856 0.154758 0)
(-0.864888 0.155999 0)
(-0.900403 0.15634 0)
(-0.935496 0.156343 1.01804e-19)
(-0.970775 0.15489 -1.50352e-19)
(-1.00625 0.15276 0)
(-1.04106 0.151789 0)
(-1.07479 0.149636 0)
(-1.10871 0.146631 4.95295e-23)
(-1.14308 0.144438 8.84815e-20)
(-1.17706 0.142813 1.73105e-19)
(-1.21038 0.141074 -1.69528e-19)
(-1.24333 0.139295 -8.30122e-20)
(-1.27602 0.137503 8.15331e-20)
(-1.30846 0.135699 -1.38646e-22)
(-1.34068 0.133879 7.84085e-20)
(-1.37268 0.132041 0)
(-1.40448 0.130188 7.56723e-20)
(-1.43607 0.128319 -1.53671e-22)
(-1.46747 0.126434 0)
(-1.49865 0.124533 0)
(-1.52962 0.122612 -7.08164e-20)
(-1.56036 0.12067 0)
(-1.59085 0.118702 0)
(-1.62109 0.116704 6.74395e-20)
(-1.65105 0.114672 1.33182e-19)
(-1.68072 0.112601 -6.57697e-20)
(-1.71007 0.110487 0)
(-1.73909 0.108327 6.38841e-20)
(-1.76775 0.106116 0)
(-1.79602 0.103852 6.17798e-20)
(-1.82388 0.101532 6.12116e-20)
(-1.85131 0.099154 -1.20415e-19)
(-1.87827 0.0967156 -5.92234e-20)
(-1.90473 0.0942158 0)
(-1.93067 0.0916537 1.15453e-19)
(-1.95606 0.089029 0)
(-1.98086 0.0863414 1.68506e-19)
(-2.00505 0.0835916 1.10672e-19)
(-2.02858 0.0807798 1.09106e-19)
(-2.05144 0.0779075 -1.07549e-19)
(-2.07358 0.0749759 1.59112e-19)
(-2.09498 0.071987 0)
(-2.1156 0.0689426 0)
(-2.13541 0.065845 -1.0137e-19)
(-2.15437 0.0626964 -1.49829e-19)
(-2.17246 0.0594996 0)
(-2.18964 0.056257 4.84402e-20)
(-2.20587 0.0529715 0)
(-2.22114 0.0496457 -1.40449e-19)
(-2.23541 0.0462827 -1.18381e-22)
(-2.24864 0.0428852 1.04592e-22)
(-2.26081 0.0394565 8.87962e-20)
(-2.2719 0.0359991 0)
(-2.28187 0.0325162 -8.55216e-20)
(-2.29071 0.0290104 -4.64322e-23)
(-2.29839 0.0254849 0)
(-2.3049 0.0219445 0)
(-2.31023 0.0183963 0)
(-2.31436 0.0148502 7.69663e-20)
(-2.31731 0.0113199 0)
(-2.31907 0.00782483 0)
(-2.31963 0.00438648 0)
(-2.31896 0.00101209 0)
(-2.317 -0.00232821 0)
(-2.31369 -0.00565399 6.5785e-20)
(-2.309 -0.00895597 0)
(-2.30291 -0.0122307 6.16485e-20)
(-2.29541 -0.0154762 5.95947e-20)
(-2.28647 -0.0186894 -5.75116e-20)
(-2.27608 -0.0218671 0)
(-2.26424 -0.0250053 -5.32562e-20)
(-2.25094 -0.028101 0)
(-2.23616 -0.0311506 -4.88801e-20)
(-2.21992 -0.0341515 4.66464e-20)
(-2.20219 -0.0371006 1.33718e-19)
(-2.18299 -0.0399952 0)
(-2.16231 -0.0428326 1.19926e-19)
(-2.14015 -0.0456103 3.80786e-20)
(-2.11652 -0.0483255 0)
(-2.09143 -0.0509757 6.59507e-20)
(-2.06487 -0.0535585 6.10934e-20)
(-2.03686 -0.0560714 -8.38661e-20)
(-2.00741 -0.0585116 0)
(-1.97653 -0.0608771 -2.2655e-20)
(-1.94424 -0.063166 -2.0096e-20)
(-1.91055 -0.0653766 -5.34496e-20)
(-1.87547 -0.0675064 0)
(-1.83904 -0.0695528 0)
(-1.80126 -0.0715128 0)
(-1.76216 -0.0733842 -7.93469e-21)
(-1.72177 -0.0751658 0)
(-1.68011 -0.0768569 0)
(-1.63721 -0.0784578 -1.30949e-21)
(-1.5931 -0.0799684 -4.09159e-21)
(-1.54781 -0.081389 0)
(-1.50137 -0.0827183 0)
(-1.45382 -0.083951 -2.51234e-20)
(-1.40519 -0.0850827 0)
(-1.35553 -0.08612 3.6609e-20)
(-1.30487 -0.0870642 4.11397e-20)
(-1.25325 -0.0879119 0)
(-1.20072 -0.0886618 0)
(-1.14732 -0.0893154 -5.86459e-20)
(-1.09311 -0.0898739 -1.32927e-21)
(-1.03811 -0.0903382 -1.34393e-21)
(-0.982392 -0.0907085 0)
(-0.925989 -0.0909857 -1.66055e-19)
(-0.868953 -0.0911709 0)
(-0.811332 -0.0912666 0)
(-0.753175 -0.0912747 0)
(-0.694531 -0.0911983 1.07724e-19)
(-0.63545 -0.0910397 0)
(-0.575979 -0.0908024 -2.36705e-19)
(-0.516167 -0.0904892 -1.25807e-19)
(-0.456059 -0.0901039 0)
(-0.395703 -0.0896499 -1.37859e-19)
(-0.335142 -0.0891312 0)
(-0.27442 -0.0885513 0)
(-0.213579 -0.0879147 -4.64748e-19)
(-0.152657 -0.087224 3.20829e-19)
(-0.0916943 -0.0864833 0)
(-0.0307252 -0.0856961 3.44562e-19)
(0.030222 -0.0848689 -1.784e-19)
(0.0911126 -0.0840046 0)
(0.151912 -0.0831002 0)
(0.212588 -0.0821546 0)
(0.273123 -0.0811748 -5.71167e-19)
(0.333508 -0.080161 0)
(0.393724 -0.0791081 -1.97296e-19)
(0.45375 -0.078026 0)
(0.51358 -0.076942 0)
(0.573204 -0.0758723 0)
(0.632608 -0.0748178 0)
(0.691783 -0.0737721 0)
(0.75072 -0.0727241 0)
(0.809397 -0.0716555 -4.29929e-19)
(0.867779 -0.0705373 0)
(0.925801 -0.0693201 -2.20461e-19)
(0.983346 -0.0679178 6.65526e-19)
(1.04023 -0.0661707 0)
(1.09606 -0.0637778 0)
(1.15054 -0.060096 -4.55312e-19)
(1.20176 -0.0538834 -4.61875e-19)
(1.25275 -0.0421808 4.67066e-19)
(1.29134 -0.0175083 4.80947e-19)
(-0.0048199 -0.0335042 -2.98534e-18)
(-0.012795 -0.0109994 -1.27507e-18)
(-0.0228862 0.0110684 -4.62294e-19)
(-0.0346151 0.030582 -1.64832e-19)
(-0.0473331 0.0480378 0)
(-0.0607091 0.0636479 2.3867e-19)
(-0.074792 0.0774709 -1.09096e-19)
(-0.0897213 0.0895528 0)
(-0.105622 0.100009 -9.62042e-20)
(-0.122579 0.109035 0)
(-0.140636 0.11688 1.74316e-19)
(-0.159792 0.123798 0)
(-0.180025 0.13002 7.97391e-20)
(-0.201297 0.135736 1.52931e-19)
(-0.223571 0.141088 -1.46921e-19)
(-0.246813 0.146179 0)
(-0.270998 0.151081 -1.36439e-19)
(-0.296107 0.155844 0)
(-0.322125 0.160498 0)
(-0.349043 0.165062 -1.24182e-19)
(-0.37685 0.169546 0)
(-0.405533 0.173947 -6.92451e-23)
(-0.435067 0.178253 0)
(-0.465413 0.182439 0)
(-0.496509 0.186457 2.91787e-23)
(-0.52826 0.190234 -1.0729e-19)
(-0.560548 0.193702 -1.04634e-19)
(-0.593228 0.196799 -1.01987e-19)
(-0.626151 0.199487 0)
(-0.659185 0.201766 -1.93193e-19)
(-0.692194 0.203725 0)
(-0.724991 0.205436 -9.15729e-20)
(-0.757401 0.206804 0)
(-0.789389 0.207744 0)
(-0.820925 0.208202 8.52459e-20)
(-0.852014 0.208073 0)
(-0.882756 0.207285 -8.14504e-20)
(-0.913274 0.205933 1.67319e-23)
(-0.943738 0.203989 1.55934e-19)
(-0.97421 0.201744 -1.52448e-19)
(-1.0045 0.199602 0)
(-1.03455 0.197088 0)
(-1.06457 0.194264 -7.11368e-20)
(-1.0946 0.191604 0)
(-1.12444 0.189116 -6.82941e-20)
(-1.15404 0.18664 6.69283e-20)
(-1.18348 0.184168 6.56333e-20)
(-1.21278 0.181709 0)
(-1.24196 0.179264 -6.32272e-20)
(-1.27101 0.176826 -6.21036e-20)
(-1.29993 0.174391 1.21941e-19)
(-1.32873 0.17195 -5.99917e-20)
(-1.35741 0.169499 -5.89962e-20)
(-1.38594 0.167033 0)
(-1.41433 0.164546 0)
(-1.44257 0.162031 5.62158e-20)