# vtk DataFile Version 2.0
track0
ASCII
DATASET POLYDATA
POINTS 12073 float
-0.0205 0.001 1e-05
-0.02052 0.000999985 1e-05
-0.02054 0.000999974 1e-05
-0.02056 0.000999965 1e-05
-0.02058 0.000999959 1e-05
-0.0206 0.000999956 1e-05
-0.0205 0.00367778 1e-05
-0.02052 0.00367778 1e-05
-0.02054 0.00367777 1e-05
-0.02056 0.00367777 1e-05
-0.02058 0.00367777 1e-05
-0.0206 0.00367777 1e-05
-0.0205 0.00635556 1e-05
-0.02052 0.00635555 1e-05
-0.02054 0.00635555 1e-05
-0.02056 0.00635555 1e-05
-0.02058 0.00635555 1e-05
-0.0206 0.00635555 1e-05
-0.0205 0.00903333 1e-05
-0.02052 0.00903333 1e-05
-0.02054 0.00903333 1e-05
-0.02056 0.00903333 1e-05
-0.02058 0.00903333 1e-05
-0.0206 0.00903333 1e-05
-0.0205 0.0117111 1e-05
-0.02052 0.0117111 1e-05
-0.02054 0.0117111 1e-05
-0.02056 0.0117111 1e-05
-0.02058 0.0117111 1e-05
-0.0206 0.0117111 1e-05
-0.0205 0.0143889 1e-05
-0.02052 0.0143889 1e-05
-0.02054 0.0143889 1e-05
-0.02056 0.0143889 1e-05
-0.02058 0.0143889 1e-05
-0.0206 0.0143889 1e-05
-0.0205 0.0170667 1e-05
-0.02052 0.0170667 1e-05
-0.02054 0.0170667 1e-05
-0.02056 0.0170667 1e-05
-0.02058 0.0170667 1e-05
-0.0206 0.0170667 1e-05
-0.0205 0.0197444 1e-05
-0.02052 0.0197444 1e-05
-0.02054 0.0197444 1e-05
-0.02056 0.0197444 1e-05
-0.02058 0.0197444 1e-05
-0.0206 0.0197444 1e-05
-0.0205 0.0224222 1e-05
-0.02052 0.0224222 1e-05
-0.02054 0.0224222 1e-05
-0.02056 0.0224222 1e-05
-0.02058 0.0224222 1e-05
-0.0206 0.0224222 1e-05
-0.0205 0.0251 1e-05
-0.02052 0.0250998 1e-05
-0.02054 0.0250997 1e-05
-0.02056 0.0250995 1e-05
-0.02058 0.0250995 1e-05
-0.0206 0.0250994 1e-05
-0.0205 0.001 1e-05
-0.0202034 0.00100022 1e-05
-0.0199069 0.00100067 1e-05
-0.0196103 0.00100133 1e-05
-0.0193137 0.00100219 1e-05
-0.0190172 0.00100327 1e-05
-0.0187132 0.00100468 1e-05
-0.0184093 0.0010059 1e-05
-0.0181054 0.00100713 1e-05
-0.0178015 0.00100835 1e-05
-0.0174976 0.00100957 1e-05
-0.0172058 0.00101087 1e-05
-0.016914 0.00101199 1e-05
-0.0166222 0.0010131 1e-05
-0.0163305 0.00101421 1e-05
-0.0160387 0.00101531 1e-05
-0.0157586 0.00101647 1e-05
-0.0154784 0.00101756 1e-05
-0.0151983 0.00101869 1e-05
-0.0149182 0.00101986 1e-05
-0.0146381 0.00102107 1e-05
-0.0143857 0.00102222 1e-05
-0.0141332 0.00102337 1e-05
-0.0138808 0.00102455 1e-05
-0.0136284 0.00102577 1e-05
-0.0134152 0.00102682 1e-05
-0.0133908 0.00102694 1e-05
-0.0133665 0.00102706 1e-05
-0.0133421 0.00102718 1e-05
-0.0133178 0.00102731 1e-05
-0.0132934 0.00102743 1e-05
-0.0130353 0.00102874 1e-05
-0.0127771 0.00103007 1e-05
-0.0125189 0.00103142 1e-05
-0.0122607 0.00103278 1e-05
-0.0120025 0.00103416 1e-05
-0.0117547 0.0010355 1e-05
-0.0115068 0.00103685 1e-05
-0.0112589 0.0010382 1e-05
-0.0110111 0.00103957 1e-05
-0.0107632 0.00104093 1e-05
-0.0105252 0.00104225 1e-05
-0.0102873 0.00104357 1e-05
-0.0100493 0.00104489 1e-05
-0.00981133 0.00104621 1e-05
-0.00957337 0.00104753 1e-05
-0.00934491 0.0010488 1e-05
-0.00911645 0.00105007 1e-05
-0.00888799 0.00105134 1e-05
-0.00865954 0.00105261 1e-05
-0.00843108 0.00105388 1e-05
-0.00821175 0.00105509 1e-05
-0.00799242 0.00105631 1e-05
-0.00777309 0.00105752 1e-05
-0.00755376 0.00105874 1e-05
-0.00733443 0.00105995 1e-05
-0.00712387 0.00106111 1e-05
-0.0069133 0.00106227 1e-05
-0.00670273 0.00106343 1e-05
-0.00649217 0.00106459 1e-05
-0.0062816 0.00106575 1e-05
-0.00607944 0.00106686 1e-05
-0.00587729 0.00106797 1e-05
-0.00567514 0.00106908 1e-05
-0.00547298 0.0010702 1e-05
-0.00527083 0.00107131 1e-05
-0.00507675 0.00107238 1e-05
-0.00488267 0.00107345 1e-05
-0.0046886 0.00107452 1e-05
-0.00449452 0.0010756 1e-05
-0.00430044 0.00107668 1e-05
-0.00411412 0.00107771 1e-05
-0.0039278 0.00107876 1e-05
-0.00374147 0.00107981 1e-05
-0.00355515 0.00108086 1e-05
-0.00336883 0.00108192 1e-05
-0.00318995 0.00108294 1e-05
-0.00301107 0.00108397 1e-05
-0.00283219 0.00108502 1e-05
-0.00265331 0.00108607 1e-05
-0.00247443 0.00108714 1e-05
-0.0023027 0.00108817 1e-05
-0.00213097 0.00108922 1e-05
-0.00195924 0.00109029 1e-05
-0.00178751 0.00109137 1e-05
-0.00161577 0.00109248 1e-05
-0.0014509 0.00109355 1e-05
-0.00128603 0.00109465 1e-05
-0.00112116 0.00109579 1e-05
-0.000956291 0.00109696 1e-05
-0.000791418 0.00109817 1e-05
-0.000633135 0.00109936 1e-05
-0.000474851 0.0011006 1e-05
-0.000316568 0.00110189 1e-05
-0.000158286 0.00110322 1e-05
0 0.0011046 1e-05
0.000105677 0.00110554 1e-05
0.000211355 0.0011065 1e-05
0.000317032 0.00110748 1e-05
0.000422709 0.00110847 1e-05
0.000528387 0.00110947 1e-05
0.000634886 0.00111049 1e-05
0.000741385 0.00111151 1e-05
0.000847884 0.00111252 1e-05
0.000954384 0.00111354 1e-05
0.00106088 0.00111455 1e-05
0.00116821 0.00111556 1e-05
0.00127554 0.00111657 1e-05
0.00138286 0.00111757 1e-05
0.00149019 0.00111856 1e-05
0.00159752 0.00111954 1e-05
0.00170568 0.00112051 1e-05
0.00181384 0.00112148 1e-05
0.001922 0.00112244 1e-05
0.00203016 0.00112339 1e-05
0.00213833 0.00112433 1e-05
0.00224733 0.00112526 1e-05
0.00235633 0.00112619 1e-05
0.00246533 0.00112711 1e-05
0.00257434 0.00112802 1e-05
0.00268334 0.00112893 1e-05
0.00279319 0.00112982 1e-05
0.00290304 0.00113072 1e-05
0.00301289 0.00113161 1e-05
0.00312274 0.00113249 1e-05
0.00323259 0.00113336 1e-05
0.00334329 0.00113423 1e-05
0.003454 0.0011351 1e-05
0.0035647 0.00113597 1e-05
0.0036754 0.00113683 1e-05
0.00378611 0.00113768 1e-05
0.00389767 0.00113853 1e-05
0.00400924 0.00113939 1e-05
0.0041208 0.00114025 1e-05
0.00423237 0.0011411 1e-05
0.00434393 0.00114195 1e-05
0.00445636 0.00114279 1e-05
0.00456879 0.00114364 1e-05
0.00468123 0.0011445 1e-05
0.00479366 0.00114535 1e-05
0.00490609 0.0011462 1e-05
0.0050194 0.00114705 1e-05
0.0051327 0.00114791 1e-05
0.00524601 0.00114877 1e-05
0.00535931 0.00114963 1e-05
0.00547262 0.0011505 1e-05
0.00558681 0.00115135 1e-05
0.005701 0.00115223 1e-05
0.00581518 0.00115311 1e-05
0.00592937 0.00115399 1e-05
0.00604356 0.00115487 1e-05
0.00615863 0.00115574 1e-05
0.00627371 0.00115664 1e-05
0.00638878 0.00115754 1e-05
0.00650386 0.00115844 1e-05
0.00661893 0.00115935 1e-05
0.0067349 0.00116025 1e-05
0.00685087 0.00116118 1e-05
0.00696684 0.00116211 1e-05
0.00708281 0.00116304 1e-05
0.00719878 0.00116398 1e-05
0.00731565 0.00116492 1e-05
0.00743252 0.00116588 1e-05
0.00754939 0.00116685 1e-05
0.00766626 0.00116782 1e-05
0.00778313 0.0011688 1e-05
0.00790091 0.00116977 1e-05
0.00801869 0.00117077 1e-05
0.00813647 0.00117178 1e-05
0.00825425 0.0011728 1e-05
0.00837203 0.00117383 1e-05
0.00849073 0.00117484 1e-05
0.00860942 0.0011759 1e-05
0.00872812 0.00117696 1e-05
0.00884681 0.00117802 1e-05
0.00896551 0.0011791 1e-05
0.00908513 0.00118017 1e-05
0.00920475 0.00118127 1e-05
0.00932437 0.00118238 1e-05
0.00944398 0.0011835 1e-05
0.0095636 0.00118463 1e-05
0.00968415 0.00118575 1e-05
0.0098047 0.00118691 1e-05
0.00992525 0.00118808 1e-05
0.0100458 0.00118925 1e-05
0.0101663 0.00119044 1e-05
0.0102878 0.00119162 1e-05
0.0104093 0.00119283 1e-05
0.0105308 0.00119405 1e-05
0.0106523 0.00119528 1e-05
0.0107738 0.00119652 1e-05
0.0108962 0.00119776 1e-05
0.0110186 0.00119903 1e-05
0.0111411 0.00120031 1e-05
0.0112635 0.0012016 1e-05
0.0113859 0.00120289 1e-05
0.0115093 0.00120419 1e-05
0.0116327 0.00120551 1e-05
0.0117561 0.00120685 1e-05
0.0118794 0.00120819 1e-05
0.0120028 0.00120955 1e-05
0.0121272 0.0012109 1e-05
0.0122515 0.00121228 1e-05
0.0123759 0.00121367 1e-05
0.0125002 0.00121508 1e-05
0.0126245 0.00121649 1e-05
0.0127498 0.0012179 1e-05
0.0128752 0.00121934 1e-05
0.0130005 0.00122078 1e-05
0.0131258 0.00122224 1e-05
0.0132511 0.00122371 1e-05
0.0133774 0.00122517 1e-05
0.0135036 0.00122667 1e-05
0.0136299 0.00122817 1e-05
0.0137562 0.00122968 1e-05
0.0138825 0.0012312 1e-05
0.0140098 0.00123272 1e-05
0.014137 0.00123427 1e-05
0.0142643 0.00123582 1e-05
0.0143915 0.00123739 1e-05
0.0145188 0.00123896 1e-05
0.0146471 0.00124054 1e-05
0.0147753 0.00124213 1e-05
0.0149036 0.00124374 1e-05
0.0150318 0.00124536 1e-05
0.0151601 0.00124698 1e-05
0.0152893 0.00124861 1e-05
0.0154186 0.00125026 1e-05
0.0155478 0.00125192 1e-05
0.0156771 0.00125358 1e-05
0.0158063 0.00125525 1e-05
0.0159366 0.00125693 1e-05
0.0160668 0.00125863 1e-05
0.0161971 0.00126033 1e-05
0.0163273 0.00126205 1e-05
0.0164576 0.00126377 1e-05
0.0165889 0.0012655 1e-05
0.0167201 0.00126724 1e-05
0.0168514 0.00126899 1e-05
0.0169827 0.00127075 1e-05
0.0171139 0.00127252 1e-05
0.0172462 0.0012743 1e-05
0.0173785 0.00127609 1e-05
0.0175108 0.00127789 1e-05
0.0176431 0.00127969 1e-05
0.0177754 0.0012815 1e-05
0.0179087 0.00128333 1e-05
0.018042 0.00128517 1e-05
0.0181753 0.00128701 1e-05
0.0183087 0.00128886 1e-05
0.018442 0.00129071 1e-05
0.0185763 0.00129259 1e-05
0.0187107 0.00129446 1e-05
0.018845 0.00129635 1e-05
0.0189794 0.00129824 1e-05
0.0191137 0.00130013 1e-05
0.0192491 0.00130205 1e-05
0.0193845 0.00130396 1e-05
0.0195199 0.00130589 1e-05
0.0196553 0.00130781 1e-05
0.0197907 0.00130975 1e-05
0.0199272 0.00131171 1e-05
0.0200636 0.00131366 1e-05
0.0202001 0.00131562 1e-05
0.0203365 0.00131759 1e-05
0.020473 0.00131956 1e-05
0.0206105 0.00132155 1e-05
0.020748 0.00132355 1e-05
0.0208855 0.00132554 1e-05
0.021023 0.00132754 1e-05
0.0211606 0.00132955 1e-05
0.0212991 0.00133158 1e-05
0.0214377 0.00133361 1e-05
0.0215763 0.00133564 1e-05
0.0217149 0.00133767 1e-05
0.0218535 0.00133971 1e-05
0.0219931 0.00134178 1e-05
0.0221328 0.00134384 1e-05
0.0222724 0.0013459 1e-05
0.0224121 0.00134796 1e-05
0.0225517 0.00135003 1e-05
0.0226925 0.00135212 1e-05
0.0228332 0.00135421 1e-05
0.022974 0.0013563 1e-05
0.0231147 0.00135838 1e-05
0.0232555 0.00136047 1e-05
0.0233973 0.00136259 1e-05
0.0235391 0.0013647 1e-05
0.023681 0.00136681 1e-05
0.0238228 0.00136892 1e-05
0.0239647 0.00137103 1e-05
0.0241076 0.00137317 1e-05
0.0242505 0.0013753 1e-05
0.0243935 0.00137743 1e-05
0.0245364 0.00137956 1e-05
0.0246794 0.0013817 1e-05
0.0248234 0.00138386 1e-05
0.0249675 0.00138601 1e-05
0.0251115 0.00138816 1e-05
0.0252556 0.00139031 1e-05
0.0253996 0.00139246 1e-05
0.0255448 0.00139464 1e-05
0.02569 0.00139681 1e-05
0.0258351 0.00139898 1e-05
0.0259803 0.00140114 1e-05
[...]
POINT_DATA 12073
 FIELD attributes 2
p 1 12073 float
-5.25607 -5.25275 -5.24944 -5.24613 -5.24281 -5.2395
-5.41395 -5.41393 -5.41391 -5.41389 -5.41387 -5.41385
-5.59949 -5.59938 -5.59926 -5.59915 -5.59903 -5.59893
-5.7086 -5.70855 -5.70851 -5.70846 -5.70841 -5.70837
-5.77149 -5.77138 -5.77127 -5.77116 -5.77105 -5.77094
-5.79561 -5.79544 -5.79527 -5.7951 -5.79494 -5.79477
-5.78479 -5.78471 -5.78463 -5.78455 -5.78447 -5.78439
-5.72789 -5.72785 -5.7278 -5.72775 -5.72771 -5.72766
-5.61481 -5.61481 -5.61482 -5.61482 -5.61482 -5.61482
-3.40532 -3.42465 -3.44385 -3.46292 -3.48185 -3.50065
-5.25607 -5.25522 -5.25145 -5.24761 -5.24369 -5.23511 -5.24845 -5.2628 -5.27715 -5.2915 -5.3152 -5.33593 -5.36472 -5.39351 -5.42231 -5.45383 -5.46809 -5.48834 -5.50858 -5.52883 -5.55065 -5.56703 -5.58534 -5.60366 -5.62198 -5.63746 -5.63922 -5.64098 -5.64274 -5.6445 -5.64625 -5.66558 -5.6849 -5.70422 -5.72354 -5.74255 -5.75856 -5.77436 -5.79015 -5.80594 -5.82111 -5.83356 -5.84568 -5.85779 -5.8699 -5.88136 -5.89129 -5.90084 -5.91039 -5.91994 -5.92891 -5.93693 -5.94452 -5.95211 -5.9597 -5.96673 -5.97309 -5.97894 -5.9848 -5.99065 -5.99596 -6.00078 -6.00502 -6.00927 -6.01351 -6.01723 -6.02042 -6.02281 -6.02521 -6.0276 -6.02937 -6.03056 -6.03077 -6.03099 -6.03121 -6.03097 -6.03004 -6.02758 -6.02513 -6.02268 -6.01997 -6.01709 -6.01342 -6.00975 -6.00609 -6.00393 -6.00222 -5.9985 -5.99479 -5.99107 -5.98933 -5.99068 -5.99832 -6.00596 -6.0136 -6.0294 -6.04618 -6.07312 -6.10005 -6.12699 -6.15684 -6.18557 -6.21589 -6.24622 -6.27654 -6.30109 -6.32237 -6.34086 -6.35936 -6.37786 -6.39125 -6.40298 -6.41302 -6.42306 -6.4331 -6.44069 -6.44652 -6.4514 -6.45629 -6.46118 -6.46593 -6.46814 -6.46945 -6.47076 -6.47207 -6.47495 -6.47609 -6.47638 -6.47666 -6.47695 -6.47876 -6.48078 -6.48173 -6.48268 -6.48362 -6.48455 -6.48708 -6.48799 -6.4889 -6.48981 -6.48929 -6.49064 -6.49006 -6.48948 -6.48891 -6.48674 -6.48628 -6.4842 -6.48211 -6.48003 -6.47717 -6.47593 -6.47381 -6.47169 -6.46956 -6.46762 -6.46723 -6.46664 -6.46604 -6.46545 -6.46554 -6.46694 -6.46853 -6.47012 -6.47171 -6.47404 -6.47722 -6.48077 -6.48432 -6.48787 -6.49198 -6.49633 -6.50118 -6.50602 -6.51087 -6.51617 -6.52105 -6.52668 -6.53231 -6.53795 -6.54419 -6.54945 -6.55587 -6.56229 -6.56871 -6.5761 -6.58202 -6.58958 -6.59714 -6.6047 -6.61362 -6.62063 -6.62966 -6.6387 -6.64774 -6.65847 -6.66678 -6.67739 -6.688 -6.69861 -6.71113 -6.72073 -6.7328 -6.74486 -6.75693 -6.77105 -6.78185 -6.79516 -6.80847 -6.82178 -6.8372 -6.84897 -6.86329 -6.87762 -6.89194 -6.90843 -6.92107 -6.93625 -6.95144 -6.96662 -6.98395 -6.99744 -7.01344 -7.02943 -7.04543 -7.06356 -7.07797 -7.09478 -7.11158 -7.12839 -7.14723 -7.16259 -7.18016 -7.19772 -7.21529 -7.2347 -7.25104 -7.26936 -7.28768 -7.30601 -7.32599 -7.34339 -7.36258 -7.38177 -7.40096 -7.42161 -7.44012 -7.46021 -7.48029 -7.50038 -7.52169 -7.54122 -7.56208 -7.58295 -7.60381 -7.62565 -7.64602 -7.66751 -7.68899 -7.71047 -7.73273 -7.7538 -7.7758 -7.7978 -7.8198 -7.84243 -7.86409 -7.88657 -7.90905 -7.93153 -7.95453 -7.97671 -7.99963 -8.02256 -8.04549 -8.06886 -8.09148 -8.11483 -8.13818 -8.16154 -8.18531 -8.20841 -8.23219 -8.25597 -8.27975 -8.30386 -8.32731 -8.35152 -8.37574 -8.39995 -8.42456 -8.44841 -8.47305 -8.49768 -8.52232 -8.5474 -8.57168 -8.59676 -8.62183 -8.64691 -8.67249 -8.69725 -8.72283 -8.74841 -8.77399 -8.80015 -8.82544 -8.8516 -8.87776 -8.90392 -8.93073 -8.95661 -8.98344 -9.01026 -9.03709 -9.06464 -9.09121 -9.1188 -9.14639 -9.17397 -9.20232 -9.22964 -9.25806 -9.28647 -9.31488 -9.34409 -9.37222 -9.40154 -9.43085 -9.46016 -9.4903 -9.51935 -9.54964 -9.57993 -9.61022 -9.64137 -9.6714 -9.70275 -9.7341 -9.76544 -9.79766 -9.82879 -9.86123 -9.89368 -9.92613 -9.95941 -9.99164 -10.0252 -10.0588 -10.0924 -10.1268 -10.16 -10.1948 -10.2296 -10.2643 -10.3 -10.3345 -10.3705 -10.4064 -10.4424 -10.4789 -10.5147 -10.5518 -10.5889 -10.6261 -10.6638 -10.7008 -10.7392 -10.7775 -10.8159 -10.8548 -10.893 -10.9326 -10.9722 -11.0119 -11.0519 -11.0914 -11.1322 -11.173 -11.2139 -11.255 -11.2957 -11.3376 -11.3796 -11.4215 -11.4636 -11.5055 -11.5485 -11.5915 -11.6346 -11.6776 -11.7207 -11.7647 -11.8088 -11.8528 -11.8967 -11.9409 -11.9858 -12.0307 -12.0756 -12.1201 -12.1651 -12.2107 -12.2563 -12.3018 -12.3468 -12.3926 -12.4387 -12.4847 -12.5308 -12.5761 -12.6224 -12.6687 -12.715 -12.7613 -12.8066 -12.8529 -12.899 -12.945 -12.9911 -13.036 -13.0819 -13.1274 -13.1729 -13.2183 -13.2627 -13.3077 -13.3521 -13.3966 -13.441 -13.4845 -13.528 -13.5711 -13.6141 -13.6572 -13.6996 -13.7414 -13.7829 -13.8243 -13.8658 -13.9071 -13.9266 -13.9459 -13.9652 -13.9846 -14.001 -14.0219 -14.0428 -14.0636 -14.0845 -14.1051 -14.1427 -14.1798 -14.217 -14.2543 -14.2906 -14.3261 -14.3601 -14.3942 -14.4283 -14.4604 -14.4936 -14.5239 -14.5542 -14.5845 -14.6113 -14.6421 -14.6678 -14.6936 -14.7187 -14.7396 -14.766 -14.7884 -14.8089 -14.8267 -14.8417 -14.8625 -14.8819 -14.8965 -14.9058 -14.9144 -14.9294 -14.9444 -14.9522 -14.9533 -14.9544 -14.9625 -14.9707 -14.9718 -14.9648 -14.958 -14.9584 -14.9567 -14.9489 -14.937 -14.9214 -14.9134 -14.8982 -14.8813 -14.8645 -14.8412 -14.8208 -14.7946 -14.7685 -14.7425 -14.7216 -14.7201 -14.7186 -14.7171 -14.7156 -14.7137 -14.6786 -14.6431 -14.6079 -14.5728 -14.5296 -14.4919 -14.446 -14.3997 -14.3477 -14.29 -14.2408 -14.1917 -14.1322 -14.0625 -13.9928 -13.9318 -13.8689 -13.7958 -13.7187 -13.6368 -13.5627 -13.4769 -13.3912 -13.3056 -13.2347 -13.2317 -13.2287 -13.2257 -13.2227 -13.2192 -13.1242 -13.029 -12.9339 -12.8382 -12.7294 -12.6296 -12.5291 -12.4196 -12.2984 -12.177 -12.0644 -11.948 -11.8221 -11.6963 -11.5629 -11.5091 -11.4508 -11.3914 -11.332 -11.2765 -11.1998 -11.1232 -11.0467 -10.9682 -10.8846 -10.745 -10.6037 -10.4584 -10.3027 -10.1464 -9.99573 -9.84001 -9.67902 -9.51828 -9.35617 -9.34951 -9.34264 -9.33557 -9.3285 -9.32147 -9.1611 -9.00101 -8.84118 -8.67806 -8.50971 -8.33684 -8.16425 -7.98552 -7.805 -7.62242 -7.55551 -7.48765 -7.41858 -7.34955 -7.28349 -7.16726 -7.05115 -6.93516 -6.81723 -6.69709 -6.50885 -6.32088 -6.13034 -5.9374 -5.74322 -5.64516 -5.54655 -5.44691 -5.34735 -5.25295 -5.15644 -5.06 -4.96364 -4.8664 -4.76824 -4.57104 -4.37411 -4.17695 -3.9792 -3.78004 -3.67749 -3.57495 -3.47233 -3.36979 -3.27193 -3.17495 -3.07802 -2.98115 -2.88417 -2.78674 -2.58746 -2.38842 -2.19062 -1.99408 -1.79607 -1.70951 -1.62325 -1.53775 -1.4523 -1.36968 -1.25844 -1.14726 -1.03615 -0.925987 -0.81572 -0.620554 -0.425599 -0.233223 -0.0436782 0.147023 0.205402 0.263466 0.320481 0.377477 0.433355 0.565104 0.696771 0.828354 0.957807 1.08716 1.27286 1.45838 1.63904 1.81931 1.9989 2.02503 2.051 2.07633 2.10165 2.12678 2.27898 2.43109 2.58311 2.73161 2.87975 3.05043 3.21964 3.38428 3.54879 3.70602 3.7099 3.71377 3.71765 3.72143 3.72519 3.88946 4.05334 4.21713 4.37622 4.53488 4.66507 4.79403 4.9191 5.04412 5.16572 5.19416 5.2226 5.25104 5.27872 5.30613 5.45702 5.60556 5.7538 5.89631 6.03939 6.13838 6.23632 6.33113 6.42591 6.51932 6.56279 6.60625 6.64972 6.69197 6.73371 6.86888 7.00321 7.13492 7.26222 7.38978 7.46898 7.54718 7.62286 7.69854 7.77384 7.82128 7.86873 7.91618 7.96212 8.00724 8.12734 8.24706 8.36316 8.47486 8.58654 8.65841 8.729 8.79705 8.86512 8.93349 8.97326 9.01304 9.05282 9.09096 9.12835 9.23369 9.33887 9.44002 9.5368 9.63334 9.69004 9.74569 9.79884 9.85201 9.90581 9.94605 9.98629 10.0265 10.0651 10.1028 10.1936 10.2844 10.3714 10.4548 10.5378 10.5838 10.6288 10.6719 10.715 10.759 10.7961 10.8332 10.8704 10.906 10.9407 11.0184 11.0962 11.1707 11.2423 11.3132 11.3552 11.3963 11.4357 11.4751 11.5159 11.5448 11.5737 11.6026 11.6305 11.6576 11.7238 11.7899 11.8538 11.9149 11.9754 12.021 12.0653 12.1082 12.1511 12.1966 12.2113 12.226 12.2407 12.255 12.2688 12.3251 12.3803 12.4355 12.4879 12.5394 12.5914 12.6423 12.6915 12.7407 12.7889 12.7949 12.8007 12.8063 12.8119 12.8177 12.8586 12.8996 12.9406 12.9807 13.0193 13.0634 13.1075 13.15 13.191 13.2317 13.2646 13.2964 13.3278 13.3591 13.3938 13.4006 13.4075 13.4143 13.421 13.4275 13.4645 13.5012 13.5379 13.5739 13.6087 13.6432 13.6777 13.7111 13.7435 13.7757 13.8076 13.8384 13.8689 13.8995 13.9298 13.9324 13.9349 13.9374 13.94 13.9425 13.9688 13.9951 14.0213 14.0475 14.0727 14.0998 14.1268 14.1534 14.1792 14.2048 14.2299 14.255 14.2793 14.3032 14.327 14.3502 14.3729 14.3954 14.4179 14.4401 14.4475 14.4548 14.462 14.4692 14.4768 14.4906 14.5044 14.5182 14.532 14.5456 14.5654 14.5852 14.6049 14.6245 14.6437 14.6623 14.6808 14.6992 14.7172 14.7352 14.7525 14.7698 14.7868 14.8037 14.8205 14.8367 14.8528 14.8687 14.8845 14.9003 14.9155 14.9304 14.9454 14.9603 14.9752 14.9834 14.9915 14.9997 15.0078 15.0167 15.0225 15.0283 15.0341 15.0399 15.0456 15.059 15.0723 15.0856 15.099 15.1122 15.1247 15.1373 15.1499 15.1624 15.1749 15.1867 15.1985 15.2104 15.2223 15.2341 15.2453 15.2564 15.2677 15.2789 15.2901 15.3007 15.3113 15.3219 15.3326 15.3432 15.3533 15.3634 15.3734 15.3835 15.3937 15.4033 15.4129 15.4224 15.432 15.4417 15.4509 15.46 15.4691 15.4782 15.4874 15.4962 15.5049 15.5136 15.5223 15.5311 15.5394 15.5477 15.5561 15.5644 15.5727 15.5754 15.5782 15.5809 15.5836 15.5865 15.5917 15.5969 15.6022 15.6074 15.6126 15.6202 15.6279 15.6355 15.6432 15.6509 15.6581 15.6654 15.6727 15.68 15.6874 15.6943 15.7013 15.7083 15.7153 15.7224 15.7289 15.7356 15.7423 15.749 15.7558 15.762 15.7683 15.7747 15.7812 15.7877 15.7936 15.7996 15.8058 15.812 15.8182 15.8239 15.8296 15.8354 15.8414 15.8473 15.8527 15.8582 15.8637 15.8694 15.8751 15.8802 15.8854 15.8907 15.8961 15.9015 15.9065 15.9114 15.9164 15.9216 15.9267 15.9314 15.9361 15.9409 15.9458 15.9507 15.9552 15.9596 15.9642 15.9688 15.9735 15.9777 15.982 15.9863 15.9907 15.9952 15.9992 16.0032 16.0073 16.0115 16.0157 16.0195 16.0233 16.0272 16.0311 16.0351 16.0387 16.0424 16.0461 16.0498 16.0536 16.0571 16.0606 16.0641 16.0677 16.0713 16.0746 16.0781 16.0815 16.0849 16.0884 16.0917 16.095 16.0984 16.1018 16.1052 16.1085 16.112 16.1154 16.1188 16.1222 16.1257 16.1292 16.1328 16.1363 16.1399 16.1436 16.1474 16.1512 16.155 16.1591 16.1593 16.1594 16.1596 16.1597 16.1599 16.1642 16.1685 16.1727 16.177 16.1814 16.1867 16.1921 16.1974 16.2028 16.2083 16.2148 16.2214 16.2279 16.2344 16.2412 16.2496 16.258 16.2665 16.2749 16.2839 16.2926 16.3005 16.3082 16.316 16.3237 16.3307 16.3376 16.3445 16.3512 16.3538 16.3564 16.3591 16.3617 16.3643 16.3645 16.3628 16.3611 16.3594 16.3575 16.3527 16.3476 16.3424 16.3369 16.3199 16.2846 16.2479 16.2112 16.1744 16.1303 16.0839 16.0428 16.0023 15.9632 15.9265 15.8884 15.8504 15.8125 15.7746 15.7367 15.6968 15.6569 15.6146 15.5693 15.524 15.4766 15.4293 15.3804 15.3299 15.2794 15.2269 15.1744 15.1205 15.0655 15.0105 14.9533 14.8961 14.837 14.7762 14.7154 14.6521 14.5883 14.5228 14.4561 14.3887 14.3188 14.2477 14.1756 14.1027 14.0288 13.9522 13.8736 13.7944 13.7148 13.6334 13.549 13.4617 13.3743 13.2869 13.1971 13.1032 13.0065 12.9097 12.813 12.7144 12.6095 12.5021 12.3948 12.2874 12.1787 12.0615 11.9428 11.824 11.7053 11.586 11.5047 11.4228 11.3409 11.259 11.1716 11.1242 11.0768 11.0294 10.982 10.9343 10.7912 10.6476 10.5041 10.3605 10.2155 10.058 9.89882 9.7396 9.58037 9.41855 9.2446 9.06654 8.88846 8.71037 8.52715 8.33326 8.1354 7.93753 7.73965 7.53742 7.32616 7.09871 6.8709 6.64089 6.39632 6.14135 5.89214 5.64464 5.39976 5.16049 4.91077 4.62443 4.31003 3.96054 3.57881 3.18117 2.82683 2.54997 2.35712 2.20252 2.04 1.84207 1.42343 0.717122 0