# vtk DataFile Version 2.0
track0
ASCII
DATASET POLYDATA
POINTS 12073 float
-0.0205 0.001 1e-05
-0.02052 0.000999985 1e-05
-0.02054 0.000999974 1e-05
-0.02056 0.000999965 1e-05
-0.02058 0.000999959 1e-05
-0.0206 0.000999956 1e-05
-0.0205 0.00367778 1e-05
-0.02052 0.00367778 1e-05
-0.02054 0.00367777 1e-05
-0.02056 0.00367777 1e-05
-0.02058 0.00367777 1e-05
-0.0206 0.00367777 1e-05
-0.0205 0.00635556 1e-05
-0.02052 0.00635555 1e-05
-0.02054 0.00635555 1e-05
-0.02056 0.00635555 1e-05
-0.02058 0.00635555 1e-05
-0.0206 0.00635555 1e-05
-0.0205 0.00903333 1e-05
-0.02052 0.00903333 1e-05
-0.02054 0.00903333 1e-05
-0.02056 0.00903333 1e-05
-0.02058 0.00903333 1e-05
-0.0206 0.00903333 1e-05
-0.0205 0.0117111 1e-05
-0.02052 0.0117111 1e-05
-0.02054 0.0117111 1e-05
-0.02056 0.0117111 1e-05
-0.02058 0.0117111 1e-05
-0.0206 0.0117111 1e-05
-0.0205 0.0143889 1e-05
-0.02052 0.0143889 1e-05
-0.02054 0.0143889 1e-05
-0.02056 0.0143889 1e-05
-0.02058 0.0143889 1e-05
-0.0206 0.0143889 1e-05
-0.0205 0.0170667 1e-05
-0.02052 0.0170667 1e-05
-0.02054 0.0170667 1e-05
-0.02056 0.0170667 1e-05
-0.02058 0.0170667 1e-05
-0.0206 0.0170667 1e-05
-0.0205 0.0197444 1e-05
-0.02052 0.0197444 1e-05
-0.02054 0.0197444 1e-05
-0.02056 0.0197444 1e-05
-0.02058 0.0197444 1e-05
-0.0206 0.0197444 1e-05
-0.0205 0.0224222 1e-05
-0.02052 0.0224222 1e-05
-0.02054 0.0224222 1e-05
-0.02056 0.0224222 1e-05
-0.02058 0.0224222 1e-05
-0.0206 0.0224222 1e-05
-0.0205 0.0251 1e-05
-0.02052 0.0250998 1e-05
-0.02054 0.0250997 1e-05
-0.02056 0.0250995 1e-05
-0.02058 0.0250995 1e-05
-0.0206 0.0250994 1e-05
-0.0205 0.001 1e-05
-0.0202034 0.00100022 1e-05
-0.0199069 0.00100067 1e-05
-0.0196103 0.00100133 1e-05
-0.0193137 0.00100219 1e-05
-0.0190172 0.00100327 1e-05
-0.0187132 0.00100468 1e-05
-0.0184093 0.0010059 1e-05
-0.0181054 0.00100713 1e-05
-0.0178015 0.00100835 1e-05
-0.0174976 0.00100957 1e-05
-0.0172058 0.00101087 1e-05
-0.016914 0.00101199 1e-05
-0.0166222 0.0010131 1e-05
-0.0163305 0.00101421 1e-05
-0.0160387 0.00101531 1e-05
-0.0157586 0.00101647 1e-05
-0.0154784 0.00101756 1e-05
-0.0151983 0.00101869 1e-05
-0.0149182 0.00101986 1e-05
-0.0146381 0.00102107 1e-05
-0.0143857 0.00102222 1e-05
-0.0141332 0.00102337 1e-05
-0.0138808 0.00102455 1e-05
-0.0136284 0.00102577 1e-05
-0.0134152 0.00102682 1e-05
-0.0133908 0.00102694 1e-05
-0.0133665 0.00102706 1e-05
-0.0133421 0.00102718 1e-05
-0.0133178 0.00102731 1e-05
-0.0132934 0.00102743 1e-05
-0.0130353 0.00102874 1e-05
-0.0127771 0.00103007 1e-05
-0.0125189 0.00103142 1e-05
-0.0122607 0.00103278 1e-05
-0.0120025 0.00103416 1e-05
-0.0117547 0.0010355 1e-05
-0.0115068 0.00103685 1e-05
-0.0112589 0.0010382 1e-05
-0.0110111 0.00103957 1e-05
-0.0107632 0.00104093 1e-05
-0.0105252 0.00104225 1e-05
-0.0102873 0.00104357 1e-05
-0.0100493 0.00104489 1e-05
-0.00981133 0.00104621 1e-05
-0.00957337 0.00104753 1e-05
-0.00934491 0.0010488 1e-05
-0.00911645 0.00105007 1e-05
-0.00888799 0.00105134 1e-05
-0.00865954 0.00105261 1e-05
-0.00843108 0.00105388 1e-05
-0.00821175 0.00105509 1e-05
-0.00799242 0.00105631 1e-05
-0.00777309 0.00105752 1e-05
-0.00755376 0.00105874 1e-05
-0.00733443 0.00105995 1e-05
-0.00712387 0.00106111 1e-05
-0.0069133 0.00106227 1e-05
-0.00670273 0.00106343 1e-05
-0.00649217 0.00106459 1e-05
-0.0062816 0.00106575 1e-05
-0.00607944 0.00106686 1e-05
-0.00587729 0.00106797 1e-05
-0.00567514 0.00106908 1e-05
-0.00547298 0.0010702 1e-05
-0.00527083 0.00107131 1e-05
-0.00507675 0.00107238 1e-05
-0.00488267 0.00107345 1e-05
-0.0046886 0.00107452 1e-05
-0.00449452 0.0010756 1e-05
-0.00430044 0.00107668 1e-05
-0.00411412 0.00107771 1e-05
-0.0039278 0.00107876 1e-05
-0.00374147 0.00107981 1e-05
-0.00355515 0.00108086 1e-05
-0.00336883 0.00108192 1e-05
-0.00318995 0.00108294 1e-05
-0.00301107 0.00108397 1e-05
-0.00283219 0.00108502 1e-05
-0.00265331 0.00108607 1e-05
-0.00247443 0.00108714 1e-05
-0.0023027 0.00108817 1e-05
-0.00213097 0.00108922 1e-05
-0.00195924 0.00109029 1e-05
-0.00178751 0.00109137 1e-05
-0.00161577 0.00109248 1e-05
-0.0014509 0.00109355 1e-05
-0.00128603 0.00109465 1e-05
-0.00112116 0.00109579 1e-05
-0.000956291 0.00109696 1e-05
-0.000791418 0.00109817 1e-05
-0.000633135 0.00109936 1e-05
-0.000474851 0.0011006 1e-05
-0.000316568 0.00110189 1e-05
-0.000158286 0.00110322 1e-05
0 0.0011046 1e-05
0.000105677 0.00110554 1e-05
0.000211355 0.0011065 1e-05
0.000317032 0.00110748 1e-05
0.000422709 0.00110847 1e-05
0.000528387 0.00110947 1e-05
0.000634886 0.00111049 1e-05
0.000741385 0.00111151 1e-05
0.000847884 0.00111252 1e-05
0.000954384 0.00111354 1e-05
0.00106088 0.00111455 1e-05
0.00116821 0.00111556 1e-05
0.00127554 0.00111657 1e-05
0.00138286 0.00111757 1e-05
0.00149019 0.00111856 1e-05
0.00159752 0.00111954 1e-05
0.00170568 0.00112051 1e-05
0.00181384 0.00112148 1e-05
0.001922 0.00112244 1e-05
0.00203016 0.00112339 1e-05
0.00213833 0.00112433 1e-05
0.00224733 0.00112526 1e-05
0.00235633 0.00112619 1e-05
0.00246533 0.00112711 1e-05
0.00257434 0.00112802 1e-05
0.00268334 0.00112893 1e-05
0.00279319 0.00112982 1e-05
0.00290304 0.00113072 1e-05
0.00301289 0.00113161 1e-05
0.00312274 0.00113249 1e-05
0.00323259 0.00113336 1e-05
0.00334329 0.00113423 1e-05
0.003454 0.0011351 1e-05
0.0035647 0.00113597 1e-05
0.0036754 0.00113683 1e-05
0.00378611 0.00113768 1e-05
0.00389767 0.00113853 1e-05
0.00400924 0.00113939 1e-05
0.0041208 0.00114025 1e-05
0.00423237 0.0011411 1e-05
0.00434393 0.00114195 1e-05
0.00445636 0.00114279 1e-05
0.00456879 0.00114364 1e-05
0.00468123 0.0011445 1e-05
0.00479366 0.00114535 1e-05
0.00490609 0.0011462 1e-05
0.0050194 0.00114705 1e-05
0.0051327 0.00114791 1e-05
0.00524601 0.00114877 1e-05
0.00535931 0.00114963 1e-05
0.00547262 0.0011505 1e-05
0.00558681 0.00115135 1e-05
0.005701 0.00115223 1e-05
0.00581518 0.00115311 1e-05
0.00592937 0.00115399 1e-05
0.00604356 0.00115487 1e-05
0.00615863 0.00115574 1e-05
0.00627371 0.00115664 1e-05
0.00638878 0.00115754 1e-05
0.00650386 0.00115844 1e-05
0.00661893 0.00115935 1e-05
0.0067349 0.00116025 1e-05
0.00685087 0.00116118 1e-05
0.00696684 0.00116211 1e-05
0.00708281 0.00116304 1e-05
0.00719878 0.00116398 1e-05
0.00731565 0.00116492 1e-05
0.00743252 0.00116588 1e-05
0.00754939 0.00116685 1e-05
0.00766626 0.00116782 1e-05
0.00778313 0.0011688 1e-05
0.00790091 0.00116977 1e-05
0.00801869 0.00117077 1e-05
0.00813647 0.00117178 1e-05
0.00825425 0.0011728 1e-05
0.00837203 0.00117383 1e-05
0.00849073 0.00117484 1e-05
0.00860942 0.0011759 1e-05
0.00872812 0.00117696 1e-05
0.00884681 0.00117802 1e-05
0.00896551 0.0011791 1e-05
0.00908513 0.00118017 1e-05
0.00920475 0.00118127 1e-05
0.00932437 0.00118238 1e-05
0.00944398 0.0011835 1e-05
0.0095636 0.00118463 1e-05
0.00968415 0.00118575 1e-05
0.0098047 0.00118691 1e-05
0.00992525 0.00118808 1e-05
0.0100458 0.00118925 1e-05
0.0101663 0.00119044 1e-05
0.0102878 0.00119162 1e-05
0.0104093 0.00119283 1e-05
0.0105308 0.00119405 1e-05
0.0106523 0.00119528 1e-05
0.0107738 0.00119652 1e-05
0.0108962 0.00119776 1e-05
0.0110186 0.00119903 1e-05
0.0111411 0.00120031 1e-05
0.0112635 0.0012016 1e-05
0.0113859 0.00120289 1e-05
0.0115093 0.00120419 1e-05
0.0116327 0.00120551 1e-05
0.0117561 0.00120685 1e-05
0.0118794 0.00120819 1e-05
0.0120028 0.00120955 1e-05
0.0121272 0.0012109 1e-05
0.0122515 0.00121228 1e-05
0.0123759 0.00121367 1e-05
0.0125002 0.00121508 1e-05
0.0126245 0.00121649 1e-05
0.0127498 0.0012179 1e-05
0.0128752 0.00121934 1e-05
0.0130005 0.00122078 1e-05
0.0131258 0.00122224 1e-05
0.0132511 0.00122371 1e-05
0.0133774 0.00122517 1e-05
0.0135036 0.00122667 1e-05
0.0136299 0.00122817 1e-05
0.0137562 0.00122968 1e-05
0.0138825 0.0012312 1e-05
0.0140098 0.00123272 1e-05
0.014137 0.00123427 1e-05
0.0142643 0.00123582 1e-05
0.0143915 0.00123739 1e-05
0.0145188 0.00123896 1e-05
0.0146471 0.00124054 1e-05
0.0147753 0.00124213 1e-05
0.0149036 0.00124374 1e-05
0.0150318 0.00124536 1e-05
0.0151601 0.00124698 1e-05
0.0152893 0.00124861 1e-05
0.0154186 0.00125026 1e-05
0.0155478 0.00125192 1e-05
0.0156771 0.00125358 1e-05
0.0158063 0.00125525 1e-05
0.0159366 0.00125693 1e-05
0.0160668 0.00125863 1e-05
0.0161971 0.00126033 1e-05
0.0163273 0.00126205 1e-05
0.0164576 0.00126377 1e-05
0.0165889 0.0012655 1e-05
0.0167201 0.00126724 1e-05
0.0168514 0.00126899 1e-05
0.0169827 0.00127075 1e-05
0.0171139 0.00127252 1e-05
0.0172462 0.0012743 1e-05
0.0173785 0.00127609 1e-05
0.0175108 0.00127789 1e-05
0.0176431 0.00127969 1e-05
0.0177754 0.0012815 1e-05
0.0179087 0.00128333 1e-05
0.018042 0.00128517 1e-05
0.0181753 0.00128701 1e-05
0.0183087 0.00128886 1e-05
0.018442 0.00129071 1e-05
0.0185763 0.00129259 1e-05
0.0187107 0.00129446 1e-05
0.018845 0.00129635 1e-05
0.0189794 0.00129824 1e-05
0.0191137 0.00130013 1e-05
0.0192491 0.00130205 1e-05
0.0193845 0.00130396 1e-05
0.0195199 0.00130589 1e-05
0.0196553 0.00130781 1e-05
0.0197907 0.00130975 1e-05
0.0199272 0.00131171 1e-05
0.0200636 0.00131366 1e-05
0.0202001 0.00131562 1e-05
0.0203365 0.00131759 1e-05
0.020473 0.00131956 1e-05
0.0206105 0.00132155 1e-05
0.020748 0.00132355 1e-05
0.0208855 0.00132554 1e-05
0.021023 0.00132754 1e-05
0.0211606 0.00132955 1e-05
0.0212991 0.00133158 1e-05
0.0214377 0.00133361 1e-05
0.0215763 0.00133564 1e-05
0.0217149 0.00133767 1e-05
0.0218535 0.00133971 1e-05
0.0219931 0.00134178 1e-05
0.0221328 0.00134384 1e-05
0.0222724 0.0013459 1e-05
0.0224121 0.00134796 1e-05
0.0225517 0.00135003 1e-05
0.0226925 0.00135212 1e-05
0.0228332 0.00135421 1e-05
0.022974 0.0013563 1e-05
0.0231147 0.00135838 1e-05
0.0232555 0.00136047 1e-05
0.0233973 0.00136259 1e-05
0.0235391 0.0013647 1e-05
0.023681 0.00136681 1e-05
0.0238228 0.00136892 1e-05
0.0239647 0.00137103 1e-05
0.0241076 0.00137317 1e-05
0.0242505 0.0013753 1e-05
0.0243935 0.00137743 1e-05
0.0245364 0.00137956 1e-05
0.0246794 0.0013817 1e-05
0.0248234 0.00138386 1e-05
0.0249675 0.00138601 1e-05
0.0251115 0.00138816 1e-05
0.0252556 0.00139031 1e-05
0.0253996 0.00139246 1e-05
0.0255448 0.00139464 1e-05
0.02569 0.00139681 1e-05
0.0258351 0.00139898 1e-05
0.0259803 0.00140114 1e-05
[...]
POINT_DATA 12073
 FIELD attributes 1
U 3 12073 float
10.0004 	0.00732625 	0 10.0004 	0.005861 	0 10.0003 	0.00439575 	0 10.0002 	0.0029305 	0 10.0001 	0.00146525 	0 10 	0 	0
10 	0.000911829 	0 10 	0.000729463 	0 10 	0.000547098 	0 10 	0.000364732 	0 10 	0.000182366 	0 10 	0 	0
10.0001 	0.000513675 	0 10.0001 	0.000410811 	0 10 	0.000307947 	0 10 	0.000205084 	0 10 	0.00010222 	0 10 	0 	0
10 	0.000334076 	0 10 	0.000267261 	0 10 	0.000200446 	0 10 	0.00013363 	0 10 	6.68152e-05 	0 10 	0 	0
10 	0.000153749 	0 10 	0.000122999 	0 10 	9.22494e-05 	0 10 	6.14996e-05 	0 10 	3.07498e-05 	0 10 	0 	0
10 	4.39568e-05 	0 10 	3.51654e-05 	0 10 	2.63741e-05 	0 10 	1.75827e-05 	0 10 	8.79136e-06 	0 10 	0 	0
10 	-0.000161051 	0 10 	-0.000128841 	0 10 	-9.66307e-05 	0 10 	-6.44205e-05 	0 10 	-3.22102e-05 	0 10 	0 	0
10 	-0.000339032 	0 10 	-0.000271226 	0 10 	-0.000203419 	0 10 	-0.000135613 	0 10 	-6.78065e-05 	0 10 	0 	0
9.99999 	-0.000403235 	0 9.99999 	-0.000322588 	0 10 	-0.000241941 	0 10 	-0.000161294 	0 10 	-8.0647e-05 	0 10 	0 	0
9.17388 	0.0871021 	0 9.13081 	0.0696817 	0 9.08741 	0.052261 	0 9.04368 	0.0348401 	0 8.99963 	0.017419 	0 8.95524 	0 	0
10.0004 	0.00732625 	0 10.0024 	0.0152025 	0 10.0044 	0.0222473 	0 10.0064 	0.0292477 	0 10.0085 	0.036204 	0 10.0134 	0.0464414 	0 10.0162 	0.0403711 	0 10.0205 	0.0403597 	0 10.0249 	0.0403484 	0 10.0293 	0.0403372 	0 10.0352 	0.0448171 	0 10.038 	0.0382274 	0 10.0419 	0.0382189 	0 10.0458 	0.0382104 	0 10.0497 	0.0382019 	0 10.0538 	0.0413125 	0 10.0558 	0.0393027 	0 10.0581 	0.0406543 	0 10.0604 	0.0420077 	0 10.0628 	0.0433628 	0 10.0648 	0.0458308 	0 10.0661 	0.0459697 	0 10.0672 	0.0471697 	0 10.0684 	0.0483709 	0 10.0695 	0.0495731 	0 10.0704 	0.0505894 	0 10.0705 	0.0507062 	0 10.0707 	0.050823 	0 10.0708 	0.0509398 	0 10.0709 	0.0510567 	0 10.071 	0.0511565 	0 10.0713 	0.0518482 	0 10.0716 	0.0525286 	0 10.0719 	0.0532096 	0 10.0723 	0.0538911 	0 10.0725 	0.0544005 	0 10.0722 	0.0547727 	0 10.0716 	0.0550335 	0 10.071 	0.0552945 	0 10.0704 	0.0555556 	0 10.0696 	0.0555718 	0 10.0689 	0.0558076 	0 10.0675 	0.0558684 	0 10.0661 	0.0559292 	0 10.0647 	0.05599 	0 10.0628 	0.0557778 	0 10.0621 	0.055967 	0 10.0601 	0.0559346 	0 10.0581 	0.0559022 	0 10.0561 	0.0558698 	0 10.0532 	0.0555508 	0 10.0528 	0.0557411 	0 10.0503 	0.0556744 	0 10.0479 	0.0556077 	0 10.0454 	0.0555409 	0 10.0413 	0.0551802 	0 10.0416 	0.0554124 	0 10.0387 	0.0553612 	0 10.0359 	0.05531 	0 10.033 	0.0552588 	0 10.0278 	0.054911 	0 10.0288 	0.0552231 	0 10.0257 	0.055225 	0 10.0225 	0.0552268 	0 10.0194 	0.0552287 	0 10.0128 	0.054927 	0 10.0148 	0.0553513 	0 10.0114 	0.0554551 	0 10.008 	0.0555591 	0 10.0046 	0.055663 	0 9.99671 	0.0554723 	0 9.99989 	0.0560671 	0 9.99624 	0.0563176 	0 9.99259 	0.0565682 	0 9.98895 	0.0568189 	0 9.97955 	0.056773 	0 9.98396 	0.0576192 	0 9.98017 	0.058207 	0 9.97638 	0.0587949 	0 9.9726 	0.0593831 	0 9.96181 	0.0597537 	0 9.9677 	0.0610811 	0 9.96377 	0.0620529 	0 9.95984 	0.063025 	0 9.95592 	0.0639975 	0 9.94356 	0.0646473 	0 9.95115 	0.0664912 	0 9.94758 	0.0685931 	0 9.94403 	0.0706953 	0 9.94049 	0.072798 	0 9.92723 	0.074824 	0 9.93745 	0.0779056 	4.42974e-22 9.93572 	0.080754 	6.18198e-21 9.93402 	0.0836031 	1.19176e-20 9.93233 	0.0864528 	1.76498e-20 9.91943 	0.0882458 	1.37359e-20 9.93238 	0.0904744 	1.18463e-19 9.93192 	0.0918022 	1.11457e-19 9.93147 	0.0931303 	1.04468e-19 9.93103 	0.0944584 	9.74962e-20 9.91814 	0.0946015 	-1.89782e-20 9.93225 	0.0950052 	-5.311e-20 9.93191 	0.0947647 	-5.86355e-20 9.93156 	0.0945242 	-6.41595e-20 9.93122 	0.0942836 	-6.9682e-20 9.91748 	0.0936809 	-2.1803e-20 9.93158 	0.0933212 	-1.98625e-20 9.93007 	0.092356 	-1.33732e-20 9.92855 	0.0913907 	-6.88472e-21 9.92703 	0.0904253 	-3.97078e-22 9.91164 	0.089398 	1.06056e-20 9.92565 	0.0891013 	-1.48216e-21 9.92294 	0.0880602 	-2.25748e-20 9.92023 	0.0870188 	-4.36704e-20 9.91751 	0.0859773 	-6.47689e-20 9.90037 	0.0846863 	-9.81314e-20 9.91461 	0.0846468 	-1.62652e-19 9.91091 	0.0837602 	-1.49061e-19 9.9072 	0.0828734 	-1.35461e-19 9.90349 	0.0819863 	-1.21852e-19 9.88461 	0.0806245 	-3.17411e-20 9.89934 	0.0807948 	7.15819e-20 9.89472 	0.0800699 	8.75823e-20 9.89009 	0.0793447 	1.03573e-19 9.88546 	0.0786193 	1.19553e-19 9.86473 	0.077325 	4.0188e-20 9.88018 	0.0777595 	-1.10936e-19 9.87468 	0.0772319 	-1.18901e-19 9.86917 	0.0767042 	-1.26855e-19 9.86366 	0.0761762 	-1.34797e-19 9.84091 	0.0749887 	-1.35433e-22 9.85726 	0.075774 	1.32422e-19 9.8509 	0.0754517 	1.23011e-19 9.84454 	0.0751293 	1.13594e-19 9.83817 	0.0748067 	1.0417e-19 9.81324 	0.073654 	-2.13868e-20 9.83062 	0.0747669 	-1.20892e-19 9.82343 	0.0746033 	-1.46716e-19 9.81625 	0.0744397 	-1.72538e-19 9.80906 	0.074276 	-1.9836e-19 9.78183 	0.0731074 	-1.31938e-19 9.80027 	0.0745203 	-2.00459e-19 9.79227 	0.0744811 	-1.86686e-19 9.78427 	0.0744418 	-1.72913e-19 9.77627 	0.0744026 	-1.5914e-19 9.7467 	0.0731984 	-7.46269e-20 9.76615 	0.0748951 	-6.94932e-20 9.75739 	0.0749691 	-4.83392e-20 9.74863 	0.0750432 	-2.71848e-20 9.73987 	0.0751174 	-6.02996e-21 9.708 	0.0738824 	8.35104e-21 9.7284 	0.0758612 	0 9.71893 	0.0760443 	0 9.70947 	0.0762276 	0 9.7 	0.0764111 	0 9.66597 	0.0751383 	0 9.68719 	0.0773736 	-6.79831e-21 9.6771 	0.0776508 	-2.78187e-20 9.66701 	0.0779283 	-4.88379e-20 9.65693 	0.0782062 	-6.98561e-20 9.62093 	0.0768853 	-9.98104e-20 9.64279 	0.0793499 	-1.48114e-19 9.63216 	0.0797177 	-1.49329e-19 9.62153 	0.0800861 	-1.50548e-19 9.61092 	0.0804549 	-1.51771e-19 9.57318 	0.0790939 	-1.05459e-19 9.59546 	0.0817726 	-4.09482e-21 9.58435 	0.0822297 	2.98883e-20 9.57324 	0.0826874 	6.38809e-20 9.56215 	0.0831459 	9.78831e-20 9.52295 	0.0817416 	5.49582e-20 9.54543 	0.0845783 	1.10867e-19 9.53391 	0.0850961 	1.11984e-19 9.52241 	0.0856147 	1.13107e-19 9.51092 	0.0861342 	1.14238e-19 9.47054 	0.0846767 	6.03612e-20 9.49298 	0.0875874 	4.60456e-20 9.48114 	0.0881328 	3.26307e-20 9.46932 	0.0886791 	1.92145e-20 9.45752 	0.0892263 	5.79709e-21 9.41629 	0.0877299 	0 9.43844 	0.0906521 	-5.77782e-21 9.42637 	0.0912092 	-1.89877e-20 9.41432 	0.0917673 	-3.21963e-20 9.40228 	0.0923265 	-4.54035e-20 9.36055 	0.0908201 	-5.9453e-20 9.38216 	0.0937119 	-1.13184e-19 9.36993 	0.0942719 	-1.21326e-19 9.35771 	0.0948331 	-1.29476e-19 9.34552 	0.0953954 	-1.37632e-19 9.30364 	0.0939019 	-8.94306e-20 9.3245 	0.0967232 	-2.19667e-20 9.31218 	0.0972777 	-8.80412e-21 9.29988 	0.0978335 	4.37245e-21 9.28759 	0.0983904 	1.75631e-20 9.24589 	0.0969301 	-3.55389e-20 9.26579 	0.0996437 	-2.8146e-20 9.25345 	0.100185 	-2.00578e-20 9.24113 	0.100727 	-1.19687e-20 9.22882 	0.10127 	-3.87881e-21 9.18763 	0.0998612 	-6.24127e-21 9.2064 	0.102434 	0 9.19409 	0.102957 	0 9.1818 	0.103482 	0 9.16953 	0.104008 	0 9.12913 	0.102674 	0 9.1466 	0.105073 	3.81267e-21 9.13437 	0.105567 	1.16486e-20 9.12217 	0.106063 	1.94838e-20 9.10999 	0.10656 	2.73182e-20 9.07066 	0.105312 	2.85153e-20 9.08669 	0.107509 	-2.17175e-20 9.07461 	0.107972 	-2.18878e-20 9.06255 	0.108436 	-2.20695e-20 9.0505 	0.108901 	-2.22626e-20 9.0125 	0.107759 	2.80464e-20 9.02701 	0.109737 	2.73869e-20 9.0151 	0.110178 	2.05164e-20 9.0032 	0.11062 	1.36451e-20 8.99132 	0.111063 	6.77293e-21 8.95479 	0.110063 	-1.50512e-20 8.96769 	0.111795 	-4.96715e-20 8.95596 	0.112208 	-5.07455e-20 8.94425 	0.112622 	-5.18287e-20 8.93257 	0.113037 	-5.29212e-20 8.89769 	0.1122 	-1.2825e-20 8.90893 	0.113674 	4.87957e-20 8.89743 	0.114048 	4.08718e-20 8.88596 	0.114423 	3.29573e-20 8.8745 	0.114799 	2.5052e-20 8.8414 	0.114121 	-2.32065e-20 8.851 	0.115345 	2.14688e-20 8.83978 	0.115688 	2.25628e-20 8.82857 	0.116033 	2.36662e-20 8.81738 	0.116378 	2.47789e-20 8.78617 	0.115865 	-2.60542e-20 8.79417 	0.116861 	-2.54823e-20 8.78325 	0.117198 	-1.81043e-20 8.77235 	0.117535 	-1.07258e-20 8.76146 	0.117874 	-3.34663e-21 8.73216 	0.117544 	-1.29656e-20 8.73865 	0.118303 	0 8.72803 	0.118615 	0 8.71743 	0.118928 	0 8.70685 	0.119242 	0 8.67941 	0.119074 	-1.33821e-20 8.68444 	0.119578 	0 8.67413 	0.119838 	0 8.66384 	0.120099 	0 8.65356 	0.12036 	0 8.62794 	0.120329 	0 8.63168 	0.120613 	2.9888e-21 8.62169 	0.120841 	1.00227e-20 8.61172 	0.121069 	1.70561e-20 8.60176 	0.121298 	2.40891e-20 8.57784 	0.121404 	3.76755e-20 8.58041 	0.121496 	-3.13143e-20 8.57075 	0.121704 	-3.18671e-20 8.5611 	0.121913 	-3.24266e-20 8.55147 	0.122123 	-3.29927e-20 8.52914 	0.122359 	2.32657e-20 8.53071 	0.122266 	2.35755e-20 8.52137 	0.122444 	1.65941e-20 8.51204 	0.122623 	9.61231e-21 8.50273 	0.122802 	2.63019e-21 8.48185 	0.123146 	-1.47108e-20 8.48251 	0.122879 	2.13148e-21 8.4735 	0.123024 	7.84143e-21 8.46449 	0.123169 	1.35511e-20 8.45549 	0.123315 	1.92605e-20 8.43596 	0.123751 	3.27832e-20 8.43586 	0.123335 	8.38917e-20 8.42718 	0.12345 	8.49567e-20 8.41851 	0.123566 	8.60252e-20 8.40984 	0.123683 	8.70973e-20 8.39156 	0.124189 	3.54444e-20 8.39081 	0.123638 	-3.8393e-20 8.38248 	0.1237 	-3.31065e-20 8.37414 	0.123763 	-2.78238e-20 8.36582 	0.123826 	-2.25448e-20 8.34869 	0.124349 	5.29219e-20 8.34737 	0.123639 	1.09608e-19 8.33935 	0.123635 	1.09583e-19 8.33133 	0.123631 	1.0956e-19 8.32332 	0.123627 	1.09538e-19 8.30725 	0.124171 	6.72578e-20 8.30539 	0.123358 	2.87338e-20 8.29768 	0.123337 	-1.87288e-20 8.28997 	0.123315 	-6.6191e-20 8.28227 	0.123294 	-1.13653e-19 8.2672 	0.123893 	-1.27985e-19 8.26485 	0.123058 	-1.94382e-19 8.25747 	0.123035 	-1.94161e-19 8.2501 	0.123013 	-1.93941e-19 8.24273 	0.12299 	-1.93721e-19 8.22864 	0.123591 	-1.50782e-19 8.22586 	0.122686 	-1.84803e-19 8.21881 	0.12264 	-1.49795e-19 8.21176 	0.122594 	-1.14787e-19 8.20472 	0.122548 	-7.97805e-20 8.19156 	0.123163 	-3.78518e-22 8.18841 	0.122198 	7.09737e-20 8.18167 	0.122135 	7.12503e-20 8.17493 	0.122072 	7.15275e-20 8.16819 	0.12201 	7.18054e-20 8.15592 	0.122645 	7.97888e-21 8.15242 	0.12165 	3.5953e-21 8.14599 	0.121564 	2.60004e-20 8.13956 	0.121478 	4.84054e-20 8.13313 	0.121393 	7.08105e-20 8.12169 	0.122006 	9.36261e-20 8.11789 	0.120946 	2.21672e-19 8.11174 	0.120821 	2.22554e-19 8.10559 	0.120697 	2.23436e-19 8.09945 	0.120573 	2.24316e-19 8.08881 	0.121169 	7.56015e-20 8.08472 	0.120035 	6.91933e-20 8.07884 	0.119881 	3.61446e-20 8.07296 	0.119727 	3.09609e-21 8.06708 	0.119574 	-2.99523e-20 8.0572 	0.120183 	-6.29884e-20 8.05285 	0.119017 	-1.84383e-19 8.04725 	0.11884 	-1.74352e-19 8.04164 	0.118664 	-1.64318e-19 8.03603 	0.118487 	-1.54282e-19 8.02689 	0.119077 	1.96235e-20 8.02232 	0.117874 	2.22703e-21 8.01699 	0.117655 	1.29163e-20 8.01166 	0.117435 	2.36058e-20 8.00633 	0.117215 	3.42956e-20 7.99793 	0.117747 	4.56504e-20 7.99313 	0.116456 	3.62758e-20 7.98807 	0.116193 	4.61332e-20 7.98301 	0.11593 	5.59918e-20 7.97795 	0.115666 	6.58515e-20 7.97027 	0.116191 	6.6808e-20 7.96526 	0.114861 	2.22696e-19 7.96049 	0.11456 	2.23453e-19 7.95572 	0.114259 	2.24204e-19 7.95095 	0.113958 	2.2495e-19 7.944 	0.114433 	8.64573e-20 7.9388 	0.113043 	6.50538e-20 7.93434 	0.112674 	4.37268e-20 7.92987 	0.112305 	2.24012e-20 7.9254 	0.111935 	1.07673e-21 7.91919 	0.112314 	0 7.91382 	0.110794 	-9.36096e-22 7.90966 	0.110345 	-2.12368e-20 7.90549 	0.109896 	-4.15391e-20 7.90131 	0.109447 	-6.18429e-20 7.89585 	0.109779 	-6.27701e-20 7.89033 	0.108156 	-2.21942e-19 7.8865 	0.107641 	-2.42648e-19 7.88266 	0.107127 	-2.63345e-19 7.8788 	0.106611 	-2.84032e-19 7.8741 	0.106891 	-1.43875e-19 7.86848 	0.105179 	-2.82946e-19 7.86502 	0.104592 	-2.82753e-19 7.86155 	0.104003 	-2.82551e-19 7.85806 	0.103414 	-2.82341e-19 7.85415 	0.103608 	-1.61807e-19 7.84846 	0.101784 	-2.80053e-19 7.84541 	0.101104 	-2.40332e-19 7.84235 	0.100424 	-2.00596e-19 7.83926 	0.0997424 	-1.60845e-19 7.83613 	0.0998398 	-1.07573e-20 7.83045 	0.0978859 	2.35792e-19 7.82784 	0.0970941 	2.56547e-19 7.82521 	0.0963017 	2.77271e-19 7.82255 	0.0955087 	2.97961e-19 7.8202 	0.09549 	7.03292e-20 7.8146 	0.0933921 	6.03606e-20 7.81243 	0.0924687 	2.09669e-20 7.81023 	0.0915447 	-1.84268e-20 7.80801 	0.0906201 	-5.78203e-20 7.80639 	0.0904597 	-7.72868e-20 7.80088 	0.0882099 	-2.11878e-19 7.79916 	0.087138 	-1.92943e-19 7.79741 	0.0860656 	-1.73979e-19 7.79562 	0.0849925 	-1.54988e-19 7.79474 	0.084667 	1.77316e-20 7.78939 	0.0822568 	1.5004e-19 7.78812 	0.0810211 	1.69935e-19 7.78682 	0.0797847 	1.89798e-19 7.78547 	0.0785478 	2.09627e-19 7.78529 	0.0780351 	1.16672e-19 7.78015 	0.0754551 	2.07643e-19 7.77934 	0.0740396 	1.97424e-19 7.77849 	0.0726237 	1.87172e-19 7.7776 	0.0712071 	1.76884e-19 7.77812 	0.0704882 	5.79388e-20 7.77328 	0.0677297 	2.9495e-20 7.77295 	0.0661109 	1.02875e-20 7.77257 	0.0644916 	-8.91999e-21 7.77215 	0.0628718 	-2.81273e-20 7.77332 	0.0619114 	-3.80321e-20 7.76889 	0.0589583 	-1.67488e-19 7.76904 	0.0571067 	-1.76108e-19 7.76914 	0.0552547 	-1.84682e-19 7.76918 	0.0534023 	-1.93212e-19 7.77094 	0.0521639 	-5.98456e-20 7.76701 	0.0490059 	-6.08345e-20 7.76764 	0.0468849 	-6.06984e-20 7.76821 	0.0447636 	-6.05782e-20 7.76872 	0.0426421 	-6.04738e-20 7.771 	0.0410712 	-5.97882e-20 7.76769 	0.037677 	-1.83218e-19 7.76878 	0.0352457 	-1.81577e-19 7.76982 	0.0328143 	-1.79881e-19 7.77079 	0.0303828 	-1.7813e-19 7.77349 	0.0284368 	-6.02924e-20 7.77087 	0.0247833 	5.51453e-20 7.77243 	0.0220093 	7.0986e-20 7.77392 	0.0192356 	8.67339e-20 7.77534 	0.0164621 	1.02389e-19 7.77839 	0.0141066 	7.15463e-22 7.77659 	0.0101865 	-1.01053e-19 7.77858 	0.00705928 	-9.9759e-20 7.7805 	0.00393261 	-9.83723e-20 7.78233 	0.000806534 	-9.6893e-20 7.7856 	-0.00196008 	-3.63486e-21 7.78469 	-0.00612117 	-6.46426e-21 7.78707 	-0.00960401 	-1.4491e-20 7.78937 	-0.0130858 	-2.25246e-20 7.79159 	-0.0165666 	-3.05649e-20 7.79499 	-0.019747 	-1.96334e-20 7.79506 	-0.0241663 	-3.49763e-20 7.79781 	-0.0280717 	-3.53719e-20 7.80047 	-0.0319756 	-3.57812e-20 7.80303 	-0.0358781 	-3.62043e-20 7.80645 	-0.0395717 	-3.26505e-20 7.80752 	-0.0443713 	-3.71011e-20 7.81053 	-0.0488263 	-3.75119e-20 7.81344 	-0.0532794 	-3.79383e-20 7.81623 	-0.0577304 	-3.83803e-20 7.81948 	-0.0620721 	-4.57556e-20 7.82143 	-0.0673536 	-3.94075e-20 7.82454 	-0.0724225 	-3.99533e-20 7.82753 	-0.0774886 	-4.05168e-20 7.83039 	-0.0825519 	-4.1098e-20 7.83333 	-0.0875773 	-4.41196e-20 7.83449 	-0.0904266 	-3.83927e-20 7.83605 	-0.0932057 	-3.4318e-20 7.83759 	-0.0959838 	-3.02457e-20 7.83909 	-0.0987612 	-2.61758e-20 7.84034 	-0.101127 	-2.27104e-20 7.84181 	-0.104093 	-1.79857e-20 7.84323 	-0.107057 	-1.32582e-20 7.84462 	-0.110021 	-8.52798e-21 7.84598 	-0.112983 	-3.79493e-21 7.84794 	-0.115885 	0 7.85068 	-0.122192 	0 7.85362 	-0.128474 	0 7.85642 	-0.13475 	0 7.85908 	-0.14102 	0 7.86351 	-0.147126 	0 7.86544 	-0.154137 	1.06037e-20 7.86827 	-0.161094 	2.70045e-20 7.87093 	-0.168045 	4.33798e-20 7.87344 	-0.174989 	5.97296e-20 7.87901 	-0.181689 	8.64277e-20 7.88004 	-0.189424 	1.45634e-19 7.88263 	-0.197091 	1.27054e-19 7.88505 	-0.20475 	1.08683e-19 7.88729 	-0.212401 	9.05215e-20 7.89391 	-0.219753 	-3.34877e-20 7.89395 	-0.228229 	-2.30575e-19 7.89619 	-0.236633 	-2.67137e-19 7.89824 	-0.245029 	-3.0399e-19 7.90089 	-0.253372 	-3.12425e-19 7.90767 	-0.261472 	-1.63347e-19 7.9074 	-0.270691 	-3.13107e-19 7.90843 	-0.279874 	-3.54318e-19 7.91 	-0.289033 	-3.41899e-19 7.91376 	-0.298077 	-2.31991e-19 7.91974 	-0.307007 	-2.33655e-20 7.91914 	-0.317002 	1.25144e-19 7.91881 	-0.326981 	2.4117e-19 7.91979 	-0.336932 	2.5321e-19 7.92449 	-0.346738 	1.54307e-19 7.92954 	-0.35652 	3.99676e-20 7.92851 	-0.367323 	9.14286e-20 7.92726 	-0.378113 	1.42993e-19 7.92829 	-0.388852 	1.53764e-19 7.93249 	-0.399508 	1.04507e-19 7.93647 	-0.410157 	5.52318e-20 7.93487 	-0.421794 	3.36537e-20 7.93303 	-0.433417 	1.2088e-20 7.93412 	-0.444985 	-6.11217e-22 7.93711 	-0.456512 	1.1616e-20 7.93988 	-0.468032 	2.37956e-20 7.93756 	-0.48052 	6.30329e-21 7.93591 	-0.492988 	-5.65993e-21 7.93662 	-0.505431 	-1.79995e-21 7.93771 	-0.517835 	0 7.93909 	-0.530217 	0 7.93591 	-0.543558 	0 7.93506 	-0.556887 	1.78886e-20 7.93455 	-0.5702 	4.00652e-20 7.93378 	-0.583495 	6.22946e-20 7.93342 	-0.596725 	9.71716e-20 7.93041 	-0.610584 	2.50107e-19 7.92883 	-0.624431 	2.33943e-19 7.92699 	-0.63826 	2.1707e-19 7.92489 	-0.65207 	1.99488e-19 7.92298 	-0.66317 	1.84766e-19 7.92279 	-0.664026 	1.83935e-19 7.92261 	-0.664881 	1.83101e-19 7.92242 	-0.665736 	1.82265e-19 7.92224 	-0.666591 	1.81427e-19 7.92218 	-0.667457 	1.88585e-19 7.91895 	-0.682291 	1.74065e-19 7.91546 	-0.697102 	1.52783e-19 7.91168 	-0.711888 	1.31866e-19 7.9076 	-0.726651 	1.11314e-19 7.90529 	-0.741592 	1.19615e-20 7.89987 	-0.757241 	-1.98285e-21 7.89462 	-0.772772 	-9.37901e-21 7.88908 	-0.788273 	-1.63008e-20 7.88449 	-0.803849 	-2.35429e-20 7.88081 	-0.819532 	-3.11164e-20 7.8738 	-0.835911 	5.55744e-20 7.86645 	-0.852263 	1.42285e-19 7.85961 	-0.868471 	1.50875e-19 7.85399 	-0.884707 	7.62258e-20 7.84804 	-0.900955 	1.42802e-21 7.83926 	-0.917964 	7.72335e-20 7.83044 	-0.934954 	1.37748e-19 7.82281 	-0.951959 	1.21805e-19 7.81478 	-0.968782 	7.8372e-20 7.80633 	-0.985445 	2.84253e-21 7.79574 	-1.00291 	7.20632e-20 7.78615 	-1.02028 	5.43112e-20 7.77622 	-1.03762 	3.62525e-20 7.76594 	-1.05493 	1.78864e-20 7.75711 	-1.0693 	2.36819e-21 7.7567 	-1.06993 	1.66555e-21 7.75629 	-1.07056 	9.62483e-22 7.75587 	-1.07119 	2.58998e-22 7.75546 	-1.07182 	-4.05881e-22 7.75513 	-1.07245 	2.05518e-21 7.74316 	-1.09006 	1.69427e-21 7.73082 	-1.10762 	1.11782e-21 7.71812 	-1.12515 	5.39518e-22 7.7052 	-1.14266 	0 7.69373 	-1.16028 	0 7.67936 	-1.17845 	0 7.66458 	-1.19654 	0 7.64948 	-1.2141 	0 7.63549 	-1.23155 	0 7.62107 	-1.24905 	0 7.60419 	-1.26723 	0 7.58735 	-1.2853 	-1.69676e-21 7.57116 	-1.30311 	-7.51944e-21 7.5546 	-1.32088 	-1.3329e-20 7.53705 	-1.33801 	-6.35811e-21 7.52865 	-1.34574 	-4.66114e-20 7.52056 	-1.35328 	-4.81934e-20 7.51252 	-1.36076 	-3.94604e-20 7.5044 	-1.36823 	-3.06714e-20 7.49674 	-1.37522 	-2.2393e-20 7.4852 	-1.38532 	-1.34376e-20 7.47353 	-1.39542 	-4.405e-21 7.46172 	-1.4055 	4.70509e-21 7.44977 	-1.41547 	2.35901e-21 7.43763 	-1.42521 	-2.62633e-20 7.41658 	-1.44314 	-1.49284e-20 7.39465 	-1.46069 	-3.54329e-21 7.37152 	-1.47757 	7.32263e-21 7.34778 	-1.49364 	1.23212e-20 7.32351 	-1.50978 	1.72974e-20 7.29945 	-1.52699 	5.5462e-21 7.27477 	-1.54362 	5.4989e-21 7.24946 	-1.55966 	1.75242e-20 7.22374 	-1.57567 	2.95891e-20 7.19725 	-1.59159 	4.28655e-20 7.19612 	-1.59227 	4.32926e-20 7.19498 	-1.59291 	4.28596e-20 7.19383 	-1.59353 	4.16372e-20 7.19268 	-1.59415 	4.04145e-20 7.19153 	-1.59476 	3.91982e-20 7.16674 	-1.60968 	1.12121e-20 7.14161 	-1.62459 	-1.6923e-20 7.11612 	-1.63948 	-4.52081e-20 7.089 	-1.65379 	-7.28368e-20 7.05973 	-1.66746 	-9.97702e-20 7.03333 	-1.68287 	-1.59926e-19 7.00652 	-1.69826 	-2.2022e-19 6.97657 	-1.71225 	-1.969e-19 6.94459 	-1.72543 	-1.48449e-19 6.91087 	-1.73814 	-8.72791e-20 6.89994 	-1.74332 	-7.92271e-20 6.88843 	-1.7482 	-7.29406e-20 6.87619 	-1.75271 	-6.89056e-20 6.86391 	-1.75721 	-6.48862e-20 6.85209 	-1.76152 	-6.10529e-20 6.83238 	-1.76981 	-4.32715e-20 6.81252 	-1.77808 	-2.5457e-20 6.79251 	-1.78636 	-7.60898e-21 6.77127 	-1.79401 	3.99017e-21 6.74884 	-1.80117 	1.02604e-20 6.71786 	-1.81379 	-4.86696e-20 6.68648 	-1.82639 	-1.07518e-19 6.6521 	-1.83744 	-1.14975e-19 6.6144 	-1.84678 	-6.86528e-20 6.57603 	-1.85619 	-2.20342e-20 6.55878 	-1.86167 	-2.0618e-20 6.54082 	-1.86674 	-2.61448e-20 6.52172 	-1.8711 	-4.3657e-20 6.50252 	-1.87545 	-6.12042e-20 6.48422 	-1.87958 	-7.78853e-20 6.46654 	-1.88441 	-1.04248e-19 6.44878 	-1.88924 	-1.30693e-19 6.43092 	-1.89407 	-1.57219e-19 6.41199 	-1.89822 	-1.41003e-19 6.39227 	-1.90194 	-9.74519e-20 6.35726 	-1.91091 	-6.04487e-20 6.32188 	-1.91986 	-2.33556e-20 6.28318 	-1.92694 	1.414e-21 6.24156 	-1.93228 	1.37538e-20 6.19925 	-1.93767 	2.63041e-20 6.17981 	-1.94121 	3.29514e-20 6.15978 	-1.94436 	3.43712e-20 6.13849 	-1.94664 	2.38849e-20 6.1171 	-1.94892 	1.34054e-20 6.0966 	-1.95108 	3.40531e-21 6.07751 	-1.95387 	-7.38717e-21 6.05835 	-1.95665 	-1.81773e-20 6.0391 	-1.95943 	-2.89649e-20 6.01872 	-1.96138 	-4.45501e-20 5.99765 	-1.96293 	-6.26189e-20 5.9594 	-1.9677 	-3.75855e-20 5.92082 	-1.97246 	-1.26289e-20 5.87923 	-1.97537 	