y,U_ML_0,U_ML_1,U_ML_2
0.0508,46.1508,-0.156718,0
