y,U_ML_0,U_ML_1,U_ML_2,U_KO_0,U_KO_1,U_KO_2
0.0508,46.1508,-0.156718,0,46.581,-0.184841,0
