y,nut_ML,nut_KO
0.0508,1.52936e-05,4.18615e-09
