y,U_ML_0,U_ML_1,U_ML_2
0,0,0,0
1.16106e-05,-0.0960721,0.000305591,0
2.56565e-05,-0.168644,0.000978955,0
4.26602e-05,-0.250082,0.0024183,2.84881e-21
6.32576e-05,-0.347964,0.00498229,-3.22101e-22
8.82233e-05,-0.465717,0.00915256,8.67067e-21
0.000118501,-0.607584,0.0156563,-1.2792e-21
0.00015524,-0.778056,0.0254959,-4.18484e-20
0.000199841,-0.98078,0.0400114,7.42432e-20
0.000254011,-1.21636,0.0608617,-4.71332e-20
0.000319833,-1.47968,0.0897475,-7.54588e-20
0.000399843,-1.7608,0.128155,2.20984e-19
0.000497136,-2.04883,0.177449,3.68163e-21
0.000615486,-2.33237,0.238852,-1.10904e-19
0.000759498,-2.59564,0.313004,-2.34834e-20
0.000934787,-2.81628,0.399628,-3.23778e-20
0.00114821,-2.97084,0.496796,2.28633e-20
0.00140812,-3.0483,0.601771,0
0.00172472,-3.05196,0.714075,0
0.00211046,-2.98664,0.834416,-4.91345e-20
0.00258055,-2.85108,0.962066,4.01197e-20
0.00315353,-2.6368,1.09472,1.43809e-18
0.00385204,-2.33228,1.22722,7.29368e-19
0.00470373,-1.93053,1.35116,-1.22151e-18
0.00574233,-1.48706,1.44289,-7.50109e-19
0.00657366,-1.08002,1.48764,-1.11132e-18
0.00729408,-0.720573,1.49527,3.09586e-19
0.0079201,-0.394893,1.47515,1.1159e-18
0.00846603,-0.08975,1.43377,-2.55462e-19
0.00894425,0.213309,1.37489,-1.32705e-20
0.00936552,0.538182,1.29969,2.91904e-18
0.00973924,0.913864,1.20788,-6.99954e-20
0.0100736,1.37645,1.09839,-4.31921e-18
0.010376,1.97118,0.969219,2.69246e-18
0.0106528,2.73636,0.820577,4.48878e-19
0.0108964,3.67974,0.657624,-1.31567e-18
0.0111152,4.79117,0.486422,1.11675e-18
0.0113126,6.05801,0.311614,-6.66401e-19
0.0114918,7.46169,0.137726,4.49832e-20
0.0116552,8.97915,-0.0308914,-9.57999e-19
0.0118052,10.5845,-0.190452,-6.32941e-20
0.0119436,12.2519,-0.338084,4.08201e-19
0.012072,13.9512,-0.471282,2.98195e-20
0.0121919,15.6471,-0.587902,0
0.0123044,17.3161,-0.687423,-1.43731e-19
0.0124107,18.9471,-0.77053,7.23468e-20
0.0125116,20.5292,-0.838232,1.78481e-19
0.0126078,22.0506,-0.89199,-7.36821e-20
0.0127,23.4841,-0.933313,-7.04817e-20
0.0127846,24.8442,-0.965137,1.30695e-21
0.0128776,26.2167,-0.991045,1.88686e-19
0.0129804,27.6386,-1.01219,-9.51677e-21
0.0130945,29.0781,-1.02835,7.16379e-21
0.0132214,30.495,-1.03976,3.11191e-20
0.0133634,31.848,-1.04732,-8.01031e-19
0.0135229,33.0979,-1.05288,-3.90883e-19
0.0137028,34.2073,-1.0592,9.31571e-19
0.0139066,35.1589,-1.069,3.52787e-19
0.0141385,35.9798,-1.08365,2.5887e-19
0.0144035,36.7212,-1.10305,-4.08242e-19
0.0147076,37.4215,-1.12613,-1.45689e-19
0.0150582,38.1045,-1.15165,5.15052e-19
0.0154839,38.788,-1.1787,-3.58605e-19
0.0159788,39.4744,-1.20634,-8.90552e-21
0.0165559,40.1607,-1.23404,4.55615e-21
0.0172308,40.8498,-1.26173,-5.25267e-19
0.0180222,41.5446,-1.2891,-4.85402e-19
0.0189526,42.2478,-1.31604,1.10175e-18
0.0200493,42.9602,-1.34253,4.67873e-19
0.0213448,43.6794,-1.36754,-6.30573e-19
0.0228785,44.3978,-1.38862,0
0.0246978,45.096,-1.40147,-1.85806e-19
0.0268599,45.7283,-1.39997,-7.73868e-21
0.0294337,46.2082,-1.37641,2.94354e-19
0.0325023,46.4378,-1.33236,-1.047e-19
0.0361662,46.4206,-1.28431,-4.36202e-20
0.0405466,46.285,-1.23422,5.54675e-20
0.0457897,46.1295,-1.1692,-1.13172e-19
0.0520723,45.9751,-1.08734,4.58959e-20
0.058149,45.839,-0.997934,3.31716e-20
0.0642652,45.7251,-0.904699,2.7011e-23
0.070424,45.6289,-0.808743,-1.82051e-21
0.0766284,45.5485,-0.711079,3.43279e-23
0.0829487,45.4825,-0.61491,-1.54516e-21
0.0883767,45.4245,-0.529671,-1.73647e-20
0.0927677,45.2994,-0.456535,3.58461e-21
0.0964184,44.8378,-0.384771,2.17364e-20
0.0994537,43.845,-0.314618,-3.05702e-22
0.101977,42.6013,-0.257743,-1.77042e-21
0.104075,41.4434,-0.21299,-1.02453e-20
0.10582,40.4303,-0.175842,2.50222e-20
0.10727,39.5398,-0.145442,7.63736e-21
0.108476,38.7368,-0.120011,-2.74621e-20
0.109478,37.9922,-0.0988769,-1.06219e-20
0.110312,37.2841,-0.0812443,1.99483e-21
0.111005,36.5949,-0.0665057,2.75951e-20
0.111581,35.9126,-0.0541555,-2.77896e-21
0.11206,35.2274,-0.0438567,-1.90343e-20
0.112458,34.5261,-0.0353495,-1.21919e-20
0.11279,33.7883,-0.0284117,3.94576e-21
0.113065,32.9857,-0.0228448,-5.39097e-21
0.113294,32.0785,-0.0184747,1.44687e-20
0.113484,31.0094,-0.0150969,2.25081e-20
0.113643,29.711,-0.0124619,5.40876e-21
0.113774,28.1285,-0.0103164,-2.71715e-20
0.113884,26.2055,-0.00842215,-1.75668e-20
0.113975,23.8016,-0.00664325,1.01379e-20
0.11405,20.619,-0.00482855,2.54838e-20
0.114113,16.4883,-0.00303688,3.7944e-20
0.114165,12.0319,-0.00163176,-1.43e-20
0.114209,8.10306,-0.000770441,-9.73025e-21
0.114245,4.88555,-0.000306652,-1.52339e-20
0.114275,2.25045,-7.60734e-05,-1.17676e-20
0.1143,0,0,0
