/*--------------------------------*- C++ -*----------------------------------*\
  =========                 |
  \\      /  F ield         | OpenFOAM: The Open Source CFD Toolbox
   \\    /   O peration     | Website:  https://openfoam.org
    \\  /    A nd           | Version:  8
     \\/     M anipulation  |
\*---------------------------------------------------------------------------*/
FoamFile
{
    version     2.0;
    format      ascii;
    class       volScalarField;
    location    "240";
    object      epsilon;
}
// * * * * * * * * * * * * * * * * * * * * * * * * * * * * * * * * * * * * * //

dimensions      [0 2 -3 0 0 0 0];

internalField   nonuniform List<scalar> 
12225
(
285.523
270.703
257.92
243.805
232.469
223.076
216.822
212.695
212.74
213.962
217.233
220.921
228.1
232.646
241.433
246.079
256.346
254.717
52.4935
91.8801
106.976
114.745
124.845
136.776
152.692
169.894
191.105
210.919
235.21
255.468
281.01
299.316
324.614
339.479
363.381
378.622
20.5289
34.8715
44.6764
50.4677
55.3968
59.6052
64.6653
69.6398
76.317
83.179
91.432
99.3109
108.162
116.922
125.519
135.262
142.467
153.837
16.0022
19.4861
24.082
27.5631
30.497
32.8687
35.1554
37.2926
39.5023
41.9166
44.3351
47.2002
49.6776
53.0357
55.403
59.237
61.3638
65.6562
15.0385
15.7123
17.3993
19.0782
20.6394
22.0257
23.2461
24.4308
25.4438
26.5942
27.5228
28.7572
29.6309
30.9837
31.8093
33.2681
34.039
35.6564
14.7897
14.8256
15.2495
15.8675
16.5677
17.2869
17.9237
18.584
19.119
19.7337
20.193
20.7984
21.2079
21.8218
22.1964
22.8273
23.1588
23.8645
14.7658
14.6146
14.641
14.7257
14.9351
15.2199
15.4916
15.8088
16.0709
16.3825
16.618
16.92
17.1306
17.4267
17.6149
17.9134
18.0701
18.41
14.7687
14.5866
14.466
14.3801
14.3677
14.3896
14.4394
14.5334
14.6185
14.7366
14.8308
14.9564
15.0475
15.1761
15.2604
15.3928
15.4621
15.6227
14.768
14.591
14.4349
14.2963
14.185
14.1044
14.0399
14.0066
13.9814
13.9785
13.9808
13.9917
14.0036
14.0298
14.0461
14.0809
14.0966
14.1511
14.7665
14.594
14.432
14.282
14.143
14.0219
13.9115
13.8193
13.737
13.6698
13.6102
13.5633
13.5181
13.4872
13.4515
13.4343
13.4017
13.4009
14.7659
14.5945
14.4322
14.2803
14.1362
14.0032
13.8782
13.7644
13.6582
13.5629
13.4736
13.3952
13.3198
13.2561
13.1915
13.1408
13.0838
13.0451
14.7657
14.5943
14.4321
14.2798
14.1353
13.9999
13.8715
13.7518
13.6385
13.5337
13.4341
13.343
13.2557
13.1771
13.1003
13.0328
12.9647
12.9074
14.7657
14.5941
14.432
14.2794
14.1349
13.9989
13.8699
13.7485
13.6332
13.525
13.422
13.3257
13.2338
13.1484
13.0663
12.9906
12.9172
12.8502
14.7657
14.5939
14.4318
14.279
14.1346
13.9983
13.8691
13.7472
13.6315
13.5223
13.4184
13.3204
13.227
13.139
13.055
12.9759
12.9002
12.8291
14.7657
14.5938
14.4317
14.2787
14.1342
13.9977
13.8686
13.7464
13.6307
13.5211
13.4171
13.3185
13.2248
13.136
13.0516
12.9714
12.8951
12.8227
14.7657
14.5937
14.4316
14.2785
14.1339
13.9973
13.8681
13.7458
13.63
13.5202
13.4161
13.3174
13.2236
13.1346
13.05
12.9696
12.8931
12.8204
14.7657
14.5937
14.4315
14.2783
14.1337
13.997
13.8677
13.7453
13.6294
13.5195
13.4154
13.3165
13.2227
13.1336
13.0489
12.9684
12.8918
12.819
14.7657
14.5937
14.4314
14.2782
14.1335
13.9968
13.8674
13.7449
13.629
13.5191
13.4148
13.3159
13.222
13.1328
13.0481
12.9675
12.8909
12.8179
14.7657
14.5937
14.4314
14.2782
14.1335
13.9967
13.8673
13.7448
13.6288
13.5189
13.4146
13.3156
13.2217
13.1325
13.0477
12.9671
12.8904
12.8174
14.7657
14.5937
14.4314
14.2782
14.1336
13.9968
13.8674
13.745
13.629
13.519
13.4148
13.3158
13.2219
13.1327
13.0479
12.9673
12.8906
12.8177
14.7657
14.5937
14.4315
14.2784
14.1337
13.997
13.8677
13.7453
13.6294
13.5195
13.4154
13.3166
13.2229
13.1338
13.0493
12.9689
12.8926
12.8199
14.7657
14.5937
14.4316
14.2785
14.1341
13.9974
13.8685
13.7464
13.6312
13.522
13.419
13.3214
13.2293
13.1418
13.0595
12.981
12.9073
12.8368
14.7659
14.5937
14.4318
14.2788
14.1353
14.0002
13.8742
13.756
13.6463
13.5435
13.4485
13.3591
13.277
13.1992
13.1282
13.0601
12.9988
12.9386
14.7661
14.5928
14.4329
14.2844
14.1515
14.0321
13.9289
13.8375
13.7593
13.6894
13.6306
13.5769
13.5328
13.4905
13.4574
13.423
13.3989
13.3693
14.7641
14.5936
14.461
14.3603
14.3029
14.2767
14.2796
14.294
14.3202
14.3529
14.3959
14.4345
14.4824
14.5217
14.572
14.6089
14.6616
14.6939
14.757
14.6921
14.7579
14.9172
15.1828
15.4611
15.7475
16.0121
16.2723
16.5038
16.7361
16.9386
17.1508
17.331
17.531
17.6937
17.8889
18.0361
14.9575
15.4344
16.5693
17.6884
18.7053
19.5678
20.3372
20.9969
21.6195
22.1662
22.719
23.211
23.7401
24.2045
24.733
25.183
25.7253
26.1663
16.2579
20.9389
25.015
27.7588
29.7844
31.3586
32.7768
34.0585
35.3595
36.6166
37.9758
39.2977
40.7621
42.1465
43.7187
45.1747
46.8849
48.3598
29.9428
47.2251
54.8706
58.6737
61.6141
64.4324
67.58
70.9798
74.739
78.7155
82.987
87.3467
91.9079
96.4535
101.104
105.627
110.18
114.581
165.79
160.073
154.899
149.564
144.479
139.678
135.613
132.11
129.27
126.973
125.32
124.045
123.339
122.83
122.826
122.982
123.269
123.827
0.233523
0.280409
0.515624
0.729985
0.950576
1.1962
1.47489
1.79184
2.14562
2.52971
2.93544
3.35453
3.78007
4.20683
4.63091
5.04937
5.45977
5.85975
6.24681
6.61805
6.97003
7.29876
7.59944
7.86652
8.09274
8.2686
8.38104
8.41484
8.34782
8.11772
7.65313
7.88279
8.13563
8.27767
8.46236
8.68364
8.85198
9.3452
40.7034
41.0339
41.7977
46.1388
48.7189
52.487
55.9317
59.7925
63.7096
67.8486
72.1384
76.613
81.262
86.095
91.1118
96.3184
101.716
107.31
113.1
119.093
125.288
131.69
138.298
145.117
152.144
159.384
166.832
174.493
182.361
190.44
198.722
207.21
215.896
224.78
233.853
243.116
252.555
262.172
271.951
281.892
291.979
302.21
312.567
323.047
333.632
344.315
355.076
365.908
376.789
387.709
398.643
409.578
420.487
431.344
442.122
452.795
463.338
473.739
484.021
494.255
504.293
514.199
523.93
533.486
542.844
551.993
560.914
569.595
578.019
586.174
594.047
601.624
608.893
615.843
622.463
628.743
634.674
640.248
645.455
650.292
654.751
658.83
662.521
665.819
668.717
671.212
673.295
674.959
676.162
676.819
677.561
678.047
677.712
677.074
675.895
674.381
672.523
670.361
667.819
664.941
661.719
658.175
654.318
650.185
645.761
641.036
636.02
630.717
625.137
619.285
613.17
606.795
600.169
593.296
586.183
578.834
571.256
563.454
555.435
547.206
538.775
530.158
521.399
512.769
506.582
502.943
499.423
495.738
491.859
487.785
483.525
479.09
474.483
469.71
464.769
459.648
454.326
448.668
442.54
435.501
427.36
397.747
1.14222
0.698399
0.704361
0.79767
0.941441
1.12588
1.34993
1.61176
1.90731
2.23077
2.57591
2.93706
3.30978
3.69083
4.07811
4.47034
4.86694
5.26776
5.67311
6.08359
6.50014
6.92368
7.35515
7.79457
8.24367
8.74212
9.29852
9.95445
10.7998
11.9134
12.8849
14.9042
14.871
15.1212
16.1137
17.3069
20.1164
21.9551
25.1254
26.0453
27.5721
29.3131
30.9438
32.7291
34.5296
36.4202
38.3631
40.3785
42.4594
44.6111
46.8333
49.1283
51.4967
53.9399
56.4586
59.054
61.7265
64.4769
67.3055
70.2129
73.1988
76.2637
79.4071
82.6289
85.9284
89.3052
92.7581
96.2864
99.8885
103.563
107.309
111.123
115.005
118.951
122.958
127.025
131.148
135.324
139.549
143.82
148.132
152.482
156.864
161.274
165.706
170.156
174.615
179.079
183.54
187.991
192.423
196.828
201.201
205.536
209.836
214.111
218.391
222.723
226.982
231.188
235.329
239.402
243.398
247.313
251.141
254.876
258.511
262.042
265.463
268.77
271.956
275.018
277.952
280.752
283.416
285.94
288.32
290.554
292.64
294.574
296.355
297.979
299.444
300.75
301.894
302.874
303.689
304.35
304.916
305.316
305.496
305.514
305.344
305.053
304.621
304.057
303.343
302.488
301.493
300.363
299.101
297.714
296.201
294.559
292.793
290.905
288.896
286.77
284.529
282.173
279.707
277.13
274.446
271.655
268.759
265.761
262.661
259.462
256.167
252.782
249.326
245.886
242.864
240.334
237.862
235.335
232.732
230.051
227.295
224.471
221.584
218.642
215.648
212.609
209.53
206.406
203.227
200.053
197.163
192.506
2.38906
1.22076
1.0944
1.13573
1.24778
1.41083
1.61803
1.86496
2.14668
2.45747
2.79155
3.1439
3.51074
3.88962
4.27935
4.67974
5.0915
5.51603
5.95558
6.41314
6.89278
7.39959
7.9402
8.52319
9.1588
9.83395
10.5608
11.3413
12.1688
13.0692
13.9652
14.8673
15.5892
16.4672
17.5475
18.7889
20.2193
21.5659
22.9561
24.1825
25.5204
26.9109
28.3309
29.8099
31.3378
32.9215
34.5576
36.2487
37.9947
39.7967
41.6554
43.5714
45.5455
47.5781
49.6699
51.8212
54.0325
56.3042
58.6364
61.0293
63.4831
65.9976
68.5727
71.2081
73.9036
76.6585
79.4722
82.3439
85.2729
88.2579
91.2977
94.3911
97.5365
100.732
103.976
107.266
110.601
113.977
117.392
120.843
124.328
127.842
131.383
134.947
138.531
142.129
145.738
149.353
152.971
156.586
160.194
163.791
167.376
170.946
174.504
178.051
181.593
185.117
188.599
192.036
195.423
198.755
202.027
205.233
208.368
211.429
214.409
217.305
220.112
222.825
225.441
227.955
230.364
232.665
234.854
236.929
238.886
240.723
242.439
244.031
245.496
246.834
248.043
249.122
250.07
250.887
251.575
252.14
252.589
252.902
253.057
253.076
252.946
252.715
252.365
251.9
251.315
250.613
249.796
248.868
247.83
246.685
245.435
244.08
242.623
241.065
239.408
237.655
235.807
233.866
231.834
229.712
227.501
225.203
222.82
220.352
217.802
215.17
212.461
209.679
206.839
203.987
201.257
198.683
196.135
193.555
190.928
188.249
185.523
182.754
179.952
177.122
174.27
171.406
168.541
165.692
162.878
160.209
157.87
155.399
3.76763
1.79707
1.52946
1.5232
1.61698
1.77154
1.97358
2.2164
2.49468
2.80326
3.13714
3.492
3.86455
4.25272
4.65562
5.07338
5.50701
5.95826
6.42965
6.92441
7.44657
8.0007
8.59168
9.22376
9.89936
10.6167
11.3746
12.1698
12.9948
13.83
14.6775
15.5299
16.3923
17.3212
18.3364
19.4341
20.5942
21.7783
22.9923
24.2281
25.5188
26.8519
28.2264
29.6479
31.1174
32.6367
34.2062
35.8269
37.4995
39.225
41.0039
42.8371
44.7252
46.6688
48.6683
50.7243
52.8373
55.0078
57.236
59.5223
61.867
64.2701
66.7317
69.2518
71.8301
74.4665
77.1605
79.9115
82.7191
85.5822
88.5001
91.4715
94.4952
97.5697
100.694
103.865
107.081
110.341
113.642
116.981
120.356
123.763
127.2
130.663
134.149
137.653
141.173
144.704
148.243
151.785
155.327
158.866
162.398
165.922
169.435
172.937
176.421
179.877
183.294
186.668
189.993
193.264
196.475
199.622
202.698
205.7
208.622
211.46
214.208
216.862
219.419
221.873
224.222
226.462
228.589
230.601
232.494
234.267
235.917
237.442
238.841
240.111
241.252
242.263
243.143
243.893
244.515
245.009
245.379
245.606
245.682
245.624
245.444
245.144
244.724
244.186
243.53
242.757
241.87
240.872
239.765
238.552
237.235
235.815
234.295
232.677
230.963
229.155
227.256
225.268
223.192
221.031
218.786
216.458
214.049
211.562
208.997
206.357
203.645
200.867
198.035
195.178
192.356
189.586
186.821
184.031
181.205
178.341
175.443
172.511
169.555
166.585
163.612
160.646
157.702
154.803
151.983
149.344
147.007
144.846
5.1271
2.37854
1.96707
1.91473
1.98811
2.13315
2.32991
2.56914
2.84483
3.15199
3.48619
3.84359
4.22124
4.61713
5.03033
5.46072
5.909
6.37647
6.86501
7.377
7.91534
8.48321
9.08384
9.71989
10.3927
11.1013
11.8428
12.6118
13.4048
14.2291
15.0772
15.9447
16.8428
17.791
18.7995
19.8663
20.9832
22.1408
23.3383
24.5773
25.8615
27.1911
28.5659
29.9876
31.4577
32.9773
34.5476
36.1696
37.8442
39.5725
41.3553
43.1938
45.089
47.0414
49.0517
51.1206
53.2487
55.4368
57.6855
59.9954
62.367
64.8006
67.2967
69.8553
72.4767
75.1609
77.9077
80.7168
83.5879
86.5204
89.5135
92.5663
95.6778
98.8466
102.071
105.35
108.681
112.062
115.491
118.965
122.482
126.038
129.63
133.255
136.909
140.588
144.289
148.008
151.739
155.48
159.226
162.973
166.716
170.451
174.174
177.878
181.558
185.205
188.812
192.373
195.883
199.336
202.724
206.044
209.288
212.451
215.528
218.514
221.402
224.189
226.869
229.439
231.893
234.228
236.44
238.526
240.483
242.309
244.001
245.556
246.974
248.252
249.39
250.386
251.241
251.955
252.529
252.963
253.257
253.386
253.372
253.222
252.936
252.518
251.97
251.294
250.491
249.564
248.515
247.348
246.066
244.671
243.167
241.555
239.839
238.022
236.106
234.094
231.989
229.793
227.509
225.139
222.685
220.15
217.535
214.842
212.075
209.236
206.329
203.359
200.337
197.282
194.225
191.177
188.121
185.042
181.935
178.799
175.638
172.456
169.267
166.077
162.896
159.738
156.62
153.568
150.62
147.867
145.388
143.101
6.41046
2.93748
2.38587
2.28787
2.3396
2.47353
2.66342
2.89744
3.16867
3.4721
3.80359
4.15968
4.53765
4.93556
5.35232
5.78758
6.24165
6.71532
7.20986
7.72689
8.26837
8.83648
9.43353
10.0616
10.7223
11.4162
12.1429
12.9012
13.6896
14.5085
15.3609
16.252
17.1839
18.1587
19.1786
20.2461
21.36
22.5185
23.7214
24.9699
26.2652
27.6081
28.9993
30.4399
31.9312
33.4746
35.0712
36.7225
38.4295
40.1934
42.0155
43.8968
45.8382
47.8412
49.9069
52.0366
54.2313
56.4921
58.82
61.2158
63.6805
66.2148
68.8193
71.4946
74.2411
77.0591
79.9488
82.9101
85.9429
89.0467
92.221
95.465
98.7776
102.158
105.604
109.114
112.686
116.318
120.008
123.752
127.547
131.391
135.28
139.21
143.176
147.175
151.202
155.252
159.321
163.404
167.496
171.59
175.682
179.766
183.835
187.883
191.902
195.884
199.824
203.713
207.546
211.314
215.012
218.633
222.169
225.615
228.965
232.211
235.348
238.371
241.274
244.051
246.699
249.212
251.586
253.818
255.905
257.843
259.63
261.264
262.742
264.064
265.228
266.233
267.08
267.768
268.299
268.672
268.875
268.913
268.793
268.521
268.099
267.53
266.815
265.957
264.96
263.826
262.56
261.164
259.642
257.999
256.237
254.36
252.372
250.276
248.076
245.775
243.377
240.886
238.303
235.633
232.877
230.04
227.123
224.13
221.064
217.928
214.726
211.465
208.153
204.804
201.436
198.059
194.665
191.251
187.814
184.356
180.882
177.399
173.916
170.444
166.994
163.58
160.222
156.948
153.797
150.846
148.141
145.575
7.57796
3.45451
2.77035
2.62729
2.65636
2.77749
2.95851
3.18507
3.44927
3.74589
4.07095
4.42125
4.79431
5.18831
5.60213
6.0353
6.48792
6.96055
7.45413
7.96992
8.50947
9.07449
9.66686
10.2885
10.941
11.6259
12.3443
13.0966
13.8837
14.7066
15.5671
16.4674
17.4091
18.3937
19.4228
20.4975
21.6184
22.786
24.0008
25.2641
26.5769
27.9405
29.3558
30.8243
32.3474
33.9265
35.5632
37.259
39.0154
40.834
42.7162
44.6637
46.678
48.7606
50.9132
53.1374
55.4345
57.8061
60.2536
62.7783
65.3814
68.0642
70.8275
73.6724
76.5996
79.6097
82.7031
85.88
89.1406
92.4844
95.9112
99.4201
103.01
106.68
110.429
114.254
118.153
122.124
126.164
130.27
134.439
138.666
142.948
147.28
151.658
156.076
160.529
165.013
169.52
174.046
178.583
183.126
187.666
192.198
196.713
201.204
205.662
210.08
214.448
218.76
223.008
227.183
231.278
235.285
239.196
243.004
246.701
250.281
253.736
257.06
260.246
263.289
266.184
268.924
271.507
273.926
276.179
278.262
280.172
281.907
283.465
284.845
286.045
287.065
287.905
288.565
289.046
289.34
289.446
289.374
289.127
288.707
288.118
287.363
286.445
285.367
284.133
282.748
281.216
279.541
277.729
275.782
273.707
271.507
269.187
266.752
264.206
261.554
258.8
255.948
253.003
249.967
246.845
243.641
240.357
236.999
233.569
230.071
226.512
222.895
219.23
215.526
211.797
208.049
204.283
200.499
196.697
192.881
189.058
185.235
181.423
177.631
173.874
170.166
166.528
162.99
159.586
156.383
153.401
150.499
8.60176
3.91527
3.10935
2.92253
2.92831
3.03508
3.20525
3.42213
3.67683
3.96382
4.27918
4.61995
4.98384
5.36922
5.77508
6.20094
6.64686
7.11332
7.60114
8.11147
8.64573
9.20546
9.79236
10.4082
11.0547
11.7336
12.4464
13.1944
13.9789
14.8013
15.6633
16.5663
17.512
18.5016
19.5365
20.6178
21.7471
22.9254
24.154
25.4343
26.7675
28.1551
29.5987
31.1001
32.661
34.2831
35.9684
37.7188
39.5361
41.4224
43.3796
45.4098
47.5148
49.6969
51.9581
54.3003
56.7256
59.2358
61.833
64.5188
67.295
70.1632
73.1248
76.1811
79.3332
82.5822
85.9286
89.3729
92.9154
96.556
100.294
104.13
108.061
112.087
116.206
120.416
124.715
129.099
133.565
138.11
142.73
147.42
152.176
156.992
161.863
166.782
171.745
176.743
181.771
186.821
191.885
196.956
202.025
207.084
212.123
217.134
222.107
227.034
231.904
236.709
241.44
246.088
250.642
255.096
259.439
263.664
267.761
271.723
275.541
279.208
282.717
286.062
289.236
292.232
295.047
297.674
300.111
302.353
304.397
306.241
307.883
309.32
310.553
311.581
312.404
313.022
313.435
313.629
313.624
313.417
313.012
312.413
311.624
310.647
309.487
308.149
306.637
304.957
303.113
301.113
298.96
296.662
294.222
291.648
288.945
286.118
283.174
280.117
276.954
273.688
270.327
266.873
263.333
259.71
256.01
252.236
248.394
244.487
240.522
236.504
232.439
228.338
224.209
220.06
215.893
211.712
207.518
203.319
199.12
194.931
190.762
186.624
182.532
178.503
174.557
170.722
167.032
163.542
160.25
156.991
9.46481
4.31094
3.39675
3.16683
3.15038
3.24132
3.39891
3.60422
3.84741
4.1226
4.42587
4.75442
5.10619
5.47975
5.87422
6.28928
6.72502
7.18186
7.66033
8.16177
8.68763
9.23942
9.81877
10.4274
11.067
11.7394
12.4462
13.1892
13.9704
14.7901
15.6503
16.5526
17.4987
18.4901
19.5283
20.6147
21.7525
22.9425
24.1862
25.4852
26.8412
28.2556
29.7307
31.2691
32.873
34.5446
36.2862
38.1002
39.989
41.955
44.0008
46.1288
48.3417
50.642
53.0323
55.5153
58.0934
60.7691
63.5449
66.4231
69.4058
72.4952
75.6931
79.0013
82.4212
85.9541
89.601
93.3626
97.2391
101.231
105.337
109.557
113.891
118.335
122.889
127.55
132.314
137.18
142.142
147.196
152.339
157.563
162.865
168.237
173.674
179.167
184.71
190.295
195.913
201.557
207.216
212.882
218.545
224.194
229.82
235.412
240.959
246.451
251.878
257.228
262.491
267.658
272.717
277.658
282.472
287.148
291.677
296.049
300.257
304.29
308.142
311.804
315.27
318.533
321.588
324.428
327.05
329.449
331.622
333.567
335.281
336.763
338.013
339.029
339.813
340.366
340.679
340.758
340.608
340.233
339.636
338.82
337.791
336.553
335.11
333.469
331.636
329.616
327.416
325.043
322.504
319.806
316.955
313.958
310.823
307.556
304.165
300.656
297.036
293.311
289.488
285.573
281.57
277.487
273.328
269.099
264.805
260.451
256.043
251.587
247.09
242.559
238.002
233.426
228.837
224.238
219.634
215.031
210.437
205.862
201.317
196.814
192.369
187.998
183.722
179.57
175.57
171.767
168.145
164.524
10.1599
4.63674
3.6293
3.35885
3.32076
3.39526
3.53906
3.73143
3.96167
4.22357
4.5132
4.82788
5.16574
5.52542
5.90619
6.30814
6.73179
7.1782
7.64754
8.14051
8.65831
9.20235
9.7742
10.3755
11.008
11.6734
12.3735
13.1099
13.8843
14.6985
15.5543
16.4538
17.3988
18.3912
19.4328
20.5255
21.6711
22.8717
24.1295
25.4468
26.826
28.2699
29.7811
31.362
33.0157
34.745
36.5527
38.4416
40.4148
42.4752
44.6259
46.8701
49.211
51.6517
54.1956
56.8457
59.6053
62.4775
65.4651
68.5712
71.7985
75.1494
78.6264
82.2316
85.9667
89.8333
93.8327
97.9656
102.232
106.633
111.168
115.835
120.633
125.56
130.615
135.793
141.091
146.506
152.033
157.666
163.4
169.228
175.144
181.14
187.208
193.34
199.528
205.761
212.031
218.327
224.638
230.954
237.263
243.553
249.813
256.031
262.195
268.292
274.311
280.24
286.066
291.779
297.366
302.816
308.117
313.26
318.232
323.024
327.626
332.028
336.222
340.199
343.951
347.472
350.754
353.793
356.583
359.12
361.4
363.422
365.183
366.682
367.918
368.892
369.603
370.053
370.236
370.16
369.827
369.242
368.41
367.335
366.023
364.478
362.708
360.719
358.517
356.111
353.508
350.717
347.745
344.6
341.291
337.826
334.214
330.463
326.581
322.576
318.458
314.233
309.908
305.492
300.991
296.412
291.76
287.043
282.266
277.435
272.555
267.635
262.678
257.694
252.689
247.669
242.641
237.61
232.581
227.562
222.561
217.588
212.655
207.775
202.963
198.238
193.62
189.134
184.808
180.677
176.716
172.735
10.6874
4.89178
3.80736
3.5005
3.44154
3.49935
3.62863
3.80716
4.02354
4.2713
4.54633
4.8463
5.17003
5.51732
5.88667
6.27753
6.68991
7.12392
7.58005
8.05988
8.56491
9.09663
9.65661
10.2465
10.868
11.523
12.2132
12.9406
13.7074
14.5155
15.3671
16.2643
17.2092
18.2039
19.2509
20.3524
21.5108
22.729
24.0096
25.3552
26.7685
28.2518
29.8067
31.4391
33.1536
34.9535
36.8423
38.8233
40.8999
43.0759
45.355
47.741
50.2379
52.8496
55.5798
58.4326
61.4117
64.5208
67.7635
71.1433
74.6634
78.3268
82.1363
86.0942
90.2027
94.4633
98.8775
103.446
108.169
113.047
118.078
123.261
128.595
134.077
139.704
145.472
151.376
157.412
163.574
169.855
176.249
182.747
189.342
196.025
202.787
209.617
216.505
223.44
230.411
237.406
244.413
251.419
258.411
265.376
272.3
279.171
285.974
292.695
299.322
305.84
312.238
318.501
324.616
330.572
336.356
341.954
347.357
352.553
357.531
362.28
366.791
371.056
375.066
378.812
382.29
385.491
388.412
391.048
393.396
395.453
397.217
398.688
399.865
400.749
401.341
401.64
401.648
401.368
400.8
399.956
398.839
397.454
395.809
393.908
391.761
389.374
386.756
383.915
380.862
377.605
374.153
370.516
366.705
362.729
358.597
354.32
349.907
345.369
340.715
335.954
331.095
326.146
321.115
316.011
310.839
305.608
300.324
294.993
289.622
284.217
278.785
273.332
267.865
262.391
256.915
251.444
245.984
240.542
235.128
229.751
224.425
219.163
213.98
208.894
203.927
199.1
194.438
189.973
185.669
181.337
11.0566
5.07932
3.9342
3.59567
3.51701
3.55837
3.67284
3.83704
4.03916
4.27315
4.53605
4.8241
5.13526
5.46775
5.82118
6.19599
6.59255
7.01146
7.45395
7.92104
8.4139
8.93396
9.4828
10.0621
10.6738
11.3198
12.0021
12.7229
13.4845
14.2893
15.1395
16.0378
16.9868
17.989
19.0474
20.1648
21.344
22.5884
23.9016
25.2865
26.7454
28.2806
29.8962
31.5996
33.395
35.2876
37.2824
39.3831
41.5937
43.9185
46.3621
48.9291
51.6241
54.4518
57.4167
60.5235
63.7765
67.18
70.7383
74.4552
78.3344
82.3792
86.5925
90.9769
95.5344
100.267
105.175
110.26
115.521
120.957
126.568
132.351
138.303
144.422
150.702
157.138
163.726
170.459
177.328
184.328
191.449
198.682
206.017
213.443
220.95
228.526
236.158
243.835
251.542
259.266
266.994
274.711
282.401
290.052
297.646
305.171
312.609
319.946
327.169
334.26
341.207
347.996
354.611
361.039
367.268
373.284
379.075
384.628
389.933
394.979
399.756
404.253
408.464
412.378
415.991
419.295
422.286
424.959
427.311
429.34
431.044
432.423
433.478
434.21
434.619
434.707
434.48
433.93
433.068
431.904
430.444
428.692
426.656
424.344
421.765
418.927
415.841
412.517
408.964
405.194
401.218
397.046
392.691
388.162
383.473
378.633
373.655
368.55
363.329
358.003
352.582
347.074
341.491
335.84
330.13
324.367
318.56
312.715
306.84
300.941
295.023
289.094
283.161
277.229
271.304
265.393
259.502
253.64
247.814
242.036
236.319
230.676
225.123
219.679
214.362
209.194
204.196
199.396
194.754
190.084
11.2824
5.20581
4.01493
3.64963
3.55283
3.57838
3.67868
3.83059
4.02121
4.24296
4.49075
4.76259
5.05733
5.37435
5.71357
6.07483
6.4584
6.86493
7.29541
7.75095
8.23291
8.7428
9.28232
9.85335
10.4579
11.0981
11.7764
12.4952
13.2572
14.0651
14.9217
15.8298
16.7927
17.8138
18.897
20.0452
21.2617
22.5497
23.912
25.3503
26.8721
28.4841
30.1918
32.0004
33.9151
35.9414
38.0857
40.3526
42.7472
45.2748
47.9408
50.7506
53.7097
56.8233
60.0968
63.5352
67.1435
70.9266
74.8888
79.0343
83.3669
87.8898
92.606
97.5178
102.627
107.934
113.44
119.145
125.047
131.145
137.436
143.918
150.585
157.433
164.456
171.648
179.002
186.508
194.158
201.944
209.853
217.876
225.999
234.212
242.501
250.853
259.253
267.687
276.14
284.597
293.042
301.459
309.833
318.146
326.382
334.526
342.56
350.468
358.235
365.845
373.282
380.531
387.578
394.408
401.007
407.363
413.461
419.29
424.837
430.093
435.047
439.689
444.011
448.004
451.663
454.98
457.951
460.571
462.84
464.753
466.312
467.515
468.364
468.861
469.008
468.813
468.266
467.371
466.144
464.592
462.719
460.534
458.045
455.261
452.192
448.849
445.241
441.382
437.282
432.954
428.41
423.663
418.724
413.608
408.327
402.895
397.323
391.625
385.813
379.9
373.897
367.815
361.664
355.454
349.193
342.891
336.555
330.192
323.81
317.414
311.013
304.611
298.215
291.831
285.464
279.122
272.81
266.536
260.309
254.141
248.043
242.029
236.116
230.322
224.663
219.161
213.835
208.707
203.738
198.75
11.3589
5.27069
4.05267
3.66718
3.55541
3.56912
3.65789
3.79625
3.97173
4.17811
4.41176
4.67038
4.95247
5.25728
5.5846
5.93452
6.30745
6.70413
7.12557
7.57307
8.04813
8.55251
9.08817
9.6572
10.2619
10.9047
11.5884
12.316
13.091
13.9167
14.796
15.7323
16.7292
17.7901
18.9173
20.1141
21.3871
22.742
24.1847
25.7216
27.3578
29.0999
30.9541
32.9268
35.0244
37.2539
39.6213
42.1328
44.7951
47.6146
50.5979
53.751
57.0801
60.5908
64.2889
68.1797
72.2683
76.5594
81.0575
85.7663
90.6891
95.8287
101.187
106.766
112.565
118.585
124.824
131.282
137.955
144.839
151.931
159.226
166.716
174.396
182.257
190.291
198.488
206.839
215.331
223.954
232.694
241.54
250.477
259.491
268.567
277.69
286.843
296.012
305.179
314.328
323.442
332.504
341.495
350.399
359.199
367.877
376.416
384.798
393.008
401.029
408.845
416.441
423.801
430.912
437.758
444.327
450.605
456.581
462.243
467.58
472.582
477.24
481.545
485.491
489.07
492.276
495.106
497.556
499.624
501.309
502.611
503.53
504.068
504.23
504.026
503.441
502.479
501.157
499.482
497.461
495.1
492.41
489.398
486.077
482.458
478.551
474.369
469.924
465.231
460.302
455.151
449.792
444.239
438.506
432.608
426.558
420.372
414.064
407.647
401.135
394.542
387.878
381.155
374.385
367.575
360.736
353.875
347.001
340.12
333.239
326.365
319.503
312.66
305.84
299.05
292.295
285.581
278.916
272.308
265.768
259.308
252.943
246.689
240.561
234.578
228.757
223.116
217.678
212.399
207.117
11.3375
5.28219
4.05424
3.65834
3.53599
3.53615
3.61055
3.73567
3.89934
4.0946
4.31754
4.56591
4.83842
5.1345
5.45405
5.79734
6.16493
6.55775
6.97702
7.42426
7.90134
8.41051
8.95471
9.53588
10.1566
10.8198
11.5288
12.2867
13.0963
13.9588
14.881
15.8679
16.9249
18.0571
19.2709
20.5718
21.9656
23.4587
25.0584
26.7721
28.6067
30.5696
32.6682
34.91
37.3028
39.8543
42.5718
45.463
48.5359
51.7984
55.2582
58.9218
62.795
66.8832
71.1915
75.7247
80.4872
85.4828
90.7145
96.1848
101.895
107.847
114.041
120.474
127.147
134.057
141.199
148.571
156.166
163.979
172.002
180.229
188.649
197.255
206.034
214.977
224.072
233.306
242.666
252.138
261.708
271.361
281.082
290.855
300.664
310.491
320.321
330.135
339.917
349.648
359.312
368.889
378.363
387.714
396.927
405.982
414.863
423.553
432.035
440.292
448.309
456.071
463.563
470.77
477.68
484.279
490.554
496.494
502.089
507.328
512.201
516.701
520.819
524.549
527.884
530.82
533.354
535.483
537.205
538.518
539.429
539.932
540.032
539.753
539.062
537.974
536.503
534.654
532.437
529.859
526.928
523.654
520.048
516.124
511.891
507.365
502.556
497.481
492.152
486.585
480.795
474.796
468.604
462.234
455.702
449.024
442.215
435.29
428.266
421.156
413.975
406.736
399.452
392.132
384.788
377.428
370.061
362.695
355.337
347.995
340.673
333.378
326.115
318.889
311.704
304.566
297.481
290.455
283.496
276.616
269.825
263.138
256.569
250.135
243.853
237.739
231.807
226.081
220.517
214.974
11.2616
5.26991
4.03686
3.62799
3.49228
3.48184
3.54657
3.66276
3.81818
4.00618
4.22298
4.46651
4.73572
5.03036
5.35088
5.69797
6.07218
6.47478
6.9074
7.37196
7.87052
8.40502
8.97656
9.58896
10.2469
10.9547
11.7169
12.5384
13.4245
14.3814
15.4143
16.5293
17.7333
19.0337
20.4383
21.9549
23.5915
25.3565
27.2587
29.3072
31.5108
33.8783
36.4188
39.1409
42.0528
45.1616
48.4751
52.0031
55.755
59.7403
63.9704
68.4491
73.1786
78.1617
83.4011
88.8989
94.6568
100.675
106.954
113.493
120.29
127.342
134.645
142.195
149.987
158.014
166.27
174.746
183.434
192.325
201.408
210.673
220.108
229.701
239.439
249.31
259.298
269.392
279.574
289.831
300.147
310.505
320.891
331.287
341.676
352.043
362.368
372.635
382.827
392.925
402.913
412.772
422.486
432.037
441.408
450.582
459.542
468.273
476.757
484.981
492.928
500.585
507.938
514.974
521.68
528.045
534.056
539.703
544.977
549.869
554.37
558.473
562.171
565.459
568.332
570.785
572.818
574.424
575.611
576.367
576.712
576.629
576.154
575.236
573.919
572.2
570.087
567.588
564.713
561.468
557.863
553.912
549.625
545.016
540.097
534.883
529.388
523.627
517.615
511.368
504.901
498.232
491.375
484.348
477.168
469.85
462.411
454.869
447.239
439.538
431.779
423.977
416.146
408.297
400.439
392.583
384.737
376.908
369.104
361.332
353.596
345.903
338.256
330.66
323.118
315.636
308.218
300.87
293.599
286.415
279.33
272.357
265.509
258.803
252.254
245.877
239.684
233.699
227.879
222.112
11.1065
5.227
3.99459
3.58009
3.43945
3.42521
3.48707
3.60199
3.75831
3.9498
4.17262
4.42497
4.70609
5.01579
5.35396
5.72011
6.11722
6.54779
7.01452
7.52045
8.06906
8.66449
9.31221
10.0165
10.7826
11.6168
12.5257
13.5167
14.5981
15.7782
17.0656
18.4692
19.9989
21.665
23.478
25.4489
27.5887
29.9082
32.4185
35.1305
38.0545
41.2005
44.5779
48.1959
52.0623
56.1841
60.568
65.2217
70.1518
75.3651
80.8684
86.6601
92.7363
99.094
105.73
112.64
119.819
127.262
134.964
142.917
151.113
159.545
168.204
177.081
186.165
195.447
204.916
214.56
224.368
234.328
244.427
254.654
264.995
275.436
285.965
296.567
307.229
317.936
328.673
339.426
350.181
360.922
371.633
382.299
392.905
403.435
413.873
424.202
434.407
444.472
454.38
464.116
473.665
483.009
492.134
501.025
509.667
518.044
526.143
533.95
541.451
548.635
555.488
561.999
568.158
573.953
579.375
584.414
589.063
593.314
597.159
600.592
603.61
606.207
608.377
610.12
611.437
612.314
612.779
612.784
612.418
611.582
610.336
608.675
606.608
604.139
601.276
598.03
594.407
590.416
586.069
581.379
576.359
571.021
565.381
559.451
553.249
546.789
540.087
533.16
526.025
518.697
511.194
503.534
495.732
487.807
479.777
471.658
463.468
455.222
446.936
438.626
430.304
421.983
413.673
405.382
397.12
388.893
380.708
372.571
364.488
356.463
348.498
340.599
332.766
325.005
317.319
309.713
302.193
294.767
287.447
280.245
273.175
266.25
259.484
252.894
246.487
240.29
234.257
228.314
10.9363
5.15824
3.94173
3.53387
3.39876
3.39173
3.46328
3.59006
3.76012
3.96603
4.20644
4.48069
4.78902
5.13247
5.51306
5.9336
6.39694
6.90703
7.46859
8.08703
8.7686
9.52061
10.3514
11.2693
12.2834
13.4037
14.6413
16.0084
17.5179
19.1831
21.0175
23.0348
25.2491
27.6748
30.326
33.2163
36.3585
39.7648
43.4464
47.4138
51.675
56.2365
61.1036
66.2814
71.7727
77.5773
83.6946
90.1261
96.8707
103.93
111.29
118.933
126.846
135.02
143.441
152.098
160.979
170.07
179.361
188.837
198.489
208.302
218.266
228.367
238.595
248.938
259.384
269.92
280.537
291.221
301.963
312.75
323.57
334.413
345.267
356.119
366.958
377.773
388.55
399.279
409.947
420.542
431.049
441.458
451.755
461.926
471.959
481.839
491.554
501.089
510.431
519.567
528.482
537.164
545.599
553.774
561.676
569.293
576.612
583.621
590.308
596.663
602.676
608.336
613.636
618.564
623.111
627.272
631.038
634.406
637.366
639.912
642.045