/*--------------------------------*- C++ -*----------------------------------*\
  =========                 |
  \\      /  F ield         | OpenFOAM: The Open Source CFD Toolbox
   \\    /   O peration     | Website:  https://openfoam.org
    \\  /    A nd           | Version:  8
     \\/     M anipulation  |
\*---------------------------------------------------------------------------*/
FoamFile
{
    version     2.0;
    format      ascii;
    class       volScalarField;
    location    "240";
    object      k;
}
// * * * * * * * * * * * * * * * * * * * * * * * * * * * * * * * * * * * * * //

dimensions      [0 2 -2 0 0 0 0];

internalField   nonuniform List<scalar> 
12225
(
0.362815
0.343989
0.327749
0.309813
0.295408
0.283472
0.275525
0.27028
0.270341
0.271866
0.276083
0.280629
0.289977
0.295527
0.307047
0.312291
0.327036
0.335258
0.440185
0.468698
0.461606
0.448369
0.450347
0.45831
0.474574
0.498498
0.524425
0.552069
0.58077
0.606107
0.633862
0.653803
0.679771
0.69312
0.717409
0.728882
0.39054
0.417874
0.420232
0.416827
0.411628
0.407803
0.408021
0.410034
0.41457
0.421378
0.430736
0.439696
0.451179
0.46114
0.472833
0.483542
0.493468
0.506056
0.377547
0.386982
0.391406
0.391343
0.390221
0.387896
0.385664
0.384079
0.382885
0.382896
0.383387
0.384321
0.386297
0.388465
0.390906
0.394246
0.396499
0.400993
0.374562
0.376091
0.378412
0.378666
0.378263
0.377205
0.375489
0.373737
0.37201
0.370455
0.369259
0.368105
0.367381
0.366804
0.366442
0.366334
0.366344
0.366701
0.373814
0.37271
0.372645
0.372384
0.371761
0.370817
0.369554
0.368082
0.366572
0.364976
0.363528
0.362063
0.360755
0.359529
0.358397
0.357427
0.356439
0.355783
0.373782
0.371742
0.370386
0.369287
0.368234
0.367114
0.365915
0.364587
0.363238
0.361808
0.360422
0.359024
0.357678
0.356383
0.355122
0.353967
0.352795
0.351803
0.37382
0.37156
0.369634
0.367977
0.366501
0.365108
0.363775
0.362429
0.361108
0.359767
0.358451
0.357144
0.355864
0.354623
0.353402
0.352251
0.3511
0.350053
0.373832
0.371553
0.369449
0.367525
0.365777
0.364154
0.362645
0.361199
0.359818
0.358473
0.35717
0.355903
0.354668
0.353476
0.352308
0.351197
0.350098
0.349074
0.373831
0.37156
0.369418
0.367405
0.365529
0.363773
0.362133
0.360585
0.359122
0.357728
0.356395
0.355118
0.353889
0.352711
0.35157
0.350482
0.34942
0.348421
0.373829
0.37156
0.369413
0.367378
0.365458
0.363645
0.361937
0.360324
0.358799
0.357353
0.355979
0.354673
0.353425
0.352236
0.351095
0.350009
0.34896
0.34797
0.373828
0.371558
0.369409
0.36737
0.365439
0.363609
0.361875
0.360234
0.358677
0.357202
0.3558
0.354469
0.353201
0.351995
0.350843
0.349748
0.348696
0.347701
0.373827
0.371556
0.369405
0.367365
0.36543
0.363593
0.361851
0.360197
0.358626
0.357134
0.355716
0.354368
0.353085
0.351865
0.350701
0.349594
0.348535
0.347532
0.373826
0.371555
0.369401
0.367359
0.365422
0.363583
0.361837
0.360178
0.3586
0.357101
0.355674
0.354317
0.353024
0.351795
0.350622
0.349506
0.34844
0.347427
0.373826
0.371553
0.369398
0.367355
0.365416
0.363575
0.361826
0.360164
0.358584
0.357081
0.355651
0.354289
0.352993
0.351758
0.35058
0.349458
0.348388
0.347368
0.373826
0.371552
0.369396
0.367351
0.36541
0.363567
0.361817
0.360153
0.358571
0.357067
0.355634
0.35427
0.352971
0.351734
0.350554
0.349429
0.348356
0.347333
0.373825
0.371551
0.369394
0.367348
0.365406
0.363562
0.36181
0.360145
0.358561
0.357055
0.355621
0.354256
0.352955
0.351716
0.350534
0.349408
0.348333
0.347308
0.373825
0.371551
0.369393
0.367346
0.365403
0.363558
0.361805
0.360139
0.358555
0.357047
0.355612
0.354245
0.352943
0.351703
0.35052
0.349392
0.348316
0.34729
0.373825
0.37155
0.369393
0.367346
0.365402
0.363557
0.361804
0.360137
0.358552
0.357043
0.355608
0.35424
0.352938
0.351696
0.350513
0.349384
0.348308
0.34728
0.373825
0.371551
0.369393
0.367347
0.365404
0.363559
0.361806
0.360139
0.358555
0.357047
0.355611
0.354244
0.352941
0.3517
0.350517
0.349388
0.348312
0.347284
0.373825
0.371551
0.369395
0.367349
0.365407
0.363563
0.361811
0.360146
0.358562
0.357055
0.355621
0.354255
0.352955
0.351715
0.350534
0.349407
0.348333
0.347307
0.373826
0.371552
0.369397
0.367352
0.365412
0.363571
0.361822
0.360161
0.358583
0.357083
0.355656
0.354298
0.353006
0.351775
0.350602
0.349483
0.348417
0.347398
0.373826
0.371554
0.369399
0.367359
0.365429
0.363602
0.361875
0.36024
0.35869
0.35722
0.355823
0.354493
0.353227
0.352018
0.350866
0.349762
0.34871
0.3477
0.373828
0.371551
0.369412
0.367417
0.365556
0.363819
0.362189
0.360651
0.359189
0.357793
0.356456
0.355171
0.353936
0.352745
0.3516
0.350495
0.349436
0.34841
0.373823
0.371554
0.369604
0.367893
0.366339
0.364892
0.363495
0.362122
0.360761
0.359413
0.358081
0.35677
0.355488
0.354237
0.353029
0.351855
0.350734
0.349645
0.373788
0.371991
0.371113
0.370266
0.36936
0.368311
0.367048
0.36563
0.36412
0.362575
0.36103
0.359522
0.358073
0.356682
0.355381
0.354141
0.353009
0.351924
0.374355
0.375572
0.377775
0.377857
0.377288
0.375886
0.373835
0.371641
0.369505
0.367482
0.365664
0.364084
0.36271
0.361535
0.36061
0.359818
0.359289
0.358801
0.379125
0.394296
0.398249
0.396573
0.392538
0.387603
0.383646
0.380448
0.378268
0.376853
0.376497
0.376741
0.377415
0.378691
0.380442
0.382423
0.384827
0.387138
0.408394
0.427541
0.422416
0.411056
0.402226
0.397924
0.398627
0.400964
0.406071
0.413056
0.421001
0.429831
0.438839
0.448194
0.457311
0.466556
0.475326
0.484186
0.36605
0.353416
0.341988
0.33021
0.318982
0.308382
0.299411
0.291671
0.285404
0.280334
0.276682
0.273867
0.272312
0.271175
0.271212
0.271473
0.27219
0.27339
0.000804516
0.00441248
0.00809575
0.0114408
0.0148688
0.018688
0.0230247
0.0279647
0.0334944
0.0395144
0.0458934
0.0524979
0.0592176
0.0659607
0.0726558
0.0792381
0.0856483
0.091822
0.0976896
0.10317
0.108175
0.112603
0.116358
0.119338
0.121474
0.122728
0.122968
0.122348
0.120673
0.119175
0.118111
0.122929
0.12662
0.129951
0.133827
0.137397
0.139535
0.139808
0.133236
0.145372
0.14956
0.158581
0.164746
0.172987
0.18045
0.188598
0.196672
0.205033
0.213505
0.222165
0.230977
0.239955
0.249093
0.258392
0.267851
0.277471
0.287248
0.297184
0.307275
0.31752
0.327915
0.338459
0.349146
0.359976
0.370939
0.382036
0.393256
0.404598
0.416052
0.427613
0.439272
0.451023
0.462856
0.474763
0.486734
0.498761
0.51083
0.522935
0.535062
0.547203
0.559342
0.571471
0.583574
0.595642
0.607657
0.619609
0.631481
0.64326
0.654926
0.666463
0.677848
0.689059
0.700071
0.710862
0.721413
0.731717
0.741807
0.751752
0.761413
0.770857
0.780045
0.788984
0.797653
0.806049
0.814157
0.821971
0.829479
0.836675
0.843549
0.850094
0.856304
0.862171
0.86769
0.872856
0.877664
0.882111
0.886193
0.889908
0.893254
0.89623
0.898834
0.901065
0.902919
0.904397
0.905494
0.906204
0.906493
0.906304
0.906156
0.905731
0.904637
0.90321
0.901336
0.899162
0.89666
0.893888
0.890775
0.887359
0.883632
0.879614
0.875317
0.870772
0.86597
0.860896
0.855563
0.849971
0.844131
0.838042
0.831716
0.825151
0.818356
0.811332
0.804085
0.796615
0.788928
0.781026
0.772912
0.764588
0.756062
0.747343
0.738465
0.729606
0.722375
0.718101
0.7141
0.709961
0.705635
0.70112
0.696416
0.691535
0.686474
0.681237
0.675818
0.670208
0.664369
0.658207
0.651538
0.643952
0.635182
0.604967
0.00394321
0.0150717
0.0224534
0.0280184
0.0329935
0.0379399
0.0431937
0.048902
0.0550809
0.0616654
0.0685566
0.0756499
0.0828546
0.0900973
0.0973204
0.104476
0.111519
0.118403
0.125078
0.131482
0.137549
0.143201
0.148364
0.152968
0.156969
0.160361
0.163245
0.165933
0.169126
0.174182
0.18275
0.19084
0.199568
0.208678
0.218368
0.228631
0.2381
0.246808
0.257802
0.272519
0.286288
0.298608
0.310705
0.323652
0.336888
0.350505
0.36443
0.378686
0.393256
0.408145
0.423349
0.43887
0.454709
0.470867
0.487346
0.504147
0.521271
0.538718
0.556488
0.57458
0.592994
0.611728
0.630778
0.650143
0.669816
0.689794
0.71007
0.730638
0.75149
0.772618
0.794011
0.81566
0.837552
0.859677
0.882019
0.904566
0.927301
0.950209
0.973272
0.996474
1.01979
1.04321
1.06671
1.09027
1.11386
1.13746
1.16106
1.18461
1.2081
1.23149
1.25476
1.27786
1.30077
1.32343
1.3458
1.36781
1.3894
1.4105
1.4313
1.45176
1.47188
1.49162
1.51097
1.5299
1.54839
1.56642
1.58397
1.60102
1.61755
1.63354
1.64898
1.66385
1.67812
1.6918
1.70487
1.71731
1.72912
1.74028
1.7508
1.76065
1.76984
1.77836
1.78621
1.79337
1.79985
1.80565
1.81076
1.81521
1.81907
1.82228
1.82483
1.82658
1.82749
1.82779
1.82745
1.82658
1.8251
1.823
1.8203
1.817
1.81313
1.80869
1.8037
1.79814
1.79204
1.7854
1.77822
1.77052
1.76229
1.75355
1.7443
1.73455
1.72428
1.71352
1.70225
1.69048
1.67821
1.66545
1.65218
1.63841
1.62417
1.60954
1.59485
1.58023
1.56522
1.54973
1.53378
1.51738
1.50058
1.4834
1.46587
1.44801
1.42985
1.4114
1.39267
1.37359
1.35396
1.33402
1.31339
1.26941
0.00824974
0.0255172
0.0352393
0.0424928
0.0489302
0.0551755
0.0615469
0.0682014
0.0751878
0.0824835
0.0900288
0.0977527
0.105591
0.11349
0.121411
0.129326
0.13721
0.145042
0.152799
0.160456
0.167989
0.175379
0.18262
0.18974
0.196816
0.203996
0.211513
0.219687
0.228875
0.239324
0.250887
0.262644
0.274754
0.287226
0.300109
0.313392
0.32703
0.34133
0.356558
0.372606
0.38871
0.404898
0.421334
0.438205
0.455475
0.473146
0.491205
0.509653
0.528487
0.547707
0.567314
0.587309
0.607691
0.628462
0.649622
0.671172
0.693112
0.715441
0.738159
0.761263
0.784751
0.808621
0.832867
0.857485
0.88247
0.907815
0.933511
0.959551
0.985924
1.01262
1.03963
1.06693
1.09452
1.12238
1.15049
1.17883
1.20739
1.23615
1.26508
1.29417
1.3234
1.35273
1.38214
1.41161
1.44111
1.47061
1.50009
1.52951
1.55884
1.58805
1.6171
1.64596
1.6746
1.70297
1.73105
1.7588
1.78619
1.81322
1.83987
1.86611
1.8919
1.91721
1.94203
1.96631
1.99003
2.01315
2.03566
2.05752
2.07872
2.09922
2.119
2.13804
2.15633
2.17384
2.19056
2.20646
2.22155
2.2358
2.24921
2.26177
2.27346
2.28429
2.29424
2.30331
2.3115
2.3188
2.32524
2.33081
2.33555
2.33944
2.34246
2.34452
2.34551
2.34571
2.34507
2.34369
2.34152
2.33856
2.33481
2.33029
2.32502
2.31901
2.31227
2.30481
2.29664
2.28777
2.27821
2.26798
2.25706
2.24549
2.23325
2.22036
2.20682
2.19263
2.17779
2.16231
2.14619
2.12942
2.11201
2.09397
2.07532
2.05613
2.03662
2.01678
1.99644
1.97554
1.95408
1.93211
1.90965
1.88677
1.86349
1.83986
1.81593
1.79175
1.76734
1.74276
1.71798
1.69333
1.66818
1.629
0.0130212
0.0352381
0.0471439
0.0558448
0.0634111
0.070596
0.0777663
0.0851104
0.092709
0.100573
0.108673
0.116963
0.125398
0.133937
0.142557
0.15124
0.15998
0.168772
0.177618
0.186521
0.195488
0.204535
0.213696
0.223028
0.23262
0.242596
0.253107
0.264309
0.276321
0.289169
0.302726
0.316744
0.331198
0.346114
0.361533
0.377486
0.393995
0.411099
0.428784
0.446997
0.465597
0.484537
0.503835
0.523542
0.543672
0.564233
0.585226
0.606653
0.628517
0.650818
0.67356
0.696743
0.72037
0.744442
0.76896
0.793926
0.819339
0.845199
0.871506
0.898258
0.925453
0.953087
0.981157
1.00966
1.03858
1.06792
1.09767
1.12782
1.15836
1.18928
1.22056
1.25219
1.28415
1.31643
1.349
1.38186
1.41497
1.44832
1.48188
1.51563
1.54954
1.58358
1.61773
1.65195
1.68622
1.72049
1.75475
1.78895
1.82307
1.85705
1.89087
1.9245
1.95789
1.99101
2.02382
2.0563
2.08839
2.12008
2.15133
2.18209
2.21233
2.24202
2.27111
2.29958
2.32737
2.35447
2.38084
2.40644
2.43124
2.45522
2.47835
2.5006
2.52194
2.54236
2.56183
2.58034
2.59787
2.61441
2.62993
2.64444
2.65792
2.67036
2.68176
2.6921
2.7014
2.70965
2.71686
2.72304
2.7282
2.73234
2.73543
2.73738
2.73814
2.73794
2.73679
2.7347
2.73166
2.72767
2.72276
2.71693
2.71022
2.70262
2.69416
2.68485
2.67471
2.66374
2.65197
2.6394
2.62604
2.61191
2.59701
2.58135
2.56493
2.54777
2.52985
2.51119
2.49179
2.47165
2.45078
2.42919
2.40691
2.384
2.36059
2.33669
2.31221
2.28711
2.26142
2.23517
2.20841
2.1812
2.15359
2.12564
2.09742
2.069
2.04048
2.01196
1.98355
1.95562
1.92748
1.89058
0.0177309
0.0442512
0.0581508
0.0681843
0.0767632
0.084755
0.0925854
0.100482
0.10856
0.116866
0.125402
0.134146
0.143072
0.152156
0.161381
0.170742
0.180242
0.18989
0.199701
0.209692
0.21989
0.230324
0.241036
0.252081
0.263527
0.275456
0.287954
0.301098
0.314932
0.329458
0.344625
0.360365
0.376645
0.393465
0.410836
0.428768
0.447262
0.466309
0.48589
0.505981
0.526542
0.547543
0.568984
0.590879
0.613239
0.636072
0.659384
0.683178
0.707459
0.732231
0.757498
0.783263
0.809529
0.836298
0.863574
0.891357
0.91965
0.948452
0.977765
1.00759
1.03792
1.06875
1.10009
1.13192
1.16424
1.19705
1.23033
1.26407
1.29827
1.33291
1.36798
1.40346
1.43933
1.47558
1.51219
1.54912
1.58637
1.6239
1.66169
1.69971
1.73793
1.77632
1.81484
1.85347
1.89217
1.9309
1.96962
2.0083
2.0469
2.08537
2.12369
2.16179
2.19965
2.23723
2.27447
2.31134
2.3478
2.38379
2.41928
2.45422
2.48857
2.52228
2.55532
2.58763
2.61918
2.64993
2.67983
2.70886
2.73697
2.76413
2.7903
2.81546
2.83958
2.86262
2.88458
2.90542
2.92512
2.94367
2.96106
2.97726
2.99228
3.00609
3.0187
3.03009
3.04027
3.04924
3.057
3.06357
3.06896
3.07315
3.07614
3.07778
3.07819
3.07745
3.07561
3.07267
3.06863
3.06351
3.05732
3.05009
3.04185
3.03259
3.02236
3.01116
2.99902
2.98594
2.97196
2.95708
2.94131
2.92469
2.9072
2.88887
2.8697
2.84969
2.82887
2.80722
2.78476
2.76149
2.73742
2.71258
2.68699
2.66071
2.63381
2.60631
2.57818
2.5494
2.52
2.49002
2.45951
2.42855
2.3972
2.36554
2.33365
2.30164
2.26964
2.23782
2.20637
2.17566
2.14502
2.10837
0.0221802
0.0523816
0.0680668
0.0793172
0.0888192
0.097537
0.105949
0.114319
0.122795
0.131456
0.140331
0.149428
0.158737
0.16825
0.177962
0.187874
0.197998
0.208349
0.218949
0.229827
0.241012
0.252539
0.264449
0.276786
0.289601
0.302943
0.316865
0.331406
0.346591
0.362425
0.37889
0.395963
0.413627
0.431872
0.450697
0.470098
0.49007
0.510602
0.531683
0.553301
0.575441
0.598092
0.62125
0.644919
0.669105
0.693816
0.719057
0.744835
0.771155
0.798024
0.825446
0.853427
0.881972
0.911084
0.940768
0.971026
1.00186
1.03328
1.06527
1.09785
1.13101
1.16475
1.19906
1.23395
1.2694
1.30541
1.34197
1.37907
1.41671
1.45485
1.4935
1.53263
1.57223
1.61227
1.65273
1.69359
1.73482
1.77639
1.81828
1.86045
1.90286
1.94549
1.9883
2.03124
2.07428
2.11738
2.1605
2.20359
2.2466
2.2895
2.33223
2.37475
2.41701
2.45896
2.50054
2.54172
2.58244
2.62264
2.66227
2.70129
2.73965
2.77729
2.81417
2.85023
2.88544
2.91973
2.95308
2.98542
3.01673
3.04696
3.07608
3.10404
3.13082
3.15638
3.1807
3.20375
3.22551
3.24596
3.26508
3.28286
3.29928
3.31434
3.32802
3.34033
3.35125
3.3608
3.36898
3.3758
3.38127
3.38539
3.38812
3.38934
3.38927
3.38785
3.38519
3.38126
3.3761
3.36972
3.36215
3.35341
3.34352
3.33251
3.32041
3.30723
3.29301
3.27776
3.26151
3.24428
3.22608
3.20694
3.18686
3.16587
3.14397
3.12118
3.0975
3.07295
3.04753
3.02126
2.99415
2.96622
2.9375
2.90803
2.87788
2.84706
2.81557
2.78341
2.75061
2.71723
2.68332
2.64896
2.61423
2.57922
2.54404
2.50883
2.47373
2.43896
2.40477
2.37151
2.33852
2.30117
0.0262297
0.0595199
0.0767567
0.0890833
0.0994094
0.108777
0.117706
0.126491
0.135306
0.144257
0.1534
0.162765
0.172363
0.1822
0.192283
0.202621
0.213231
0.224132
0.235351
0.246917
0.258864
0.271225
0.284036
0.297333
0.311152
0.325528
0.340492
0.356068
0.372273
0.389113
0.406583
0.424677
0.443385
0.462701
0.482621
0.503139
0.52425
0.54595
0.568233
0.591093
0.614525
0.638527
0.663095
0.688233
0.713947
0.740242
0.767126
0.794607
0.822691
0.851387
0.880701
0.910641
0.941213
0.972423
1.00428
1.03678
1.06994
1.10375
1.13823
1.17337
1.20917
1.24563
1.28275
1.32053
1.35896
1.39804
1.43775
1.47809
1.51905
1.5606
1.60273
1.64543
1.68868
1.73244
1.7767
1.82143
1.8666
1.91218
1.95814
2.00443
2.05102
2.09788
2.14496
2.19221
2.23959
2.28707
2.33457
2.38207
2.42951
2.47683
2.52398
2.57091
2.61756
2.66387
2.70979
2.75526
2.80021
2.8446
2.88836
2.93143
2.97377
3.01531
3.056
3.09578
3.1346
3.1724
3.20914
3.24477
3.27922
3.31247
3.34447
3.37518
3.40455
3.43257
3.45918
3.48437
3.5081
3.53037
3.55114
3.5704
3.58814
3.60434
3.619
3.63211
3.64368
3.6537
3.66218
3.66913
3.67457
3.67848
3.6808
3.68156
3.68083
3.67864
3.67502
3.67
3.66359
3.65584
3.64676
3.63639
3.62476
3.61189
3.59782
3.58258
3.56619
3.5487
3.53011
3.51046
3.48978
3.46809
3.4454
3.42174
3.39713
3.37157
3.34508
3.31768
3.28938
3.2602
3.23014
3.19925
3.16754
3.13505
3.10182
3.06789
3.03327
2.99796
2.96202
2.92548
2.88843
2.85093
2.8131
2.77502
2.73683
2.69868
2.66075
2.62328
2.58654
2.55084
2.51555
2.47715
0.0297817
0.0656006
0.0841409
0.0973843
0.10842
0.118352
0.127733
0.136877
0.145982
0.155171
0.164525
0.174092
0.183903
0.193977
0.204332
0.214984
0.225955
0.237267
0.248949
0.26103
0.27354
0.286512
0.299977
0.313964
0.328501
0.343614
0.359325
0.375651
0.392603
0.410189
0.428411
0.447268
0.466757
0.486876
0.507622
0.528994
0.550991
0.573611
0.596853
0.620718
0.645207
0.670318
0.696056
0.722424
0.749428
0.777077
0.805378
0.834342
0.863977
0.894293
0.925298
0.957004
0.989417
1.02255
1.0564
1.09099
1.12631
1.16238
1.1992
1.23676
1.27508
1.31416
1.35399
1.39457
1.4359
1.47796
1.52076
1.56427
1.6085
1.65341
1.699
1.74524
1.79211
1.83958
1.88763
1.93623
1.98534
2.03493
2.08496
2.13539
2.18617
2.23727
2.28863
2.34022
2.39196
2.44382
2.49574
2.54766
2.59953
2.65128
2.70286
2.75419
2.80523
2.85591
2.90615
2.95589
3.00508
3.05363
3.10149
3.1486
3.19489
3.24029
3.28475
3.32821
3.3706
3.41186
3.45194
3.49079
3.52834
3.56454
3.59936
3.63274
3.66464
3.69503
3.72386
3.7511
3.77673
3.80072
3.82305
3.8437
3.86265
3.8799
3.89544
3.90926
3.92135
3.93173
3.9404
3.94737
3.95265
3.95625
3.95808
3.95824
3.95675
3.95365
3.94896
3.94272
3.93497
3.92572
3.91503
3.90293
3.88945
3.87462
3.8585
3.8411
3.82248
3.80266
3.78168
3.75957
3.73637
3.7121
3.68679
3.66046
3.63314
3.60484
3.57559
3.54541
3.51431
3.4823
3.44942
3.41568
3.38112
3.34575
3.30964
3.27279
3.23524
3.197
3.15813
3.11868
3.07872
3.03834
2.99764
2.95674
2.91578
2.87493
2.83438
2.7944
2.75525
2.71721
2.67967
2.63972
0.0327764
0.0706053
0.0901997
0.104191
0.115812
0.126216
0.135975
0.145422
0.154767
0.16415
0.173667
0.183383
0.193344
0.203583
0.214126
0.224996
0.23622
0.247821
0.259828
0.272269
0.285173
0.298568
0.312481
0.326938
0.341963
0.357576
0.373794
0.390634
0.408104
0.426214
0.444969
0.464371
0.484425
0.50513
0.526489
0.548505
0.571178
0.594514
0.618516
0.643188
0.668534
0.69456
0.721271
0.748674
0.776779
0.805595
0.835134
0.865406
0.896423
0.928198
0.960741
0.994065
1.02818
1.0631
1.09883
1.13538
1.17277
1.21099
1.25005
1.28997
1.33074
1.37237
1.41484
1.45818
1.50236
1.54738
1.59323
1.6399
1.68738
1.73564
1.78468
1.83446
1.88496
1.93615
1.988
2.04048
2.09355
2.14716
2.20128
2.25586
2.31086
2.36621
2.42188
2.47779
2.5339
2.59015
2.64648
2.70281
2.7591
2.81526
2.87124
2.92696
2.98235
3.03734
3.09186
3.14583
3.19918
3.25185
3.30374
3.35481
3.40497
3.45417
3.50232
3.54936
3.59523
3.63986
3.68318
3.72514
3.76568
3.80474
3.84227
3.87822
3.91253
3.94518
3.97611
4.0053
4.0327
4.0583
4.08207
4.10399
4.12404
4.14222
4.1585
4.1729
4.18541
4.19602
4.20476
4.21163
4.21664
4.21979
4.22105
4.22049
4.21812
4.21399
4.20812
4.20056
4.19135
4.18052
4.16812
4.15419
4.13877
4.12191
4.10365
4.08404
4.06312
4.04092
4.01751
3.99291
3.96716
3.9403
3.91237
3.88339
3.8534
3.82242
3.79048
3.75759
3.72378
3.68907
3.65349
3.61705
3.57978
3.54172
3.50289
3.46333
3.42307
3.38213
3.34056
3.29842
3.25579
3.21276
3.16944
3.12596
3.08247
3.03915
2.9962
2.95388
2.91247
2.8722
2.83246
2.79078
0.0351879
0.0745558
0.0949632
0.109534
0.121613
0.132391
0.142453
0.152141
0.161675
0.171207
0.180843
0.190663
0.200722
0.211064
0.221722
0.232728
0.244108
0.25589
0.268102
0.28077
0.29392
0.307579
0.321771
0.336519
0.351844
0.367765
0.384297
0.401456
0.419253
0.437698
0.456799
0.476564
0.497
0.518112
0.539906
0.56239
0.58557
0.609453
0.634047
0.659361
0.685404
0.712184
0.739712
0.767998
0.797055
0.826895
0.857533
0.888982
0.921257
0.954374
0.988345
1.02319
1.05891
1.09553
1.13306
1.17151
1.21089
1.25122
1.29249
1.33472
1.37791
1.42206
1.46717
1.51325
1.56028
1.60825
1.65717
1.70701
1.75775
1.80939
1.86189
1.91523
1.96938
2.02431
2.07999
2.13636
2.19339
2.25105
2.30926
2.368
2.42719
2.48679
2.54673
2.60696
2.66741
2.72801
2.78869
2.84938
2.91002
2.97052
3.03082
3.09082
3.15047
3.20967
3.26835
3.32643
3.38382
3.44046
3.49625
3.55113
3.60502
3.65784
3.70953
3.75999
3.80917
3.85699
3.90339
3.9483
3.99165
4.03339
4.07346
4.1118
4.14836
4.18309
4.21596
4.24691
4.27593
4.30297
4.32802
4.35105
4.37204
4.39099
4.40788
4.42271
4.43548
4.44619
4.45486
4.46149
4.4661
4.46869
4.46927
4.46788
4.46451
4.45923
4.45207
4.44309
4.43233
4.41983
4.40564
4.38981
4.37239
4.35343
4.33298
4.31111
4.28785
4.26325
4.23739
4.21029
4.182
4.15258
4.12207
4.0905
4.0579
4.02431
3.98977
3.95429
3.9179
3.88062
3.84248
3.80351
3.76372
3.72315
3.68182
3.63978
3.59703
3.55363
3.50961
3.46505
3.42
3.37458
3.3289
3.28309
3.23731
3.19175
3.14661
3.10216
3.05864
3.01627
2.97444
2.93103
0.0370168
0.0775049
0.0985023
0.113496
0.12591
0.136962
0.147247
0.157111
0.166782
0.176416
0.186129
0.196007
0.206115
0.216504
0.227217
0.238288
0.249746
0.261619
0.273934
0.286717
0.299991
0.313781
0.32811
0.343
0.358471
0.374541
0.391228
0.408546
0.42651
0.445133
0.464427
0.484403
0.505072
0.526444
0.548531
0.571342
0.594889
0.619184
0.644239
0.670068
0.696684
0.724102
0.752334
0.781394
0.8113
0.842068
0.873715
0.90626
0.93972
0.974113
1.00946
1.04577
1.08306
1.12135
1.16066
1.20099
1.24237
1.28479
1.32828
1.37284
1.41846
1.46517
1.51294
1.56179
1.61171
1.66269
1.7147
1.76775
1.82181
1.87685
1.93285
1.98979
2.04762
2.1063
2.16581
2.22608
2.28708
2.34876
2.41105
2.4739
2.53725
2.60104
2.6652
2.72965
2.79434
2.85918
2.9241
2.98902
3.05386
3.11854
3.18299
3.2471
3.31081
3.37402
3.43666
3.49862
3.55983
3.6202
3.67965
3.7381
3.79546
3.85165
3.9066
3.96023
4.01245
4.06321
4.11241
4.16
4.2059
4.25006
4.2924
4.33287
4.37142
4.408
4.44256
4.47506
4.50545
4.53372
4.55983
4.58376
4.60549
4.62501
4.64232
4.6574
4.67026
4.6809
4.68934
4.69558
4.69966
4.70157
4.70134
4.69899
4.6945
4.68796
4.67942
4.66894
4.65654
4.6423
4.62625
4.60847
4.589
4.56791
4.54525
4.52109
4.49549
4.46851
4.4402
4.41063
4.37986
4.34793
4.3149
4.28082
4.24572
4.20964
4.17262
4.13469
4.09588
4.05621
4.0157
3.97439
3.9323
3.88945
3.84586
3.80158
3.75662
3.71102
3.66483
3.61811
3.57094
3.52341
3.47564
3.42778
3.37998
3.33242
3.28534
3.23896
3.19353
3.14923
3.10548
3.06044
0.038295
0.0795443
0.100922
0.116192
0.128825
0.140056
0.150484
0.160458
0.170208
0.179895
0.189641
0.199537
0.209655
0.22005
0.230766
0.24184
0.253304
0.265185
0.277511
0.290306
0.303596
0.317403
0.33175
0.346658
0.362149
0.378241
0.394954
0.412306
0.430314
0.448994
0.468362
0.488435
0.509227
0.530754
0.553031
0.576073
0.599895
0.624515
0.649947
0.676212
0.70333
0.731317
0.760193
0.789976
0.820687
0.852348
0.88498
0.918604
0.953243
0.988915
1.02564
1.06344
1.10234
1.14234
1.18347
1.22575
1.26918
1.31378
1.35955
1.40651
1.45466
1.504
1.55453
1.60624
1.65913
1.71319
1.76838
1.82471
1.88214
1.94065
2.0002
2.06076
2.12228
2.18474
2.24807
2.31222
2.37715
2.44279
2.50908
2.57596
2.64336
2.7112
2.77942
2.84794
2.91668
2.98556
3.05449
3.1234
3.19219
3.26079
3.32909
3.39702
3.46447
3.53137
3.59761
3.66311
3.72778
3.79153
3.85426
3.9159
3.97635
4.03553
4.09336
4.14976
4.20465
4.25795
4.30957
4.35946
4.40754
4.45375
4.49801
4.54027
4.58047
4.61855
4.65448
4.6882
4.71967
4.74887
4.77576
4.80032
4.82254
4.84239
4.85988
4.87499
4.88774
4.89811
4.90614
4.91183
4.91521
4.9163
4.91516
4.9117
4.90597
4.89808
4.88808
4.876
4.86192
4.84587
4.82794
4.80817
4.78664
4.76341
4.73855
4.71213
4.68422
4.65488
4.6242
4.59223
4.55905
4.52472
4.48928
4.45281
4.41535
4.37693
4.33761
4.29742
4.25638
4.21453
4.17189
4.12849
4.08434
4.03947
3.99391
3.94768
3.9008
3.85331
3.80526
3.75669
3.7077
3.65837
3.60883
3.55921
3.50968
3.46042
3.41165
3.3636
3.31647
3.27046
3.22501
3.17853
0.0390752
0.0807682
0.102344
0.117759
0.130505
0.141824
0.152317
0.162335
0.17211
0.181807
0.191545
0.20142
0.211503
0.221854
0.23252
0.243541
0.254949
0.266768
0.279027
0.291751
0.304966
0.318697
0.332967
0.347798
0.363213
0.379233
0.395881
0.413179
0.431146
0.449804
0.469175
0.489278
0.510134
0.531763
0.554186
0.577423
0.601493
0.626415
0.652205
0.678892
0.706504
0.735064
0.764598
0.795129
0.826684
0.859289
0.89297
0.92775
0.963656
1.00071
1.03893
1.07834
1.11897
1.16083
1.20393
1.24829
1.29394
1.34087
1.3891
1.43863
1.48946
1.5416
1.59503
1.64975
1.70575
1.76301
1.8215
1.8812
1.94208
2.00411
2.06725
2.13146
2.19668
2.26287
2.32997
2.39793
2.46668
2.53615
2.60629
2.67701
2.74824
2.8199
2.89192
2.96421
3.03668
3.10925
3.18184
3.25435
3.32668
3.39876
3.47048
3.54176
3.61249
3.68258
3.75193
3.82046
3.88807
3.95466
4.02015
4.08444
4.14745
4.20909
4.26927
4.32791
4.38493
4.44025
4.49379
4.54547
4.59523
4.64299
4.6887
4.73228
4.77368
4.81285
4.84973
4.88427
4.91644
4.94621
4.97353
4.9984
5.02078
5.04068
5.05807
5.07296
5.08534
5.09523
5.10264
5.10759
5.11011
5.11022
5.10804
5.10331
5.09626
5.08693
5.07538
5.06167
5.04585
5.02799
5.00815
4.98641
4.96283
4.93749
4.91048
4.88186
4.85171
4.82012
4.78716
4.75291
4.71745
4.68085
4.64317
4.60449
4.56485
4.52431
4.4829
4.44067
4.39766
4.35389
4.30939
4.26418
4.21828
4.1717
4.12448
4.07663
4.02817
3.97914
3.92956
3.87951
3.82904
3.77826
3.72729
3.67626
3.62532
3.57468
3.52452
3.47507
3.42653
3.37907
3.33217
3.2845
0.0393353
0.0812024
0.102862
0.118323
0.131093
0.142424
0.152916
0.162921
0.172669
0.182322
0.192003
0.201806
0.211808
0.222069
0.232638
0.24356
0.254874
0.266595
0.278751
0.291368
0.304473
0.31809
0.332245
0.346962
0.362265
0.378181
0.394733
0.411947
0.429849
0.448464
0.467819
0.487939
0.50885
0.530578
0.553151
0.576592
0.600927
0.62618
0.652378
0.679566
0.707768
0.737014
0.767334
0.798759
0.831321
0.86505
0.899976
0.936127
0.973528
1.0122
1.05218
1.09347
1.1361
1.18008
1.22544
1.27219
1.32033
1.36988
1.42083
1.4732
1.52698
1.58216
1.63873
1.69667
1.75596
1.81658
1.8785
1.94168
2.00609
2.07168
2.13841
2.20622
2.27507
2.34489
2.41562
2.48719
2.55953
2.63258
2.70625
2.78047
2.85516
2.93023
3.0056
3.08118
3.15688
3.23262
3.30829
3.38381
3.45908
3.53401
3.6085
3.68245
3.75578
3.82837
3.90014
3.97099
4.04082
4.10954
4.17707
4.24329
4.30814
4.37152
4.43335
4.49353
4.552
4.60866
4.66345
4.71628
4.76709
4.81581
4.86236
4.90669
4.94874
4.98845
5.02577
5.06065
5.09306
5.12295
5.1503
5.17507
5.19726
5.21685
5.23383
5.2482
5.25995
5.2691
5.27567
5.27967
5.28113
5.2802
5.27675
5.27067
5.2622
5.25136
5.23822
5.22284
5.20527
5.1856
5.16388
5.14021
5.11465
5.08729
5.05821
5.0275
4.99524
4.96153
4.92646
4.8901
4.85255
4.81388
4.77418
4.73352
4.69195
4.64953
4.60632
4.56235
4.51766
4.47229
4.42625
4.37957
4.33227
4.28435
4.23584
4.18675
4.1371
4.0869
4.03621
3.98505
3.93351
3.88167
3.82964
3.77757
3.72561
3.67393
3.62273
3.57222
3.52257
3.47396
3.42591
3.37737
0.0392589
0.0811005
0.10271
0.118133
0.130866
0.142153
0.152593
0.162538
0.172218
0.181797
0.191396
0.201111
0.211015
0.221169
0.231621
0.242411
0.253569
0.265125
0.277107
0.289545
0.302468
0.315905
0.329885
0.344435
0.359587
0.375368
0.391812
0.408948
0.426811
0.445432
0.464843
0.485077
0.506165
0.528141
0.551038
0.574894
0.599738
0.62559
0.652468
0.68041
0.70947
0.739691
0.771111
0.803766
0.837691
0.872926
0.909508
0.947457
0.986798
1.02756
1.06975
1.1134
1.15851
1.20511
1.2532
1.30279
1.35389
1.40649
1.4606
1.5162
1.57328
1.63182
1.69181
1.75321
1.816
1.88014
1.94559
2.0123
2.08023
2.14933
2.21954
2.29079
2.36304
2.43621
2.51022
2.58502
2.66052
2.73664
2.81331
2.89044
2.96796
3.04576
3.12377
3.2019
3.28005
3.35814
3.43606
3.51374
3.59106
3.66794
3.74428
3.81999
3.89497
3.96912
4.04236
4.11458
4.18569
4.2556
4.32422
4.39145
4.45722
4.52144
4.58402
4.64488
4.70393
4.76111
4.81633
4.86952
4.9206
4.96953
5.01622
5.06061
5.10265
5.14227
5.17943
5.21408
5.24618
5.2757
5.30259
5.32684
5.34842
5.36732
5.38354
5.39706
5.40789
5.41604
5.42152
5.42436
5.42462
5.42251
5.4176
5.41011
5.40014
5.38775
5.373
5.35595
5.33667
5.31524
5.29172
5.2662
5.23878
5.20952
5.17854
5.14591
5.11174
5.07612
5.03914
5.00091
4.96152
4.92106
4.87962
4.83727
4.79408
4.75012
4.70544
4.66009
4.61409
4.56749
4.52031
4.47256
4.42427
4.37543
4.32606
4.27616
4.22575
4.17484
4.12345
4.07164
4.01946
3.967
3.91436
3.86168
3.80909
3.75678
3.70493
3.65371
3.60332
3.55391
3.50506
3.45602
0.0389975
0.0806701
0.102103
0.117393
0.129991
0.141141
0.15144
0.161241
0.170773
0.1802
0.189643
0.199194
0.208927
0.218901
0.229165
0.239759
0.25072
0.262084
0.273888
0.286161
0.298937
0.312245
0.32612
0.340594
0.355704
0.371487
0.387979
0.405218
0.423245
0.442104
0.461843
0.482499
0.504102
0.526691
0.550303
0.574963
0.600664
0.627492
0.655515
0.684799
0.715379
0.747292
0.780576
0.815265
0.851393
0.888983
0.928058
0.968649
1.01078
1.05449
1.09979
1.14667
1.19513
1.24518
1.29681
1.35003
1.40481
1.46115
1.51903
1.57843
1.63931
1.70164
1.7654
1.83053
1.897
1.96476
2.03375
2.10393
2.17523
2.24759
2.32095
2.39524
2.4704
2.54635
2.62302
2.70033
2.77821
2.85658
2.93536
3.01446
3.0938
3.17331
3.25288
3.33244
3.41189
3.49116
3.57014
3.64874
3.72689
3.80447
3.88142
3.95762
4.033
4.10746
4.18091
4.25326
4.32442
4.3943
4.46281
4.52988
4.59541
4.65932
4.72154
4.78199
4.84058
4.89724
4.9519
5.00447
5.05491
5.10314
5.1491
5.19272
5.23396
5.27275
5.30904
5.34278
5.37394
5.40247
5.42835
5.45155
5.47204
5.48981
5.50485
5.51716
5.52672
5.53356
5.53768
5.53912
5.53811
5.53447
5.52802
5.519
5.50747
5.49348
5.4771
5.45839
5.43743
5.41429
5.38906
5.36182
5.33266
5.30167
5.26896
5.23462
5.19875
5.16146
5.12285
5.08303
5.04209
5.00015
4.95729
4.91359
4.86915
4.82402
4.77826
4.73191
4.68502
4.63762
4.58973
4.54136
4.49253
4.44323
4.39346
4.34323
4.29254
4.24138
4.1898
4.1378
4.08546
4.03284
3.98004
3.92719
3.87443
3.82191
3.7698
3.71829
3.66753
3.6177
3.56841
3.51924
0.0384514
0.0798327
0.100939
0.115984
0.128364
0.139307
0.149409
0.159019
0.168368
0.177616
0.186885
0.196268
0.205837
0.215654
0.225771
0.23623
0.247072
0.258337
0.270065
0.282294
0.295066
0.308419
0.322392
0.337031
0.352386
0.368519
0.385458
0.403246
0.421932
0.441558
0.462148
0.483718
0.506363
0.53015
0.555141
0.581398
0.608993
0.637963
0.66836
0.700238
0.733636
0.768587
0.805122
0.843267
0.883043
0.92446
0.967528
1.01226
1.05865
1.10671
1.15639
1.2077
1.26061
1.31512
1.3712
1.42883
1.48796
1.54858
1.61064
1.67409
1.7389
1.80502
1.87239
1.94098
2.01071
2.08154
2.15341
2.22625
2.30002
2.37463
2.45004
2.52617
2.60295
2.68032
2.75821
2.83654
2.91525
2.99426
3.0735
3.1529
3.23236
3.31183
3.39122
3.47045