/*--------------------------------*- C++ -*----------------------------------*\
  =========                 |
  \\      /  F ield         | OpenFOAM: The Open Source CFD Toolbox
   \\    /   O peration     | Website:  https://openfoam.org
    \\  /    A nd           | Version:  8
     \\/     M anipulation  |
\*---------------------------------------------------------------------------*/
FoamFile
{
    version     2.0;
    format      ascii;
    class       volScalarField;
    location    "240";
    object      nut;
}
// * * * * * * * * * * * * * * * * * * * * * * * * * * * * * * * * * * * * * //

dimensions      [0 2 -1 0 0 0 0];

internalField   nonuniform List<scalar> 
12225
(
4.14925e-05
3.93404e-05
3.74834e-05
3.54323e-05
3.37849e-05
3.24197e-05
3.1511e-05
3.0911e-05
3.09184e-05
3.10896e-05
3.15787e-05
3.20826e-05
3.31775e-05
3.37863e-05
3.51443e-05
3.56687e-05
3.75497e-05
3.97138e-05
0.000332207
0.000215183
0.000179267
0.000157682
0.000146206
0.000138213
0.00013275
0.000131641
0.00012952
0.000130051
0.000129061
0.000129421
0.00012868
0.000128531
0.000128115
0.000127364
0.000127471
0.000126285
0.000668665
0.000450674
0.000355747
0.000309843
0.000275275
0.000251107
0.000231705
0.000217283
0.000202683
0.00019212
0.000182628
0.000175207
0.000169382
0.000163687
0.000160305
0.000155574
0.000153831
0.000149823
0.000801684
0.000691671
0.000572541
0.000500067
0.000449373
0.000411993
0.000380775
0.000356009
0.000334007
0.000314788
0.000298379
0.000281635
0.000270349
0.000256081
0.000248231
0.000236148
0.000230576
0.000220414
0.000839624
0.000810192
0.000740697
0.00067642
0.000623926
0.000581389
0.000545868
0.000514562
0.00048952
0.000464436
0.000445874
0.000424073
0.00040995
0.00039082
0.000379926
0.000363052
0.00035485
0.000339414
0.000850344
0.000843278
0.000819552
0.000786528
0.000750771
0.000715885
0.000685757
0.000656134
0.00063255
0.000607523
0.000589004
0.000567257
0.000552295
0.000533114
0.000520821
0.000503688
0.000493737
0.000477375
0.000851579
0.000851019
0.0008433
0.000833477
0.000817112
0.000796951
0.000777871
0.000756738
0.000738902
0.000719151
0.000703538
0.00068563
0.000672133
0.000655937
0.000644341
0.000629492
0.000619906
0.000605046
0.000851581
0.000851815
0.000850038
0.000847462
0.000841402
0.00083375
0.000824824
0.000813435
0.000802812
0.000790474
0.000779719
0.000767546
0.000757434
0.000745792
0.00073657
0.000725485
0.000717522
0.000705919
0.000851673
0.00085153
0.000851015
0.000850343
0.000848875
0.00084617
0.000843027
0.000838305
0.000833403
0.000827363
0.00082122
0.000814772
0.000808437
0.000801511
0.000795306
0.000788337
0.000782542
0.000774974
0.000851754
0.000851386
0.000851043
0.000850633
0.000850247
0.000849368
0.000848404
0.000846781
0.000844956
0.000842531
0.000839925
0.000836801
0.000833798
0.000830155
0.00082698
0.000822925
0.000819935
0.000815301
0.000851784
0.000851358
0.000851012
0.000850613
0.000850329
0.000849905
0.000849525
0.000848929
0.000848303
0.000847394
0.000846466
0.000845178
0.000843991
0.000842353
0.000840999
0.000839035
0.000837645
0.000835368
0.000851788
0.000851359
0.000850995
0.000850605
0.000850292
0.000849938
0.000849646
0.00084928
0.000848955
0.000848504
0.000848099
0.000847508
0.000846998
0.000846245
0.000845642
0.000844722
0.00084406
0.000842978
0.000851786
0.000851363
0.000850985
0.000850604
0.000850269
0.000849926
0.00084963
0.000849313
0.000849042
0.000848729
0.000848462
0.000848126
0.000847844
0.000847466
0.000847157
0.000846726
0.000846387
0.000845903
0.000851783
0.000851364
0.000850978
0.000850602
0.000850256
0.000849916
0.000849607
0.0008493
0.000849022
0.00084874
0.000848488
0.000848224
0.000847988
0.000847735
0.000847508
0.000847258
0.000847033
0.000846783
0.000851781
0.000851364
0.000850973
0.000850598
0.000850246
0.000849908
0.000849591
0.000849286
0.000849
0.000848723
0.000848463
0.000848211
0.000847975
0.000847744
0.000847527
0.000847316
0.000847114
0.000846919
0.00085178
0.000851363
0.000850969
0.000850594
0.000850239
0.000849901
0.00084958
0.000849274
0.000848984
0.000848707
0.000848443
0.000848191
0.000847951
0.000847721
0.000847502
0.000847292
0.000847092
0.0008469
0.000851779
0.000851362
0.000850967
0.000850591
0.000850234
0.000849894
0.000849572
0.000849265
0.000848973
0.000848694
0.000848428
0.000848174
0.000847932
0.000847701
0.00084748
0.000847268
0.000847066
0.000846873
0.000851779
0.000851362
0.000850965
0.000850588
0.000850231
0.00084989
0.000849567
0.000849258
0.000848965
0.000848685
0.000848418
0.000848163
0.000847919
0.000847687
0.000847464
0.000847251
0.000847048
0.000846853
0.000851779
0.000851362
0.000850965
0.000850588
0.00085023
0.000849889
0.000849565
0.000849256
0.000848962
0.000848681
0.000848413
0.000848158
0.000847913
0.00084768
0.000847456
0.000847242
0.000847038
0.000846842
0.000851779
0.000851362
0.000850965
0.000850589
0.000850231
0.000849891
0.000849567
0.000849259
0.000848965
0.000848685
0.000848417
0.000848161
0.000847916
0.000847683
0.000847459
0.000847245
0.00084704
0.000846844
0.000851779
0.000851363
0.000850967
0.000850592
0.000850235
0.000849896
0.000849573
0.000849266
0.000848972
0.000848693
0.000848424
0.000848168
0.000847919
0.000847683
0.00084745
0.00084723
0.000847012
0.000846805
0.000851778
0.000851366
0.000850968
0.000850599
0.00085024
0.000849907
0.00084958
0.000849274
0.000848964
0.000848671
0.000848364
0.000848071
0.000847756
0.000847455
0.000847122
0.00084681
0.000846456
0.000846135
0.000851773
0.000851376
0.000850971
0.000850615
0.00085024
0.000849889
0.000849478
0.000849054
0.000848529
0.000847978
0.0008473
0.000846604
0.000845766
0.000844938
0.000843953
0.000843028
0.000841916
0.000840938
0.000851767
0.000851415
0.000850964
0.000850548
0.000849861
0.000848966
0.00084761
0.000845975
0.000843904
0.000841635
0.000838954
0.000836213
0.000833115
0.000830112
0.000826761
0.000823677
0.000820181
0.000817175
0.000851859
0.00085138
0.000850195
0.000848243
0.000844469
0.000839354
0.000832765
0.000825657
0.00081796
0.00081001
0.000801616
0.000793625
0.000785328
0.000777703
0.000769739
0.000762696
0.000755118
0.000748789
0.000852108
0.000847667
0.000839902
0.000827146
0.000808707
0.000789645
0.000769974
0.000751411
0.000733302
0.000716892
0.00070093
0.000686776
0.000672825
0.000660665
0.000648372
0.000637934
0.000626947
0.000618013
0.000843241
0.000822506
0.000775184
0.000726458
0.000684894
0.00064985
0.000618459
0.000592017
0.000568378
0.000548308
0.000529684
0.000513986
0.000498746
0.000486011
0.000473196
0.000462702
0.000451616
0.000442798
0.000795685
0.000668241
0.000570625
0.000509904
0.000465603
0.000431182
0.000404144
0.000382479
0.000364197
0.000349066
0.000335938
0.000325059
0.000314503
0.000306232
0.000297956
0.000291363
0.000284277
0.000278927
0.000501314
0.000348357
0.000292673
0.00025918
0.000236322
0.000221176
0.00021162
0.000203854
0.000198563
0.000195075
0.00019222
0.000190367
0.000188582
0.000187438
0.000186165
0.000185471
0.000184555
0.000184142
7.27385e-05
7.02256e-05
6.79542e-05
6.56138e-05
6.33828e-05
6.12762e-05
5.94944e-05
5.79552e-05
5.67109e-05
5.57032e-05
5.49776e-05
5.44181e-05
5.41096e-05
5.38813e-05
5.38976e-05
5.39329e-05
5.40916e-05
5.43243e-05
2.49449e-07
6.24908e-06
1.14399e-05
1.61377e-05
2.09318e-05
2.62763e-05
3.23499e-05
3.92794e-05
4.7058e-05
5.55499e-05
6.45758e-05
7.39424e-05
8.34919e-05
9.30805e-05
0.000102593
0.000111911
0.000120922
0.000129496
0.000137493
0.00014475
0.000151098
0.000156349
0.000160343
0.000162936
0.000164103
0.000163944
0.000162379
0.000160099
0.000156996
0.000157462
0.000164052
0.000172532
0.000177361
0.00018361
0.000190476
0.000195657
0.000197955
0.000188243
3.92512e-05
4.63515e-05
4.81641e-05
4.90547e-05
5.01386e-05
5.1312e-05
5.23959e-05
5.35387e-05
5.46413e-05
5.57634e-05
5.68713e-05
5.79819e-05
5.9087e-05
6.01901e-05
6.129e-05
6.23867e-05
6.34807e-05
6.45713e-05
6.56591e-05
6.67434e-05
6.78246e-05
6.89019e-05
6.99759e-05
7.10455e-05
7.21112e-05
7.31721e-05
7.42282e-05
7.52789e-05
7.63241e-05
7.73629e-05
7.83954e-05
7.94207e-05
8.04387e-05
8.14484e-05
8.24498e-05
8.34419e-05
8.44245e-05
8.53967e-05
8.63584e-05
8.73085e-05
8.82469e-05
8.91725e-05
9.00852e-05
9.09839e-05
9.18685e-05
9.27378e-05
9.35918e-05
9.44292e-05
9.52499e-05
9.60527e-05
9.68371e-05
9.76018e-05
9.83455e-05
9.90675e-05
9.97664e-05
0.000100441
0.000101091
0.000101716
0.00010232
0.000102906
0.000103467
0.000104006
0.000104522
0.000105016
0.000105486
0.000105933
0.000106356
0.000106755
0.00010713
0.00010748
0.000107806
0.000108106
0.000108382
0.000108632
0.000108858
0.000109057
0.000109232
0.000109381
0.000109505
0.000109603
0.000109677
0.000109726
0.000109749
0.000109748
0.000109723
0.000109673
0.000109599
0.000109501
0.000109376
0.000109224
0.000109069
0.000108888
0.000108679
0.000108439
0.000108178
0.000107898
0.000107595
0.000107275
0.000106935
0.000106576
0.000106197
0.0001058
0.000105386
0.000104958
0.000104514
0.000104055
0.00010358
0.00010309
0.000102586
0.000102067
0.000101534
0.000100987
0.000100428
9.98547e-05
9.92689e-05
9.86701e-05
9.80588e-05
9.74349e-05
9.67985e-05
9.61496e-05
9.54883e-05
9.48151e-05
9.41308e-05
9.34325e-05
9.27082e-05
9.22772e-05
9.18952e-05
9.1508e-05
9.11092e-05
9.0698e-05
9.02737e-05
8.98367e-05
8.9386e-05
8.89221e-05
8.84434e-05
8.79501e-05
8.74366e-05
8.69044e-05
8.63316e-05
8.56961e-05
8.4966e-05
8.28132e-05
1.22515e-06
2.92725e-05
6.44188e-05
8.8574e-05
0.000104065
0.000115065
0.000124386
0.000133536
0.000143161
0.000153416
0.000164214
0.000175366
0.000186671
0.000197943
0.000209021
0.000219751
0.000229975
0.000239521
0.000248188
0.000255751
0.00026196
0.000266563
0.000269346
0.00027018
0.000268999
0.000264742
0.000257935
0.000248939
0.000238366
0.000229199
0.000233278
0.000219923
0.000241037
0.000259185
0.000266335
0.000271828
0.000253637
0.000249703
0.00023807
0.000256629
0.000267533
0.000273768
0.00028078
0.000288048
0.000295817
0.000303591
0.000311571
0.000319633
0.000327808
0.000336069
0.000344416
0.000352844
0.000361352
0.000369939
0.000378606
0.000387354
0.000396185
0.000405099
0.000414098
0.000423182
0.000432354
0.000441612
0.000450959
0.000460392
0.000469912
0.000479517
0.000489207
0.000498979
0.000508831
0.000518759
0.000528762
0.000538834
0.000548973
0.000559173
0.000569431
0.000579739
0.000590095
0.000600489
0.000610919
0.000621376
0.000631855
0.000642349
0.000652851
0.000663355
0.000673854
0.000684341
0.000694811
0.000705256
0.000715672
0.000726052
0.000736386
0.00074666
0.000756853
0.000766928
0.000776823
0.000786423
0.000795535
0.000803935
0.000812291
0.000820482
0.000828535
0.000836436
0.000844183
0.000851768
0.000859186
0.00086643
0.000873494
0.000880375
0.000887065
0.000893562
0.00089986
0.000905956
0.000911846
0.000917527
0.000922996
0.000928251
0.00093329
0.000938111
0.000942713
0.000947096
0.000951261
0.000955207
0.000958934
0.000962444
0.00096574
0.000968827
0.00097171
0.000974373
0.000976696
0.000978869
0.000981032
0.000982854
0.000984379
0.000985641
0.000986669
0.000987564
0.000988281
0.000988798
0.000989123
0.000989256
0.000989198
0.000988948
0.000988515
0.000987911
0.000987135
0.000986191
0.00098508
0.000983804
0.000982365
0.000980764
0.000979002
0.00097708
0.000974996
0.000972752
0.000970344
0.000967772
0.000965033
0.000962123
0.000959034
0.00095575
0.000952223
0.00094822
0.000942585
0.000935124
0.000926975
0.000918475
0.000909723
0.000900758
0.0008916
0.000882265
0.000872755
0.000863083
0.000853253
0.000843264
0.000833093
0.000822682
0.000811842
0.000800606
0.000787417
0.00075336
2.56387e-06
4.80043e-05
0.000102122
0.000143087
0.000172687
0.000194206
0.000210701
0.00022447
0.000237012
0.000249166
0.000261312
0.000273547
0.000285821
0.000298022
0.000310015
0.000321655
0.00033279
0.000343245
0.000352827
0.000361315
0.000368478
0.0003741
0.000378016
0.000380153
0.000380647
0.000380853
0.000381261
0.000382993
0.000387428
0.000394426
0.000405651
0.000417583
0.00043582
0.000450891
0.00046194
0.000470456
0.000476049
0.000486211
0.00049843
0.000516702
0.000532853
0.000548283
0.000563942
0.000579744
0.000595804
0.000612004
0.000628384
0.00064491
0.000661589
0.00067841
0.000695375
0.000712481
0.000729731
0.000747125
0.000764665
0.000782354
0.000800192
0.000818183
0.000836325
0.000854621
0.000873069
0.00089167
0.000910422
0.000929322
0.000948369
0.000967557
0.000986884
0.00100634
0.00102593
0.00104564
0.00106546
0.00108538
0.00110541
0.00112552
0.0011457
0.00116595
0.00118626
0.00120661
0.001227
0.0012474
0.00126781
0.00128821
0.0013086
0.00132894
0.00134925
0.00136949
0.00138965
0.00140971
0.00142967
0.0014495
0.00146916
0.00148864
0.00150789
0.00152685
0.00154546
0.00156362
0.00158125
0.00159845
0.00161539
0.00163204
0.00164839
0.00166443
0.00168014
0.00169551
0.00171052
0.00172517
0.00173944
0.00175333
0.00176681
0.00177989
0.00179255
0.00180479
0.00181659
0.00182796
0.00183888
0.00184935
0.00185936
0.00186892
0.00187803
0.00188667
0.00189485
0.00190256
0.00190982
0.00191661
0.00192295
0.00192882
0.00193423
0.00193917
0.0019436
0.00194767
0.0019515
0.00195479
0.00195745
0.00195956
0.00196121
0.00196253
0.00196345
0.00196397
0.00196408
0.00196379
0.0019631
0.00196203
0.00196058
0.00195876
0.00195658
0.00195405
0.00195116
0.00194792
0.00194434
0.00194042
0.00193616
0.00193155
0.0019266
0.00192131
0.00191567
0.00190969
0.00190334
0.00189663
0.00188954
0.00188204
0.00187404
0.00186527
0.00185486
0.00184248
0.00182895
0.00181471
0.00179995
0.00178473
0.0017691
0.00175312
0.00173676
0.00172006
0.00170303
0.00168566
0.00166793
0.00164975
0.00163086
0.00161079
0.00158645
0.00153687
4.05018e-06
6.21873e-05
0.000130784
0.000184268
0.000223805
0.000253192
0.000275785
0.000294145
0.000310078
0.000324745
0.000338808
0.00035259
0.000366203
0.000379647
0.000392863
0.00040577
0.00041827
0.000430255
0.000441602
0.000452183
0.000461875
0.000470597
0.000478362
0.000485346
0.000491958
0.000498906
0.00050689
0.000516635
0.000528815
0.000544155
0.000561941
0.000581422
0.000602252
0.000622451
0.000641542
0.000659905
0.00067839
0.000698413
0.000719677
0.000742222
0.000764544
0.000786904
0.000809401
0.000832054
0.000854897
0.000877918
0.000901126
0.000924517
0.000948092
0.00097185
0.000995794
0.00101992
0.00104424
0.00106875
0.00109346
0.00111837
0.00114348
0.00116879
0.0011943
0.00122001
0.00124593
0.00127203
0.00129834
0.00132483
0.0013515
0.00137836
0.00140538
0.00143257
0.00145991
0.00148739
0.00151501
0.00154275
0.00157059
0.00159853
0.00162655
0.00165464
0.00168277
0.00171094
0.00173913
0.00176731
0.00179548
0.00182361
0.00185168
0.00187968
0.00190758
0.00193536
0.001963
0.00199049
0.00201778
0.00204485
0.00207167
0.00209821
0.00212441
0.00215024
0.00217563
0.00220052
0.00222493
0.00224892
0.00227252
0.00229572
0.00231849
0.00234084
0.00236272
0.00238413
0.00240505
0.00242546
0.00244535
0.0024647
0.0024835
0.00250173
0.00251938
0.00253644
0.0025529
0.00256875
0.00258398
0.00259859
0.00261256
0.0026259
0.00263859
0.00265065
0.00266206
0.00267282
0.00268293
0.0026924
0.00270121
0.00270937
0.00271689
0.00272374
0.00272995
0.00273572
0.00274108
0.00274563
0.00274917
0.00275213
0.00275454
0.00275639
0.00275767
0.00275838
0.00275853
0.00275813
0.00275717
0.00275568
0.00275367
0.00275114
0.00274811
0.00274457
0.00274055
0.00273604
0.00273105
0.00272558
0.00271963
0.00271321
0.0027063
0.00269891
0.00269103
0.00268266
0.00267378
0.00266439
0.00265447
0.00264397
0.0026328
0.00262074
0.00260723
0.00259202
0.00257554
0.00255814
0.00254
0.00252123
0.00250188
0.00248209
0.00246183
0.0024411
0.00241991
0.00239826
0.00237613
0.00235342
0.00232988
0.00230475
0.00227449
0.0022209
5.51865e-06
7.40936e-05
0.000154716
0.000218526
0.000266752
0.000303076
0.000331122
0.000353695
0.000372845
0.000389973
0.000405973
0.000421367
0.000436428
0.00045128
0.000465963
0.000480481
0.000494815
0.000508942
0.00052283
0.000536448
0.000549773
0.000562809
0.000575623
0.000588385
0.000601405
0.000615141
0.000630138
0.000646964
0.000665912
0.000686536
0.00070895
0.00073301
0.000758042
0.000783166
0.000808038
0.000832859
0.000858014
0.000883888
0.000910436
0.000937513
0.000964838
0.000992322
0.00101999
0.00104785
0.00107591
0.00110418
0.00113266
0.00116136
0.00119027
0.0012194
0.00124875
0.00127831
0.00130809
0.00133809
0.00136832
0.00139878
0.00142948
0.00146041
0.00149157
0.00152296
0.00155458
0.00158641
0.00161846
0.00165072
0.00168317
0.00171582
0.00174865
0.00178165
0.00181481
0.00184811
0.00188154
0.00191509
0.00194874
0.00198247
0.00201627
0.00205012
0.002084
0.00211788
0.00215176
0.0021856
0.0022194
0.00225311
0.00228673
0.00232024
0.00235359
0.00238678
0.00241977
0.00245254
0.00248506
0.0025173
0.00254923
0.00258081
0.002612
0.00264278
0.00267312
0.00270301
0.00273243
0.00276138
0.00278987
0.00281789
0.0028454
0.0028724
0.00289885
0.00292474
0.00295005
0.00297476
0.00299884
0.00302229
0.00304509
0.00306721
0.00308865
0.00310938
0.00312941
0.00314871
0.00316728
0.0031851
0.00320217
0.00321848
0.00323404
0.00324882
0.00326283
0.00327607
0.00328853
0.00330022
0.00331113
0.00332125
0.00333061
0.00333919
0.00334705
0.0033545
0.00336121
0.0033668
0.00337151
0.00337545
0.00337875
0.00338136
0.00338328
0.00338453
0.0033851
0.00338501
0.00338427
0.00338289
0.00338089
0.00337827
0.00337505
0.00337123
0.00336683
0.00336184
0.00335628
0.00335015
0.00334344
0.00333616
0.00332831
0.00331987
0.00331085
0.00330122
0.00329099
0.00328014
0.00326864
0.00325645
0.0032435
0.0032296
0.00321445
0.00319786
0.00318002
0.00316116
0.00314143
0.00312092
0.00309972
0.00307793
0.00305547
0.00303244
0.00300887
0.00298476
0.00296013
0.00293489
0.00290882
0.00288107
0.00284822
0.00279573
6.90692e-06
8.4067e-05
0.000174769
0.000247484
0.000303469
0.00034615
0.000379312
0.000405943
0.000428282
0.000447929
0.000465971
0.000483108
0.000499767
0.000516197
0.000532541
0.000548882
0.00056528
0.000581777
0.000598416
0.000615232
0.000632265
0.000649562
0.000667195
0.000685275
0.000703971
0.00072351
0.000744162
0.000766187
0.000789749
0.000814811
0.000841112
0.000868249
0.000896061
0.000924419
0.000953223
0.000982377
0.00101194
0.001042
0.00107252
0.00110344
0.00113465
0.00116612
0.00119781
0.00122973
0.00126187
0.00129424
0.00132684
0.00135966
0.00139271
0.001426
0.00145952
0.00149328
0.0015273
0.00156156
0.00159605
0.00163078
0.00166574
0.00170094
0.00173636
0.00177201
0.00180788
0.00184396
0.00188025
0.00191674
0.00195342
0.00199027
0.0020273
0.00206448
0.0021018
0.00213926
0.00217683
0.00221449
0.00225224
0.00229006
0.00232792
0.00236581
0.00240371
0.00244159
0.00247944
0.00251724
0.00255497
0.00259259
0.00263009
0.00266745
0.00270463
0.00274162
0.00277839
0.00281491
0.00285115
0.00288708
0.00292268
0.00295791
0.00299275
0.00302717
0.00306114
0.00309465
0.00312769
0.00316023
0.00319227
0.00322378
0.00325475
0.00328515
0.00331497
0.00334416
0.00337273
0.00340063
0.00342786
0.00345439
0.0034802
0.00350528
0.00352961
0.00355317
0.00357595
0.00359793
0.0036191
0.00363945
0.00365898
0.00367766
0.00369551
0.0037125
0.00372864
0.00374392
0.00375833
0.00377188
0.00378456
0.00379638
0.00380734
0.00381746
0.00382695
0.00383572
0.00384363
0.00385031
0.0038562
0.00386118
0.00386543
0.00386891
0.00387162
0.00387358
0.00387479
0.00387527
0.00387502
0.00387408
0.00387244
0.00387012
0.00386713
0.00386349
0.00385919
0.00385426
0.00384869
0.00384249
0.00383566
0.00382819
0.00382008
0.00381133
0.00380193
0.00379187
0.00378113
0.00376969
0.00375754
0.00374463
0.0037309
0.00371622
0.00370041
0.00368334
0.0036651
0.0036458
0.00362555
0.00360444
0.00358255
0.00355994
0.00353663
0.00351268
0.00348812
0.00346301
0.00343735
0.00341111
0.00338409
0.00335552
0.00332238
0.00327382
8.17103e-06
9.22953e-05
0.000191399
0.000271848
0.000334819
0.000383408
0.00042147
0.000452108
0.000477696
0.000499989
0.000520234
0.000539284
0.000557704
0.000575858
0.000593981
0.00061223
0.000630718
0.000649539
0.00066877
0.00068848
0.000708735
0.000729592
0.00075111
0.000773353
0.000796398
0.000820335
0.00084526
0.000871262
0.000898383
0.000926578
0.000955726
0.000985676
0.00101631
0.00104755
0.0010793
0.00111152
0.00114418
0.00117728
0.00121079
0.00124466
0.00127884
0.00131331
0.00134803
0.00138299
0.00141819
0.00145362
0.00148928
0.00152516
0.00156128
0.00159762
0.00163421
0.00167102
0.00170807
0.00174536
0.00178287
0.00182061
0.00185858
0.00189677
0.00193517
0.00197379
0.00201262
0.00205165
0.00209087
0.00213028
0.00216986
0.00220961
0.00224952
0.00228957
0.00232975
0.00237004
0.00241044
0.00245092
0.00249147
0.00253207
0.00257271
0.00261336
0.00265401
0.00269463
0.00273522
0.00277574
0.00281617
0.00285649
0.00289668
0.00293672
0.00297657
0.00301623
0.00305565
0.00309481
0.0031337
0.00317227
0.0032105
0.00324837
0.00328585
0.00332291
0.00335954
0.0033957
0.00343139
0.00346657
0.00350124
0.00353536
0.00356892
0.00360189
0.00363425
0.00366597
0.00369703
0.00372741
0.00375707
0.00378601
0.0038142
0.00384161
0.00386824
0.00389406
0.00391905
0.00394321
0.00396651
0.00398894
0.00401049
0.00403115
0.00405091
0.00406977
0.00408771
0.00410473
0.00412083
0.004136
0.00415025
0.00416356
0.00417595
0.00418757
0.00419843
0.00420843
0.00421735
0.0042252
0.00423216
0.00423824
0.00424347
0.00424786
0.00425143
0.00425419
0.00425615
0.00425733
0.00425774
0.00425741
0.00425634
0.00425455
0.00425205
0.00424886
0.00424498
0.00424043
0.00423521
0.00422932
0.00422277
0.00421556
0.00420767
0.0041991
0.00418985
0.0041799
0.00416924
0.00415784
0.00414568
0.00413273
0.00411894
0.00410422
0.00408844
0.00407153
0.00405351
0.00403444
0.00401439
0.00399344
0.00397164
0.00394905
0.00392573
0.00390172
0.00387709
0.00385188
0.00382615
0.00379989
0.00377297
0.00374472
0.00371263
0.00366953
9.28014e-06
9.89228e-05
0.000204922
0.000292053
0.000361283
0.000415362
0.000458128
0.000492731
0.000521635
0.000546703
0.000569307
0.000590426
0.00061074
0.000630715
0.000650665
0.000670809
0.000691304
0.000712273
0.000733813
0.000756002
0.000778904
0.000802572
0.000827048
0.000852367
0.000878555
0.000905636
0.000933629
0.000962548
0.00099238
0.00102308
0.00105459
0.00108681
0.00111967
0.00115311
0.00118707
0.00122152
0.00125641
0.00129169
0.00132736
0.00136337
0.00139969
0.00143631
0.00147319
0.00151031
0.00154765
0.00158522
0.00162301
0.00166101
0.00169923
0.00173767
0.00177632
0.00181518
0.00185427
0.00189356
0.00193307
0.00197278
0.00201271
0.00205283
0.00209316
0.00213368
0.00217439
0.00221529
0.00225636
0.00229761
0.00233902
0.00238058
0.00242228
0.00246412
0.00250608
0.00254814
0.0025903
0.00263255
0.00267485
0.00271721
0.0027596
0.00280201
0.00284442
0.00288681
0.00292916
0.00297146
0.00301367
0.00305578
0.00309777
0.00313962
0.0031813
0.00322279
0.00326406
0.00330509
0.00334585
0.00338631
0.00342646
0.00346627
0.0035057
0.00354474
0.00358335
0.00362153
0.00365923
0.00369645
0.00373315
0.00376931
0.0038049
0.00383991
0.0038743
0.00390805
0.00394113
0.00397351
0.00400518
0.00403611
0.00406627
0.00409565
0.00412421
0.00415194
0.00417883
0.00420485
0.00422998
0.00425421
0.00427753
0.00429992
0.00432138
0.00434188
0.00436143
0.00438002
0.00439763
0.00441428
0.00442994
0.00444463
0.00445837
0.00447139
0.00448343
0.00449456
0.00450453
0.00451354
0.00452157
0.00452867
0.00453488
0.00454019
0.00454465
0.00454825
0.00455102
0.00455297
0.00455412
0.0045545
0.00455411
0.00455298
0.00455112
0.00454854
0.00454527
0.0045413
0.00453665
0.00453133
0.00452532
0.00451865
0.00451129
0.00450325
0.0044945
0.00448505
0.00447488
0.00446395
0.00445226
0.00443976
0.00442642
0.00441217
0.00439694
0.00438065
0.00436331
0.00434495
0.0043256
0.00430532
0.00428416
0.00426219
0.00423945
0.004216
0.00419192
0.00416727
0.00414212
0.00411652
0.00409038
0.00406314
0.0040328
0.00399469
1.02154e-05
0.000104075
0.00021557
0.000308514
0.000383165
0.00044233
0.000489579
0.00052807
0.00056031
0.000588235
0.000613305
0.000636596
0.000658884
0.000680716
0.000702474
0.000724425
0.00074676
0.00076963
0.000793172
0.000817438
0.000842476
0.000868326
0.000895018
0.000922568
0.000950978
0.000980244
0.00101035
0.00104127
0.00107294
0.00110542
0.00113862
0.00117248
0.00120695
0.00124197
0.00127749
0.00131349
0.00134982
0.00138652
0.00142357
0.00146093
0.00149861
0.00153659
0.00157483
0.00161329
0.00165196
0.00169082
0.00172987
0.00176911
0.00180854
0.00184816
0.00188797
0.00192797
0.00196816
0.00200853
0.00204909
0.00208984
0.00213078
0.0021719
0.00221319
0.00225467
0.00229633
0.00233815
0.00238015
0.0024223
0.00246461
0.00250707
0.00254968
0.00259241
0.00263527
0.00267825
0.00272133
0.0027645
0.00280775
0.00285107
0.00289444
0.00293785
0.00298127
0.00302471
0.00306813
0.00311151
0.00315485
0.00319812
0.00324129
0.00328435
0.00332728
0.00337004
0.00341262
0.003455
0.00349714
0.00353902
0.00358062
0.00362191
0.00366286
0.00370344
0.00374364
0.00378342
0.00382276
0.00386163
0.00390001
0.00393786
0.00397517
0.00401189
0.00404801
0.0040835
0.00411833
0.00415246
0.00418588
0.00421856
0.00425047
0.00428159
0.00431189
0.00434135
0.00436994
0.00439765
0.00442446
0.00445035
0.00447529
0.00449928
0.00452231
0.00454435
0.00456541
0.00458546
0.00460451
0.00462255
0.00463957
0.00465557
0.00467067
0.00468486
0.00469808
0.00471028
0.00472138
0.0047315
0.00474059
0.00474871
0.00475588
0.00476213
0.00476747
0.00477194
0.00477554
0.0047783
0.00478024
0.00478139
0.00478175
0.00478135
0.00478022
0.00477836
0.0047758
0.00477255
0.00476862
0.00476401
0.00475874
0.0047528
0.00474618
0.0047389
0.00473093
0.00472225
0.00471287
0.00470274
0.00469185
0.00468018
0.00466767
0.00465429
0.00463997
0.00462467
0.00460836
0.00459106
0.00457279
0.00455359
0.00453349
0.00451256
0.00449085
0.00446842
0.00444536
0.00442174
0.00439765
0.00437317
0.00434826
0.00432247
0.00429422
0.00426054
1.09683e-05
0.000107893
0.00022363
0.000321479
0.000400837
0.000464606
0.000516055
0.000558288
0.000593813
0.000624602
0.000652173
0.000677669
0.000701938
0.000725611
0.000749124
0.000772748
0.000796665
0.000820982
0.000845902
0.000871547
0.000897983
0.000925247
0.000953357
0.000982319
0.00101213
0.00104276
0.0010742
0.00110641
0.00113938
0.00117305
0.00120737
0.00124228
0.00127772
0.00131365
0.00135003
0.00138683
0.00142403
0.00146159
0.00149947
0.00153765
0.00157609
0.00161474
0.00165358
0.00169262
0.0017318
0.00177113
0.00181061
0.00185024
0.00189001
0.00192994
0.00197003
0.00201028
0.00205068
0.00209126
0.00213199
0.00217289
0.00221396
0.0022552
0.00229661
0.0023382
0.00237995
0.00242188
0.00246398
0.00250624
0.00254868
0.00259127
0.00263403
0.00267695
0.00272001
0.00276321
0.00280655
0.00285002
0.0028936
0.00293728
0.00298106
0.00302492
0.00306885
0.00311282
0.00315683
0.00320086
0.00324488
0.00328889
0.00333285
0.00337675
0.00342056
0.00346426
0.00350783
0.00355124
0.00359446
0.00363748
0.00368026
0.00372277
0.00376499
0.00380689
0.00384844
0.00388961
0.00393037
0.0039707
0.00401056
0.00404992
0.00408876
0.00412704
0.00416474
0.00420182
0.00423826
0.00427401
0.00430907
0.00434338
0.00437693
0.00440969
0.00444163
0.00447273
0.00450296
0.00453229
0.0045607
0.00458818
0.0046147
0.00464024
0.00466479
0.00468834
0.00471086
0.00473236
0.00475281
0.00477222
0.00479058
0.0048079
0.00482427
0.00483964
0.00485402
0.00486734
0.00487961
0.00489083
0.00490097
0.00491009
0.00491824
0.00492544
0.0049317
0.00493705
0.00494152
0.00494512
0.00494788
0.00494983
0.00495099
0.00495139
0.00495104
0.00494997
0.00494821
0.00494576
0.00494265
0.00493888
0.00493446
0.0049294
0.0049237
0.00491735
0.00491034
0.00490266
0.0048943
0.00488522
0.00487542
0.00486484
0.00485348
0.00484127
0.00482817
0.00481415
0.00479918
0.00478324
0.00476636
0.00474854
0.00472984
0.0047103
0.00468997
0.00466892
0.00464723
0.004625
0.00460233
0.00457932
0.00455595
0.00453189
0.00450586
0.00447614
1.1539e-05
0.000110518
0.000229357
0.000331186
0.000414581
0.000482454
0.000537763
0.000583521
0.0006222
0.000655778
0.000685818
0.000713468
0.000739551
0.000764624
0.000789326
0.000814062
0.00083911
0.000864696
0.000890972
0.000917951
0.00094566
0.000974125
0.00100336
0.00103337
0.00106414
0.00109567
0.00112791
0.00116083
0.00119439
0.00122854
0.00126324
0.00129844
0.0013341
0.00137019
0.00140667
0.00144351
0.00148067
0.0015181
0.00155579
0.00159372
0.00163189
0.0016703
0.00170903
0.00174789
0.0017868
0.00182577
0.00186481
0.00190395
0.0019432
0.00198256
0.00202205
0.00206167
0.00210143
0.00214134
0.0021814
0.00222161
0.002262
0.00230255
0.00234329
0.00238422
0.00242533
0.00246664
0.00250815
0.00254986
0.00259178
0.0026339
0.00267623
0.00271876
0.0027615
0.00280443
0.00284756
0.00289087
0.00293437
0.00297803
0.00302185
0.00306582
0.00310992
0.00315414
0.00319846
0.00324287
0.00328734
0.00333185
0.0033764
0.00342094
0.00346546
0.00350993
0.00355434
0.00359864
0.00364282
0.00368684
0.00373068
0.00377431
0.00381769
0.0038608
0.00390361
0.00394608
0.00398818
0.00402988
0.00407115
0.00411196
0.00415227
0.00419205
0.00423127
0.00426989
0.00430789
0.00434522
0.00438186
0.00441778
0.00445295
0.00448732
0.00452088
0.0045536
0.00458544
0.00461638
0.0046464
0.00467547
0.00470356
0.00473066
0.00475674
0.00478179
0.0048058
0.00482875
0.00485063
0.00487143
0.00489115
0.00490981
0.00492743
0.00494401
0.0049596
0.00497411
0.00498757
0.00499994
0.00501112
0.00502129
0.00503045
0.00503862
0.00504583
0.00505211
0.00505747
0.00506196
0.00506558
0.00506839
0.00507039
0.00507163
0.00507213
0.00507191
0.00507101
0.00506945
0.00506724
0.0050644
0.00506095
0.0050569
0.00505224
0.00504697
0.00504109
0.00503458
0.00502743
0.00501961
0.00501111
0.00500189
0.00499191
0.00498113
0.00496953
0.00495704
0.00494365
0.00492934
0.00491411
0.00489796
0.00488094
0.00486307
0.00484442
0.00482505
0.00480504
0.0047845
0.00476352
0.00474223
0.00472064
0.0046985
0.00467478
0.00464862
1.19373e-05
0.000112113
0.000233003
0.000337922
0.00042469
0.000496133
0.000554907
0.000603907
0.000645524
0.000681607
0.000713557
0.000742802
0.000770352
0.00079703
0.000823329
0.000849546
0.000875934
0.000902676
0.000929855
0.000957574
0.000985906
0.00101489
0.00104454
0.00107487
0.00110585
0.00113748
0.00116972
0.00120253
0.00123588
0.00126974
0.00130405
0.00133878
0.0013739
0.00140936
0.00144512
0.00148117
0.00151746
0.00155397
0.00159064
0.0016275
0.0016646
0.00170202
0.0017397
0.00177741
0.00181517
0.00185291
0.00189062
0.00192837
0.00196617
0.00200407
0.00204207
0.0020802
0.00211846
0.00215686
0.00219544