/*--------------------------------*- C++ -*----------------------------------*\
  =========                 |
  \\      /  F ield         | OpenFOAM: The Open Source CFD Toolbox
   \\    /   O peration     | Website:  https://openfoam.org
    \\  /    A nd           | Version:  8
     \\/     M anipulation  |
\*---------------------------------------------------------------------------*/
FoamFile
{
    version     2.0;
    format      ascii;
    class       volScalarField;
    location    "240";
    object      p;
}
// * * * * * * * * * * * * * * * * * * * * * * * * * * * * * * * * * * * * * //

dimensions      [0 2 -2 0 0 0 0];

internalField   nonuniform List<scalar> 
12225
(
-1.01666
-3.20525
-4.30532
-4.62605
-4.80745
-4.97665
-5.10841
-5.20388
-5.28089
-5.34879
-5.40945
-5.46517
-5.51608
-5.56397
-5.60931
-5.64798
-5.69601
-5.6741
-4.18008
-4.94857
-5.10906
-5.01691
-5.0045
-5.07252
-5.15029
-5.21634
-5.27635
-5.3343
-5.38956
-5.4413
-5.49027
-5.53679
-5.58191
-5.62251
-5.66934
-5.70359
-4.58122
-4.56625
-4.69364
-4.77209
-4.8671
-4.98743
-5.09488
-5.18002
-5.25222
-5.31806
-5.3788
-5.43452
-5.48671
-5.53576
-5.58324
-5.62714
-5.67682
-5.72048
-4.45928
-4.4024
-4.64404
-4.80244
-4.90428
-5.01064
-5.10855
-5.18887
-5.25798
-5.32153
-5.3807
-5.43547
-5.48704
-5.53582
-5.5832
-5.6285
-5.67728
-5.72515
-4.44893
-4.47339
-4.7015
-4.84313
-4.92685
-5.01905
-5.11047
-5.18845
-5.25635
-5.31901
-5.37768
-5.43235
-5.48399
-5.53312
-5.58095
-5.6275
-5.67603
-5.72575
-4.50688
-4.55585
-4.73016
-4.85414
-4.93575
-5.02371
-5.11194
-5.1887
-5.25599
-5.31809
-5.37637
-5.43092
-5.48254
-5.53184
-5.57984
-5.62691
-5.67502
-5.72442
-4.56719
-4.61146
-4.74668
-4.86307
-4.9469
-5.03116
-5.11525
-5.19011
-5.25648
-5.31785
-5.37556
-5.42981
-5.48125
-5.53053
-5.57846
-5.62556
-5.67302
-5.72116
-4.62069
-4.65836
-4.76836
-4.8767
-4.95977
-5.03949
-5.11906
-5.19173
-5.25703
-5.31755
-5.3746
-5.42845
-5.47963
-5.52873
-5.57643
-5.62321
-5.66979
-5.71631
-4.67039
-4.70354
-4.79449
-4.89249
-4.97263
-5.0481
-5.12339
-5.19367
-5.25769
-5.31724
-5.3735
-5.42682
-5.4776
-5.52635
-5.57362
-5.61979
-5.66529
-5.71009
-4.71739
-4.74665
-4.82219
-4.90944
-4.98569
-5.05731
-5.12853
-5.19616
-5.25863
-5.31703
-5.37237
-5.42499
-5.4752
-5.52341
-5.57003
-5.61537
-5.65967
-5.70275
-4.76163
-4.78713
-4.85035
-4.92754
-4.99926
-5.06714
-5.13444
-5.19923
-5.25992
-5.31702
-5.37127
-5.42302
-5.47248
-5.51997
-5.56579
-5.61013
-5.65314
-5.69457
-4.79958
-4.82193
-4.87614
-4.94498
-5.01212
-5.07655
-5.14042
-5.20253
-5.26142
-5.31718
-5.37032
-5.42113
-5.46977
-5.51645
-5.56139
-5.60471
-5.64651
-5.68651
-4.83461
-4.85433
-4.90116
-4.96255
-5.02505
-5.08607
-5.1467
-5.20615
-5.26315
-5.31748
-5.36943
-5.4192
-5.46691
-5.51269
-5.55668
-5.59895
-5.63955
-5.67822
-4.8713
-4.88849
-4.9285
-4.98251
-5.03983
-5.09699
-5.15411
-5.21059
-5.26536
-5.31795
-5.36844
-5.41693
-5.46347
-5.50812
-5.55095
-5.59199
-5.63124
-5.66851
-4.90838
-4.92316
-4.95714
-5.00422
-5.05608
-5.10905
-5.16248
-5.21576
-5.26797
-5.31852
-5.36727
-5.41422
-5.45934
-5.50263
-5.5441
-5.58373
-5.62154
-5.65737
-4.94388
-4.9565
-4.98542
-5.02636
-5.07289
-5.12156
-5.17125
-5.22125
-5.2707
-5.31897
-5.36575
-5.41092
-5.45441
-5.49614
-5.53608
-5.57421
-5.61051
-5.64489
-4.9749
-4.98577
-5.01071
-5.04663
-5.08847
-5.13314
-5.17932
-5.22617
-5.27288
-5.31878
-5.36348
-5.40676
-5.44848
-5.48854
-5.52688
-5.56345
-5.59825
-5.63123
-4.99708
-5.00673
-5.02897
-5.0614
-5.0998
-5.14137
-5.18474
-5.229
-5.27335
-5.31712
-5.35988
-5.40135
-5.44136
-5.4798
-5.51658
-5.55167
-5.58507
-5.61673
-5.00353
-5.01268
-5.03388
-5.06498
-5.10202
-5.14223
-5.18419
-5.22703
-5.26997
-5.31236
-5.35374
-5.39385
-5.43252
-5.46964
-5.50515
-5.53902
-5.57125
-5.60185
-4.98714
-4.9969
-5.01948
-5.05251
-5.09146
-5.13308
-5.17594
-5.21935
-5.2626
-5.30503
-5.34623
-5.38598
-5.42418
-5.46074
-5.49562
-5.52884
-5.56041
-5.59038
-4.96011
-4.97089
-4.99614
-5.03312
-5.07583
-5.12026
-5.16526
-5.21038
-5.25489
-5.29811
-5.33974
-5.37969
-5.41792
-5.45437
-5.48906
-5.52202
-5.5533
-5.58297
-4.92477
-4.93657
-4.9659
-5.00944
-5.05766
-5.10556
-5.15328
-5.2009
-5.24733
-5.2918
-5.33419
-5.37461
-5.41309
-5.44962
-5.48427
-5.51712
-5.54823
-5.57772
-4.88413
-4.89602
-4.93045
-4.98367
-5.03916
-5.09103
-5.14183
-5.19217
-5.24057
-5.28633
-5.32962
-5.37068
-5.40955
-5.44628
-5.481
-5.51383
-5.54488
-5.57428
-4.84037
-4.85133
-4.89308
-4.95746
-5.01958
-5.07617
-5.1317
-5.18546
-5.23561
-5.28232
-5.32632
-5.36788
-5.40702
-5.44386
-5.47858
-5.51137
-5.54234
-5.57164
-4.7934
-4.79889
-4.86153
-4.93969
-5.00157
-5.05974
-5.12079
-5.17905
-5.23146
-5.27941
-5.32431
-5.36645
-5.40588
-5.4428
-5.47751
-5.51022
-5.54112
-5.57038
-4.75006
-4.71373
-4.82324
-4.93417
-4.99635
-5.05156
-5.11368
-5.17332
-5.22644
-5.27505
-5.32065
-5.36334
-5.4031
-5.44022
-5.47503
-5.50781
-5.53873
-5.568
-4.76427
-4.60531
-4.73421
-4.88824
-4.97829
-5.04957
-5.11841
-5.17922
-5.23192
-5.28009
-5.32526
-5.36741
-5.40659
-5.44315
-5.47742
-5.5097
-5.54021
-5.56921
-4.88746
-4.70707
-4.72121
-4.7933
-4.88161
-4.98075
-5.07135
-5.14503
-5.20663
-5.26166
-5.31187
-5.35753
-5.39923
-5.43761
-5.4732
-5.50643
-5.53778
-5.56786
-4.59483
-5.18591
-5.27471
-5.15042
-5.09602
-5.1231
-5.17
-5.21314
-5.2546
-5.29667
-5.33806
-5.37728
-5.41413
-5.44876
-5.48122
-5.51167
-5.54034
-5.56899
-1.6055
-3.36879
-4.37346
-4.67256
-4.82167
-4.96522
-5.07917
-5.16003
-5.22416
-5.28092
-5.33207
-5.37801
-5.41958
-5.4577
-5.4929
-5.52495
-5.55371
-5.57743
-6.44993
-6.44998
-6.45042
-6.45128
-6.45244
-6.45383
-6.45548
-6.4574
-6.45964
-6.46222
-6.46519
-6.46859
-6.47247
-6.47687
-6.48183
-6.48739
-6.4936
-6.50049
-6.50811
-6.51648
-6.52568
-6.5358
-6.54694
-6.55908
-6.57204
-6.58561
-6.59972
-6.61443
-6.62974
-6.64483
-6.65942
-6.67596
-6.696
-6.71852
-6.74277
-6.76898
-6.7968
-6.82486
-6.85153
-6.87495
-6.89634
-6.91987
-6.94611
-6.97321
-7.00112
-7.0296
-7.0585
-7.0877
-7.11707
-7.14652
-7.17595
-7.20526
-7.23437
-7.26318
-7.29158
-7.31949
-7.34679
-7.37339
-7.39916
-7.42398
-7.44773
-7.47028
-7.49148
-7.51121
-7.52928
-7.54558
-7.5599
-7.57211
-7.58202
-7.58945
-7.59422
-7.59615
-7.59503
-7.59069
-7.58291
-7.57152
-7.5563
-7.53706
-7.51359
-7.48572
-7.45322
-7.41593
-7.37364
-7.32619
-7.27337
-7.21503
-7.15098
-7.08108
-7.0052
-6.92321
-6.83499
-6.74041
-6.63935
-6.53175
-6.41765
-6.29713
-6.17014
-6.0362
-5.89509
-5.74702
-5.5921
-5.43038
-5.26192
-5.08677
-4.90499
-4.71668
-4.52191
-4.32079
-4.11345
-3.90001
-3.68063
-3.45544
-3.22463
-2.98836
-2.74682
-2.50021
-2.24872
-1.99255
-1.73191
-1.46703
-1.19816
-0.925523
-0.649341
-0.369844
-0.0872494
0.198188
0.486237
0.776635
1.06915
1.36354
1.6596
1.95707
2.25569
2.55518
2.8553
3.15582
3.45653
3.75717
4.05751
4.35731
4.65632
4.95432
5.25108
5.5464
5.84006
6.13184
6.42153
6.70892
6.99378
7.27589
7.55504
7.83099
8.10353
8.37242
8.63741
8.89828
9.15475
9.40657
9.6535
9.89529
10.1317
10.3626
10.5877
10.8066
11.0188
11.2243
11.4227
11.614
11.7979
11.9744
12.1433
12.3047
12.4586
12.605
12.7444
12.8772
13.0054
13.1309
13.2683
13.4152
-6.44842
-6.44881
-6.44943
-6.45018
-6.45087
-6.45153
-6.45232
-6.45342
-6.45489
-6.45678
-6.45913
-6.46195
-6.46527
-6.46911
-6.4735
-6.47846
-6.48404
-6.49025
-6.49713
-6.5047
-6.51299
-6.52199
-6.53168
-6.54194
-6.55269
-6.56401
-6.57585
-6.58839
-6.6015
-6.61568
-6.633
-6.65294
-6.67287
-6.69213
-6.71145
-6.73107
-6.75176
-6.77439
-6.79957
-6.82857
-6.86144
-6.89343
-6.92262
-6.95134
-6.98003
-7.00887
-7.03788
-7.06703
-7.09628
-7.12555
-7.15478
-7.18389
-7.21279
-7.2414
-7.26962
-7.29738
-7.32455
-7.35103
-7.37672
-7.4015
-7.42524
-7.44782
-7.46908
-7.48891
-7.50713
-7.52361
-7.53817
-7.55065
-7.56088
-7.56868
-7.57387
-7.57626
-7.57566
-7.57189
-7.56474
-7.55401
-7.53952
-7.52106
-7.49842
-7.47143
-7.43987
-7.40357
-7.36232
-7.31597
-7.2643
-7.20717
-7.1444
-7.07583
-7.00132
-6.92075
-6.83402
-6.74099
-6.64155
-6.53558
-6.42295
-6.30353
-6.17715
-6.04397
-5.90416
-5.75764
-5.60434
-5.44427
-5.27748
-5.104
-4.92389
-4.73723
-4.54411
-4.34463
-4.13891
-3.92707
-3.70927
-3.48564
-3.25636
-3.02159
-2.78152
-2.53635
-2.28627
-2.03146
-1.77216
-1.50858
-1.24096
-0.96954
-0.694528
-0.416148
-0.134635
0.149774
0.436825
0.726272
1.01788
1.31143
1.6067
1.90343
2.20136
2.50021
2.79974
3.09973
3.39996
3.70017
4.00015
4.29962
4.59837
4.89615
5.19276
5.48798
5.7816
6.07339
6.36316
6.65067
6.93571
7.21807
7.49753
7.77386
8.04684
8.31624
8.58182
8.84333
9.10056
9.35321
9.60103
9.84372
10.081
10.3124
10.5377
10.7566
10.9691
11.1749
11.3738
11.5655
11.7501
11.9273
12.097
12.2593
12.4142
12.5618
12.7025
12.837
12.9674
13.0953
13.2347
13.3743
-6.44385
-6.44502
-6.44669
-6.44802
-6.44882
-6.44936
-6.44994
-6.45074
-6.45191
-6.45349
-6.45555
-6.4581
-6.46117
-6.46477
-6.46892
-6.47366
-6.47899
-6.48496
-6.49157
-6.49884
-6.5068
-6.51544
-6.52474
-6.53462
-6.54504
-6.55612
-6.56802
-6.58095
-6.59511
-6.61082
-6.62866
-6.6484
-6.66913
-6.69047
-6.71233
-6.73435
-6.75612
-6.77773
-6.80008
-6.82445
-6.8512
-6.87901
-6.90685
-6.93485
-6.96305
-6.99142
-7.01995
-7.0486
-7.07733
-7.10607
-7.13477
-7.16336
-7.19175
-7.21988
-7.24765
-7.27497
-7.30175
-7.32788
-7.35325
-7.37774
-7.40125
-7.42362
-7.44474
-7.46446
-7.48263
-7.49911
-7.51372
-7.52631
-7.5367
-7.54472
-7.55018
-7.55291
-7.55272
-7.5494
-7.54278
-7.53265
-7.51881
-7.50107
-7.47923
-7.4531
-7.42247
-7.38716
-7.34698
-7.30175
-7.25129
-7.19543
-7.13398
-7.06681
-6.99375
-6.91467
-6.82945
-6.73799
-6.64016
-6.53588
-6.42503
-6.30747
-6.18308
-6.05188
-5.91398
-5.76937
-5.61802
-5.45992
-5.29512
-5.12364
-4.94555
-4.76091
-4.56981
-4.37235
-4.16864
-3.95881
-3.74299
-3.52134
-3.29402
-3.06118
-2.82304
-2.57975
-2.33153
-2.07855
-1.82105
-1.55924
-1.29336
-1.02363
-0.750272
-0.4735
-0.193559
0.0893221
0.37488
0.66288
0.953085
1.24529
1.53925
1.83473
2.13144
2.42913
2.72756
3.02652
3.32574
3.62502
3.92409
4.22272
4.52067
4.81771
5.11363
5.40822
5.70124
5.9925
6.28177
6.56884
6.85349
7.1355
7.41466
7.69074
7.96352
8.23276
8.49823
8.75966
9.01682
9.26948
9.51741
9.76039
9.99814
10.2304
10.4567
10.677
10.891
11.0983
11.2987
11.4921
11.6784
11.8573
12.0289
12.193
12.3499
12.4996
12.6427
12.7797
12.9131
13.0432
13.1841
13.3097
-6.43665
-6.43874
-6.44194
-6.44446
-6.44602
-6.44708
-6.44799
-6.44897
-6.45018
-6.45173
-6.4537
-6.45613
-6.45907
-6.46252
-6.46652
-6.47109
-6.47625
-6.48201
-6.4884
-6.49542
-6.5031
-6.51145
-6.52046
-6.53013
-6.54046
-6.55154
-6.56353
-6.57661
-6.59098
-6.60679
-6.62419
-6.64303
-6.66299
-6.68386
-6.70558
-6.72796
-6.75075
-6.77375
-6.79714
-6.82135
-6.84659
-6.87268
-6.89933
-6.92643
-6.95389
-6.98164
-7.00961
-7.03774
-7.06597
-7.09425
-7.1225
-7.15067
-7.17867
-7.20643
-7.23387
-7.26089
-7.28739
-7.31329
-7.33846
-7.36279
-7.38617
-7.40847
-7.42954
-7.44926
-7.46748
-7.48404
-7.49878
-7.51155
-7.52216
-7.53044
-7.53622
-7.53931
-7.53951
-7.53665
-7.53053
-7.52094
-7.5077
-7.4906
-7.46945
-7.44406
-7.41421
-7.37974
-7.34043
-7.29612
-7.24662
-7.19176
-7.13137
-7.06528
-6.99335
-6.91543
-6.83139
-6.74112
-6.64449
-6.5414
-6.43177
-6.31549
-6.19249
-6.06276
-5.92633
-5.78319
-5.63332
-5.47672
-5.31342
-5.14346
-4.96689
-4.78378
-4.59421
-4.39828
-4.19609
-3.98777
-3.77347
-3.55331
-3.32747
-3.09611
-2.85941
-2.61756
-2.37075
-2.11917
-1.86304
-1.60259
-1.33803
-1.06959
-0.797482
-0.521939
-0.243195
0.0385136
0.322933
0.609825
0.898965
1.19015
1.48312
1.77763
2.07339
2.37019
2.66778
2.96593
3.2644
3.56294
3.86132
4.15929
4.45662
4.75308
5.04845
5.34253
5.63509
5.92591
6.21477
6.50146
6.78577
7.06747
7.34634
7.62215
7.89469
8.16372
8.42901
8.69035
8.94748
9.20019
9.44824
9.69142
9.92947
10.1621
10.3891
10.6102
10.825
11.0333
11.2348
11.4294
11.6169
11.7971
11.97
12.1356
12.2939
12.4452
12.5899
12.7286
12.8634
12.9936
13.1319
13.2424
-6.4286
-6.43167
-6.4366
-6.44054
-6.44312
-6.44494
-6.44645
-6.44787
-6.44941
-6.4512
-6.45333
-6.45589
-6.45891
-6.46243
-6.46648
-6.4711
-6.47629
-6.48209
-6.48851
-6.49558
-6.50333
-6.51176
-6.52089
-6.53076
-6.54139
-6.55286
-6.56528
-6.57877
-6.59347
-6.60947
-6.6268
-6.64534
-6.66491
-6.68534
-6.70654
-6.72843
-6.75094
-6.77403
-6.7977
-6.82201
-6.84698
-6.87253
-6.89859
-6.9251
-6.95199
-6.97921
-7.00668
-7.03435
-7.06216
-7.09004
-7.11793
-7.14575
-7.17344
-7.20091
-7.22809
-7.25488
-7.28118
-7.30691
-7.33194
-7.35618
-7.37949
-7.40175
-7.42282
-7.44257
-7.46085
-7.47751
-7.49238
-7.50531
-7.51612
-7.52464
-7.53068
-7.53407
-7.53461
-7.53211
-7.52638
-7.51722
-7.50444
-7.48784
-7.46721
-7.44236
-7.4131
-7.37923
-7.34056
-7.29691
-7.2481
-7.19395
-7.1343
-7.06897
-6.99782
-6.92071
-6.8375
-6.74807
-6.6523
-6.55008
-6.44133
-6.32597
-6.20393
-6.07521
-5.93978
-5.79763
-5.64876
-5.49318
-5.33089
-5.16195
-4.9864
-4.80432
-4.61577
-4.42087
-4.2197
-4.01241
-3.79912
-3.57998
-3.35515
-3.12479
-2.88909
-2.64823
-2.40239
-2.15178
-1.89661
-1.6371
-1.37347
-1.10594
-0.834724
-0.56006
-0.282166
-0.00130438
0.2823
0.568392
0.856781
1.14723
1.43949
1.73328
2.02836
2.32451
2.6215
2.91907
3.21699
3.51501
3.8129
4.1104
4.4073
4.70336
4.99838
5.29212
5.58439
5.87494
6.16358
6.45007
6.7342
7.01575
7.29451
7.57024
7.84273
8.11176
8.37712
8.63855
8.89584
9.14872
9.39698
9.64035
9.8786
10.1115
10.3388
10.5602
10.7754
10.9843
11.1864
11.3817
11.5699
11.751
11.9247
12.0912
12.2504
12.4026
12.5482
12.6876
12.8225
12.9512
13.0854
13.1823
-6.42136
-6.42533
-6.43183
-6.43713
-6.44075
-6.44343
-6.44564
-6.44765
-6.44967
-6.45186
-6.45434
-6.45719
-6.46047
-6.46424
-6.46852
-6.47336
-6.47877
-6.4848
-6.49146
-6.4988
-6.50682
-6.51556
-6.52506
-6.53534
-6.54643
-6.5584
-6.57132
-6.58525
-6.60027
-6.61644
-6.63374
-6.65213
-6.67148
-6.69168
-6.71263
-6.73424
-6.75646
-6.77929
-6.80271
-6.82674
-6.85136
-6.87651
-6.90214
-6.92821
-6.95467
-6.98147
-7.00854
-7.03584
-7.0633
-7.09086
-7.11845
-7.14601
-7.17347
-7.20073
-7.22773
-7.25437
-7.28055
-7.30619
-7.33116
-7.35536
-7.37866
-7.40094
-7.42206
-7.44189
-7.46027
-7.47706
-7.49209
-7.5052
-7.51621
-7.52496
-7.53125
-7.53491
-7.53574
-7.53356
-7.52816
-7.51936
-7.50695
-7.49073
-7.4705
-7.44608
-7.41725
-7.38383
-7.34563
-7.30245
-7.25413
-7.20048
-7.14134
-7.07653
-7.00591
-6.92934
-6.84668
-6.75781
-6.66261
-6.56098
-6.45283
-6.33808
-6.21669
-6.08861
-5.95383
-5.81232
-5.6641
-5.50916
-5.34753
-5.17925
-5.00436
-4.82293
-4.63506
-4.44082
-4.24033
-4.03371
-3.8211
-3.60264
-3.3785
-3.14883
-2.91382
-2.67364
-2.4285
-2.17858
-1.92411
-1.6653
-1.40236
-1.13551
-0.864973
-0.590976
-0.313753
-0.0335495
0.249398
0.534862
0.822638
1.11249
1.40414
1.69732
1.99183
2.28743
2.5839
2.88097
3.1784
3.47596
3.7734
4.07048
4.36699
4.66269
4.95738
5.25083
5.54282
5.83314
6.12157
6.40788
6.69187
6.9733
7.25198
7.52768
7.80019
8.06927
8.33471
8.59627
8.85373
9.10683
9.35533
9.59898
9.83751
10.0707
10.2983
10.52
10.7357
10.945
11.1477
11.3435
11.5324
11.714
11.8884
12.0556
12.2155
12.3682
12.5142
12.6537
12.788
12.9145
13.0445
13.1295
-6.41608
-6.42086
-6.42858
-6.43502
-6.43959
-6.44309
-6.44602
-6.44865
-6.45122
-6.45389
-6.4568
-6.46004
-6.46369
-6.46781
-6.47243
-6.47761
-6.48336
-6.48973
-6.49675
-6.50444
-6.51284
-6.52198
-6.53189
-6.5426
-6.55415
-6.56656
-6.5799
-6.59418
-6.60946
-6.62574
-6.64302
-6.66126
-6.6804
-6.70037
-6.72108
-6.74248
-6.76451
-6.78714
-6.81035
-6.83414
-6.85847
-6.88332
-6.90864
-6.93439
-6.96053
-6.98702
-7.01381
-7.04083
-7.06804
-7.09538
-7.12277
-7.15016
-7.17747
-7.20461
-7.23152
-7.25809
-7.28424
-7.30986
-7.33484
-7.35907
-7.38243
-7.4048
-7.42603
-7.44598
-7.4645
-7.48145
-7.49666
-7.50997
-7.52119
-7.53016
-7.53669
-7.54059
-7.54169
-7.53977
-7.53465
-7.52613
-7.51401
-7.49808
-7.47816
-7.45404
-7.42552
-7.39241
-7.35452
-7.31166
-7.26366
-7.21033
-7.1515
-7.08702
-7.01672
-6.94046
-6.85813
-6.76959
-6.67472
-6.57343
-6.46562
-6.35123
-6.2302
-6.10249
-5.96807
-5.82694
-5.67908
-5.52451
-5.36325
-5.19534
-5.02083
-4.83979
-4.65231
-4.45847
-4.25839
-4.05218
-3.84
-3.62197
-3.39828
-3.16906
-2.93451
-2.69481
-2.45015
-2.20074
-1.94678
-1.68848
-1.42606
-1.15973
-0.889728
-0.616257
-0.339579
-0.0599112
0.222492
0.507437
0.79468
1.084
1.3751
1.66776
1.96175
2.25686
2.55283
2.84943
3.1464
3.4435
3.7405
4.03717
4.33327
4.62861
4.92294
5.21608
5.50777
5.79782
6.086
6.37211
6.65592
6.93722
7.21579
7.49143
7.7639
8.03301
8.2985
8.56017
8.81778
9.07109
9.31985
9.5638
9.80268
10.0362
10.2642
10.4864
10.7025
10.9122
11.1154
11.3118
11.5012
11.6834
11.8584
12.0261
12.1865
12.3396
12.4857
12.6249
12.7581
12.8822
13.0084
13.0829
-6.41351
-6.41886
-6.42744
-6.43472
-6.44007
-6.44429
-6.44787
-6.4511
-6.45421
-6.45737
-6.46074
-6.46441
-6.46847
-6.47297
-6.47798
-6.48354
-6.48967
-6.49642
-6.50382
-6.5119
-6.52069
-6.53022
-6.54052
-6.55162
-6.56354
-6.57632
-6.58997
-6.60452
-6.61997
-6.63635
-6.65362
-6.67176
-6.69075
-6.71052
-6.73102
-6.75222
-6.77406
-6.79651
-6.81955
-6.84316
-6.86729
-6.89194
-6.91705
-6.94259
-6.96854
-6.99483
-7.02143
-7.04829
-7.07536
-7.10257
-7.12986
-7.15717
-7.18443
-7.21154
-7.23844
-7.26503
-7.29122
-7.3169
-7.34196
-7.3663
-7.38978
-7.41227
-7.43365
-7.45377
-7.47247
-7.4896
-7.50501
-7.51851
-7.52995
-7.53913
-7.54587
-7.55
-7.55131
-7.54961
-7.54471
-7.5364
-7.52449
-7.50878
-7.48906
-7.46513
-7.4368
-7.40388
-7.36617
-7.32348
-7.27564
-7.22247
-7.16379
-7.09945
-7.02929
-6.95318
-6.87098
-6.78256
-6.68782
-6.58665
-6.47898
-6.36473
-6.24383
-6.11626
-5.98199
-5.84099
-5.69327
-5.53884
-5.37773
-5.20997
-5.03563
-4.85476
-4.66745
-4.4738
-4.27392
-4.06794
-3.85598
-3.63821
-3.41477
-3.18584
-2.95158
-2.7122
-2.46788
-2.21881
-1.96522
-1.70731
-1.44529
-1.17937
-0.909778
-0.636745
-0.360507
-0.0812951
0.200661
0.485147
0.771922
1.06075
1.35136
1.64355
1.93708
2.23173
2.52724
2.82338
3.1199
3.41656
3.71313
4.00938
4.30509
4.60005
4.89403
5.18682
5.4782
5.76796
6.05588
6.34175
6.62535
6.90648
7.18492
7.46046
7.73288
8.00197
8.2675
8.52925
8.78699
9.04049
9.28949
9.53373
9.77294
10.0069
10.2352
10.4578
10.6744
10.8846
11.0883
11.2852
11.4751
11.6579
11.8334
12.0015
12.1622
12.3155
12.4616
12.6002
12.7322
12.8536
12.9765
13.0419
-6.41392
-6.4196
-6.42864
-6.43646
-6.44238
-6.44717
-6.45129
-6.45504
-6.45863
-6.46225
-6.46604
-6.47012
-6.47457
-6.47946
-6.48483
-6.49075
-6.49724
-6.50435
-6.5121
-6.52053
-6.52967
-6.53955
-6.55018
-6.56159
-6.57381
-6.58684
-6.60072
-6.61544
-6.63102
-6.64745
-6.66471
-6.6828
-6.70167
-6.7213
-6.74166
-6.7627
-6.78439
-6.8067
-6.8296
-6.85307
-6.87708
-6.9016
-6.92659
-6.95202
-6.97786
-7.00406
-7.03058
-7.05738
-7.0844
-7.11158
-7.13886
-7.16619
-7.19347
-7.22064
-7.24761
-7.2743
-7.30059
-7.3264
-7.3516
-7.37609
-7.39973
-7.42241
-7.44396
-7.46427
-7.48316
-7.50049
-7.51609
-7.52979
-7.54142
-7.55079
-7.55772
-7.56203
-7.56351
-7.56197
-7.55722
-7.54905
-7.53727
-7.52167
-7.50205
-7.47822
-7.44997
-7.4171
-7.37944
-7.33679
-7.28898
-7.23581
-7.17714
-7.11279
-7.04261
-6.96647
-6.88423
-6.79578
-6.70099
-6.59978
-6.49205
-6.37775
-6.25681
-6.1292
-5.99487
-5.85384
-5.70608
-5.55162
-5.39048
-5.22271
-5.04835
-4.86749
-4.6802
-4.48659
-4.28676
-4.08085
-3.86898
-3.65132
-3.42802
-3.19924
-2.96517
-2.726
-2.4819
-2.2331
-1.97979
-1.72218
-1.46046
-1.19489
-0.925643
-0.652987
-0.377128
-0.098318
0.183242
0.467299
0.753641
1.04201
1.33218
1.62393
1.91702
2.21121
2.50628
2.80197
3.09805
3.39426
3.6904
3.98623
4.28154
4.57611
4.86973
5.16217
5.45324
5.74269
6.03034
6.31596
6.59935
6.8803
7.15859
7.43402
7.70638
7.97544
8.241
8.50282
8.76069
9.01436
9.26358
9.5081
9.74764
9.98193
10.2107
10.4337
10.6508
10.8615
11.0656
11.263
11.4534
11.6366
11.8125
11.9809
12.1419
12.2952
12.441
12.5789
12.7095
12.8284
12.9483
13.006
-6.41723
-6.42303
-6.43218
-6.44024
-6.44652
-6.45169
-6.45622
-6.46037
-6.46435
-6.46835
-6.4725
-6.47692
-6.4817
-6.4869
-6.49259
-6.49882
-6.50562
-6.51302
-6.52106
-6.52978
-6.53919
-6.54932
-6.56019
-6.57183
-6.58425
-6.59747
-6.61149
-6.62632
-6.64196
-6.65841
-6.67566
-6.6937
-6.71249
-6.73203
-6.75228
-6.77321
-6.7948
-6.81702
-6.83984
-6.86324
-6.88719
-6.91166
-6.93662
-6.96202
-6.98784
-7.01404
-7.04057
-7.06739
-7.09445
-7.12169
-7.14905
-7.17647
-7.20386
-7.23115
-7.25826
-7.2851
-7.31156
-7.33754
-7.36292
-7.3876
-7.41143
-7.4343
-7.45605
-7.47655
-7.49563
-7.51315
-7.52893
-7.54279
-7.55458
-7.5641
-7.57116
-7.57558
-7.57717
-7.57572
-7.57104
-7.56292
-7.55118
-7.53559
-7.51597
-7.49211
-7.46382
-7.4309
-7.39317
-7.35042
-7.3025
-7.24921
-7.1904
-7.1259
-7.05556
-6.97924
-6.89682
-6.80818
-6.7132
-6.61179
-6.50387
-6.38937
-6.26824
-6.14043
-6.00593
-5.86471
-5.71677
-5.56215
-5.40085
-5.23294
-5.05845
-4.87748
-4.6901
-4.49641
-4.29654
-4.0906
-3.87873
-3.6611
-3.43785
-3.20916
-2.9752
-2.73616
-2.49225
-2.24365
-1.99057
-1.73321
-1.47178
-1.2065
-0.937581
-0.665265
-0.389771
-0.111333
0.169826
0.453468
0.739371
1.02729
1.31703
1.60833
1.90097
2.1947
2.4893
2.78452
3.08013
3.37589
3.67157
3.96697
4.26187
4.55604
4.84928
5.14137
5.4321
5.72125
6.00861
6.29397
6.57714
6.85789
7.13603
7.41134
7.68363
7.95266
8.21824
8.48013
8.73811
8.99195
9.24139
9.48617
9.72603
9.96069
10.1899
10.4133
10.6308
10.8419
11.0466
11.2444
11.4352
11.6188
11.7951
11.9638
12.1248
12.2781
12.4235
12.5606
12.6897
12.8062
12.9234
12.9744
-6.42319
-6.4289
-6.43785
-6.44589
-6.45229
-6.45768
-6.46246
-6.46688
-6.47113
-6.47539
-6.47981
-6.48448
-6.48951
-6.49495
-6.50086
-6.5073
-6.51431
-6.52191
-6.53015
-6.53905
-6.54864
-6.55893
-6.56996
-6.58173
-6.59427
-6.60758
-6.62168
-6.63656
-6.65223
-6.66869
-6.68592
-6.70392
-6.72267
-6.74215
-6.76234
-6.78322
-6.80476
-6.82695
-6.84975
-6.87314
-6.8971
-6.92159
-6.94658
-6.97203
-6.99791
-7.02418
-7.0508
-7.07773
-7.1049
-7.13227
-7.15978
-7.18734
-7.2149
-7.24237
-7.26966
-7.29669
-7.32334
-7.34952
-7.3751
-7.39997
-7.424
-7.44705
-7.46898
-7.48965
-7.50889
-7.52655
-7.54245
-7.55644
-7.56832
-7.57791
-7.58503
-7.58949
-7.59109
-7.58963
-7.58492
-7.57676
-7.56494
-7.54926
-7.52952
-7.50553
-7.47708
-7.44398
-7.40604
-7.36308
-7.31492
-7.26138
-7.20231
-7.13753
-7.0669
-6.99028
-6.90756
-6.81861
-6.72332
-6.6216
-6.51336
-6.39855
-6.27711
-6.149
-6.01421
-5.8727
-5.7245
-5.56961
-5.40808
-5.23993
-5.06524
-4.88408
-4.69654
-4.50272
-4.30273
-4.09671
-3.8848
-3.66715
-3.44392
-3.21527
-2.9814
-2.74249
-2.49873
-2.25032
-1.99746
-1.74034
-1.47919
-1.21421
-0.945626
-0.673652
-0.398539
-0.120492
0.160234
0.44344
0.728877
1.01634
1.3056
1.59643
1.88857
2.18181
2.4759
2.77062
3.06572
3.36099
3.65619
3.95113
4.24559
4.53934
4.83218
5.12389
5.41426
5.70308
5.99014
6.27524
6.55817
6.83872
7.11669
7.39189
7.66409
7.93309
8.19868
8.46064
8.71873
8.97273
9.22239
9.46744
9.70761
9.94263
10.1722
10.3961
10.614
10.8256
11.0306
11.2289
11.4201
11.6041
11.7806
11.9495
12.1106
12.2637
12.4087
12.5448
12.6725
12.7865
12.9013
12.9467
-6.43134
-6.4368
-6.44531
-6.45309
-6.45942
-6.46484
-6.46972
-6.47426
-6.47865
-6.48306
-6.48762
-6.49243
-6.49758
-6.50315
-6.50917
-6.51572
-6.52282
-6.53052
-6.53884
-6.54782
-6.55748
-6.56785
-6.57894
-6.59077
-6.60336
-6.61671
-6.63083
-6.64574
-6.66142
-6.67787
-6.69509
-6.71308
-6.73181
-6.75127
-6.77145
-6.79233
-6.81388
-6.83608
-6.85892
-6.88236
-6.90637
-6.93092
-6.956
-6.98156
-7.00757
-7.03398
-7.06075
-7.08784
-7.11518
-7.14273
-7.17042
-7.19817
-7.22592
-7.25358
-7.28107
-7.30829
-7.33513
-7.36149
-7.38725
-7.41228
-7.43646
-7.45965
-7.48171
-7.50248
-7.52181
-7.53953
-7.55548
-7.56949
-7.58137
-7.59094
-7.59801
-7.6024
-7.6039
-7.60233
-7.59747
-7.58914
-7.57712
-7.56123
-7.54125
-7.517
-7.48827
-7.45487
-7.41661
-7.37332
-7.32481
-7.27091
-7.21145
-7.14629
-7.07527
-6.99825
-6.91513
-6.82577
-6.73008
-6.62795
-6.51932
-6.40412
-6.2823
-6.15382
-6.01866
-5.87681
-5.72828
-5.57309
-5.41126
-5.24285
-5.06791
-4.88653
-4.6988
-4.50482
-4.30471
-4.0986
-3.88663
-3.66896
-3.44574
-3.21716
-2.98338
-2.74461
-2.50103
-2.25283
-2.00021
-1.74338
-1.48253
-1.2179
-0.949682
-0.678108
-0.403414
-0.125823
0.154437
0.43715
0.72208
1.00903
1.29777
1.58806
1.87964
2.17232
2.46585
2.76001
3.05456
3.34929
3.64398
3.93842
4.23238
4.52568
4.81808
5.10938
5.39936
5.68783
5.97457
6.25937
6.54204
6.82238
7.10017
7.37523
7.64733
7.91629
8.18188
8.44389
8.70209
8.95625
9.20612
9.45143
9.69191
9.92729
10.1573
10.3815
10.5999
10.8119
11.0174
11.2161
11.4077
11.592
11.7687
11.9378
12.0988
12.2517
12.3961
12.5312
12.6574
12.7693
12.8818
12.9225
-6.44121
-6.4463
-6.45419
-6.46151
-6.4676
-6.47288
-6.47768
-6.48219
-6.48658
-6.49099
-6.49555
-6.50036
-6.50551
-6.51106
-6.51707
-6.5236
-6.53069
-6.53838
-6.54669
-6.55566
-6.56532
-6.57568
-6.58677
-6.5986
-6.61118
-6.62453
-6.63865
-6.65354
-6.66921
-6.68566
-6.70288
-6.72086
-6.7396
-6.75908
-6.77929
-6.80019
-6.82178
-6.84404
-6.86693
-6.89045
-6.91455
-6.93922
-6.96443
-6.99015
-7.01632
-7.04291
-7.06987
-7.09714
-7.12468
-7.15241
-7.18027
-7.2082
-7.23613
-7.26396
-7.2916
-7.31897
-7.34595
-7.37242
-7.39829
-7.42341
-7.44765
-7.47088
-7.49296
-7.51372
-7.53302
-7.55069
-7.56657
-7.58047
-7.59222
-7.60163
-7.60852
-7.6127
-7.61398
-7.61214
-7.60701
-7.59838
-7.58604
-7.56981
-7.54947
-7.52484
-7.49571
-7.4619
-7.42322
-7.37949
-7.33053
-7.27618
-7.21626
-7.15063
-7.07913
-7.00165
-6.91806
-6.82824
-6.73208
-6.62951
-6.52043
-6.4048
-6.28256
-6.15368
-6.01814
-5.87593
-5.72706
-5.57155
-5.40943
-5.24075
-5.06558
-4.884
-4.69609
-4.50198
-4.30177
-4.0956
-3.88361
-3.66595
-3.4428
-3.21432
-2.98068
-2.7421
-2.49874
-2.25082
-1.9985
-1.74202
-1.48155
-1.21733
-0.949546
-0.678452
-0.404256
-0.1272
0.152526
0.434662
0.719014
1.00537
1.29352
1.58317
1.87412
2.16617
2.45907
2.7526
3.04653
3.34066
3.63477
3.92865
4.22209
4.51487
4.80679
5.09764
5.3872
5.67528
5.96166
6.24615
6.52854
6.80863
7.08623
7.36113
7.63313
7.90203
8.16761
8.42966
8.68797
8.94227
9.19235
9.43792
9.67871
9.91443
10.1448
10.3695
10.5882
10.8007
11.0066
11.2056
11.3976
11.5821
11.7591
11.9282
12.0892
12.2418
12.3855
12.5197
12.6444
12.7542
12.8646
12.9015
-6.45232
-6.45695
-6.4641
-6.47083
-6.47651
-6.48149
-6.48605
-6.49036
-6.49456
-6.49881
-6.50321
-6.50787
-6.51288
-6.51829
-6.52418
-6.53058
-6.53756
-6.54514
-6.55335
-6.56224
-6.57181
-6.5821
-6.59313
-6.6049
-6.61744
-6.63074
-6.64483
-6.6597
-6.67536
-6.6918
-6.70902
-6.72701
-6.74575
-6.76525
-6.78548
-6.80642
-6.82806
-6.85039
-6.87336
-6.89699
-6.92122
-6.94604
-6.9714
-6.99728
-7.02361
-7.05037
-7.07749
-7.10491
-7.13258
-7.16044
-7.18842
-7.21645
-7.24447
-7.27237
-7.30008
-7.32748
-7.35447
-7.38094
-7.40677
-7.43183
-7.45599
-7.47911
-7.50104
-7.52164
-7.54075
-7.55821
-7.57384
-7.58747
-7.59893
-7.60803
-7.61459
-7.61841
-7.61931
-7.61708
-7.61154
-7.60248
-7.5897
-7.57301
-7.55221
-7.5271
-7.49749
-7.46319
-7.42401
-7.37978
-7.33031
-7.27545
-7.21502
-7.14888
-7.07688
-6.99891
-6.91483
-6.82453
-6.7279
-6.62487
-6.51535
-6.3993
-6.27665
-6.14739
-6.01148
-5.86893
-5.71975
-5.56395
-5.40157
-5.23267
-5.05732
-4.87558
-4.68756
-4.49337
-4.29312
-4.08696
-3.87502
-3.65746
-3.43444
-3.20615
-2.97275
-2.73445
-2.49142
-2.24386
-1.99196
-1.73592
-1.47593
-1.21223
-0.944998
-0.674485
-0.400899
-0.124456
0.154617
0.436079
0.719755
1.00544
1.29287
1.58178
1.87201
2.16333
2.45552
2.74833
3.04157
3.33503
3.62849
3.92174
4.21458
4.5068
4.79818
5.08853
5.37762
5.66527
5.95126
6.23539
6.51747
6.79729
7.07467
7.3494
7.62128
7.8901
8.15566
8.41774
8.67612
8.93057
9.18084
9.42666
9.66775
9.9038
10.1345
10.3596
10.5787
10.7916
10.9979
11.1973
11.3896
11.5744
11.7515
11.9207
12.0816
12.2338
12.3769
12.51
12.6333
12.7412
12.8495
12.8833
-6.46425
-6.46838
-6.47473
-6.48076
-6.48589
-6.49039
-6.49452
-6.49843
-6.50227
-6.50618
-6.51026
-6.51462
-6.51934
-6.52449
-6.53013
-6.53631
-6.54307
-6.55046
-6.5585
-6.56723
-6.57667
-6.58683
-6.59775
-6.60942
-6.62187
-6.6351
-6.64912
-6.66393
-6.67954
-6.69594
-6.71313
-6.7311
-6.74983
-6.76933
-6.78958
-6.81056
-6.83226
-6.85466
-6.87773
-6.90145
-6.92579
-6.95071
-6.97616
-7.00212
-7.02853
-7.05534
-7.0825
-7.10995
-7.13762
-7.16546
-7.1934
-7.22138
-7.24932
-7.27713
-7.30471
-7.33196
-7.35878
-7.38504
-7.41064
-7.43544
-7.45931
-7.48212
-7.50372
-7.52397
-7.5427
-7.55976
-7.57497
-7.58817
-7.59918
-7.60782
-7.61391
-7.61724
-7.61764
-7.61491
-7.60885
-7.59927
-7.58597
-7.56875
-7.54741
-7.52176
-7.49161
-7.45677
-7.41706
-7.37229
-7.3223
-7.2669
-7.20596
-7.13932
-7.06683
-6.98837
-6.90382
-6.81306
-6.716
-6.61254
-6.50263
-6.3862
-6.26321
-6.13362
-5.99742
-5.8546
-5.70518
-5.54918
-5.38664
-5.21761
-5.04217
-4.86038
-4.67235
-4.47818
-4.27802
-4.07197
-3.86021
-3.64286
-3.42011
-3.19213
-2.95911
-2.72121
-2.47864
-2.23157
-1.98022
-1.72475
-1.46539
-1.20232
-0.93579
-0.665975
-0.393111
-0.117407
0.16087
0.441548
0.724445
1.00933
1.2959
1.58398
1.87338
2.16387
2.45523
2.74724
3.03969
3.33239
3.62512
3.91767
4.20984
4.50143
4.79221
5.082
5.37057
5.65774
5.94329
6.22703
6.50876
6.7883
7.06542
7.33995
7.61168
7.88041
8.14592
8.40801
8.66646
8.92104
9.17148
9.41753
9.6589
9.89527
10.1263
10.3518
10.5713
10.7845
10.9912
11.1909
11.3835
11.5685
11.7458
11.915
12.0757
12.2275
12.3699
12.5021
12.624
12.7301
12.8364
12.8679
-6.47717
-6.48081
-6.48636
-6.4916
-6.49601
-6.49983
-6.50329
-6.50657
-6.50981
-6.51315
-6.51671
-6.52058
-6.52485
-6.52959
-6.53485
-6.54069
-6.54714
-6.55424
-6.56202
-6.5705
-6.57971
-6.58967
-6.60039
-6.61188
-6.62417
-6.63724
-6.65112
-6.66579
-6.68127
-6.69756
-6.71464
-6.73251
-6.75118
-6.77062
-6.79082
-6.81177
-6.83345
-6.85582
-6.87886
-6.90253
-6.92681
-6.95165
-6.97701
-7.00284
-7.02911
-7.05576
-7.08273
-7.10996
-7.1374
-7.165
-7.19268
-7.22038
-7.24801
-7.27547
-7.30268
-7.32954
-7.35593
-7.38174
-7.40686
-7.43117
-7.45453
-7.47681
-7.49787
-7.51756
-7.53573
-7.55221
-7.56684
-7.57946
-7.58988
-7.59793
-7.60342
-7.60616
-7.60597
-7.60265
-7.59601
-7.58585
-7.57198
-7.55419
-7.5323
-7.50609
-7.47541
-7.44003
-7.3998
-7.35452
-7.30403
-7.24817
-7.18677
-7.11969
-7.04677
-6.9679
-6.88295
-6.79181
-6.6944
-6.59062
-6.48041
-6.36371
-6.24048
-6.11069
-5.97431
-5.83136
-5.68184
-5.52577
-5.36321
-5.19419
-5.0188
-4.83712
-4.64923
-4.45526
-4.25533
-4.04958
-3.83815
-3.62119
-3.39887
-3.17138
-2.93889
-2.70157
-2.45963
-2.21324
-1.96259
-1.70788
-1.44931
-1.18707
-0.921362
-0.652402
-0.380416
-0.105644
0.171694
0.451455
0.733435
1.01734
1.30292
1.59003
1.87846
2.16799