/*--------------------------------*- C++ -*----------------------------------*\
  =========                 |
  \\      /  F ield         | OpenFOAM: The Open Source CFD Toolbox
   \\    /   O peration     | Website:  https://openfoam.org
    \\  /    A nd           | Version:  8
     \\/     M anipulation  |
\*---------------------------------------------------------------------------*/
FoamFile
{
    version     2.0;
    format      ascii;
    class       surfaceScalarField;
    location    "240";
    object      phi;
}
// * * * * * * * * * * * * * * * * * * * * * * * * * * * * * * * * * * * * * //

dimensions      [0 3 -1 0 0 0 0];

internalField   nonuniform List<scalar> 
24170
(
3.12901e-06
5.94006e-08
3.04663e-06
8.23778e-08
2.97354e-06
7.30905e-08
2.90491e-06
6.86297e-08
2.84058e-06
6.43236e-08
2.78327e-06
5.73149e-08
2.73395e-06
4.93148e-08
2.69201e-06
4.19397e-08
2.65635e-06
3.5658e-08
2.62593e-06
3.04242e-08
2.59976e-06
2.61699e-08
2.577e-06
2.27528e-08
2.55701e-06
1.99937e-08
2.5392e-06
1.78135e-08
2.52322e-06
1.59789e-08
2.50799e-06
1.52278e-08
2.4942e-06
1.37879e-08
1.84381e-08
2.47576e-06
3.45306e-06
2.35851e-08
3.45701e-06
7.84358e-08
3.45055e-06
7.95498e-08
3.43909e-06
8.00842e-08
3.42432e-06
7.90986e-08
3.40707e-06
7.45624e-08
3.38786e-06
6.8527e-08
3.36734e-06
6.24581e-08
3.3462e-06
5.67955e-08
3.32503e-06
5.15946e-08
3.30431e-06
4.68876e-08
3.28432e-06
4.27406e-08
3.26526e-06
3.90549e-08
3.24717e-06
3.59047e-08
3.23012e-06
3.30223e-08
3.21412e-06
3.12314e-08
3.19946e-06
2.84426e-08
2.99033e-08
3.18799e-06
3.66816e-06
1.79415e-08
3.6792e-06
6.73935e-08
3.68543e-06
7.33205e-08
3.68947e-06
7.60474e-08
3.69107e-06
7.74974e-08
3.69011e-06
7.55242e-08
3.68698e-06
7.16579e-08
3.68214e-06
6.72917e-08
3.676e-06
6.29372e-08
3.66887e-06
5.87213e-08
3.66104e-06
5.4719e-08
3.65275e-06
5.10281e-08
3.64419e-06
4.76147e-08
3.63553e-06
4.45686e-08
3.62682e-06
4.17332e-08
3.61847e-06
3.95759e-08
3.60986e-06
3.70506e-08
3.62733e-08
3.60349e-06
3.92585e-06
1.74805e-08
3.93592e-06
5.73217e-08
3.94257e-06
6.66672e-08
3.94812e-06
7.05038e-08
3.95254e-06
7.30791e-08
3.95549e-06
7.25711e-08
3.95716e-06
6.99822e-08
3.95781e-06
6.66502e-08
3.9576e-06
6.31408e-08
3.9567e-06
5.96225e-08
3.95523e-06
5.61831e-08
3.95333e-06
5.29316e-08
3.95108e-06
4.98669e-08
3.94858e-06
4.7064e-08
3.94587e-06
4.44396e-08
3.94323e-06
4.22169e-08
3.94034e-06
3.99436e-08
3.82575e-08
3.93835e-06
4.2082e-06
1.64076e-08
4.21599e-06
4.9535e-08
4.22169e-06
6.0967e-08
4.22679e-06
6.53955e-08
4.23155e-06
6.83267e-08
4.23552e-06
6.85944e-08
4.2387e-06
6.68079e-08
4.24118e-06
6.41657e-08
4.24308e-06
6.124e-08
4.24449e-06
5.8217e-08
4.24548e-06
5.51925e-08
4.24614e-06
5.22732e-08
4.24652e-06
4.94833e-08
4.2467e-06
4.68793e-08
4.24672e-06
4.44217e-08
4.24673e-06
4.22054e-08
4.24665e-06
4.00285e-08
3.80205e-08
4.24688e-06
4.51071e-06
1.47844e-08
4.51688e-06
4.33601e-08
4.52214e-06
5.5716e-08
4.52696e-06
6.05754e-08
4.53167e-06
6.36099e-08
4.53593e-06
6.43403e-08
4.53961e-06
6.31277e-08
4.54277e-06
6.09966e-08
4.54551e-06
5.8508e-08
4.54786e-06
5.586e-08
4.5499e-06
5.31583e-08
4.55167e-06
5.05023e-08
4.55322e-06
4.79336e-08
4.5546e-06
4.54928e-08
4.55586e-06
4.31651e-08
4.55708e-06
4.09812e-08
4.55827e-06
3.88428e-08
3.67264e-08
4.55956e-06
4.83433e-06
1.31737e-08
4.83963e-06
3.80606e-08
4.84476e-06
5.05888e-08
4.84946e-06
5.58684e-08
4.8541e-06
5.89726e-08
4.85842e-06
6.00174e-08
4.8623e-06
5.92489e-08
4.86577e-06
5.75238e-08
4.8689e-06
5.53836e-08
4.87172e-06
5.30378e-08
4.87428e-06
5.06e-08
4.87662e-06
4.81634e-08
4.87877e-06
4.5779e-08
4.88079e-06
4.34783e-08
4.88269e-06
4.12584e-08
4.88455e-06
3.91218e-08
4.88638e-06
3.70141e-08
3.48819e-08
4.88822e-06
5.18105e-06
1.17068e-08
5.18576e-06
3.33526e-08
5.19076e-06
4.55842e-08
5.19541e-06
5.12136e-08
5.2e-06
5.43825e-08
5.20437e-06
5.56529e-08
5.20837e-06
5.52464e-08
5.21203e-06
5.38657e-08
5.21539e-06
5.20221e-08
5.21849e-06
4.99359e-08
5.22136e-06
4.77258e-08
5.22405e-06
4.54813e-08
5.22657e-06
4.32578e-08
5.22896e-06
4.10831e-08
5.23126e-06
3.89605e-08
5.2335e-06
3.68831e-08
5.23569e-06
3.48171e-08
3.27188e-08
5.23786e-06
5.55269e-06
1.03509e-08
5.55689e-06
2.91546e-08
5.5617e-06
4.07749e-08
5.56631e-06
4.6602e-08
5.57088e-06
4.9814e-08
5.57529e-06
5.12428e-08
5.5794e-06
5.11357e-08
5.58321e-06
5.00584e-08
5.58675e-06
4.84797e-08
5.59006e-06
4.66273e-08
5.59316e-06
4.46234e-08
5.59609e-06
4.25553e-08
5.59886e-06
4.04798e-08
5.60152e-06
3.84252e-08
5.60408e-06
3.63982e-08
5.60657e-06
3.43926e-08
5.609e-06
3.23861e-08
3.03553e-08
5.61137e-06
5.95104e-06
9.08739e-09
5.95479e-06
2.54056e-08
5.95936e-06
3.61998e-08
5.96392e-06
4.20439e-08
5.96847e-06
4.52633e-08
5.97292e-06
4.67938e-08
5.97713e-06
4.69273e-08
5.98107e-06
4.61167e-08
5.98477e-06
4.47785e-08
5.98826e-06
4.31418e-08
5.99155e-06
4.13306e-08
5.99467e-06
3.94305e-08
5.99765e-06
3.74982e-08
6.00051e-06
3.55637e-08
6.00327e-06
3.36376e-08
6.00595e-06
3.17178e-08
6.00854e-06
2.97913e-08
2.78523e-08
6.01105e-06
6.37798e-06
7.91582e-09
6.38135e-06
2.20409e-08
6.38568e-06
3.18696e-08
6.39017e-06
3.75559e-08
6.39469e-06
4.0736e-08
6.39917e-06
4.23181e-08
6.40346e-06
4.26336e-08
6.40753e-06
4.20513e-08
6.41137e-06
4.09308e-08
6.41502e-06
3.94944e-08
6.41848e-06
3.78664e-08
6.42179e-06
3.61297e-08
6.42494e-06
3.43404e-08
6.42798e-06
3.25307e-08
6.4309e-06
3.07149e-08
6.43372e-06
2.88963e-08
6.43644e-06
2.70695e-08
2.52426e-08
6.43905e-06
5.74176e-06
6.98932e-09
5.74434e-06
1.94568e-08
5.74782e-06
2.83988e-08
5.75154e-06
3.38263e-08
5.75535e-06
3.69312e-08
5.75914e-06
3.85234e-08
5.76283e-06
3.89484e-08
5.76635e-06
3.85272e-08
5.76971e-06
3.7573e-08
5.77291e-06
3.62949e-08
5.77596e-06
3.48152e-08
5.77887e-06
3.32147e-08
5.78167e-06
3.15482e-08
5.78435e-06
2.98495e-08
5.78693e-06
2.81357e-08
5.78941e-06
2.64148e-08
5.79179e-06
2.46864e-08
2.29679e-08
5.79407e-06
6.99914e-06
6.00539e-09
7.00187e-06
1.67221e-08
7.00564e-06
2.46329e-08
7.00981e-06
2.96573e-08
7.01413e-06
3.26087e-08
7.01849e-06
3.41665e-08
7.02276e-06
3.46719e-08
7.02689e-06
3.43996e-08
7.03085e-06
3.36133e-08
7.03464e-06
3.25032e-08
7.03827e-06
3.11867e-08
7.04174e-06
2.97403e-08
7.04507e-06
2.82179e-08
7.04827e-06
2.66533e-08
7.05134e-06
2.50672e-08
7.05428e-06
2.34714e-08
7.0571e-06
2.18704e-08
2.02884e-08
7.05978e-06
8.53188e-06
4.9717e-09
8.53474e-06
1.38644e-08
8.53877e-06
2.05995e-08
8.54337e-06
2.50564e-08
8.54823e-06
2.77501e-08
8.55319e-06
2.92105e-08
8.55811e-06
2.97505e-08
8.56291e-06
2.96011e-08
8.56754e-06
2.89755e-08
8.57201e-06
2.80385e-08
8.5763e-06
2.68978e-08
8.58041e-06
2.56251e-08
8.58436e-06
2.42704e-08
8.58814e-06
2.28679e-08
8.59177e-06
2.144e-08
8.59524e-06
2.0002e-08
8.59855e-06
1.85621e-08
1.71482e-08
8.60169e-06
1.04003e-05
3.89744e-09
1.04033e-05
1.09032e-08
1.04075e-05
1.63206e-08
1.04126e-05
2.00327e-08
1.0418e-05
2.23396e-08
1.04236e-05
2.36191e-08
1.04292e-05
2.41312e-08
1.04347e-05
2.40636e-08
1.04401e-05
2.35805e-08
1.04453e-05
2.28152e-08
1.04504e-05
2.18607e-08
1.04552e-05
2.07807e-08
1.04599e-05
1.96199e-08
1.04643e-05
1.8411e-08
1.04686e-05
1.71764e-08
1.04727e-05
1.59332e-08
1.04765e-05
1.46914e-08
1.34799e-08
1.04802e-05
1.26779e-05
2.78761e-09
1.2681e-05
7.83331e-09
1.26855e-05
1.17952e-08
1.26909e-05
1.45808e-08
1.26969e-05
1.63506e-08
1.27032e-05
1.73441e-08
1.27096e-05
1.77511e-08
1.27159e-05
1.7711e-08
1.27222e-05
1.73414e-08
1.27283e-05
1.67397e-08
1.27341e-05
1.59789e-08
1.27398e-05
1.51103e-08
1.27453e-05
1.41715e-08
1.27505e-05
1.319e-08
1.27555e-05
1.21868e-08
1.27602e-05
1.11779e-08
1.27647e-05
1.01735e-08
9.20071e-09
1.2769e-05
1.54543e-05
1.63153e-09
1.54576e-05
4.60909e-09
1.54624e-05
6.96611e-09
1.54683e-05
8.6416e-09
1.5475e-05
9.70992e-09
1.5482e-05
1.02966e-08
1.54893e-05
1.05109e-08
1.54965e-05
1.04371e-08
1.55037e-05
1.01455e-08
1.55108e-05
9.69598e-09
1.55176e-05
9.13532e-09
1.55242e-05
8.49825e-09
1.55306e-05
7.81094e-09
1.55367e-05
7.09361e-09
1.55425e-05
6.36203e-09
1.55481e-05
5.62917e-09
1.55533e-05
4.90306e-09
4.20703e-09
1.55583e-05
1.88389e-05
3.89249e-10
1.88424e-05
1.10634e-09
1.88477e-05
1.66013e-09
1.88543e-05
2.02485e-09
1.88618e-05
2.22082e-09
1.88698e-05
2.27613e-09
1.88781e-05
2.21265e-09
1.88865e-05
2.05021e-09
1.88948e-05
1.80905e-09
1.8903e-05
1.5076e-09
1.8911e-05
1.16128e-09
1.89187e-05
7.82913e-10
1.89261e-05
3.83502e-10
1.89333e-05
-2.75255e-11
1.89401e-05
-4.42134e-10
1.89465e-05
-8.53023e-10
1.89527e-05
-1.25593e-09
-1.63316e-09
1.89585e-05
2.29648e-05
-1.04036e-09
2.29688e-05
-2.96377e-09
2.2975e-05
-4.54176e-09
2.29828e-05
-5.74523e-09
2.29916e-05
-6.59411e-09
2.30011e-05
-7.17447e-09
2.30109e-05
-7.57362e-09
2.30208e-05
-7.84609e-09
2.30306e-05
-8.02852e-09
2.30403e-05
-8.15202e-09
2.30497e-05
-8.24029e-09
2.30587e-05
-8.30769e-09
2.30675e-05
-8.36215e-09
2.30759e-05
-8.40785e-09
2.30839e-05
-8.44691e-09
2.30915e-05
-8.47934e-09
2.30987e-05
-8.50587e-09
-8.51558e-09
2.31056e-05
1.68118e-05
-2.16253e-09
1.6815e-05
-6.13289e-09
1.68198e-05
-9.36932e-09
1.68258e-05
-1.17395e-08
1.68325e-05
-1.33021e-08
1.68396e-05
-1.42844e-08
1.68469e-05
-1.48744e-08
1.68543e-05
-1.51754e-08
1.68615e-05
-1.52665e-08
1.68686e-05
-1.52195e-08
1.68754e-05
-1.50873e-08
1.6882e-05
-1.49026e-08
1.68883e-05
-1.46862e-08
1.68944e-05
-1.44519e-08
1.69001e-05
-1.42083e-08
1.69056e-05
-1.39602e-08
1.69108e-05
-1.37108e-08
-1.34535e-08
1.69158e-05
1.46356e-05
-3.24031e-09
1.46387e-05
-9.21815e-09
1.46434e-05
-1.40813e-08
1.46492e-05
-1.74803e-08
1.46555e-05
-1.95854e-08
1.4662e-05
-2.08462e-08
1.46687e-05
-2.15328e-08
1.46753e-05
-2.17811e-08
1.46817e-05
-2.17222e-08
1.4688e-05
-2.14725e-08
1.4694e-05
-2.11075e-08
1.46998e-05
-2.06719e-08
1.47053e-05
-2.01959e-08
1.47105e-05
-1.97007e-08
1.47155e-05
-1.91995e-08
1.47203e-05
-1.86998e-08
1.47248e-05
-1.82066e-08
-1.77157e-08
1.4729e-05
1.27411e-05
-4.24957e-09
1.27443e-05
-1.23442e-08
1.27491e-05
-1.89098e-08
1.27547e-05
-2.31236e-08
1.27607e-05
-2.55629e-08
1.27669e-05
-2.70011e-08
1.2773e-05
-2.77011e-08
1.27791e-05
-2.78122e-08
1.27849e-05
-2.75415e-08
1.27905e-05
-2.70543e-08
1.27958e-05
-2.64401e-08
1.28009e-05
-2.57504e-08
1.28057e-05
-2.50224e-08
1.28103e-05
-2.42816e-08
1.28146e-05
-2.35436e-08
1.28187e-05
-2.28166e-08
1.28226e-05
-2.21056e-08
-2.14075e-08
1.28263e-05
1.10918e-05
-5.09283e-09
1.1095e-05
-1.55645e-08
1.11001e-05
-2.40336e-08
1.11057e-05
-2.87456e-08
1.11115e-05
-3.12952e-08
1.11173e-05
-3.28113e-08
1.1123e-05
-3.34253e-08
1.11285e-05
-3.33194e-08
1.11338e-05
-3.27959e-08
1.11388e-05
-3.20523e-08
1.11435e-05
-3.11802e-08
1.1148e-05
-3.02364e-08
1.11522e-05
-2.9264e-08
1.11562e-05
-2.82914e-08
1.116e-05
-2.73341e-08
1.11636e-05
-2.64001e-08
1.1167e-05
-2.54934e-08
-2.46117e-08
1.11702e-05
9.65582e-06
-5.69943e-09
9.65924e-06
-1.8987e-08
9.66459e-06
-2.93769e-08
9.67008e-06
-3.42396e-08
9.67564e-06
-3.68501e-08
9.68119e-06
-3.83665e-08
9.68652e-06
-3.87534e-08
9.69154e-06
-3.8342e-08
9.69628e-06
-3.75351e-08
9.70075e-06
-3.65268e-08
9.70497e-06
-3.5396e-08
9.70893e-06
-3.42021e-08
9.71266e-06
-3.29928e-08
9.71617e-06
-3.17975e-08
9.71947e-06
-3.06315e-08
9.72257e-06
-2.95016e-08
9.72548e-06
-2.84103e-08
-2.73534e-08
9.72823e-06
8.40532e-06
-5.66943e-09
8.40964e-06
-2.33002e-08
8.41487e-06
-3.46097e-08
8.41989e-06
-3.92645e-08
8.42526e-06
-4.22124e-08
8.43066e-06
-4.37703e-08
8.43574e-06
-4.38343e-08
8.44044e-06
-4.30429e-08
8.4448e-06
-4.18987e-08
8.44886e-06
-4.05779e-08
8.45261e-06
-3.91502e-08
8.45608e-06
-3.76777e-08
8.4593e-06
-3.62103e-08
8.46228e-06
-3.47756e-08
8.46504e-06
-3.33887e-08
8.46759e-06
-3.20559e-08
8.46996e-06
-3.07791e-08
-2.95547e-08
8.47216e-06
7.31455e-06
-2.93104e-09
7.32119e-06
-2.99419e-08
7.32674e-06
-4.01587e-08
7.33169e-06
-4.42132e-08
7.33708e-06
-4.76067e-08
7.3424e-06
-4.90871e-08
7.34727e-06
-4.87077e-08
7.35168e-06
-4.74509e-08
7.35565e-06
-4.58715e-08
7.3592e-06
-4.41282e-08
7.36235e-06
-4.23012e-08
7.36514e-06
-4.04633e-08
7.36759e-06
-3.86671e-08
7.36976e-06
-3.69368e-08
7.37165e-06
-3.52877e-08
7.37332e-06
-3.37223e-08
7.37478e-06
-3.22412e-08
-3.08349e-08
7.37606e-06
6.36245e-06
4.68545e-09
6.37189e-06
-3.93823e-08
6.37932e-06
-4.7584e-08
6.38595e-06
-5.08517e-08
6.39223e-06
-5.38859e-08
6.39754e-06
-5.43966e-08
6.40183e-06
-5.29985e-08
6.40531e-06
-5.09273e-08
6.4081e-06
-4.86668e-08
6.41028e-06
-4.63084e-08
6.41191e-06
-4.39289e-08
6.41305e-06
-4.16057e-08
6.41378e-06
-3.93894e-08
6.41414e-06
-3.72982e-08
6.4142e-06
-3.53461e-08
6.414e-06
-3.35289e-08
6.41361e-06
-3.18478e-08
-3.02827e-08
6.41306e-06
5.5412e-06
8.94823e-09
5.55032e-06
-4.8504e-08
5.55834e-06
-5.56006e-08
5.56604e-06
-5.85515e-08
5.5725e-06
-6.03449e-08
5.57682e-06
-5.87185e-08
5.57906e-06
-5.52368e-08
5.57962e-06
-5.14831e-08
5.57886e-06
-4.79096e-08
5.57707e-06
-4.45194e-08
5.57447e-06
-4.13314e-08
5.57125e-06
-3.83882e-08
5.56756e-06
-3.56981e-08
5.56352e-06
-3.32528e-08
5.55922e-06
-3.10493e-08
5.55476e-06
-2.90707e-08
5.55023e-06
-2.73187e-08
-2.57441e-08
5.54569e-06
4.86004e-06
-2.34878e-08
4.86538e-06
-5.38452e-08
4.86524e-06
-5.54538e-08
4.86217e-06
-5.54803e-08
4.85699e-06
-5.51725e-08
4.84949e-06
-5.12156e-08
4.83979e-06
-4.55377e-08
4.8284e-06
-4.00866e-08
4.81582e-06
-3.53326e-08
4.80254e-06
-3.12372e-08
4.78893e-06
-2.77293e-08
4.77529e-06
-2.47463e-08
4.7618e-06
-2.22102e-08
4.7486e-06
-2.00499e-08
4.73577e-06
-1.82192e-08
4.72339e-06
-1.6685e-08
4.71155e-06
-1.54851e-08
-1.5139e-08
4.70095e-06
4.17919e-06
4.12534e-06
4.06989e-06
4.01441e-06
3.95924e-06
3.90802e-06
3.86248e-06
3.8224e-06
3.78706e-06
3.75583e-06
3.7281e-06
3.70335e-06
3.68114e-06
3.66109e-06
3.64287e-06
3.62619e-06
3.6107e-06
3.59556e-06
1.24875e-08
-1.24616e-08
2.62827e-08
-1.37568e-08
3.51321e-08
-8.81728e-09
3.79762e-08
-2.81187e-09
3.5103e-08
2.89981e-09
2.74804e-08
7.65439e-09
1.62268e-08
1.12749e-08
2.35882e-09
1.38985e-08
-1.34508e-08
1.58252e-08
-3.07253e-08
1.72992e-08
-4.91802e-08
1.8464e-08
-6.86157e-08
1.94531e-08
-8.89522e-08
2.03406e-08
-1.10107e-07
2.11642e-08
-1.32047e-07
2.19395e-08
-1.54718e-07
2.26731e-08
-1.78089e-07
2.33667e-08
-2.02109e-07
2.40206e-08
-2.26746e-07
2.4634e-08
-2.51942e-07
2.52044e-08
-2.7767e-07
2.57273e-08
-3.03844e-07
2.61957e-08
-3.30441e-07
2.65971e-08
-3.57335e-07
2.69214e-08
-3.84503e-07
2.71657e-08
-4.11844e-07
2.7359e-08
-4.39494e-07
2.76319e-08
-4.67957e-07
2.84535e-08
-4.98709e-07
3.07164e-08
-5.34432e-07
3.56776e-08
-5.67446e-07
3.29558e-08
-5.95817e-07
2.8296e-08
-6.30324e-07
3.44525e-08
-6.69626e-07
3.92343e-08
-7.12715e-07
4.30573e-08
-7.5498e-07
4.22184e-08
-7.95411e-07
4.04189e-08
-8.40089e-07
4.46525e-08
-8.88127e-07
4.80391e-08
-9.34238e-07
4.61011e-08
-9.75436e-07
4.1205e-08
-1.01585e-06
4.04144e-08
-1.05871e-06
4.28658e-08
-1.10189e-06
4.31786e-08
-1.14524e-06
4.33626e-08
-1.18871e-06
4.34705e-08
-1.23222e-06
4.35115e-08
-1.27569e-06
4.34758e-08
-1.31908e-06
4.33815e-08
-1.36232e-06
4.3241e-08
-1.40538e-06
4.30669e-08
-1.44825e-06
4.2867e-08
-1.4909e-06
4.26457e-08
-1.53331e-06
4.2406e-08
-1.57546e-06
4.21484e-08
-1.61734e-06
4.18731e-08
-1.65893e-06
4.1579e-08
-1.7002e-06
4.12652e-08
-1.74113e-06
4.09294e-08
-1.78171e-06
4.05704e-08
-1.8219e-06
4.01856e-08
-1.86168e-06
3.97736e-08
-1.90102e-06
3.93319e-08
-1.93989e-06
3.8859e-08
-1.97825e-06
3.83526e-08
-2.01606e-06
3.78113e-08
-2.0533e-06
3.72331e-08
-2.08993e-06
3.66171e-08
-2.12589e-06
3.59616e-08
-2.16117e-06
3.52658e-08
-2.1957e-06
3.45284e-08
-2.22946e-06
3.3749e-08
-2.26239e-06
3.29264e-08
-2.29445e-06
3.20608e-08
-2.32561e-06
3.11511e-08
-2.35582e-06
3.01979e-08
-2.38503e-06
2.92007e-08
-2.4132e-06
2.81604e-08
-2.44028e-06
2.70768e-08
-2.46624e-06
2.59505e-08
-2.49103e-06
2.47817e-08
-2.51461e-06
2.35712e-08
-2.53694e-06
2.23191e-08
-2.55798e-06
2.10266e-08
-2.57768e-06
1.96939e-08
-2.59601e-06
1.8322e-08
-2.61293e-06
1.69104e-08
-2.6284e-06
1.54586e-08
-2.64238e-06
1.39644e-08
-2.65481e-06
1.24231e-08
-2.66566e-06
1.08305e-08
-2.67486e-06
9.17959e-09
-2.68234e-06
7.4634e-09
-2.68803e-06
5.66952e-09
-2.69184e-06
3.78198e-09
-2.69366e-06
1.79953e-09
-2.69349e-06
-1.90434e-10
-2.69152e-06
-1.98589e-09
-2.68795e-06
-3.59191e-09
-2.68282e-06
-5.15576e-09
-2.67613e-06
-6.70359e-09
-2.6679e-06
-8.24932e-09
-2.65812e-06
-9.79412e-09
-2.64679e-06
-1.13374e-08
-2.63392e-06
-1.28778e-08
-2.61952e-06
-1.44131e-08
-2.60359e-06
-1.59422e-08
-2.58613e-06
-1.74625e-08
-2.56717e-06
-1.8973e-08
-2.54671e-06
-2.04713e-08
-2.52477e-06
-2.19566e-08
-2.50136e-06
-2.34265e-08
-2.4765e-06
-2.48801e-08
-2.45021e-06
-2.63157e-08
-2.42249e-06
-2.77324e-08
-2.39339e-06
-2.91287e-08
-2.36291e-06
-3.05028e-08
-2.33109e-06
-3.18534e-08
-2.29793e-06
-3.31798e-08
-2.26348e-06
-3.4483e-08
-2.22776e-06
-3.57631e-08
-2.19078e-06
-3.70198e-08
-2.15259e-06
-3.8249e-08
-2.1132e-06
-3.94505e-08
-2.07263e-06
-4.06202e-08
-2.03093e-06
-4.17621e-08
-1.9881e-06
-4.28743e-08
-1.94419e-06
-4.39623e-08
-1.89922e-06
-4.50128e-08
-1.85322e-06
-4.60363e-08
-1.80621e-06
-4.70361e-08
-1.75822e-06
-4.80079e-08
-1.70928e-06
-4.89373e-08
-1.65943e-06
-4.98357e-08
-1.6087e-06
-5.06978e-08
-1.55712e-06
-5.15332e-08
-1.5047e-06
-5.23339e-08
-1.4515e-06
-5.31059e-08
-1.39751e-06
-5.38418e-08
-1.3428e-06
-5.45491e-08
-1.2874e-06
-5.52291e-08
-1.23133e-06
-5.58848e-08
-1.17464e-06
-5.65188e-08
-1.11733e-06
-5.71288e-08
-1.05945e-06
-5.77157e-08
-1.00101e-06
-5.82768e-08
-9.42035e-07
-5.88144e-08
-8.82554e-07
-5.93266e-08
-8.22594e-07
-5.98162e-08
-7.62174e-07
-6.02815e-08
-7.01321e-07
-6.07257e-08
-6.40053e-07
-6.11467e-08
-5.78395e-07
-6.15478e-08
-5.16366e-07
-6.19265e-08
-4.53989e-07
-6.22858e-08
-3.91281e-07
-6.2625e-08
-3.28263e-07
-6.29484e-08
-2.64951e-07
-6.32512e-08
-2.01372e-07
-6.35323e-08
-1.37559e-07
-6.37755e-08
-7.35629e-08
-6.39727e-08
-9.48928e-09
-6.40604e-08
5.481e-08
-6.42993e-08
1.19389e-07
-6.45895e-08
1.84026e-07
-6.46574e-08
2.48648e-07
-6.46525e-08
3.13198e-07
-6.45889e-08
3.77607e-07
-6.44549e-08
4.41792e-07
-6.42394e-08
5.05657e-07
-6.39254e-08
5.69087e-07
-6.3495e-08
6.3193e-07
-6.29151e-08
6.93994e-07
-6.21397e-08
7.54995e-07
-6.10838e-08
8.14497e-07
-5.95904e-08
8.71738e-07
-5.73352e-08
9.25166e-07
-5.35245e-08
9.71304e-07
-4.62343e-08
1.00019e-06
-2.89707e-08
2.18336e-08
9.78292e-07
8.71973e-09
-2.11628e-08
1.0645e-08
-1.56596e-08
7.70987e-09
-5.86597e-09
1.56886e-09
3.34425e-09
-7.17635e-09
1.16574e-08
-1.83883e-08
1.88802e-08
-3.20123e-08
2.49095e-08
-4.78928e-08
2.97919e-08
-6.57599e-08
3.37005e-08
-8.53097e-08
3.68603e-08
-1.06324e-07
3.94842e-08
-1.28608e-07
4.17458e-08
-1.52033e-07
4.37689e-08
-1.76498e-07
4.56345e-08
-2.01951e-07
4.73934e-08
-2.28354e-07
4.90771e-08
-2.55696e-07
5.07073e-08
-2.83977e-07
5.23015e-08
-3.13221e-07
5.38758e-08
-3.43459e-07
5.54467e-08
-3.74764e-07
5.70316e-08
-4.07209e-07
5.86513e-08
-4.40944e-07
6.03336e-08
-4.76128e-07
6.21204e-08
-5.1303e-07
6.4067e-08
-5.51908e-07
6.62444e-08
-5.93012e-07
6.87257e-08
-6.36148e-07
7.15782e-08
-6.80185e-07
7.47286e-08
-7.22125e-07
7.75847e-08
-7.67501e-07
7.82948e-08
-8.1743e-07
7.8182e-08
-8.63184e-07
8.0173e-08
-9.06253e-07
8.2268e-08
-9.47017e-07
8.38002e-08
-9.89091e-07
8.42695e-08
-1.03329e-06
8.46057e-08
-1.0748e-06
8.61506e-08
-1.11406e-06
8.73035e-08
-1.15457e-06
8.66047e-08
-1.1983e-06
8.49377e-08
-1.24208e-06
8.41968e-08
-1.28352e-06
8.4305e-08
-1.32444e-06
8.4103e-08
-1.36485e-06
8.37755e-08
-1.40478e-06
8.34023e-08
-1.44426e-06
8.2997e-08
-1.48335e-06
8.25597e-08
-1.52206e-06
8.20898e-08
-1.5604e-06
8.15886e-08
-1.5984e-06
8.10586e-08
-1.63603e-06
8.05017e-08
-1.6733e-06
7.99181e-08
-1.71021e-06
7.93075e-08
-1.74673e-06
7.86679e-08
-1.78286e-06
7.7997e-08
-1.81857e-06
7.72917e-08
-1.85386e-06
7.65487e-08
-1.8887e-06
7.57643e-08
-1.92307e-06
7.4935e-08
-1.95694e-06
7.40569e-08
-1.9903e-06
7.31265e-08
-2.02311e-06
7.21403e-08
-2.05536e-06
7.10951e-08
-2.08699e-06
6.99877e-08
-2.118e-06
6.88153e-08
-2.14835e-06
6.75753e-08
-2.178e-06
6.62655e-08
-2.20693e-06
6.48838e-08
-2.23509e-06
6.34287e-08
-2.26247e-06
6.18985e-08
-2.28902e-06
6.02923e-08
-2.3147e-06
5.86089e-08
-2.33949e-06
5.6848e-08
-2.36336e-06
5.5009e-08
-2.38626e-06
5.30922e-08
-2.40816e-06
5.10977e-08
-2.42903e-06
4.90262e-08
-2.44884e-06
4.68782e-08
-2.46755e-06
4.46546e-08
-2.48513e-06
4.23564e-08
-2.50155e-06
3.9985e-08
-2.51678e-06
3.75414e-08
-2.53078e-06
3.50273e-08
-2.54354e-06
3.24438e-08
-2.55502e-06
2.97928e-08
-2.56519e-06
2.70753e-08
-2.57403e-06
2.42926e-08
-2.58152e-06
2.14453e-08
-2.58764e-06
1.85342e-08
-2.59238e-06
1.55596e-08
-2.59573e-06
1.25243e-08
-2.59772e-06
9.43339e-09
-2.59836e-06
6.29515e-09
-2.59772e-06
3.12814e-09
-2.5959e-06
-2.90102e-11
-2.59298e-06
-3.12731e-09
-2.5888e-06
-6.17939e-09
-2.58317e-06
-9.22853e-09
-2.57606e-06
-1.22813e-08
-2.56744e-06
-1.53366e-08
-2.5573e-06
-1.83958e-08
-2.54565e-06
-2.14564e-08
-2.53248e-06
-2.45152e-08
-2.51779e-06
-2.75688e-08
-2.5016e-06
-3.0613e-08
-2.4839e-06
-3.36444e-08
-2.46471e-06
-3.66592e-08
-2.44404e-06
-3.96541e-08
-2.42189e-06
-4.26256e-08
-2.39829e-06
-4.55706e-08
-2.37324e-06
-4.84858e-08
-2.34676e-06
-5.13687e-08
-2.31887e-06
-5.42163e-08
-2.28959e-06
-5.70266e-08
-2.25894e-06
-5.97967e-08
-2.22693e-06
-6.25243e-08
-2.1936e-06
-6.52064e-08
-2.15895e-06
-6.78425e-08
-2.12302e-06
-7.04324e-08
-2.08583e-06
-7.29762e-08
-2.04741e-06
-7.54718e-08
-2.00778e-06
-7.79158e-08
-1.96696e-06
-8.03046e-08
-1.92498e-06
-8.26355e-08
-1.88187e-06
-8.49094e-08
-1.83765e-06
-8.71269e-08
-1.79235e-06
-8.92908e-08
-1.74599e-06
-9.13958e-08
-1.6986e-06
-9.34462e-08
-1.65021e-06
-9.54453e-08
-1.60084e-06
-9.73867e-08
-1.55052e-06
-9.92559e-08
-1.49929e-06
-1.0106e-07
-1.44717e-06
-1.02801e-07
-1.39419e-06
-1.04483e-07
-1.34037e-06
-1.06105e-07
-1.28575e-06
-1.07664e-07
-1.23035e-06
-1.09161e-07
-1.17421e-06
-1.10599e-07
-1.11736e-06
-1.11983e-07
-1.05983e-06
-1.13317e-07
-1.00165e-06
-1.14605e-07
-9.42838e-07
-1.15845e-07
-8.83426e-07
-1.17038e-07
-8.23435e-07
-1.18181e-07
-7.62889e-07
-1.19277e-07
-7.01812e-07
-1.20325e-07
-6.40226e-07
-1.21327e-07
-5.78154e-07
-1.22283e-07
-5.15617e-07
-1.23198e-07
-4.52635e-07
-1.24068e-07
-3.89229e-07
-1.24898e-07
-3.25418e-07
-1.25687e-07
-2.61223e-07
-1.26436e-07
-1.96665e-07
-1.27145e-07
-1.31767e-07
-1.27813e-07
-6.65554e-08
-1.28437e-07
-1.05356e-09
-1.29013e-07
6.47246e-08
-1.29541e-07
1.30751e-07
-1.2999e-07
1.97022e-07
-1.30332e-07
2.63337e-07
-1.30618e-07
3.29535e-07
-1.30798e-07
3.95661e-07
-1.30797e-07
4.61659e-07
-1.30672e-07
5.27468e-07
-1.30422e-07
5.93014e-07
-1.30032e-07
6.58217e-07
-1.29476e-07
7.22983e-07
-1.28731e-07
7.872e-07
-1.27754e-07
8.50728e-07
-1.26491e-07
9.1338e-07
-1.24842e-07
9.74891e-07
-1.22652e-07
1.03485e-06
-1.19609e-07
1.09259e-06
-1.15137e-07
1.14686e-06
-1.07865e-07
1.19571e-06
-9.51469e-08
1.23573e-06
-6.9056e-08
-9.2834e-09
1.26679e-06
-1.09733e-09
-2.00543e-08
-8.47825e-09
-8.26595e-09
-1.8381e-08
4.04535e-09
-2.98752e-08
1.48458e-08
-4.26892e-08
2.44778e-08
-5.6829e-08
3.30272e-08
-7.2412e-08
4.04977e-08
-8.95336e-08
4.69207e-08
-1.08224e-07
5.2395e-08
-1.28429e-07
5.70726e-08
-1.50066e-07
6.11247e-08
-1.73027e-07
6.4712e-08
-1.97224e-07
6.7968e-08
-2.2258e-07
7.09942e-08
-2.49051e-07
7.38643e-08
-2.76603e-07
7.66308e-08
-3.05231e-07
7.93327e-08
-3.3493e-07
8.20006e-08
-3.65719e-07
8.46618e-08
-3.97612e-07
8.73419e-08
-4.30649e-07
9.00667e-08
-4.64856e-07
9.28629e-08
-5.00281e-07
9.57581e-08
-5.36932e-07
9.87782e-08
-5.74804e-07
1.01937e-07
-6.1378e-07
1.05222e-07
-6.53633e-07
1.08572e-07
-6.93921e-07
1.11858e-07
-7.34066e-07
1.14858e-07
-7.7374e-07
1.17239e-07
-8.14166e-07
1.18701e-07
-8.55568e-07
1.19561e-07
-8.95974e-07
1.2056e-07
-9.3522e-07
1.21494e-07
-9.73603e-07
1.22171e-07
-1.01185e-06
1.22506e-07
-1.04998e-06
1.2273e-07
-1.08694e-06
1.23104e-07
-1.12282e-06
1.2318e-07
-1.15884e-06
1.2262e-07
-1.19562e-06
1.21728e-07
-1.23244e-06
1.21012e-07
-1.26858e-06
1.20451e-07
-1.30429e-06
1.19816e-07
-1.33966e-06
1.1914e-07
-1.3747e-06
1.18448e-07
-1.40945e-06
1.17743e-07
-1.44391e-06
1.17024e-07
-1.47811e-06
1.16287e-07
-1.51204e-06
1.15526e-07
-1.54573e-06
1.1474e-07
-1.57915e-06
1.13924e-07
-1.61231e-06
1.13074e-07
-1.64519e-06
1.12188e-07
-1.67778e-06
1.1126e-07
-1.71007e-06
1.10287e-07
-1.74205e-06
1.09261e-07
-1.77368e-06
1.0818e-07
-1.80495e-06
1.07036e-07
-1.83585e-06
1.05825e-07
-1.86634e-06
1.04542e-07
-1.8964e-06
1.03182e-07
-1.926e-06
1.0174e-07
-1.95512e-06
1.0021e-07
-1.98372e-06
9.85903e-08
-2.01178e-06
9.68755e-08
-2.03927e-06
9.50623e-08
-2.06616e-06
9.31479e-08
-2.09241e-06
9.11292e-08
-2.11799e-06
8.90041e-08
-2.14286e-06
8.67705e-08
-2.167e-06
8.44269e-08
-2.19036e-06
8.1972e-08
-2.21292e-06
7.94052e-08
-2.23464e-06
7.67259e-08
-2.25549e-06
7.39342e-08
-2.27543e-06
7.10306e-08
-2.29442e-06
6.80157e-08
-2.31244e-06
6.48907e-08
-2.32944e-06
6.1657e-08
-2.3454e-06
5.8316e-08
-2.36029e-06
5.487e-08
-2.37408e-06
5.1321e-08
-2.38673e-06
4.76716e-08
-2.39821e-06
4.39245e-08
-2.4085e-06
4.00826e-08
-2.41758e-06
3.61493e-08
-2.42542e-06
3.2128e-08
-2.43201e-06
2.80229e-08
-2.43732e-06
2.38382e-08
-2.44134e-06
1.95798e-08
-2.44408e-06
1.52556e-08
-2.44553e-06
1.08758e-08
-2.4457e-06
6.45491e-09
-2.4446e-06
2.0109e-09
-2.4422e-06
-2.43354e-09
-2.43847e-06
-6.86868e-09
-2.43334e-06
-1.13142e-08
-2.42679e-06
-1.57873e-08
-2.4188e-06
-2.02825e-08
-2.40934e-06
-2.4794e-08
-2.39843e-06
-2.93162e-08
-2.38605e-06
-3.38432e-08
-2.3722e-06
-3.83691e-08
-2.35688e-06
-4.28878e-08
-2.3401e-06
-4.73937e-08
-2.32187e-06
-5.1881e-08
-2.30219e-06
-5.63443e-08
-2.28107e-06
-6.07783e-08
-2.25852e-06
-6.51782e-08
-2.23456e-06
-6.9539e-08
-2.2092e-06
-7.38563e-08
-2.18245e-06
-7.8126e-08
-2.15433e-06
-8.23443e-08
-2.12486e-06
-8.65075e-08
-2.09405e-06
-9.06123e-08
-2.06193e-06
-9.4655e-08
-2.02852e-06
-9.86327e-08
-1.99383e-06
-1.02544e-07
-1.95789e-06
-1.06387e-07
-1.92072e-06
-1.10161e-07
-1.88235e-06
-1.13864e-07
-1.8428e-06
-1.17492e-07
-1.80209e-06
-1.2104e-07
-1.76024e-06
-1.24506e-07
-1.71728e-06
-1.27889e-07
-1.67325e-06
-1.3119e-07
-1.62814e-06
-1.34411e-07
-1.58201e-06
-1.37552e-07
-1.53486e-06
-1.40611e-07
-1.48672e-06
-1.43593e-07
-1.43763e-06
-1.46489e-07
-1.3876e-06
-1.49288e-07
-1.33666e-06
-1.51993e-07
-1.28484e-06
-1.54607e-07
-1.23217e-06
-1.57133e-07
-1.17868e-06
-1.59571e-07
-1.12438e-06
-1.61918e-07
-1.06931e-06
-1.64176e-07
-1.0135e-06
-1.66349e-07
-9.56987e-07
-1.68442e-07
-8.99791e-07
-1.7046e-07
-8.4194e-07
-1.72405e-07
-7.83461e-07
-1.74279e-07
-7.24376e-07
-1.7608e-07
-6.64711e-07
-1.77807e-07
-6.04488e-07
-1.79463e-07
-5.43732e-07
-1.81047e-07
-4.82466e-07
-1.82563e-07
-4.20711e-07
-1.8401e-07
-3.58492e-07
-1.85392e-07
-2.95828e-07
-1.8671e-07
-2.32742e-07
-1.87964e-07
-1.69256e-07
-1.89156e-07
-1.05393e-07
-1.90284e-07
-4.11753e-08
-1.91349e-07
2.33708e-08
-1.92349e-07
8.82166e-08
-1.93274e-07
1.53325e-07
-1.94114e-07
2.18648e-07
-1.94859e-07
2.8414e-07
-1.95479e-07
3.49765e-07
-1.95955e-07
4.15428e-07
-1.96281e-07
4.81042e-07
-1.96413e-07
5.46565e-07
-1.96323e-07
6.11928e-07
-1.96038e-07
6.77055e-07
-1.95553e-07
7.41869e-07
-1.9485e-07
8.06285e-07
-1.93897e-07
8.7021e-07
-1.92661e-07
9.33535e-07
-1.91085e-07
9.96125e-07
-1.89087e-07
1.0578e-06
-1.8653e-07
1.11833e-06
-1.83187e-07
1.17735e-06
-1.7864e-07
1.23432e-06
-1.72118e-07
1.28845e-06
-1.62006e-07
1.33866e-06
-1.45363e-07
1.38462e-06
-1.15024e-07
-5.60217e-08
1.43136e-06
-9.40964e-09
-1.06372e-08
-2.2795e-08
5.12647e-09
-3.73405e-08
1.85954e-08
-5.25767e-08
3.00865e-08
-6.84574e-08
4.03617e-08
-8.50703e-08
4.96442e-08
-1.02566e-07
5.79961e-08
-1.21093e-07
6.54517e-08
-1.40768e-07
7.20726e-08
-1.61649e-07
7.79571e-08
-1.8375e-07
8.32273e-08
-2.07045e-07
8.80108e-08
-2.31501e-07
9.24253e-08
-2.57074e-07
9.65696e-08
-2.83732e-07
1.00522e-07
-3.11442e-07
1.04342e-07
-3.40184e-07
1.08073e-07
-3.69933e-07
1.11748e-07
-4.00668e-07
1.15393e-07
-4.32353e-07
1.19027e-07
-4.64954e-07
1.22664e-07
-4.98403e-07
1.26314e-07
-5.32627e-07
1.29979e-07
-5.67495e-07
1.33649e-07
-6.02857e-07
1.37295e-07
-6.38494e-07
1.40859e-07
-6.74177e-07
1.44249e-07
-7.09665e-07
1.4734e-07
-7.44806e-07
1.49989e-07
-7.79639e-07
1.5206e-07
-8.14455e-07
1.53504e-07
-8.49351e-07
1.54442e-07
-8.83929e-07
1.55128e-07
-9.18064e-07
1.55617e-07
-9.51805e-07
1.55903e-07
-9.85295e-07
1.55989e-07
-1.0185e-06
1.55932e-07
-1.05119e-06
1.55788e-07
-1.08344e-06
1.55433e-07
-1.11561e-06
1.54786e-07
-1.14785e-06
1.53964e-07
-1.17997e-06
1.53141e-07
-1.21187e-06
1.52348e-07
-1.24358e-06
1.51532e-07
-1.27514e-06
1.50693e-07
-1.30652e-06
1.49837e-07
-1.33775e-06
1.48966e-07
-1.3688e-06
1.48078e-07
-1.39968e-06
1.47171e-07
-1.4304e-06
1.46238e-07
-1.46093e-06
1.45273e-07
-1.49128e-06
1.44272e-07
-1.52143e-06
1.43228e-07
-1.55138e-06
1.42134e-07
-1.5811e-06
1.40984e-07
-1.61059e-06
1.39771e-07
-1.63982e-06
1.38489e-07
-1.66877e-06
1.3713e-07
-1.69742e-06
1.35687e-07
-1.72576e-06
1.34155e-07
-1.75374e-06
1.32525e-07
-1.78135e-06
1.30793e-07
-1.80857e-06
1.28951e-07
-1.83535e-06
1.26995e-07
-1.86168e-06
1.24918e-07
-1.88753e-06
1.22717e-07
-1.91285e-06
1.20386e-07
-1.93763e-06
1.17922e-07
-1.96182e-06
1.15322e-07
-1.9854e-06
1.12581e-07
-2.00833e-06
1.09699e-07
-2.03058e-06
1.06673e-07
-2.05211e-06
1.03501e-07
-2.07289e-06
1.00183e-07
-2.09289e-06
9.67176e-08
-2.11206e-06
9.31056e-08
-2.13038e-06
8.93474e-08
-2.14781e-06
8.54439e-08
-2.16432e-06
8.13967e-08
-2.17987e-06
7.72076e-08
-2.19444e-06
7.28791e-08
-2.20799e-06
6.84138e-08
-2.22048e-06
6.38151e-08
-2.2319e-06
5.90866e-08
-2.24221e-06
5.42322e-08
-2.25139e-06
4.92568e-08
-2.25941e-06
4.4165e-08
-2.26625e-06
3.89629e-08
-2.27189e-06
3.36565e-08
-2.27631e-06
2.82534e-08
-2.27949e-06
2.27612e-08
-2.28143e-06
1.71904e-08
-2.28212e-06
1.15524e-08
-2.28153e-06
5.8607e-09
-2.27965e-06
1.29218e-10
-2.27646e-06
-5.63009e-09
-2.27192e-06
-1.14151e-08
-2.26601e-06
-1.7235e-08
-2.25871e-06
-2.30947e-08
-2.25e-06
-2.89878e-08
-2.2399e-06
-3.49058e-08
-2.22838e-06
-4.08401e-08
-2.21544e-06
-4.67823e-08
-2.20108e-06
-5.27241e-08
-2.18532e-06
-5.86574e-08
-2.16814e-06
-6.45746e-08
-2.14955e-06
-7.04679e-08
-2.12957e-06
-7.63302e-08
-2.1082e-06
-8.21544e-08
-2.08545e-06
-8.79341e-08
-2.06133e-06
-9.36628e-08
-2.03585e-06
-9.93351e-08
-2.00904e-06
-1.04945e-07
-1.9809e-06
-1.10488e-07
-1.95146e-06
-1.1596e-07
-1.92073e-06
-1.21355e-07
-1.88872e-06
-1.2667e-07